 Gaussian 16, Revision C.01,
 Gaussian 16:  EM64L-G16RevC.01  3-Jul-2019

 ----------------------------------------------------------------------
 #P TD(Nstates=10000) wB97XD/Gen SCF(maxcycles=100) Int(Grid=ultrafine)
 ----------------------------------------------------------------------

 ---------------------
 xGDB7_00001_tier4.com
 ---------------------
 Symbolic Z-matrix:
 Charge =  0 Multiplicity = 1

                         Standard orientation:
 ---------------------------------------------------------------------
 Center     Atomic      Atomic             Coordinates (Angstroms)
 Number     Number       Type             X           Y           Z
 ---------------------------------------------------------------------
      1          7           0        1.106441    0.142513   -0.090982
      2          7           0       -0.080753   -0.512520    0.006066
      3          6           0       -1.148696    0.167456    0.008166
      4          1           0        1.854749   -0.409916    0.291533
      5          1           0        1.109676    1.100453    0.242713
      6          1           0       -2.089851   -0.366199    0.035249
      7          1           0       -1.162209    1.260974   -0.024080
 ---------------------------------------------------------------------

 SCF Done:  E(RwB97XD) =  -149.811539311     A.U. after   14 cycles

 Excitation energies and oscillator strengths:

 Excited State   1:      Singlet-A      5.8762 eV  210.99 nm  f=0.0066  <S**2>=0.000
      11 -> 13         0.68241
      12 -> 13         0.15104
 This state for optimization and/or second-order correction.
 Total Energy, E(TD-HF/TD-DFT) =  -149.595593557
 Copying the excited state density for this state as the 1-particle RhoCI density.

 Excited State   2:      Singlet-A      6.2323 eV  198.94 nm  f=0.2076  <S**2>=0.000
      11 -> 13        -0.14656
      12 -> 13         0.67458

 Excited State   3:      Singlet-A      6.7576 eV  183.47 nm  f=0.0254  <S**2>=0.000
      12 -> 14         0.65800
      12 -> 15         0.20929

 Excited State   4:      Singlet-A      7.7999 eV  158.96 nm  f=0.0342  <S**2>=0.000
      12 -> 14        -0.18998
      12 -> 15         0.64307
      12 -> 16         0.16640

 Excited State   5:      Singlet-A      8.0934 eV  153.19 nm  f=0.0365  <S**2>=0.000
      11 -> 14         0.67857
      11 -> 15         0.10284

 Excited State   6:      Singlet-A      8.3405 eV  148.65 nm  f=0.0206  <S**2>=0.000
      12 -> 15        -0.14101
      12 -> 16         0.67205

 Excited State   7:      Singlet-A      8.9810 eV  138.05 nm  f=0.0139  <S**2>=0.000
      11 -> 14        -0.10610
      11 -> 15         0.62575
      12 -> 17         0.26301

 Excited State   8:      Singlet-A      9.0507 eV  136.99 nm  f=0.0206  <S**2>=0.000
      11 -> 15        -0.26666
      12 -> 17         0.61159
      12 -> 18         0.14786

 Excited State   9:      Singlet-A      9.5327 eV  130.06 nm  f=0.0286  <S**2>=0.000
      11 -> 16        -0.27418
      12 -> 17        -0.12404
      12 -> 18         0.59594
      12 -> 19         0.16574

 Excited State  10:      Singlet-A      9.5932 eV  129.24 nm  f=0.1340  <S**2>=0.000
      11 -> 16         0.62036
      12 -> 18         0.26181

 Excited State  11:      Singlet-A      9.7515 eV  127.14 nm  f=0.0165  <S**2>=0.000
       9 -> 13         0.55604
      10 -> 13         0.31567
      12 -> 19         0.24607

 Excited State  12:      Singlet-A      9.9407 eV  124.72 nm  f=0.0019  <S**2>=0.000
       9 -> 13        -0.22023
      10 -> 13        -0.11643
      12 -> 18        -0.16234
      12 -> 19         0.62347

 Excited State  13:      Singlet-A     10.2183 eV  121.34 nm  f=0.0546  <S**2>=0.000
      10 -> 13         0.12874
      11 -> 17         0.58207
      11 -> 18         0.29923
      12 -> 20        -0.11220

 Excited State  14:      Singlet-A     10.5176 eV  117.88 nm  f=0.0631  <S**2>=0.000
       9 -> 13        -0.32848
      10 -> 13         0.55085
      11 -> 18        -0.17229

 Excited State  15:      Singlet-A     10.6434 eV  116.49 nm  f=0.1195  <S**2>=0.000
      11 -> 17        -0.34443
      11 -> 18         0.56895
      11 -> 19         0.14927

 Excited State  16:      Singlet-A     10.8774 eV  113.98 nm  f=0.0155  <S**2>=0.000
      11 -> 18        -0.17067
      11 -> 19         0.50375
      12 -> 20        -0.44012

 Excited State  17:      Singlet-A     11.0193 eV  112.52 nm  f=0.0167  <S**2>=0.000
      11 -> 19         0.44577
      12 -> 20         0.46998
      12 -> 21        -0.18021

 Excited State  18:      Singlet-A     11.0859 eV  111.84 nm  f=0.0809  <S**2>=0.000
      12 -> 20         0.13858
      12 -> 21         0.65700

 Excited State  19:      Singlet-A     11.2637 eV  110.07 nm  f=0.0352  <S**2>=0.000
      10 -> 14         0.62983
      10 -> 15         0.19869
      12 -> 22        -0.13469

 Excited State  20:      Singlet-A     11.3973 eV  108.78 nm  f=0.0841  <S**2>=0.000
      10 -> 14         0.11546
      12 -> 22         0.66473

 Excited State  21:      Singlet-A     11.8906 eV  104.27 nm  f=0.0199  <S**2>=0.000
       9 -> 14        -0.13461
      11 -> 20         0.66106

 Excited State  22:      Singlet-A     11.9805 eV  103.49 nm  f=0.1345  <S**2>=0.000
       9 -> 14         0.62990
      10 -> 15        -0.15418
      11 -> 20         0.14447

 Excited State  23:      Singlet-A     12.0912 eV  102.54 nm  f=0.0260  <S**2>=0.000
       8 -> 13        -0.30175
      11 -> 21        -0.30059
      11 -> 22         0.10857
      12 -> 23         0.30552
      12 -> 24         0.40514

 Excited State  24:      Singlet-A     12.1471 eV  102.07 nm  f=0.0261  <S**2>=0.000
       8 -> 13         0.59195
      10 -> 15        -0.10496
      11 -> 21        -0.20372
      12 -> 24         0.18708
      12 -> 25        -0.10897

 Excited State  25:      Singlet-A     12.1794 eV  101.80 nm  f=0.0518  <S**2>=0.000
       9 -> 14        -0.10751
      11 -> 21         0.54431
      11 -> 22        -0.12531
      12 -> 24         0.36864

 Excited State  26:      Singlet-A     12.2887 eV  100.89 nm  f=0.0092  <S**2>=0.000
      11 -> 22        -0.15469
      12 -> 23         0.57768
      12 -> 24        -0.26168

 Excited State  27:      Singlet-A     12.3354 eV  100.51 nm  f=0.0047  <S**2>=0.000
       9 -> 14         0.13160
      10 -> 14        -0.17765
      10 -> 15         0.58702
      10 -> 16         0.16638
      12 -> 24         0.15974

 Excited State  28:      Singlet-A     12.5202 eV   99.03 nm  f=0.1069  <S**2>=0.000
      11 -> 20        -0.12432
      11 -> 21         0.17632
      11 -> 22         0.60507
      12 -> 24        -0.12416
      12 -> 25        -0.12137

 Excited State  29:      Singlet-A     12.6758 eV   97.81 nm  f=0.1048  <S**2>=0.000
      10 -> 16        -0.30356
      11 -> 22         0.16880
      12 -> 25         0.54529
      12 -> 26        -0.10470
      12 -> 27        -0.13401

 Excited State  30:      Singlet-A     12.7825 eV   97.00 nm  f=0.0586  <S**2>=0.000
      10 -> 16         0.42644
      12 -> 25         0.34416
      12 -> 26         0.24901
      12 -> 27         0.27356

 Excited State  31:      Singlet-A     12.9308 eV   95.88 nm  f=0.0839  <S**2>=0.000
       7 -> 13         0.10085
       7 -> 14         0.10401
       9 -> 15         0.51850
      10 -> 16        -0.25439
      12 -> 26         0.20536
      12 -> 27         0.16445

 Excited State  32:      Singlet-A     13.0542 eV   94.98 nm  f=0.1021  <S**2>=0.000
       9 -> 15        -0.37992
      10 -> 15         0.12565
      10 -> 16        -0.27658
      11 -> 23         0.11402
      12 -> 26         0.39039
      12 -> 27         0.21157

 Excited State  33:      Singlet-A     13.0773 eV   94.81 nm  f=0.0210  <S**2>=0.000
      10 -> 16         0.10506
      11 -> 23         0.65834
      11 -> 24        -0.11087

 Excited State  34:      Singlet-A     13.3308 eV   93.01 nm  f=0.0752  <S**2>=0.000
       9 -> 16        -0.10906
      10 -> 17        -0.11132
      12 -> 26        -0.42256
      12 -> 27         0.50049

 Excited State  35:      Singlet-A     13.4083 eV   92.47 nm  f=0.0155  <S**2>=0.000
       7 -> 13         0.64319
       9 -> 16        -0.10125
      11 -> 24        -0.17112

 Excited State  36:      Singlet-A     13.4659 eV   92.07 nm  f=0.0394  <S**2>=0.000
       7 -> 13         0.20146
      10 -> 17        -0.11248
      11 -> 24         0.60840

 Excited State  37:      Singlet-A     13.5825 eV   91.28 nm  f=0.0111  <S**2>=0.000
       9 -> 16        -0.22342
      10 -> 17         0.56878
      11 -> 24         0.17104
      11 -> 25         0.10846

 Excited State  38:      Singlet-A     13.6978 eV   90.51 nm  f=0.0192  <S**2>=0.000
       9 -> 16         0.58118
       9 -> 17        -0.13175
      10 -> 17         0.22685
      12 -> 27         0.13283

 Excited State  39:      Singlet-A     13.8419 eV   89.57 nm  f=0.0174  <S**2>=0.000
       9 -> 18        -0.10204
      10 -> 18        -0.10594
      11 -> 25         0.56476
      11 -> 26        -0.24779
      11 -> 27        -0.16643

 Excited State  40:      Singlet-A     14.0344 eV   88.34 nm  f=0.0585  <S**2>=0.000
      10 -> 17        -0.11323
      10 -> 18         0.59769
      10 -> 19         0.23145
      11 -> 25         0.12394

 Excited State  41:      Singlet-A     14.1169 eV   87.83 nm  f=0.0599  <S**2>=0.000
       9 -> 16         0.13656
      11 -> 25         0.28294
      11 -> 26         0.49618
      11 -> 27         0.31860

 Excited State  42:      Singlet-A     14.3170 eV   86.60 nm  f=0.0235  <S**2>=0.000
       8 -> 14         0.47268
       9 -> 17        -0.22425
       9 -> 18        -0.36481
      10 -> 19         0.21328

 Excited State  43:      Singlet-A     14.3974 eV   86.12 nm  f=0.0372  <S**2>=0.000
       9 -> 17         0.22464
       9 -> 18         0.13986
      10 -> 18        -0.22784
      10 -> 19         0.53219
      11 -> 26        -0.14179
      11 -> 27         0.12440

 Excited State  44:      Singlet-A     14.4834 eV   85.60 nm  f=0.0124  <S**2>=0.000
       8 -> 14         0.37208
       9 -> 17         0.30101
       9 -> 18         0.13157
      10 -> 18         0.12964
      10 -> 19        -0.25281
      11 -> 26        -0.23339
      11 -> 27         0.23815

 Excited State  45:      Singlet-A     14.5321 eV   85.32 nm  f=0.0378  <S**2>=0.000
       7 -> 15         0.11067
       8 -> 14        -0.26000
       9 -> 18        -0.27410
       9 -> 19        -0.14074
      11 -> 26        -0.27137
      11 -> 27         0.43570

 Excited State  46:      Singlet-A     14.6947 eV   84.37 nm  f=0.0073  <S**2>=0.000
       9 -> 17         0.27992
       9 -> 18        -0.19079
       9 -> 19        -0.16433
      10 -> 20        -0.24385
      11 -> 27        -0.20408
      12 -> 28        -0.17873
      12 -> 29         0.36791
      12 -> 30         0.10353

 Excited State  47:      Singlet-A     14.8174 eV   83.67 nm  f=0.0525  <S**2>=0.000
       7 -> 14        -0.10608
       9 -> 16        -0.10082
       9 -> 17        -0.28754
       9 -> 18         0.23705
       9 -> 19         0.14508
      12 -> 28        -0.33786
      12 -> 29         0.35306

 Excited State  48:      Singlet-A     14.8664 eV   83.40 nm  f=0.0113  <S**2>=0.000
      12 -> 28         0.52763
      12 -> 29         0.35359

 Excited State  49:      Singlet-A     15.0189 eV   82.55 nm  f=0.1165  <S**2>=0.000
       7 -> 14        -0.21670
       7 -> 15        -0.10926
       8 -> 14        -0.14353
       9 -> 18        -0.21096
       9 -> 19         0.50860
      10 -> 20        -0.21920

 Excited State  50:      Singlet-A     15.0532 eV   82.36 nm  f=0.1431  <S**2>=0.000
       7 -> 14         0.49800
       7 -> 15         0.21477
       9 -> 15        -0.12892
       9 -> 19         0.32466
      12 -> 29         0.11552
      12 -> 30        -0.14436

 Excited State  51:      Singlet-A     15.1237 eV   81.98 nm  f=0.0247  <S**2>=0.000
       7 -> 14         0.18508
       8 -> 15         0.17836
       9 -> 18         0.12741
      12 -> 29        -0.13751
      12 -> 30         0.56731

 Excited State  52:      Singlet-A     15.2545 eV   81.28 nm  f=0.0258  <S**2>=0.000
       8 -> 15        -0.32340
       9 -> 17         0.11309
       9 -> 18        -0.14582
      10 -> 20         0.46322
      12 -> 29         0.14271
      12 -> 30         0.26554

 Excited State  53:      Singlet-A     15.4337 eV   80.33 nm  f=0.0422  <S**2>=0.000
       7 -> 16        -0.10251
       8 -> 15         0.50127
       8 -> 16        -0.12684
       9 -> 17         0.14375
       9 -> 18        -0.11351
      10 -> 20         0.32751

 Excited State  54:      Singlet-A     15.5430 eV   79.77 nm  f=0.0187  <S**2>=0.000
      10 -> 21         0.61165
      12 -> 31         0.20095
      12 -> 32        -0.17850

 Excited State  55:      Singlet-A     15.6572 eV   79.19 nm  f=0.0275  <S**2>=0.000
       6 -> 13         0.22279
       9 -> 22        -0.10474
      10 -> 22        -0.10747
      11 -> 28        -0.37995
      11 -> 29         0.42646
      11 -> 30         0.18937

 Excited State  56:      Singlet-A     15.7169 eV   78.89 nm  f=0.0673  <S**2>=0.000
       8 -> 16         0.13386
      10 -> 21        -0.12133
      12 -> 28        -0.11632
      12 -> 31         0.60659
      12 -> 32         0.13611

 Excited State  57:      Singlet-A     15.8039 eV   78.45 nm  f=0.0524  <S**2>=0.000
       6 -> 13         0.44732
       8 -> 16        -0.20832
       9 -> 20         0.26853
       9 -> 21         0.17584
      11 -> 28         0.28237

 Excited State  58:      Singlet-A     15.8392 eV   78.28 nm  f=0.0669  <S**2>=0.000
       6 -> 13         0.26109
       8 -> 16         0.41632
       9 -> 20        -0.20011
      10 -> 22        -0.30120
      11 -> 28         0.12816
      11 -> 30        -0.17452

 Excited State  59:      Singlet-A     15.9021 eV   77.97 nm  f=0.0440  <S**2>=0.000
       6 -> 13        -0.17195
       8 -> 16         0.31982
       9 -> 20         0.34880
       9 -> 21         0.14707
      11 -> 28         0.19291
      11 -> 29         0.20836
      12 -> 31        -0.14450
      12 -> 32         0.10878
      12 -> 33        -0.11799

 Excited State  60:      Singlet-A     15.9820 eV   77.58 nm  f=0.0287  <S**2>=0.000
       7 -> 15        -0.10413
       9 -> 20         0.42490
       9 -> 23         0.17956
      10 -> 22        -0.17844
      10 -> 23         0.11854
      11 -> 28        -0.26827
      11 -> 29        -0.16095
      11 -> 30        -0.24494

 Excited State  61:      Singlet-A     16.0330 eV   77.33 nm  f=0.0132  <S**2>=0.000
       6 -> 13         0.17817
       8 -> 16         0.22598
      10 -> 22         0.47178
      11 -> 28        -0.12790
      12 -> 32        -0.25330

 Excited State  62:      Singlet-A     16.1142 eV   76.94 nm  f=0.0077  <S**2>=0.000
       7 -> 15         0.22037
       7 -> 16         0.10289
       9 -> 22         0.13612
      10 -> 21        -0.13141
      11 -> 29         0.16746
      12 -> 31         0.13294
      12 -> 32        -0.35800
      12 -> 33         0.36195

 Excited State  63:      Singlet-A     16.2621 eV   76.24 nm  f=0.0475  <S**2>=0.000
       6 -> 13         0.11035
       7 -> 14        -0.11350
       7 -> 15         0.22753
       9 -> 21        -0.15966
       9 -> 22         0.24724
       9 -> 23         0.15811
      10 -> 21         0.10310
      10 -> 22         0.21003
      10 -> 23         0.19625
      11 -> 28        -0.10453
      12 -> 32         0.33347

 Excited State  64:      Singlet-A     16.2803 eV   76.16 nm  f=0.0039  <S**2>=0.000
       7 -> 14        -0.16578
       7 -> 15         0.34245
       7 -> 17        -0.16205
       9 -> 21         0.20816
       9 -> 23        -0.10881
      10 -> 23        -0.13557
      10 -> 24        -0.19051
      11 -> 28        -0.19877
      11 -> 30        -0.29208
      12 -> 33        -0.15361

 Excited State  65:      Singlet-A     16.3317 eV   75.92 nm  f=0.0871  <S**2>=0.000
       9 -> 21         0.42188
      10 -> 24         0.19416
      11 -> 28        -0.14532
      11 -> 29        -0.11326
      12 -> 32         0.17529
      12 -> 33         0.23343
      12 -> 34         0.24834

 Excited State  66:      Singlet-A     16.3736 eV   75.72 nm  f=0.0821  <S**2>=0.000
       7 -> 14        -0.13047
       7 -> 15         0.20156
       8 -> 16         0.11992
      11 -> 28        -0.13184
      11 -> 29        -0.36862
      11 -> 30         0.45817

 Excited State  67:      Singlet-A     16.4970 eV   75.16 nm  f=0.1214  <S**2>=0.000
       7 -> 15        -0.14980
       8 -> 17         0.16030
       9 -> 21         0.19902
       9 -> 22         0.40736
       9 -> 23         0.10936
      10 -> 24        -0.25713
      11 -> 30         0.10195
      12 -> 34        -0.21533

 Excited State  68:      Singlet-A     16.5907 eV   74.73 nm  f=0.0251  <S**2>=0.000
       7 -> 16         0.11224
       8 -> 17         0.23255
       8 -> 18         0.13140
       9 -> 21        -0.15596
       9 -> 22         0.11192
      10 -> 23        -0.30075
      10 -> 24        -0.18084
      10 -> 25        -0.10150
      10 -> 27         0.10091
      12 -> 34         0.35796
      12 -> 35         0.16084

 Excited State  69:      Singlet-A     16.7037 eV   74.23 nm  f=0.1187  <S**2>=0.000
       7 -> 16         0.20960
       8 -> 16         0.10701
       8 -> 17         0.40477
       9 -> 22        -0.19913
      10 -> 23         0.36088
      12 -> 33        -0.12910
      12 -> 36         0.11798

 Excited State  70:      Singlet-A     16.7243 eV   74.13 nm  f=0.1192  <S**2>=0.000
       8 -> 17        -0.22463
       8 -> 18        -0.22241
       9 -> 23         0.14912
      10 -> 23         0.17956
      10 -> 24        -0.21499
      10 -> 25        -0.10350
      12 -> 32        -0.11712
      12 -> 33        -0.19665
      12 -> 34         0.34539
      12 -> 35         0.13126
      12 -> 36        -0.10232

 Excited State  71:      Singlet-A     16.7608 eV   73.97 nm  f=0.0221  <S**2>=0.000
       8 -> 17         0.11848
       8 -> 18        -0.15087
       9 -> 22         0.13064
       9 -> 23        -0.11402
      10 -> 24         0.38463
      10 -> 25        -0.13037
      12 -> 32        -0.12405
      12 -> 33        -0.32483
      12 -> 35         0.24935
      12 -> 36        -0.14099

 Excited State  72:      Singlet-A     16.8187 eV   73.72 nm  f=0.1893  <S**2>=0.000
       6 -> 15        -0.10123
       7 -> 16        -0.18550
       8 -> 18         0.48623
       9 -> 23         0.19187
       9 -> 24        -0.11895
      11 -> 31        -0.10258
      12 -> 33        -0.18409
      12 -> 35         0.10895

 Excited State  73:      Singlet-A     16.9407 eV   73.19 nm  f=0.0813  <S**2>=0.000
       7 -> 16         0.33804
       8 -> 17        -0.18927
       8 -> 18         0.13912
       8 -> 19        -0.16499
       9 -> 22         0.10340
       9 -> 23        -0.19850
      10 -> 23         0.12356
      11 -> 31        -0.23095
      11 -> 32         0.27165
      12 -> 35        -0.11030

 Excited State  74:      Singlet-A     16.9547 eV   73.13 nm  f=0.1114  <S**2>=0.000
       7 -> 16         0.32614
       9 -> 21         0.12297
       9 -> 23         0.32131
      10 -> 23        -0.24927
      10 -> 24         0.14121
      10 -> 27         0.11787
      11 -> 31         0.24576

 Excited State  75:      Singlet-A     17.0039 eV   72.92 nm  f=0.0361  <S**2>=0.000
       8 -> 18         0.13928
       9 -> 22         0.16217
       9 -> 23        -0.18098
      10 -> 25        -0.22200
      11 -> 31         0.45373
      12 -> 35        -0.29459

 Excited State  76:      Singlet-A     17.0305 eV   72.80 nm  f=0.0735  <S**2>=0.000
       8 -> 17        -0.13812
       8 -> 18         0.12440
       9 -> 23        -0.18571
      10 -> 24        -0.12588
      10 -> 25         0.27726
      11 -> 31         0.30749
      12 -> 34        -0.12592
      12 -> 35         0.37756
      12 -> 36        -0.15256

 Excited State  77:      Singlet-A     17.1011 eV   72.50 nm  f=0.0115  <S**2>=0.000
       7 -> 16         0.12138
       8 -> 19         0.38690
      10 -> 24        -0.14167
      10 -> 25        -0.29870
      12 -> 34        -0.17504
      12 -> 36        -0.34865

 Excited State  78:      Singlet-A     17.1703 eV   72.21 nm  f=0.0038  <S**2>=0.000
       8 -> 19         0.45427
       9 -> 22         0.14679
      10 -> 25         0.37998
      12 -> 34         0.15833
      12 -> 35        -0.11088

 Excited State  79:      Singlet-A     17.2001 eV   72.08 nm  f=0.0989  <S**2>=0.000
       7 -> 17         0.12704
       8 -> 17        -0.12346
       8 -> 19         0.23814
      10 -> 25        -0.20195
      11 -> 32         0.26683
      12 -> 35         0.19857
      12 -> 36         0.42720

 Excited State  80:      Singlet-A     17.3116 eV   71.62 nm  f=0.0681  <S**2>=0.000
       6 -> 14        -0.18615
       7 -> 17         0.22810
       7 -> 19         0.11161
       8 -> 18         0.10823
       9 -> 21         0.11928
       9 -> 22         0.18309
       9 -> 24         0.39483
      11 -> 32        -0.23826
      11 -> 33        -0.21097

 Excited State  81:      Singlet-A     17.3345 eV   71.52 nm  f=0.0161  <S**2>=0.000
       7 -> 16        -0.10588
      10 -> 26         0.44097
      10 -> 27         0.37876
      11 -> 33        -0.16267
      12 -> 35        -0.15475

 Excited State  82:      Singlet-A     17.4369 eV   71.10 nm  f=0.0432  <S**2>=0.000
       6 -> 14         0.16231
       7 -> 16        -0.14787
       9 -> 24         0.31468
      10 -> 26        -0.12947
      11 -> 32         0.39805
      11 -> 33        -0.25664
      12 -> 36        -0.17971

 Excited State  83:      Singlet-A     17.4983 eV   70.86 nm  f=0.0829  <S**2>=0.000
       6 -> 14         0.47394
       7 -> 17        -0.14875
       7 -> 19         0.13694
       9 -> 24         0.19640

 The electronic state is 1-A.
 Alpha  occ. eigenvalues --  -14.48133 -14.47696 -10.32178  -1.09468  -0.89996
 Alpha  occ. eigenvalues --   -0.70330  -0.62318  -0.59578  -0.50942  -0.48429
 Alpha  occ. eigenvalues --   -0.36101  -0.32169
 Alpha virt. eigenvalues --    0.06721   0.09725   0.12748   0.16073   0.19408
 Alpha virt. eigenvalues --    0.20250   0.21413   0.25253   0.26038   0.27400
 Alpha virt. eigenvalues --    0.29314   0.29877   0.32233   0.33618   0.35222

 Mulliken charges:
               1
     1  N    0.128494
     2  N   -0.273051
     3  C    0.541159
     4  H    0.013998
     5  H    0.016271
     6  H   -0.305045
     7  H   -0.121827
 Sum of Mulliken charges =  -0.00000

 Dipole moment (field-independent basis, Debye):
    X=              0.4116    Y=              1.6751    Z=              1.0102  Tot=              1.9990
 Quadrupole moment (field-independent basis, Debye-Ang):
   XX=            -14.7124   YY=            -18.5227   ZZ=            -20.5389
   XY=             -0.3247   XZ=              1.8546   YZ=              0.2997

 Normal termination of Gaussian 16 at Thu Aug 19 04:00:00 2021.
