 Gaussian 16, Revision C.01,
 Gaussian 16:  EM64L-G16RevC.01  3-Jul-2019

 ----------------------------------------------------------------------
 #P TD(Nstates=10000) wB97XD/Gen SCF(maxcycles=100) Int(Grid=ultrafine)
 ----------------------------------------------------------------------

 ---------------------
 xGDB7_00001_tier4.com
 ---------------------
 Symbolic Z-matrix:
 Charge =  0 Multiplicity = 1

                         Standard orientation:
 ---------------------------------------------------------------------
 Center     Atomic      Atomic             Coordinates (Angstroms)
 Number     Number       Type             X           Y           Z
 ---------------------------------------------------------------------
      1          6           0       -1.131573   -0.504386    0.000000
      2          6           0        0.000000    0.472223    0.000000
      3          6           0        1.284136    0.150792    0.000000
      4          1           0       -1.767446   -0.362776    0.877699
      5          1           0       -0.770122   -1.533458    0.000000
      6          1           0       -1.767446   -0.362776   -0.877699
      7          1           0       -0.276551    1.523465    0.000000
      8          1           0        1.608435   -0.884555    0.000000
      9          1           0        2.057749    0.908327    0.000000
 ---------------------------------------------------------------------

 SCF Done:  E(RwB97XD) =  -117.786337037     A.U. after   13 cycles

 Excitation energies and oscillator strengths:

 Excited State   1:      Singlet-A"     7.4926 eV  165.48 nm  f=0.0339  <S**2>=0.000
      12 -> 14         0.66320
      12 -> 15        -0.13176
      12 -> 16        -0.18265
 This state for optimization and/or second-order correction.
 Total Energy, E(TD-HF/TD-DFT) =  -117.510989138
 Copying the excited state density for this state as the 1-particle RhoCI density.

 Excited State   2:      Singlet-A'     7.6246 eV  162.61 nm  f=0.4223  <S**2>=0.000
      12 -> 13         0.69786

 Excited State   3:      Singlet-A"     8.2682 eV  149.95 nm  f=0.0008  <S**2>=0.000
      11 -> 13         0.40421
      12 -> 15        -0.28828
      12 -> 16         0.47448

 Excited State   4:      Singlet-A"     8.3743 eV  148.05 nm  f=0.0002  <S**2>=0.000
      11 -> 13         0.57146
      12 -> 15         0.19022
      12 -> 16        -0.35503

 Excited State   5:      Singlet-A"     8.4870 eV  146.09 nm  f=0.0304  <S**2>=0.000
      12 -> 14         0.19457
      12 -> 15         0.59166
      12 -> 16         0.29453

 Excited State   6:      Singlet-A"     9.2540 eV  133.98 nm  f=0.0007  <S**2>=0.000
       7 -> 13         0.10917
       8 -> 13        -0.17207
      10 -> 13         0.66486

 Excited State   7:      Singlet-A"     9.5964 eV  129.20 nm  f=0.0014  <S**2>=0.000
      12 -> 16        -0.11242
      12 -> 17         0.66775
      12 -> 22        -0.12726

 Excited State   8:      Singlet-A"     9.9067 eV  125.15 nm  f=0.0582  <S**2>=0.000
      12 -> 19         0.68802

 Excited State   9:      Singlet-A'     9.9423 eV  124.70 nm  f=0.0045  <S**2>=0.000
      11 -> 14         0.60852
      11 -> 16        -0.13538
      12 -> 18         0.28637

 Excited State  10:      Singlet-A'    10.0239 eV  123.69 nm  f=0.0989  <S**2>=0.000
      11 -> 14        -0.27437
      11 -> 16         0.10434
      12 -> 18         0.61242
      12 -> 21         0.11836
      12 -> 24         0.11063

 Excited State  11:      Singlet-A'    10.4921 eV  118.17 nm  f=0.0401  <S**2>=0.000
      10 -> 14         0.60348
      10 -> 15         0.11837
      11 -> 15         0.30584

 Excited State  12:      Singlet-A"    10.5315 eV  117.73 nm  f=0.0000  <S**2>=0.000
       8 -> 13         0.66468
      10 -> 13         0.16434
      12 -> 20        -0.11319

 Excited State  13:      Singlet-A"    10.6424 eV  116.50 nm  f=0.0040  <S**2>=0.000
       8 -> 13         0.10201
      12 -> 20         0.65480
      12 -> 22         0.19260

 Excited State  14:      Singlet-A'    10.7544 eV  115.29 nm  f=0.2673  <S**2>=0.000
      11 -> 14         0.12935
      11 -> 15        -0.14252
      11 -> 16         0.64001
      12 -> 21         0.14719

 Excited State  15:      Singlet-A'    10.7870 eV  114.94 nm  f=0.0324  <S**2>=0.000
      10 -> 14        -0.20609
      11 -> 15         0.47612
      12 -> 21         0.40863

 Excited State  16:      Singlet-A'    10.9473 eV  113.26 nm  f=0.0831  <S**2>=0.000
       8 -> 14        -0.11801
      10 -> 14         0.20626
      11 -> 14        -0.10474
      11 -> 15        -0.32261
      11 -> 16        -0.20081
      12 -> 21         0.49940

 Excited State  17:      Singlet-A"    10.9754 eV  112.97 nm  f=0.0837  <S**2>=0.000
      12 -> 17         0.12293
      12 -> 20        -0.15587
      12 -> 22         0.64248
      12 -> 23        -0.11980

 Excited State  18:      Singlet-A'    11.2912 eV  109.81 nm  f=0.0335  <S**2>=0.000
       9 -> 13         0.68068
      12 -> 21        -0.11989

 Excited State  19:      Singlet-A"    11.4193 eV  108.57 nm  f=0.0003  <S**2>=0.000
      12 -> 23         0.66643

 Excited State  20:      Singlet-A'    11.5223 eV  107.60 nm  f=0.0303  <S**2>=0.000
       8 -> 14         0.14171
      10 -> 15         0.19085
      10 -> 16         0.54114
      11 -> 17        -0.10213
      12 -> 24         0.30549

 Excited State  21:      Singlet-A"    11.6415 eV  106.50 nm  f=0.1272  <S**2>=0.000
       9 -> 14         0.62997
       9 -> 15         0.26455

 Excited State  22:      Singlet-A'    11.6578 eV  106.35 nm  f=0.0497  <S**2>=0.000
      10 -> 15         0.35673
      10 -> 16        -0.39838
      12 -> 24         0.39970

 Excited State  23:      Singlet-A'    11.7536 eV  105.49 nm  f=0.0169  <S**2>=0.000
      10 -> 14        -0.11726
      10 -> 15         0.48824
      10 -> 17        -0.10544
      10 -> 19        -0.11130
      11 -> 17         0.11594
      12 -> 24        -0.39236

 Excited State  24:      Singlet-A"    11.8843 eV  104.33 nm  f=0.0018  <S**2>=0.000
       7 -> 13         0.66972
      10 -> 13        -0.11580

 Excited State  25:      Singlet-A'    12.0218 eV  103.13 nm  f=0.0566  <S**2>=0.000
       8 -> 14        -0.10256
       8 -> 15        -0.14093
      11 -> 17         0.61965
      11 -> 19        -0.14136
      12 -> 24         0.14000

 Excited State  26:      Singlet-A"    12.1592 eV  101.97 nm  f=0.0000  <S**2>=0.000
       8 -> 18         0.10810
      10 -> 18         0.12033
      11 -> 18         0.65470
      11 -> 21         0.12558

 Excited State  27:      Singlet-A'    12.3028 eV  100.78 nm  f=0.0060  <S**2>=0.000
       8 -> 14         0.61357
      10 -> 16        -0.11095
      10 -> 17         0.14967
      11 -> 15        -0.14733
      11 -> 19        -0.14163

 Excited State  28:      Singlet-A"    12.3081 eV  100.73 nm  f=0.0701  <S**2>=0.000
       7 -> 13         0.10218
       9 -> 14         0.12662
      10 -> 18         0.12171
      12 -> 25         0.62965

 Excited State  29:      Singlet-A'    12.3693 eV  100.24 nm  f=0.1475  <S**2>=0.000
       8 -> 15        -0.12768
       8 -> 16        -0.10948
      11 -> 17         0.14255
      11 -> 19         0.63733

 Excited State  30:      Singlet-A'    12.6073 eV   98.34 nm  f=0.1077  <S**2>=0.000
       7 -> 15         0.12405
       8 -> 14        -0.15787
       8 -> 16        -0.12536
      10 -> 17         0.55928
      11 -> 20         0.24511

 Excited State  31:      Singlet-A"    12.6813 eV   97.77 nm  f=0.0443  <S**2>=0.000
       7 -> 18        -0.10094
       9 -> 16        -0.11826
      10 -> 18         0.63053
      11 -> 21        -0.10374
      12 -> 25        -0.13460
      12 -> 27        -0.11896

 Excited State  32:      Singlet-A'    12.7278 eV   97.41 nm  f=0.0646  <S**2>=0.000
       8 -> 15        -0.26806
       8 -> 16         0.39051
      10 -> 17         0.19599
      10 -> 19        -0.21826
      11 -> 20        -0.38985

 Excited State  33:      Singlet-A"    12.7961 eV   96.89 nm  f=0.0022  <S**2>=0.000
       9 -> 16         0.64342
       9 -> 20        -0.12815
      10 -> 18         0.11527
      11 -> 21        -0.13301

 Excited State  34:      Singlet-A"    12.9032 eV   96.09 nm  f=0.0033  <S**2>=0.000
      10 -> 18         0.11037
      12 -> 27         0.64908
      12 -> 28        -0.17674

 Excited State  35:      Singlet-A'    13.0166 eV   95.25 nm  f=0.0324  <S**2>=0.000
      11 -> 20         0.17785
      11 -> 22         0.17183
      12 -> 26         0.60768

 Excited State  36:      Singlet-A"    13.0923 eV   94.70 nm  f=0.0785  <S**2>=0.000
       9 -> 16         0.13312
      10 -> 21         0.13448
      11 -> 18        -0.12228
      11 -> 21         0.62830
      11 -> 24        -0.11746

 Excited State  37:      Singlet-A'    13.0997 eV   94.65 nm  f=0.1001  <S**2>=0.000
       8 -> 15        -0.24870
       8 -> 16        -0.17062
      10 -> 19         0.48836
      11 -> 20        -0.24811
      11 -> 22        -0.15419
      12 -> 26         0.10761

 Excited State  38:      Singlet-A"    13.1751 eV   94.10 nm  f=0.0007  <S**2>=0.000
       9 -> 14        -0.21818
       9 -> 15         0.55377
       9 -> 17        -0.32098

 Excited State  39:      Singlet-A'    13.2192 eV   93.79 nm  f=0.0558  <S**2>=0.000
       8 -> 16         0.35518
       8 -> 17         0.10908
      10 -> 19         0.34003
      10 -> 20        -0.23797
      11 -> 19         0.10048
      11 -> 20         0.18239
      11 -> 22         0.24377
      12 -> 26        -0.18963

 Excited State  40:      Singlet-A'    13.2816 eV   93.35 nm  f=0.2602  <S**2>=0.000
       7 -> 14        -0.18352
       8 -> 15         0.49025
       8 -> 16         0.14699
      10 -> 17         0.19769
      11 -> 17         0.15802
      11 -> 20        -0.15960
      11 -> 22        -0.16094
      12 -> 26         0.15304

 Excited State  41:      Singlet-A'    13.3768 eV   92.69 nm  f=0.0327  <S**2>=0.000
       8 -> 15         0.13774
       8 -> 16        -0.25597
       8 -> 17         0.11114
       9 -> 18         0.11653
      11 -> 20        -0.28679
      11 -> 22         0.51352

 Excited State  42:      Singlet-A"    13.3864 eV   92.62 nm  f=0.0004  <S**2>=0.000
       9 -> 17        -0.14063
      12 -> 27         0.19092
      12 -> 28         0.62164

 Excited State  43:      Singlet-A"    13.5588 eV   91.44 nm  f=0.0087  <S**2>=0.000
       9 -> 17        -0.19024
       9 -> 19         0.19549
      10 -> 21         0.57625
      11 -> 21        -0.15511
      12 -> 28        -0.10415

 Excited State  44:      Singlet-A'    13.5845 eV   91.27 nm  f=0.0057  <S**2>=0.000
       7 -> 14        -0.16249
       7 -> 16         0.20331
       8 -> 16         0.19531
       9 -> 18         0.33096
      10 -> 19         0.12221
      10 -> 20         0.44594

 Excited State  45:      Singlet-A'    13.6801 eV   90.63 nm  f=0.0008  <S**2>=0.000
       7 -> 14         0.58177
       8 -> 15         0.14541
      10 -> 15         0.12951
      10 -> 20         0.11587
      11 -> 23        -0.21739

 Excited State  46:      Singlet-A"    13.7960 eV   89.87 nm  f=0.0091  <S**2>=0.000
       8 -> 18        -0.21426
       9 -> 17         0.13049
      11 -> 24         0.61675

 Excited State  47:      Singlet-A'    13.8612 eV   89.45 nm  f=0.0709  <S**2>=0.000
       7 -> 14         0.16638
       8 -> 19        -0.17635
       9 -> 18        -0.17603
      10 -> 20         0.21594
      10 -> 22        -0.11084
      11 -> 22         0.11040
      11 -> 23         0.50600
      12 -> 29         0.15491

 Excited State  48:      Singlet-A"    13.9279 eV   89.02 nm  f=0.0311  <S**2>=0.000
       6 -> 13        -0.11753
       9 -> 15         0.20281
       9 -> 17         0.44249
       9 -> 19        -0.17241
       9 -> 23        -0.12303
      10 -> 21         0.29960
      11 -> 24        -0.19862
      12 -> 28         0.16705

 Excited State  49:      Singlet-A'    13.9477 eV   88.89 nm  f=0.1769  <S**2>=0.000
       7 -> 16         0.17728
       8 -> 17         0.30864
       9 -> 18        -0.34341
      10 -> 20         0.18131
      10 -> 22         0.37337
      10 -> 23        -0.12699

 Excited State  50:      Singlet-A'    14.2182 eV   87.20 nm  f=0.1283  <S**2>=0.000
       7 -> 16        -0.19001
       8 -> 17         0.26586
      10 -> 22        -0.20921
      11 -> 22        -0.11063
      12 -> 29         0.51905

 Excited State  51:      Singlet-A'    14.2732 eV   86.87 nm  f=0.1430  <S**2>=0.000
       7 -> 15         0.11756
       7 -> 19         0.10642
       8 -> 17        -0.14074
       8 -> 19        -0.15610
       9 -> 18         0.25193
      10 -> 22         0.43057
      10 -> 23         0.16013
      10 -> 25         0.10258
      11 -> 25         0.12025
      12 -> 29         0.27736

 Excited State  52:      Singlet-A'    14.3473 eV   86.42 nm  f=0.0426  <S**2>=0.000
       7 -> 15         0.25617
       8 -> 17        -0.26791
       8 -> 19         0.28212
       8 -> 20        -0.15126
       9 -> 18        -0.18725
       9 -> 21        -0.16086
      10 -> 20         0.18956
      10 -> 23         0.22043
      11 -> 22         0.11103
      11 -> 23        -0.15978
      11 -> 25        -0.13792
      12 -> 29         0.10253

 Excited State  53:      Singlet-A"    14.3844 eV   86.19 nm  f=0.0042  <S**2>=0.000
       6 -> 13         0.20873
       8 -> 18         0.23015
       9 -> 15         0.14943
       9 -> 17         0.20618
       9 -> 19         0.45566
       9 -> 20        -0.10559
       9 -> 23        -0.16691
      10 -> 21        -0.10707
      10 -> 24        -0.11325
      12 -> 30         0.10338

 Excited State  54:      Singlet-A'    14.4364 eV   85.88 nm  f=0.0364  <S**2>=0.000
       8 -> 17         0.10562
       8 -> 19         0.39499
       9 -> 18         0.21622
      10 -> 20        -0.13515
      10 -> 22         0.12384
      10 -> 23        -0.11187
      11 -> 23         0.27688
      11 -> 25        -0.33244

 Excited State  55:      Singlet-A"    14.4520 eV   85.79 nm  f=0.0143  <S**2>=0.000
       6 -> 13        -0.21858
       8 -> 18         0.49764
       8 -> 21         0.18272
       9 -> 19        -0.17404
      10 -> 24        -0.20475
      11 -> 18        -0.10424
      11 -> 24         0.13114
      12 -> 30        -0.14443

 Excited State  56:      Singlet-A'    14.5165 eV   85.41 nm  f=0.0068  <S**2>=0.000
       7 -> 14         0.11770
       7 -> 15         0.12335
       7 -> 16         0.35957
       8 -> 17        -0.12345
       8 -> 19         0.14015
      10 -> 19        -0.12283
      10 -> 20        -0.15261
      10 -> 22        -0.11719
      10 -> 23        -0.27213
      10 -> 25        -0.16442
      11 -> 25         0.23942
      12 -> 29         0.19065

 Excited State  57:      Singlet-A"    14.5867 eV   85.00 nm  f=0.0157  <S**2>=0.000
       9 -> 19        -0.16153
       9 -> 20        -0.15472
       9 -> 22         0.10753
       9 -> 23         0.12504
      12 -> 30         0.60257
      12 -> 34        -0.10119

 Excited State  58:      Singlet-A'    14.6064 eV   84.88 nm  f=0.0014  <S**2>=0.000
       7 -> 15         0.44636
       7 -> 16        -0.29110
       7 -> 17        -0.11390
      10 -> 20         0.14265
      10 -> 23        -0.24325
      11 -> 23         0.12518
      11 -> 25         0.14091
      12 -> 29        -0.10006

 Excited State  59:      Singlet-A'    14.7053 eV   84.31 nm  f=0.0068  <S**2>=0.000
       7 -> 15         0.33389
       7 -> 16         0.28201
       8 -> 17         0.23440
       8 -> 19        -0.13756
       8 -> 20        -0.11894
       9 -> 21         0.15626
      10 -> 22        -0.12569
      10 -> 23         0.26925
      11 -> 22        -0.12863
      12 -> 29        -0.15500

 Excited State  60:      Singlet-A"    14.7273 eV   84.19 nm  f=0.0160  <S**2>=0.000
       6 -> 13         0.35476
       7 -> 18         0.13076
       8 -> 18         0.12934
       8 -> 21         0.29463
       9 -> 19        -0.16797
      10 -> 24         0.34003
      11 -> 26         0.22189

 Excited State  61:      Singlet-A"    14.8639 eV   83.41 nm  f=0.0343  <S**2>=0.000
       6 -> 13        -0.15771
       9 -> 16         0.13289
       9 -> 19         0.14091
       9 -> 20         0.50371
       9 -> 22        -0.20695
       9 -> 23        -0.17062
      12 -> 30         0.25202
      12 -> 33        -0.12478

 Excited State  62:      Singlet-A'    14.8850 eV   83.29 nm  f=0.0538  <S**2>=0.000
       7 -> 15        -0.12669
       8 -> 19         0.28907
       9 -> 21         0.26442
      10 -> 23         0.19239
      10 -> 25        -0.13116
      11 -> 25         0.31308
      12 -> 31         0.32706

 Excited State  63:      Singlet-A'    14.9121 eV   83.14 nm  f=0.0006  <S**2>=0.000
       8 -> 17        -0.20791
       8 -> 19        -0.15438
       8 -> 20        -0.13974
       9 -> 21         0.43875
      10 -> 23        -0.19367
      11 -> 23        -0.10796
      11 -> 25        -0.25565
      12 -> 31         0.21299

 Excited State  64:      Singlet-A'    15.0181 eV   82.56 nm  f=0.0471  <S**2>=0.000
       9 -> 21        -0.33876
      12 -> 31         0.54698

 Excited State  65:      Singlet-A"    15.0492 eV   82.39 nm  f=0.3485  <S**2>=0.000
       6 -> 13         0.41469
       8 -> 21        -0.16051
       9 -> 19        -0.16817
       9 -> 20         0.18306
      10 -> 24        -0.38805
      10 -> 26        -0.11062
      11 -> 26        -0.12823

 Excited State  66:      Singlet-A"    15.0644 eV   82.30 nm  f=0.0065  <S**2>=0.000
       8 -> 18        -0.29453
       8 -> 21         0.40790
      10 -> 24        -0.32512
      11 -> 24        -0.10898
      11 -> 26         0.26147

 Excited State  67:      Singlet-A"    15.2308 eV   81.40 nm  f=0.0020  <S**2>=0.000
      12 -> 32         0.64732
      12 -> 34         0.18191

 Excited State  68:      Singlet-A'    15.3681 eV   80.68 nm  f=0.1154  <S**2>=0.000
       7 -> 17        -0.15405
       8 -> 20         0.40871
      10 -> 23         0.13558
      10 -> 25        -0.34594
      11 -> 25        -0.25269
      11 -> 27         0.19362

 Excited State  69:      Singlet-A"    15.4732 eV   80.13 nm  f=0.0463  <S**2>=0.000
       8 -> 21         0.13029
      11 -> 26        -0.19158
      12 -> 33         0.60511
      12 -> 34         0.14915

 Excited State  70:      Singlet-A"    15.4998 eV   79.99 nm  f=0.0152  <S**2>=0.000
       8 -> 21        -0.28454
       8 -> 24         0.14443
      11 -> 26         0.50324
      12 -> 33         0.23533

 Excited State  71:      Singlet-A'    15.5346 eV   79.81 nm  f=0.0276  <S**2>=0.000
       7 -> 16         0.15347
       7 -> 19         0.10738
       8 -> 19         0.13818
       8 -> 20         0.29003
       9 -> 18        -0.11536
       9 -> 21         0.11596
      10 -> 22        -0.11879
      10 -> 25         0.46873
      11 -> 27         0.16245

 Excited State  72:      Singlet-A"    15.6002 eV   79.48 nm  f=0.0009  <S**2>=0.000
       9 -> 17        -0.15082
       9 -> 20         0.11838
       9 -> 22         0.56563
       9 -> 23        -0.16039
       9 -> 27        -0.10515
      11 -> 26        -0.10785
      12 -> 32        -0.11494

 Excited State  73:      Singlet-A'    15.6505 eV   79.22 nm  f=0.1250  <S**2>=0.000
       6 -> 14         0.10929
       7 -> 17         0.45885
       7 -> 19        -0.24919
       7 -> 22        -0.10273
       8 -> 20         0.12501
      10 -> 27        -0.15509
      11 -> 27         0.14389
      11 -> 28         0.27032

 Excited State  74:      Singlet-A'    15.6802 eV   79.07 nm  f=0.0336  <S**2>=0.000
       8 -> 20        -0.19308
       8 -> 22         0.43660
      11 -> 27         0.43883
      11 -> 28        -0.12546

 Excited State  75:      Singlet-A'    15.6969 eV   78.99 nm  f=0.2866  <S**2>=0.000
       6 -> 14        -0.10015
       8 -> 20         0.22556
       8 -> 22         0.44029
       8 -> 23         0.10781
      10 -> 28        -0.14969
      11 -> 27        -0.36806

 Excited State  76:      Singlet-A"    15.8401 eV   78.27 nm  f=0.0064  <S**2>=0.000
       8 -> 24        -0.10582
       9 -> 23         0.13820
      12 -> 30         0.10269
      12 -> 32        -0.15306
      12 -> 33        -0.13767
      12 -> 34         0.59652

 Excited State  77:      Singlet-A"    15.9297 eV   77.83 nm  f=0.0990  <S**2>=0.000
       7 -> 18        -0.27029
       7 -> 21        -0.15819
       8 -> 24         0.29045
      10 -> 26         0.40208
      11 -> 29        -0.26157
      12 -> 34         0.17365

 Excited State  78:      Singlet-A'    16.0022 eV   77.48 nm  f=0.2108  <S**2>=0.000
       7 -> 17         0.16279
       7 -> 19         0.11292
       8 -> 23         0.56732
      11 -> 27         0.10318
      11 -> 28        -0.21844

 Excited State  79:      Singlet-A"    16.0055 eV   77.46 nm  f=0.0564  <S**2>=0.000
       7 -> 18        -0.28708
       7 -> 24        -0.15071
       8 -> 21        -0.19106
       8 -> 24        -0.30565
      10 -> 26         0.21953
      11 -> 26         0.15759
      11 -> 29         0.36594

 Excited State  80:      Singlet-A'    16.0312 eV   77.34 nm  f=0.0118  <S**2>=0.000
       6 -> 14         0.58627
       6 -> 16        -0.10365
       7 -> 17        -0.22208
      10 -> 27        -0.14693
      12 -> 35        -0.11628

 Excited State  81:      Singlet-A"    16.1140 eV   76.94 nm  f=0.0128  <S**2>=0.000
       7 -> 18         0.14655
       9 -> 17         0.16423
       9 -> 19         0.17913
       9 -> 20         0.22044
       9 -> 22         0.13326
       9 -> 23         0.51952
      10 -> 26         0.18494

 Excited State  82:      Singlet-A'    16.1145 eV   76.94 nm  f=0.0468  <S**2>=0.000
       6 -> 14        -0.22522
       6 -> 16         0.13188
       7 -> 17        -0.26443
       8 -> 20        -0.12836
       8 -> 23         0.21399
      10 -> 27        -0.21398
      10 -> 28         0.15069
      11 -> 28         0.40806

 Excited State  83:      Singlet-A"    16.1663 eV   76.69 nm  f=0.0042  <S**2>=0.000

 The electronic state is 1-A'.
 Alpha  occ. eigenvalues --  -10.30195 -10.29394 -10.28698  -0.88229  -0.77753
 Alpha  occ. eigenvalues --   -0.64195  -0.55733  -0.50941  -0.50059  -0.45597
 Alpha  occ. eigenvalues --   -0.42787  -0.34110
 Alpha virt. eigenvalues --    0.08438   0.09747   0.12205   0.12729   0.17693
 Alpha virt. eigenvalues --    0.18697   0.19727   0.21231   0.22399   0.23343
 Alpha virt. eigenvalues --    0.24277   0.25750   0.27515   0.30353   0.30834

 Mulliken charges:
               1
     1  C    0.501775
     2  C   -0.379099
     3  C   -0.009198
     4  H    0.034848
     5  H    0.048714
     6  H    0.034848
     7  H   -0.188723
     8  H   -0.049339
     9  H    0.006175
 Sum of Mulliken charges =  -0.00000

 Dipole moment (field-independent basis, Debye):
    X=             -0.4036    Y=             -0.0501    Z=             -0.0000  Tot=              0.4067
 Quadrupole moment (field-independent basis, Debye-Ang):
   XX=            -19.0958   YY=            -19.0706   ZZ=            -21.6997
   XY=             -0.2178   XZ=             -0.0000   YZ=             -0.0000

 Normal termination of Gaussian 16 at Mon Mar 21 15:17:48 2022.
