 Gaussian 16, Revision C.01,
 Gaussian 16:  EM64L-G16RevC.01  3-Jul-2019

 ----------------------------------------------------------------------
 #P TD(Nstates=10000) wB97XD/Gen SCF(maxcycles=100) Int(Grid=ultrafine)
 ----------------------------------------------------------------------

 ---------------------
 xGDB7_00001_tier4.com
 ---------------------
 Symbolic Z-matrix:
 Charge =  0 Multiplicity = 1

                         Standard orientation:
 ---------------------------------------------------------------------
 Center     Atomic      Atomic             Coordinates (Angstroms)
 Number     Number       Type             X           Y           Z
 ---------------------------------------------------------------------
      1          6           0        0.000000    0.000000    0.761397
      2          6           0       -0.000000   -0.000000   -0.761397
      3          1           0        0.000000    1.017110    1.157248
      4          1           0        0.880843   -0.508555    1.157248
      5          1           0       -0.880843   -0.508555    1.157248
      6          1           0        0.880843    0.508555   -1.157248
      7          1           0       -0.880843    0.508555   -1.157248
      8          1           0       -0.000000   -1.017110   -1.157248
 ---------------------------------------------------------------------

 SCF Done:  E(RwB97XD) =  -79.7490750721     A.U. after   12 cycles

 Excitation energies and oscillator strengths:

 Excited State   1:      Singlet-EG     9.5022 eV  130.48 nm  f=0.0000  <S**2>=0.000
       8 -> 10         0.69680
 This state for optimization and/or second-order correction.
 Total Energy, E(TD-HF/TD-DFT) =  -79.3998771545
 Copying the excited state density for this state as the 1-particle RhoCI density.

 Excited State   2:      Singlet-EG     9.5022 eV  130.48 nm  f=0.0000  <S**2>=0.000
       9 -> 10         0.69680

 Excited State   3:      Singlet-A1G   10.3745 eV  119.51 nm  f=0.0000  <S**2>=0.000
       7 -> 10         0.69882

 Excited State   4:      Singlet-EU    10.4827 eV  118.28 nm  f=0.1490  <S**2>=0.000
       5 -> 10         0.14694
       9 -> 11         0.68363

 Excited State   5:      Singlet-EU    10.4827 eV  118.27 nm  f=0.1490  <S**2>=0.000
       6 -> 10         0.14694
       8 -> 11         0.68363

 Excited State   6:      Singlet-A2U   11.2612 eV  110.10 nm  f=0.3172  <S**2>=0.000
       7 -> 11         0.69924

 Excited State   7:      Singlet-EG    11.5225 eV  107.60 nm  f=0.0817  <S**2>=0.000
       8 -> 13         0.48930
       9 -> 12         0.48924

 Excited State   8:      Singlet-EG    11.5225 eV  107.60 nm  f=0.0817  <S**2>=0.000
       8 -> 12        -0.48926
       9 -> 13         0.48927

 Excited State   9:      Singlet-EG    11.5885 eV  106.99 nm  f=0.0000  <S**2>=0.000
       8 -> 13        -0.49355
       9 -> 12         0.49361

 Excited State  10:      Singlet-EU    11.8318 eV  104.79 nm  f=0.0000  <S**2>=0.000
       8 -> 15         0.48937
       9 -> 14        -0.48936

 Excited State  11:      Singlet-EG    11.8363 eV  104.75 nm  f=0.2713  <S**2>=0.000
       8 -> 12         0.49332
       9 -> 13         0.49331

 Excited State  12:      Singlet-EU    12.0804 eV  102.63 nm  f=0.0000  <S**2>=0.000
       8 -> 14         0.48220
       9 -> 15         0.48212

 Excited State  13:      Singlet-EU    12.0933 eV  102.52 nm  f=0.0000  <S**2>=0.000
       8 -> 15         0.49261
       9 -> 14         0.49263

 Excited State  14:      Singlet-EU    12.0933 eV  102.52 nm  f=0.0000  <S**2>=0.000
       8 -> 14        -0.49258
       9 -> 15         0.49266

 Excited State  15:      Singlet-EU    12.2409 eV  101.29 nm  f=0.0321  <S**2>=0.000
       6 -> 10         0.59570
       7 -> 12         0.32284

 Excited State  16:      Singlet-EU    12.2409 eV  101.29 nm  f=0.0321  <S**2>=0.000
       5 -> 10         0.59567
       7 -> 13         0.32290

 Excited State  17:      Singlet-EU    12.3110 eV  100.71 nm  f=0.1240  <S**2>=0.000
       6 -> 10        -0.31214
       7 -> 12         0.61589
       8 -> 11         0.10270

 Excited State  18:      Singlet-EU    12.3110 eV  100.71 nm  f=0.1240  <S**2>=0.000
       5 -> 10        -0.31219
       7 -> 13         0.61586
       9 -> 11         0.10271

 Excited State  19:      Singlet-EG    12.5659 eV   98.67 nm  f=0.0000  <S**2>=0.000
       6 -> 11        -0.13493
       7 -> 14         0.64616
       8 -> 16        -0.19359

 Excited State  20:      Singlet-EG    12.5659 eV   98.67 nm  f=0.0000  <S**2>=0.000
       5 -> 11        -0.13494
       7 -> 15         0.64616
       9 -> 16        -0.19360

 Excited State  21:      Singlet-EG    12.6378 eV   98.11 nm  f=0.0000  <S**2>=0.000
       6 -> 11         0.36977
       7 -> 14         0.24413
       8 -> 16         0.53567

 Excited State  22:      Singlet-EG    12.6378 eV   98.11 nm  f=0.0000  <S**2>=0.000
       5 -> 11         0.36977
       7 -> 15         0.24415
       9 -> 16         0.53566

 Excited State  23:      Singlet-EU    13.2360 eV   93.67 nm  f=0.0000  <S**2>=0.000
       5 -> 12         0.22175
       6 -> 13         0.22177
       7 -> 14         0.11164
       8 -> 16        -0.10009
       8 -> 17         0.42888
       9 -> 18         0.42886

 Excited State  24:      Singlet-EU    13.2360 eV   93.67 nm  f=0.0000  <S**2>=0.000
       5 -> 13         0.22176
       6 -> 12        -0.22176
       7 -> 15        -0.11164
       8 -> 18        -0.42887
       9 -> 16         0.10009
       9 -> 17         0.42887

 Excited State  25:      Singlet-EU    13.2916 eV   93.28 nm  f=0.0000  <S**2>=0.000
       5 -> 12         0.22051
       6 -> 13        -0.22049
       8 -> 17        -0.44087
       9 -> 18         0.44089

 Excited State  26:      Singlet-EG    13.5342 eV   91.61 nm  f=0.0000  <S**2>=0.000
       5 -> 14         0.22350
       6 -> 15        -0.22351
       8 -> 19         0.43904
       9 -> 20        -0.43901

 Excited State  27:      Singlet-EG    13.6212 eV   91.02 nm  f=0.0000  <S**2>=0.000
       5 -> 11         0.57081
       9 -> 16        -0.38751

 Excited State  28:      Singlet-EG    13.6212 eV   91.02 nm  f=0.0000  <S**2>=0.000
       6 -> 11         0.57082
       8 -> 16        -0.38751

 Excited State  29:      Singlet-A1G   13.6371 eV   90.92 nm  f=0.0000  <S**2>=0.000
       5 -> 13         0.12548
       6 -> 12         0.12549
       7 -> 16         0.57590
       8 -> 18         0.25329
       9 -> 17         0.25327

 Excited State  30:      Singlet-EU    13.7479 eV   90.18 nm  f=0.0000  <S**2>=0.000
       6 -> 10        -0.10820
       8 -> 19         0.22197
       8 -> 21         0.59586
       9 -> 20         0.22204

 Excited State  31:      Singlet-EU    13.7479 eV   90.18 nm  f=0.0000  <S**2>=0.000
       5 -> 10        -0.10819
       8 -> 20         0.22202
       9 -> 19        -0.22203
       9 -> 21         0.59584

 Excited State  32:      Singlet-EG    14.0782 eV   88.07 nm  f=0.1455  <S**2>=0.000
       5 -> 15        -0.21075
       6 -> 14        -0.21075
       7 -> 21         0.15205
       8 -> 20         0.43414
       9 -> 19         0.43409

 Excited State  33:      Singlet-EU    14.0819 eV   88.04 nm  f=0.0000  <S**2>=0.000
       5 -> 13        -0.18361
       6 -> 12        -0.18361
       7 -> 16        -0.27545
       8 -> 18         0.40291
       9 -> 17         0.40290

 Excited State  34:      Singlet-EU    14.1064 eV   87.89 nm  f=0.1810  <S**2>=0.000
       7 -> 20         0.37313
       8 -> 19         0.36504
       8 -> 21        -0.25946
       9 -> 20         0.36502

 Excited State  35:      Singlet-EU    14.1065 eV   87.89 nm  f=0.1810  <S**2>=0.000
       7 -> 19         0.37313
       8 -> 20         0.36499
       9 -> 19        -0.36504
       9 -> 21        -0.25950

 Excited State  36:      Singlet-EG    14.1782 eV   87.45 nm  f=0.0000  <S**2>=0.000
       7 -> 18         0.69650

 Excited State  37:      Singlet-EG    14.1782 eV   87.45 nm  f=0.0000  <S**2>=0.000
       7 -> 17         0.69650

 Excited State  38:      Singlet-A2U   14.4181 eV   85.99 nm  f=0.0030  <S**2>=0.000
       5 -> 15         0.36542
       6 -> 14         0.36540
       7 -> 21         0.37951
       8 -> 20         0.12021
       8 -> 23        -0.13666
       9 -> 19         0.12023
       9 -> 22        -0.13667

 Excited State  39:      Singlet-EU    14.4565 eV   85.76 nm  f=0.0000  <S**2>=0.000
       5 -> 12        -0.44216
       6 -> 13         0.44226
       8 -> 17        -0.21571
       9 -> 18         0.21566

 Excited State  40:      Singlet-EU    14.4789 eV   85.63 nm  f=0.0000  <S**2>=0.000
       5 -> 12         0.43824
       6 -> 13         0.43814
       8 -> 17        -0.22838
       9 -> 18        -0.22843

 Excited State  41:      Singlet-EU    14.4789 eV   85.63 nm  f=0.0000  <S**2>=0.000
       5 -> 13        -0.43819
       6 -> 12         0.43819
       8 -> 18        -0.22840
       9 -> 17         0.22840

 Excited State  42:      Singlet-EU    14.5250 eV   85.36 nm  f=0.0233  <S**2>=0.000
       5 -> 15         0.27775
       6 -> 14        -0.27776
       7 -> 19         0.45718
       8 -> 20        -0.17510
       8 -> 23         0.13624
       9 -> 19         0.17510
       9 -> 21         0.10828
       9 -> 22        -0.13623

 Excited State  43:      Singlet-EU    14.5250 eV   85.36 nm  f=0.0233  <S**2>=0.000
       5 -> 14        -0.27775
       6 -> 15        -0.27775
       7 -> 20         0.45719
       8 -> 19        -0.17510
       8 -> 21         0.10828
       8 -> 22         0.13624
       9 -> 20        -0.17509
       9 -> 23         0.13624

 Excited State  44:      Singlet-EG    14.6652 eV   84.54 nm  f=0.0000  <S**2>=0.000
       5 -> 14         0.42408
       6 -> 15        -0.42408
       8 -> 19        -0.22848
       8 -> 22         0.11253
       9 -> 20         0.22848
       9 -> 23        -0.11253

 Excited State  45:      Singlet-EG    15.0314 eV   82.48 nm  f=0.3897  <S**2>=0.000
       5 -> 14         0.39661
       6 -> 15         0.39660
       7 -> 20         0.31575
       8 -> 21         0.16455

 Excited State  46:      Singlet-EG    15.0314 eV   82.48 nm  f=0.3897  <S**2>=0.000
       5 -> 15        -0.39661
       6 -> 14         0.39661
       7 -> 19         0.31576
       9 -> 21         0.16454

 Excited State  47:      Singlet-EU    15.1663 eV   81.75 nm  f=0.0000  <S**2>=0.000
       5 -> 13         0.42973
       6 -> 12         0.42973
       7 -> 16        -0.26674

 Excited State  48:      Singlet-A2U   15.2846 eV   81.12 nm  f=0.4251  <S**2>=0.000
       5 -> 15        -0.21180
       5 -> 17         0.12265
       6 -> 14        -0.21179
       6 -> 18         0.12265
       7 -> 21         0.52320
       8 -> 20        -0.19539
       9 -> 19        -0.19539

 Excited State  49:      Singlet-EG    15.3996 eV   80.51 nm  f=0.0000  <S**2>=0.000
       5 -> 14         0.12640
       5 -> 18         0.18417
       6 -> 15        -0.12640
       6 -> 17        -0.18417
       8 -> 22        -0.44258
       9 -> 23         0.44259

 Excited State  50:      Singlet-EG    15.5223 eV   79.87 nm  f=0.2529  <S**2>=0.000
       5 -> 18         0.13311
       6 -> 17         0.13312
       7 -> 20        -0.17096
       8 -> 19         0.12366
       8 -> 22         0.43853
       9 -> 20         0.12366
       9 -> 23         0.43852

 Excited State  51:      Singlet-EG    15.5223 eV   79.87 nm  f=0.2529  <S**2>=0.000
       5 -> 17        -0.13311
       6 -> 18         0.13312
       7 -> 19        -0.17096
       8 -> 20         0.12366
       8 -> 23         0.43854
       9 -> 19        -0.12366
       9 -> 22        -0.43852

 Excited State  52:      Singlet-EG    15.6169 eV   79.39 nm  f=0.5496  <S**2>=0.000
       5 -> 15         0.12492
       5 -> 17         0.17388
       6 -> 14         0.12492
       6 -> 18         0.17387
       7 -> 21         0.12923
       8 -> 23         0.43438
       9 -> 22         0.43440

 Excited State  53:      Singlet-EU    15.7323 eV   78.81 nm  f=0.0575  <S**2>=0.000
       6 -> 16         0.64707
       7 -> 23        -0.19105

 Excited State  54:      Singlet-EU    15.7323 eV   78.81 nm  f=0.0575  <S**2>=0.000
       5 -> 16         0.64707
       7 -> 22        -0.19105

 Excited State  55:      Singlet-EU    16.3184 eV   75.98 nm  f=0.1588  <S**2>=0.000
       5 -> 18        -0.15315
       6 -> 16         0.15756
       6 -> 17        -0.15315
       7 -> 23         0.63215

 Excited State  56:      Singlet-EU    16.3184 eV   75.98 nm  f=0.1588  <S**2>=0.000
       5 -> 16         0.15757
       5 -> 17         0.15312
       6 -> 18        -0.15313
       7 -> 22         0.63216

 Excited State  57:      Singlet-EG    16.4053 eV   75.58 nm  f=0.0000  <S**2>=0.000
       5 -> 20         0.21623
       6 -> 19         0.21663
       6 -> 21         0.61051

 Excited State  58:      Singlet-EG    16.4053 eV   75.58 nm  f=0.0000  <S**2>=0.000
       5 -> 19        -0.21648
       5 -> 21         0.61050
       6 -> 20         0.21644

 Excited State  59:      Singlet-EG    16.4133 eV   75.54 nm  f=0.0554  <S**2>=0.000
       5 -> 18         0.42132
       6 -> 17         0.42130
       7 -> 23         0.18905
       8 -> 22        -0.14753
       8 -> 24        -0.15929
       9 -> 23        -0.14754

 Excited State  60:      Singlet-EG    16.4133 eV   75.54 nm  f=0.0554  <S**2>=0.000
       5 -> 17         0.42133
       6 -> 18        -0.42132
       7 -> 22        -0.18901
       8 -> 23         0.14754
       9 -> 22        -0.14754
       9 -> 24         0.15926

 Excited State  61:      Singlet-EG    16.4262 eV   75.48 nm  f=0.0000  <S**2>=0.000
       5 -> 18        -0.45383
       6 -> 17         0.45384
       8 -> 22        -0.19528
       9 -> 23         0.19527

 Excited State  62:      Singlet-EU    16.4328 eV   75.45 nm  f=0.0000  <S**2>=0.000
       5 -> 20         0.48712
       6 -> 19        -0.48693

 Excited State  63:      Singlet-EG    16.4908 eV   75.18 nm  f=0.0000  <S**2>=0.000
       5 -> 17         0.42456
       6 -> 18         0.42454
       7 -> 21        -0.13501
       7 -> 24         0.20363
       8 -> 23        -0.15394
       9 -> 22        -0.15395

 Excited State  64:      Singlet-EU    16.5845 eV   74.76 nm  f=0.0000  <S**2>=0.000
       5 -> 19         0.48609
       6 -> 20         0.48613

 Excited State  65:      Singlet-EU    16.6127 eV   74.63 nm  f=0.0837  <S**2>=0.000
       8 -> 24         0.67175

 Excited State  66:      Singlet-EU    16.6127 eV   74.63 nm  f=0.0837  <S**2>=0.000
       9 -> 24         0.67176

 Excited State  67:      Singlet-EU    16.6770 eV   74.34 nm  f=0.0000  <S**2>=0.000
       5 -> 20         0.43281
       6 -> 19         0.43283
       6 -> 21        -0.30213

 Excited State  68:      Singlet-EU    16.6770 eV   74.34 nm  f=0.0000  <S**2>=0.000
       5 -> 19         0.43282
       5 -> 21         0.30217
       6 -> 20        -0.43279

 Excited State  69:      Singlet-EG    17.0570 eV   72.69 nm  f=0.0000  <S**2>=0.000
       8 -> 25         0.69206

 Excited State  70:      Singlet-EG    17.0570 eV   72.69 nm  f=0.0000  <S**2>=0.000
       9 -> 25         0.69207

 Excited State  71:      Singlet-A2U   17.2802 eV   71.75 nm  f=0.0959  <S**2>=0.000
       4 -> 10         0.56807
       7 -> 24        -0.39291

 Excited State  72:      Singlet-EU    17.6389 eV   70.29 nm  f=0.0066  <S**2>=0.000
       9 -> 26         0.69416

 Excited State  73:      Singlet-EU    17.6389 eV   70.29 nm  f=0.0066  <S**2>=0.000
       8 -> 26         0.69416

 Excited State  74:      Singlet-A2U   17.6967 eV   70.06 nm  f=0.2760  <S**2>=0.000
       4 -> 10         0.38102
       7 -> 24         0.53103
       7 -> 35        -0.11930

 Excited State  75:      Singlet-A1G   17.7891 eV   69.70 nm  f=0.0000  <S**2>=0.000
       5 -> 22         0.12537
       6 -> 23         0.12536
       7 -> 25         0.64797
       8 -> 27         0.10016
       9 -> 28         0.10016

 Excited State  76:      Singlet-EU    18.0769 eV   68.59 nm  f=0.0000  <S**2>=0.000
       5 -> 23         0.45348
       6 -> 22         0.45349
       8 -> 28        -0.16835
       9 -> 27        -0.16833

 Excited State  77:      Singlet-EU    18.0769 eV   68.59 nm  f=0.0000  <S**2>=0.000
       5 -> 22        -0.45348
       6 -> 23         0.45349
       8 -> 27        -0.16834
       9 -> 28         0.16834

 Excited State  78:      Singlet-EU    18.1396 eV   68.35 nm  f=0.0000  <S**2>=0.000
       5 -> 23         0.44541
       6 -> 22        -0.44539
       8 -> 28         0.19563
       9 -> 27        -0.19563

 Excited State  79:      Singlet-A1G   18.2070 eV   68.10 nm  f=0.0000  <S**2>=0.000
       4 -> 11         0.39901
       5 -> 22         0.32029
       6 -> 23         0.32028
       8 -> 27        -0.24570
       9 -> 28        -0.24571

 Excited State  80:      Singlet-A1G   18.2451 eV   67.95 nm  f=0.0000  <S**2>=0.000
       4 -> 11         0.50175
       5 -> 22        -0.30947
       6 -> 23        -0.30947
       7 -> 25         0.18521

 Excited State  81:      Singlet-EU    18.4153 eV   67.33 nm  f=0.0000  <S**2>=0.000
       5 -> 23        -0.20381
       6 -> 22         0.20382
       8 -> 28         0.44464
       9 -> 27        -0.44463

 Excited State  82:      Singlet-A1U   18.4420 eV   67.23 nm  f=0.0000  <S**2>=0.000
       7 -> 26         0.69893

 Excited State  83:      Singlet-EU    18.4487 eV   67.20 nm  f=0.0910  <S**2>=0.000
       4 -> 14        -0.10210
       6 -> 25         0.19315
       8 -> 29         0.63775
       8 -> 31        -0.12032
       9 -> 30        -0.12030

 Excited State  84:      Singlet-EU    18.4487 eV   67.20 nm  f=0.0910  <S**2>=0.000
       4 -> 15        -0.10210
       5 -> 25         0.19314
       8 -> 30        -0.12029
       9 -> 29         0.63777
       9 -> 31         0.12028

 Excited State  85:      Singlet-EG    18.6613 eV   66.44 nm  f=0.0000  <S**2>=0.000
       8 -> 31         0.48652
       9 -> 30        -0.48649

 Excited State  86:      Singlet-EU    18.7022 eV   66.29 nm  f=0.0000  <S**2>=0.000
       5 -> 22         0.15534
       6 -> 23        -0.15533
       7 -> 28        -0.17329
       8 -> 27        -0.40081
       9 -> 28         0.40081
       9 -> 32        -0.22865

 Excited State  87:      Singlet-EU    18.7022 eV   66.29 nm  f=0.0000  <S**2>=0.000
       5 -> 23         0.15534
       6 -> 22         0.15533
       7 -> 27         0.17329
       8 -> 28         0.40080
       8 -> 32         0.22865
       9 -> 27         0.40082

 Excited State  88:      Singlet-EG    18.8480 eV   65.78 nm  f=0.1367  <S**2>=0.000
       7 -> 30         0.14830
       8 -> 29         0.17819
       8 -> 31         0.45726
       9 -> 30         0.45730

 Excited State  89:      Singlet-EG    18.8480 eV   65.78 nm  f=0.1367  <S**2>=0.000
       7 -> 31         0.14832
       8 -> 30         0.45729
       9 -> 29         0.17814
       9 -> 31        -0.45728

 Excited State  90:      Singlet-EG    18.8607 eV   65.74 nm  f=0.0000  <S**2>=0.000
       4 -> 12        -0.12679
       6 -> 24         0.32227
       7 -> 27         0.46268
       8 -> 32        -0.37592

 Excited State  91:      Singlet-EG    18.8607 eV   65.74 nm  f=0.0000  <S**2>=0.000
       4 -> 13        -0.12681
       5 -> 24         0.32225
       7 -> 28         0.46270
       9 -> 32        -0.37592

 Excited State  92:      Singlet-EU    18.8711 eV   65.70 nm  f=0.0000  <S**2>=0.000
       4 -> 11         0.23677
       5 -> 22         0.16245
       6 -> 23         0.16245
       7 -> 25        -0.13549
       8 -> 27         0.40161
       9 -> 28         0.40160

 Excited State  93:      Singlet-EG    19.0501 eV   65.08 nm  f=0.2832  <S**2>=0.000
       8 -> 30         0.47737
       9 -> 31         0.47737

 Excited State  94:      Singlet-EG    19.0583 eV   65.06 nm  f=0.0000  <S**2>=0.000
       6 -> 24        -0.37358
       7 -> 27         0.44601
       8 -> 28        -0.16324
       8 -> 32         0.25808
       9 -> 27        -0.16325

 Excited State  95:      Singlet-EG    19.0583 eV   65.06 nm  f=0.0000  <S**2>=0.000
       5 -> 24        -0.37359
       7 -> 28         0.44599
       8 -> 27        -0.16325
       9 -> 28         0.16326
       9 -> 32         0.25809

 Excited State  96:      Singlet-EU    19.2299 eV   64.47 nm  f=0.0006  <S**2>=0.000
       6 -> 25        -0.24510
       7 -> 30        -0.40984
       8 -> 29         0.10768
       8 -> 35         0.49050

 Excited State  97:      Singlet-EU    19.2300 eV   64.47 nm  f=0.0006  <S**2>=0.000
       5 -> 25        -0.24510
       7 -> 31        -0.40987
       9 -> 29         0.10767
       9 -> 35         0.49048

 Excited State  98:      Singlet-EG    19.2414 eV   64.44 nm  f=0.0000  <S**2>=0.000
       4 -> 13         0.51860
       5 -> 24        -0.28159
       7 -> 28         0.11766
       8 -> 27         0.12790
       9 -> 28        -0.12790
       9 -> 32        -0.28372

 Excited State  99:      Singlet-EG    19.2414 eV   64.44 nm  f=0.0000  <S**2>=0.000
       4 -> 12         0.51860
       6 -> 24        -0.28158
       7 -> 27         0.11766
       8 -> 28         0.12790
       8 -> 32        -0.28373
       9 -> 27         0.12790

 Excited State 100:      Singlet-A2U   19.3619 eV   64.04 nm  f=0.0075  <S**2>=0.000
       7 -> 29         0.69171
       7 -> 35         0.11333

 Excited State 101:      Singlet-EG    19.4767 eV   63.66 nm  f=0.0000  <S**2>=0.000
       4 -> 12         0.42402
       6 -> 24         0.37054
       7 -> 27         0.13788
       8 -> 32         0.35279

 Excited State 102:      Singlet-EG    19.4767 eV   63.66 nm  f=0.0000  <S**2>=0.000
       4 -> 13         0.42402
       5 -> 24         0.37054
       7 -> 28         0.13789
       9 -> 32         0.35279

 Excited State 103:      Singlet-EU    19.5784 eV   63.33 nm  f=0.0969  <S**2>=0.000
       4 -> 14        -0.24585
       6 -> 25        -0.16764
       7 -> 30         0.50796
       8 -> 35         0.31863

 Excited State 104:      Singlet-EU    19.5784 eV   63.33 nm  f=0.0969  <S**2>=0.000
       4 -> 15        -0.24586
       5 -> 25        -0.16767
       7 -> 31         0.50793
       9 -> 35         0.31866

 Excited State 105:      Singlet-A1G   19.6948 eV   62.95 nm  f=0.0000  <S**2>=0.000
       7 -> 32         0.58583
       8 -> 34         0.25681
       9 -> 33         0.25680

 Excited State 106:      Singlet-EU    19.7833 eV   62.67 nm  f=0.0000  <S**2>=0.000
       5 -> 26        -0.28657
       8 -> 32         0.10227
       8 -> 33         0.38513
       9 -> 34         0.38513

 The electronic state is 1-A1G.
 Alpha  occ. eigenvalues --  -10.28488 -10.28477  -0.84597  -0.70385  -0.52197
 Alpha  occ. eigenvalues --   -0.52197  -0.45271  -0.42412  -0.42412
 Alpha virt. eigenvalues --    0.09427   0.12325   0.17555   0.17555   0.19429
 Alpha virt. eigenvalues --    0.19429   0.23046   0.23886   0.23886   0.26686
 Alpha virt. eigenvalues --    0.26686   0.27159   0.31842   0.31842   0.36051

 Mulliken charges:
               1
     1  C    0.030585
     2  C    0.030585
     3  H   -0.010195
     4  H   -0.010195
     5  H   -0.010195
     6  H   -0.010195
     7  H   -0.010195
     8  H   -0.010195
 Sum of Mulliken charges =  -0.00000

 Dipole moment (field-independent basis, Debye):
    X=              0.0000    Y=             -0.0000    Z=              0.0000  Tot=              0.0000
 Quadrupole moment (field-independent basis, Debye-Ang):
   XX=            -14.8220   YY=            -14.8220   ZZ=            -15.5174
   XY=             -0.0000   XZ=              0.0000   YZ=             -0.0000

 Normal termination of Gaussian 16 at Mon Mar 21 16:00:57 2022.
