 Gaussian 16, Revision C.01,
 Gaussian 16:  EM64L-G16RevC.01  3-Jul-2019

 ----------------------------------------------------------------------
 #P TD(Nstates=10000) wB97XD/Gen SCF(maxcycles=100) Int(Grid=ultrafine)
 ----------------------------------------------------------------------

 ---------------------
 xGDB7_00001_tier4.com
 ---------------------
 Symbolic Z-matrix:
 Charge =  0 Multiplicity = 1

                         Standard orientation:
 ---------------------------------------------------------------------
 Center     Atomic      Atomic             Coordinates (Angstroms)
 Number     Number       Type             X           Y           Z
 ---------------------------------------------------------------------
      1          6           0       -1.208422   -0.239069   -0.021917
      2          6           0        0.083893    0.553452    0.046734
      3          8           0        1.233467   -0.256002   -0.105864
      4          1           0       -2.071999    0.425135    0.051700
      5          1           0       -1.270670   -0.957756    0.799731
      6          1           0       -1.270625   -0.788280   -0.962327
      7          1           0        0.130030    1.119197    0.986112
      8          1           0        0.125951    1.277026   -0.768547
      9          1           0        1.236751   -0.913605    0.591341
 ---------------------------------------------------------------------

 SCF Done:  E(RwB97XD) =  -154.891775089     A.U. after   13 cycles

 Excitation energies and oscillator strengths:

 Excited State   1:      Singlet-A      7.3368 eV  168.99 nm  f=0.0102  <S**2>=0.000
      13 -> 14         0.64306
      13 -> 15         0.26061
 This state for optimization and/or second-order correction.
 Total Energy, E(TD-HF/TD-DFT) =  -154.622152382
 Copying the excited state density for this state as the 1-particle RhoCI density.

 Excited State   2:      Singlet-A      8.6347 eV  143.59 nm  f=0.0244  <S**2>=0.000
      12 -> 14        -0.11434
      13 -> 14        -0.21246
      13 -> 15         0.56860
      13 -> 16        -0.30908

 Excited State   3:      Singlet-A      8.9050 eV  139.23 nm  f=0.0189  <S**2>=0.000
      12 -> 14         0.65451
      12 -> 15         0.14417
      13 -> 16        -0.11496

 Excited State   4:      Singlet-A      9.0778 eV  136.58 nm  f=0.0245  <S**2>=0.000
      13 -> 14        -0.14961
      13 -> 15         0.26612
      13 -> 16         0.58978
      13 -> 18        -0.10480
      13 -> 19        -0.15090

 Excited State   5:      Singlet-A      9.3270 eV  132.93 nm  f=0.0597  <S**2>=0.000
      13 -> 17         0.68783

 Excited State   6:      Singlet-A      9.8352 eV  126.06 nm  f=0.0138  <S**2>=0.000
      10 -> 14         0.12859
      11 -> 14        -0.25705
      12 -> 14        -0.13791
      12 -> 15         0.59000
      12 -> 16        -0.13476

 Excited State   7:      Singlet-A     10.1675 eV  121.94 nm  f=0.0038  <S**2>=0.000
      11 -> 14         0.11559
      13 -> 18         0.47018
      13 -> 19        -0.42125
      13 -> 20         0.11029
      13 -> 21        -0.15686

 Excited State   8:      Singlet-A     10.2325 eV  121.17 nm  f=0.1157  <S**2>=0.000
      10 -> 14         0.16324
      11 -> 14        -0.33242
      12 -> 15        -0.12100
      12 -> 16         0.47027
      13 -> 18         0.26002
      13 -> 19         0.10678

 Excited State   9:      Singlet-A     10.2899 eV  120.49 nm  f=0.0734  <S**2>=0.000
      12 -> 16        -0.33356
      13 -> 16         0.13216
      13 -> 18         0.31828
      13 -> 19         0.43491
      13 -> 20         0.15600

 Excited State  10:      Singlet-A     10.3653 eV  119.61 nm  f=0.0487  <S**2>=0.000
      10 -> 14         0.17508
      11 -> 14         0.52015
      12 -> 15         0.21753
      12 -> 16         0.24854
      13 -> 19         0.17043

 Excited State  11:      Singlet-A     10.5759 eV  117.23 nm  f=0.0024  <S**2>=0.000
      10 -> 14        -0.27816
      13 -> 18        -0.18009
      13 -> 20         0.58423

 Excited State  12:      Singlet-A     10.6438 eV  116.49 nm  f=0.0124  <S**2>=0.000
      10 -> 14         0.45260
      11 -> 15        -0.15529
      12 -> 15        -0.16225
      12 -> 16        -0.19990
      12 -> 17         0.34421
      13 -> 20         0.18943

 Excited State  13:      Singlet-A     10.7331 eV  115.52 nm  f=0.0716  <S**2>=0.000
      10 -> 14        -0.26913
      12 -> 17         0.57426
      13 -> 20        -0.16412

 Excited State  14:      Singlet-A     11.0195 eV  112.51 nm  f=0.0063  <S**2>=0.000
      11 -> 15         0.11922
      13 -> 19        -0.13122
      13 -> 21         0.58125
      13 -> 22        -0.14281
      13 -> 23        -0.20340

 Excited State  15:      Singlet-A     11.2011 eV  110.69 nm  f=0.0242  <S**2>=0.000
       8 -> 14         0.10853
      10 -> 14         0.15223
      11 -> 15         0.55026
      12 -> 18         0.21005
      13 -> 23         0.25345

 Excited State  16:      Singlet-A     11.2388 eV  110.32 nm  f=0.0378  <S**2>=0.000
      10 -> 15        -0.23107
      11 -> 15        -0.18722
      12 -> 19         0.12840
      13 -> 21         0.27403
      13 -> 22         0.23385
      13 -> 23         0.42676
      13 -> 24        -0.15449

 Excited State  17:      Singlet-A     11.3497 eV  109.24 nm  f=0.0518  <S**2>=0.000
      10 -> 15        -0.10722
      10 -> 16        -0.12408
      11 -> 16         0.22382
      12 -> 18         0.14666
      12 -> 19         0.13485
      13 -> 22         0.45479
      13 -> 23        -0.34947

 Excited State  18:      Singlet-A     11.4414 eV  108.36 nm  f=0.0333  <S**2>=0.000
      10 -> 15        -0.26264
      11 -> 15        -0.11252
      11 -> 16        -0.31530
      12 -> 18         0.43978
      12 -> 19        -0.23188

 Excited State  19:      Singlet-A     11.4801 eV  108.00 nm  f=0.0536  <S**2>=0.000
      10 -> 15         0.32081
      10 -> 16         0.10433
      11 -> 16        -0.24643
      12 -> 19        -0.35149
      13 -> 22         0.37588

 Excited State  20:      Singlet-A     11.6137 eV  106.76 nm  f=0.0893  <S**2>=0.000
      10 -> 15         0.12041
      10 -> 16         0.21962
      11 -> 15        -0.20557
      11 -> 16         0.45304
      12 -> 18         0.28299
      12 -> 19        -0.22459
      13 -> 23         0.10126

 Excited State  21:      Singlet-A     11.6987 eV  105.98 nm  f=0.0520  <S**2>=0.000
      10 -> 15         0.41581
      10 -> 16        -0.22024
      12 -> 18         0.30453
      12 -> 19         0.30401

 Excited State  22:      Singlet-A     11.8598 eV  104.54 nm  f=0.0843  <S**2>=0.000
       9 -> 14        -0.12076
      10 -> 16         0.50055
      11 -> 16        -0.12731
      12 -> 18         0.11307
      12 -> 19         0.27529
      12 -> 21         0.16231
      13 -> 22         0.11291
      13 -> 24         0.10421

 Excited State  23:      Singlet-A     11.9605 eV  103.66 nm  f=0.0101  <S**2>=0.000
      11 -> 17         0.20610
      12 -> 20         0.42102
      13 -> 23        -0.10174
      13 -> 24        -0.37229
      13 -> 25         0.21046
      13 -> 26         0.14552

 Excited State  24:      Singlet-A     12.0208 eV  103.14 nm  f=0.0407  <S**2>=0.000
       9 -> 14        -0.16021
      10 -> 16        -0.14452
      11 -> 17         0.15961
      12 -> 20         0.41113
      13 -> 24         0.35971
      13 -> 26        -0.21206

 Excited State  25:      Singlet-A     12.1092 eV  102.39 nm  f=0.1093  <S**2>=0.000
       8 -> 14         0.10326
       9 -> 14         0.11896
      10 -> 16         0.11913
      11 -> 17         0.56097
      11 -> 18         0.12329
      12 -> 20        -0.20675
      12 -> 21        -0.13171
      12 -> 22        -0.10960

 Excited State  26:      Singlet-A     12.1609 eV  101.95 nm  f=0.0113  <S**2>=0.000
       9 -> 14         0.56674
      12 -> 20         0.17056
      12 -> 21         0.14631
      12 -> 22        -0.10030
      13 -> 24         0.17619

 Excited State  27:      Singlet-A     12.3083 eV  100.73 nm  f=0.0220  <S**2>=0.000
      10 -> 17         0.48587
      10 -> 21        -0.11031
      12 -> 21         0.31717
      13 -> 24        -0.11378
      13 -> 25        -0.23626

 Excited State  28:      Singlet-A     12.3636 eV  100.28 nm  f=0.0264  <S**2>=0.000
       8 -> 14         0.11223
       9 -> 14        -0.17874
      10 -> 17         0.10984
      11 -> 18         0.13958
      12 -> 20        -0.12094
      12 -> 21         0.25636
      12 -> 22        -0.13206
      13 -> 24         0.14950
      13 -> 25         0.45374

 Excited State  29:      Singlet-A     12.4025 eV   99.97 nm  f=0.0321  <S**2>=0.000
      10 -> 16         0.10358
      10 -> 17         0.29489
      10 -> 18         0.11736
      11 -> 18        -0.22119
      12 -> 19         0.10423
      12 -> 21        -0.26007
      12 -> 22         0.26818
      12 -> 23         0.16363
      13 -> 25         0.27060

 Excited State  30:      Singlet-A     12.5649 eV   98.67 nm  f=0.0409  <S**2>=0.000
       9 -> 16         0.10560
      10 -> 17        -0.13391
      11 -> 18        -0.32018
      12 -> 21         0.22401
      12 -> 22        -0.14316
      12 -> 23         0.44775

 Excited State  31:      Singlet-A     12.6646 eV   97.90 nm  f=0.0085  <S**2>=0.000
       8 -> 14         0.49434
      10 -> 17        -0.12031
      11 -> 19        -0.18211
      12 -> 22         0.10538
      12 -> 23        -0.21050
      13 -> 24        -0.12583
      13 -> 26        -0.14638
      13 -> 27        -0.11764

 Excited State  32:      Singlet-A     12.7215 eV   97.46 nm  f=0.0113  <S**2>=0.000
      10 -> 17        -0.16953
      10 -> 18        -0.17996
      11 -> 17         0.13193
      11 -> 19        -0.12012
      12 -> 21         0.17586
      12 -> 22         0.35048
      13 -> 24         0.15519
      13 -> 26         0.32237
      13 -> 27         0.13353
      13 -> 28         0.17357

 Excited State  33:      Singlet-A     12.7815 eV   97.00 nm  f=0.0196  <S**2>=0.000
       8 -> 14        -0.11423
       9 -> 14         0.10616
       9 -> 15        -0.17396
      10 -> 17        -0.16524
      10 -> 18         0.14865
      11 -> 19         0.20195
      11 -> 20         0.16157
      12 -> 21         0.16953
      12 -> 22         0.32106
      13 -> 24        -0.12572
      13 -> 25         0.13487
      13 -> 26        -0.24346
      13 -> 27        -0.10243
      13 -> 28        -0.12778

 Excited State  34:      Singlet-A     12.8058 eV   96.82 nm  f=0.0252  <S**2>=0.000
       8 -> 14         0.12069
      10 -> 18        -0.11199
      11 -> 18        -0.29565
      11 -> 19         0.42169
      11 -> 20         0.15541
      12 -> 23        -0.21360
      13 -> 26         0.19991
      13 -> 27        -0.15034

 Excited State  35:      Singlet-A     12.8556 eV   96.44 nm  f=0.1043  <S**2>=0.000
       8 -> 14         0.29285
      11 -> 17        -0.10737
      11 -> 18         0.28180
      11 -> 19         0.31018
      11 -> 20        -0.17626
      12 -> 23         0.26937
      12 -> 25        -0.11522

 Excited State  36:      Singlet-A     12.9292 eV   95.90 nm  f=0.0196  <S**2>=0.000
       9 -> 15         0.12239
      10 -> 18         0.43425
      10 -> 19        -0.16344
      10 -> 23        -0.15172
      11 -> 19        -0.13004
      11 -> 20         0.12671
      13 -> 26         0.22707
      13 -> 27        -0.23070
      13 -> 28         0.13892

 Excited State  37:      Singlet-A     13.0202 eV   95.22 nm  f=0.0131  <S**2>=0.000
       8 -> 14         0.14455
       9 -> 15        -0.30257
      11 -> 18         0.11737
      11 -> 19        -0.10200
      11 -> 20         0.38266
      11 -> 21         0.16632
      12 -> 21        -0.15061
      12 -> 22        -0.13278
      12 -> 24        -0.13203
      13 -> 27         0.18830

 Excited State  38:      Singlet-A     13.0372 eV   95.10 nm  f=0.0175  <S**2>=0.000
      10 -> 18         0.26050
      10 -> 19         0.37206
      10 -> 21         0.15876
      10 -> 25        -0.11030
      11 -> 18        -0.10761
      12 -> 23        -0.10650
      12 -> 24         0.12672
      13 -> 27         0.36193

 Excited State  39:      Singlet-A     13.1040 eV   94.62 nm  f=0.0051  <S**2>=0.000
       9 -> 15         0.15629
      10 -> 18        -0.16995
      10 -> 19         0.34943
      10 -> 20         0.22074
      11 -> 18         0.12192
      11 -> 20         0.19425
      11 -> 21         0.13505
      12 -> 25         0.17044
      13 -> 27        -0.26621
      13 -> 28         0.12022

 Excited State  40:      Singlet-A     13.1649 eV   94.18 nm  f=0.0305  <S**2>=0.000
       9 -> 15         0.39538
      10 -> 19        -0.27334
      10 -> 20         0.24212
      11 -> 20         0.14252
      12 -> 22         0.11000
      13 -> 26        -0.13522
      13 -> 27         0.23838

 Excited State  41:      Singlet-A     13.2754 eV   93.39 nm  f=0.0227  <S**2>=0.000
       9 -> 15        -0.21793
       9 -> 16         0.22350
      10 -> 20         0.31764
      10 -> 23        -0.10759
      11 -> 19        -0.10760
      11 -> 20        -0.10016
      11 -> 22         0.12369
      12 -> 24         0.40476
      12 -> 26        -0.10413

 Excited State  42:      Singlet-A     13.3393 eV   92.95 nm  f=0.0603  <S**2>=0.000
       8 -> 16         0.13660
       9 -> 16         0.15574
      10 -> 19        -0.12483
      10 -> 20        -0.10950
      10 -> 22         0.12250
      11 -> 20        -0.17787
      11 -> 21         0.10186
      11 -> 22        -0.19140
      12 -> 25         0.20784
      13 -> 26        -0.17920
      13 -> 28         0.39099

 Excited State  43:      Singlet-A     13.4416 eV   92.24 nm  f=0.0692  <S**2>=0.000
       8 -> 15         0.17056
       8 -> 16        -0.13711
       9 -> 15         0.13341
       9 -> 16         0.47954
      10 -> 20        -0.13855
      10 -> 21        -0.17988
      11 -> 20         0.13105
      11 -> 21        -0.12213
      11 -> 22         0.15889
      11 -> 23        -0.10744

 Excited State  44:      Singlet-A     13.4497 eV   92.18 nm  f=0.0523  <S**2>=0.000
       7 -> 14         0.10035
       8 -> 15         0.15409
       8 -> 16        -0.14869
       9 -> 15        -0.11725
       9 -> 16        -0.18571
      10 -> 18        -0.10364
      11 -> 20         0.19516
      11 -> 21        -0.15905
      11 -> 23        -0.12936
      12 -> 23         0.10129
      12 -> 24         0.15844
      12 -> 25        -0.10940
      13 -> 26        -0.17847
      13 -> 28         0.38423

 Excited State  45:      Singlet-A     13.5778 eV   91.31 nm  f=0.0364  <S**2>=0.000
       9 -> 15         0.10824
       9 -> 17         0.11899
      10 -> 20        -0.29071
      10 -> 21        -0.18443
      11 -> 20         0.12735
      11 -> 22        -0.18817
      12 -> 24         0.38466
      12 -> 25         0.15351
      12 -> 26        -0.13082
      13 -> 28        -0.12223

 Excited State  46:      Singlet-A     13.6228 eV   91.01 nm  f=0.0185  <S**2>=0.000
       8 -> 15         0.48613
      10 -> 20         0.20582
      11 -> 22        -0.22655
      12 -> 25         0.21112
      13 -> 28        -0.10471

 Excited State  47:      Singlet-A     13.7013 eV   90.49 nm  f=0.0377  <S**2>=0.000
       8 -> 16        -0.12304
       8 -> 17         0.11685
       9 -> 16        -0.25883
      10 -> 21        -0.20175
      10 -> 22         0.16411
      11 -> 22         0.33047
      12 -> 25         0.34201

 Excited State  48:      Singlet-A     13.7101 eV   90.43 nm  f=0.0171  <S**2>=0.000
       8 -> 15         0.29176
       8 -> 17         0.15404
       9 -> 17        -0.25678
      10 -> 20        -0.12736
      10 -> 22         0.13011
      11 -> 21         0.38679
      11 -> 22         0.13160
      12 -> 24         0.13352
      12 -> 25        -0.14410

 Excited State  49:      Singlet-A     13.9248 eV   89.04 nm  f=0.0116  <S**2>=0.000
       9 -> 17         0.36535
       9 -> 19        -0.10930
      10 -> 19         0.10866
      10 -> 21        -0.32837
      10 -> 23        -0.13097
      11 -> 21         0.14609
      12 -> 25        -0.26988
      12 -> 26         0.13063

 Excited State  50:      Singlet-A     13.9779 eV   88.70 nm  f=0.0188  <S**2>=0.000
       8 -> 16         0.29386
       9 -> 18        -0.13958
      10 -> 22        -0.11697
      10 -> 23        -0.15347
      11 -> 18         0.11141
      11 -> 21        -0.14405
      11 -> 23         0.31810
      12 -> 24         0.11675
      12 -> 26         0.22854
      12 -> 27         0.18330
      12 -> 28         0.11038
      13 -> 29         0.12944

 Excited State  51:      Singlet-A     14.0410 eV   88.30 nm  f=0.0410  <S**2>=0.000
       7 -> 14         0.50334
       7 -> 15         0.11710
       9 -> 17        -0.21857
      10 -> 21        -0.19536
      10 -> 22         0.14378
      13 -> 29        -0.12253

 Excited State  52:      Singlet-A     14.0702 eV   88.12 nm  f=0.0026  <S**2>=0.000
       7 -> 14         0.31544
       9 -> 17         0.27644
       9 -> 19        -0.16602
      10 -> 17         0.10482
      10 -> 21         0.24016
      11 -> 21         0.18623
      11 -> 22         0.15273
      11 -> 23         0.14293
      12 -> 25         0.15394
      12 -> 27        -0.11670
      13 -> 30         0.10965

 Excited State  53:      Singlet-A     14.1853 eV   87.40 nm  f=0.0570  <S**2>=0.000
       7 -> 14         0.11089
      10 -> 22         0.17541
      12 -> 26        -0.11187
      12 -> 27        -0.17598
      13 -> 27         0.13189
      13 -> 29         0.55542

 Excited State  54:      Singlet-A     14.1899 eV   87.38 nm  f=0.0483  <S**2>=0.000
       9 -> 17         0.14233
       9 -> 18        -0.18202
       9 -> 19         0.14979
       9 -> 23         0.10217
      10 -> 21         0.16507
      10 -> 22         0.11200
      10 -> 23         0.11931
      11 -> 23        -0.16627
      11 -> 24         0.23186
      12 -> 27         0.38378
      12 -> 28         0.11487

 Excited State  55:      Singlet-A     14.2003 eV   87.31 nm  f=0.0563  <S**2>=0.000
       8 -> 16         0.35479
       9 -> 17         0.16036
       9 -> 18         0.11761
      10 -> 22         0.31128
      11 -> 21        -0.19986
      11 -> 22         0.13691
      11 -> 24         0.10539
      12 -> 25        -0.12275
      12 -> 26        -0.16851
      13 -> 29        -0.15360

 Excited State  56:      Singlet-A     14.3569 eV   86.36 nm  f=0.0075  <S**2>=0.000
       8 -> 16        -0.32696
       9 -> 18         0.11298
       9 -> 19         0.14276
      10 -> 22         0.21343
      10 -> 23        -0.18352
      11 -> 22        -0.15865
      11 -> 23         0.34465
      12 -> 25        -0.10368
      13 -> 30        -0.15695

 Excited State  57:      Singlet-A     14.4529 eV   85.79 nm  f=0.0405  <S**2>=0.000
       8 -> 16         0.10001
       9 -> 18         0.14077
      10 -> 21         0.14768
      10 -> 22         0.12840
      11 -> 23        -0.24565
      11 -> 24        -0.14731
      12 -> 26         0.39993
      12 -> 27        -0.10710
      13 -> 30        -0.24591

 Excited State  58:      Singlet-A     14.5187 eV   85.40 nm  f=0.0188  <S**2>=0.000
       7 -> 15        -0.10507
       8 -> 17        -0.10169
      10 -> 18         0.14922
      10 -> 23         0.46261
      11 -> 23         0.19121
      12 -> 26         0.26389
      12 -> 27        -0.10718

 Excited State  59:      Singlet-A     14.5267 eV   85.35 nm  f=0.0638  <S**2>=0.000
       9 -> 19        -0.14740
      10 -> 22         0.27892
      11 -> 21        -0.13336
      11 -> 22        -0.12916
      11 -> 24        -0.11931
      12 -> 26         0.15138
      12 -> 27         0.11978
      13 -> 29        -0.11578
      13 -> 30         0.44763

 Excited State  60:      Singlet-A     14.5695 eV   85.10 nm  f=0.1436  <S**2>=0.000
       8 -> 17        -0.30640
       8 -> 20        -0.11562
       9 -> 18         0.14316
      11 -> 22         0.16133
      11 -> 24        -0.30622
      11 -> 26         0.10560
      12 -> 26        -0.16039
      12 -> 27         0.31965
      13 -> 29         0.15092

 Excited State  61:      Singlet-A     14.6601 eV   84.57 nm  f=0.0761  <S**2>=0.000
       9 -> 18         0.37209
       9 -> 19        -0.20850
       9 -> 20        -0.18931
      10 -> 24         0.16121
      11 -> 24         0.26583
      11 -> 25        -0.17065
      11 -> 27         0.10862
      12 -> 28        -0.10746
      13 -> 29         0.10841

 Excited State  62:      Singlet-A     14.7226 eV   84.21 nm  f=0.0029  <S**2>=0.000
       8 -> 17         0.36697
       8 -> 18         0.27779
       9 -> 18         0.21925
       9 -> 20         0.14097
      10 -> 22        -0.11725
      10 -> 24        -0.10662
      12 -> 27         0.19109
      12 -> 28        -0.18155

 Excited State  63:      Singlet-A     14.8048 eV   83.75 nm  f=0.0243  <S**2>=0.000
       7 -> 15        -0.11737
       8 -> 17         0.23063
       9 -> 19        -0.20883
      10 -> 23         0.14759
      10 -> 25         0.11136
      11 -> 24        -0.19347
      12 -> 28         0.42740
      13 -> 30        -0.15404

 Excited State  64:      Singlet-A     14.8211 eV   83.65 nm  f=0.0182  <S**2>=0.000
       8 -> 19         0.25491
       9 -> 19        -0.25422
      10 -> 22         0.12350
      10 -> 24         0.15603
      11 -> 19         0.10868
      11 -> 25         0.37071
      12 -> 28        -0.18498
      13 -> 30        -0.18349

 Excited State  65:      Singlet-A     14.9362 eV   83.01 nm  f=0.0694  <S**2>=0.000

 The electronic state is 1-A.
 Alpha  occ. eigenvalues --  -19.26341 -10.34400 -10.29263  -1.11550  -0.84331
 Alpha  occ. eigenvalues --   -0.71879  -0.59693  -0.54662  -0.52546  -0.47015
 Alpha  occ. eigenvalues --   -0.45944  -0.41301  -0.36376
 Alpha virt. eigenvalues --    0.08406   0.11452   0.12333   0.14838   0.17407
 Alpha virt. eigenvalues --    0.18275   0.19211   0.20420   0.21268   0.22402
 Alpha virt. eigenvalues --    0.24980   0.25634   0.28118   0.28584   0.30101

 Mulliken charges:
               1
     1  C    0.224533
     2  C    0.226358
     3  O   -0.452229
     4  H    0.039681
     5  H   -0.017601
     6  H    0.011170
     7  H   -0.077386
     8  H   -0.143025
     9  H    0.188499
 Sum of Mulliken charges =   0.00000

 Dipole moment (field-independent basis, Debye):
    X=             -1.3343    Y=             -0.1577    Z=              1.1578  Tot=              1.7736
 Quadrupole moment (field-independent basis, Debye-Ang):
   XX=            -22.4887   YY=            -18.6603   ZZ=            -19.2979
   XY=             -0.9674   XZ=              1.7473   YZ=             -1.4819

 Normal termination of Gaussian 16 at Mon Mar 21 15:20:54 2022.
