 Gaussian 16, Revision C.01,
 Gaussian 16:  EM64L-G16RevC.01  3-Jul-2019

 ----------------------------------------------------------------------
 #P TD(Nstates=10000) wB97XD/Gen SCF(maxcycles=100) Int(Grid=ultrafine)
 ----------------------------------------------------------------------

 ---------------------
 xGDB7_00001_tier4.com
 ---------------------
 Symbolic Z-matrix:
 Charge =  0 Multiplicity = 1

                         Standard orientation:
 ---------------------------------------------------------------------
 Center     Atomic      Atomic             Coordinates (Angstroms)
 Number     Number       Type             X           Y           Z
 ---------------------------------------------------------------------
      1          7           0        1.078471   -0.156900   -0.000001
      2          6           0       -0.161963    0.384944   -0.000002
      3          8           0       -1.189170   -0.245458    0.000001
      4          1           0        1.898427    0.419427    0.000004
      5          1           0        1.178124   -1.157073    0.000005
      6          1           0       -0.140706    1.489948    0.000007
 ---------------------------------------------------------------------

 SCF Done:  E(RwB97XD) =  -169.729634389     A.U. after   15 cycles

 Excitation energies and oscillator strengths:

 Excited State   1:      Singlet-A      5.7210 eV  216.72 nm  f=0.0007  <S**2>=0.000
      12 -> 13         0.70374
 This state for optimization and/or second-order correction.
 Total Energy, E(TD-HF/TD-DFT) =  -169.519392270
 Copying the excited state density for this state as the 1-particle RhoCI density.

 Excited State   2:      Singlet-A      7.5335 eV  164.58 nm  f=0.0269  <S**2>=0.000
      11 -> 13         0.45205
      12 -> 14         0.52653

 Excited State   3:      Singlet-A      7.6884 eV  161.26 nm  f=0.0162  <S**2>=0.000
      11 -> 14         0.68783
      11 -> 15         0.10824

 Excited State   4:      Singlet-A      8.0619 eV  153.79 nm  f=0.2153  <S**2>=0.000
      11 -> 13         0.44200
      12 -> 14        -0.35356
      12 -> 15         0.38538

 Excited State   5:      Singlet-A      8.5255 eV  145.43 nm  f=0.1787  <S**2>=0.000
      11 -> 13        -0.26294
      12 -> 14         0.25155
      12 -> 15         0.57450
      12 -> 16         0.14792

 Excited State   6:      Singlet-A      8.6173 eV  143.88 nm  f=0.0032  <S**2>=0.000
      11 -> 15         0.66530
      11 -> 16         0.17669

 Excited State   7:      Singlet-A      9.2658 eV  133.81 nm  f=0.0904  <S**2>=0.000
      12 -> 14        -0.15502
      12 -> 16         0.62611
      12 -> 18         0.23346

 Excited State   8:      Singlet-A      9.5607 eV  129.68 nm  f=0.0112  <S**2>=0.000
      11 -> 15        -0.17500
      11 -> 16         0.65760

 Excited State   9:      Singlet-A      9.7676 eV  126.93 nm  f=0.0074  <S**2>=0.000
      12 -> 17         0.70139

 Excited State  10:      Singlet-A     10.1948 eV  121.62 nm  f=0.0098  <S**2>=0.000
      12 -> 16        -0.23614
      12 -> 18         0.63852

 Excited State  11:      Singlet-A     10.1950 eV  121.61 nm  f=0.0025  <S**2>=0.000
       9 -> 13         0.61661
      11 -> 18         0.31218

 Excited State  12:      Singlet-A     10.2698 eV  120.73 nm  f=0.0000  <S**2>=0.000
       9 -> 13        -0.32792
      11 -> 18         0.52905
      11 -> 19         0.19067
      11 -> 20         0.23962

 Excited State  13:      Singlet-A     10.4868 eV  118.23 nm  f=0.0029  <S**2>=0.000
      11 -> 17         0.49643
      12 -> 18         0.12881
      12 -> 19        -0.45801

 Excited State  14:      Singlet-A     10.5874 eV  117.11 nm  f=0.0042  <S**2>=0.000
      10 -> 13        -0.11558
      11 -> 17         0.44220
      12 -> 19         0.42243
      12 -> 20         0.29622

 Excited State  15:      Singlet-A     10.7915 eV  114.89 nm  f=0.0302  <S**2>=0.000
      11 -> 17        -0.16582
      12 -> 19        -0.24057
      12 -> 20         0.62976

 Excited State  16:      Singlet-A     10.8450 eV  114.32 nm  f=0.0035  <S**2>=0.000
      10 -> 15        -0.12599
      11 -> 18        -0.15736
      11 -> 19         0.63902
      11 -> 22         0.15025

 Excited State  17:      Singlet-A     11.3044 eV  109.68 nm  f=0.0545  <S**2>=0.000
      10 -> 15         0.10113
      11 -> 18        -0.22433
      11 -> 20         0.61280
      11 -> 22         0.10237
      11 -> 23        -0.15269

 Excited State  18:      Singlet-A     11.3950 eV  108.81 nm  f=0.0968  <S**2>=0.000
       8 -> 14         0.10609
       9 -> 14        -0.14544
      10 -> 13         0.62265
      11 -> 21         0.15672
      12 -> 19         0.13375
      12 -> 23         0.11291

 Excited State  19:      Singlet-A     11.6909 eV  106.05 nm  f=0.0477  <S**2>=0.000
      10 -> 14         0.66365
      12 -> 21        -0.13476

 Excited State  20:      Singlet-A     11.7025 eV  105.95 nm  f=0.0101  <S**2>=0.000
      11 -> 21         0.11549
      12 -> 22         0.50197
      12 -> 23        -0.45078

 Excited State  21:      Singlet-A     11.8093 eV  104.99 nm  f=0.0014  <S**2>=0.000
       8 -> 13        -0.15291
      10 -> 14         0.14337
      12 -> 21         0.63137
      12 -> 24        -0.17061
      12 -> 26         0.11294

 Excited State  22:      Singlet-A     12.0237 eV  103.12 nm  f=0.0043  <S**2>=0.000
       9 -> 14         0.54523
      11 -> 21         0.33541
      12 -> 22        -0.22336
      12 -> 23        -0.10251

 Excited State  23:      Singlet-A     12.0862 eV  102.58 nm  f=0.1172  <S**2>=0.000
       9 -> 14        -0.38943
      10 -> 13        -0.13680
      11 -> 21         0.40956
      12 -> 22        -0.24962
      12 -> 23        -0.24985

 Excited State  24:      Singlet-A     12.1345 eV  102.18 nm  f=0.0007  <S**2>=0.000
       8 -> 13         0.65557
      12 -> 21         0.16698

 Excited State  25:      Singlet-A     12.2208 eV  101.45 nm  f=0.0086  <S**2>=0.000
      10 -> 15         0.11614
      11 -> 18         0.11207
      11 -> 19        -0.10052
      11 -> 20        -0.13892
      11 -> 22         0.53817
      11 -> 23        -0.34966

 Excited State  26:      Singlet-A     12.3310 eV  100.55 nm  f=0.0582  <S**2>=0.000
      10 -> 13        -0.12752
      11 -> 21         0.36730
      11 -> 24        -0.13233
      12 -> 22         0.33533
      12 -> 23         0.43107

 Excited State  27:      Singlet-A     12.4504 eV   99.58 nm  f=0.0007  <S**2>=0.000
      10 -> 15         0.46361
      11 -> 22         0.20766
      11 -> 23         0.43816

 Excited State  28:      Singlet-A     12.5909 eV   98.47 nm  f=0.0129  <S**2>=0.000
      10 -> 15         0.45845
      11 -> 19         0.16241
      11 -> 22        -0.31543
      11 -> 23        -0.35122

 Excited State  29:      Singlet-A     12.7315 eV   97.38 nm  f=0.0919  <S**2>=0.000
       9 -> 15         0.68260

 Excited State  30:      Singlet-A     12.8010 eV   96.85 nm  f=0.0093  <S**2>=0.000
      12 -> 21         0.17972
      12 -> 24         0.67156

 Excited State  31:      Singlet-A     13.0136 eV   95.27 nm  f=0.0155  <S**2>=0.000
       9 -> 16        -0.13487
      10 -> 17        -0.10981
      11 -> 24         0.64520

 Excited State  32:      Singlet-A     13.3664 eV   92.76 nm  f=0.0133  <S**2>=0.000
       8 -> 14         0.46153
       9 -> 16         0.43301
       9 -> 18         0.21160

 Excited State  33:      Singlet-A     13.4981 eV   91.85 nm  f=0.0760  <S**2>=0.000
      10 -> 16         0.66811
      10 -> 20         0.11033

 Excited State  34:      Singlet-A     13.7983 eV   89.85 nm  f=0.0770  <S**2>=0.000
       8 -> 14         0.48296
       9 -> 14         0.10594
       9 -> 16        -0.37161
       9 -> 18        -0.27478

 Excited State  35:      Singlet-A     14.0467 eV   88.27 nm  f=0.0031  <S**2>=0.000
      12 -> 25         0.67673

 Excited State  36:      Singlet-A     14.0769 eV   88.08 nm  f=0.0208  <S**2>=0.000
       9 -> 17         0.67771
      10 -> 18         0.11830

 Excited State  37:      Singlet-A     14.1661 eV   87.52 nm  f=0.0924  <S**2>=0.000
       8 -> 15         0.48480
       9 -> 16         0.10102
       9 -> 18        -0.28650
       9 -> 19        -0.16560
      10 -> 17         0.31575
      12 -> 25         0.11369

 Excited State  38:      Singlet-A     14.1790 eV   87.44 nm  f=0.0220  <S**2>=0.000
       7 -> 13        -0.14180
      10 -> 18         0.40991
      11 -> 25         0.51390

 Excited State  39:      Singlet-A     14.2571 eV   86.96 nm  f=0.0631  <S**2>=0.000
       8 -> 15        -0.32202
       9 -> 20        -0.10593
      10 -> 17         0.55610
      12 -> 27        -0.14114

 Excited State  40:      Singlet-A     14.2955 eV   86.73 nm  f=0.1266  <S**2>=0.000
       6 -> 13        -0.11464
       9 -> 17        -0.13608
      10 -> 18         0.41105
      10 -> 20         0.26389
      11 -> 25        -0.35202
      11 -> 27        -0.10137
      12 -> 26         0.22922

 Excited State  41:      Singlet-A     14.4112 eV   86.03 nm  f=0.0447  <S**2>=0.000
       7 -> 13         0.24564
      10 -> 18        -0.16179
      11 -> 25         0.16120
      12 -> 26         0.58908

 Excited State  42:      Singlet-A     14.4320 eV   85.91 nm  f=0.0001  <S**2>=0.000
       7 -> 13         0.62770
      11 -> 25         0.11309
      12 -> 26        -0.25371

 Excited State  43:      Singlet-A     14.5283 eV   85.34 nm  f=0.1196  <S**2>=0.000
       8 -> 15         0.28599
       8 -> 16         0.13979
       9 -> 16        -0.28286
       9 -> 18         0.49072
      12 -> 27        -0.16847

 Excited State  44:      Singlet-A     14.5942 eV   84.95 nm  f=0.2705  <S**2>=0.000
       8 -> 16         0.10161
       9 -> 16        -0.11932
       9 -> 18         0.14391
       9 -> 20        -0.19950
      11 -> 26         0.18335
      12 -> 27         0.55896

 Excited State  45:      Singlet-A     14.6961 eV   84.37 nm  f=0.0008  <S**2>=0.000
      10 -> 19         0.27249
      11 -> 25        -0.12718
      11 -> 27         0.60517

 Excited State  46:      Singlet-A     14.7448 eV   84.09 nm  f=0.0159  <S**2>=0.000
       8 -> 15         0.15912
       8 -> 16        -0.11484
       9 -> 19         0.53093
       9 -> 20         0.14411
      10 -> 21         0.10400
      11 -> 26         0.32539

 Excited State  47:      Singlet-A     14.8739 eV   83.36 nm  f=0.0014  <S**2>=0.000
      10 -> 19         0.61501
      11 -> 27        -0.27042

 Excited State  48:      Singlet-A     14.8892 eV   83.27 nm  f=0.0596  <S**2>=0.000
       9 -> 19        -0.31881
      10 -> 21         0.11442
      11 -> 26         0.53283
      12 -> 27        -0.18790
      12 -> 28         0.10300

 Excited State  49:      Singlet-A     15.1081 eV   82.06 nm  f=0.0225  <S**2>=0.000
      10 -> 18        -0.21978
      10 -> 20         0.58048
      10 -> 22         0.12725
      10 -> 23        -0.18419
      11 -> 25         0.18107

 Excited State  50:      Singlet-A     15.1707 eV   81.73 nm  f=0.0108  <S**2>=0.000
       8 -> 18        -0.10621
       9 -> 19        -0.12323
       9 -> 20         0.59035
      10 -> 17         0.11131
      11 -> 26        -0.11610
      12 -> 27         0.14411
      12 -> 28        -0.14351

 Excited State  51:      Singlet-A     15.3927 eV   80.55 nm  f=0.0080  <S**2>=0.000
       8 -> 16         0.60348
       8 -> 20         0.13239
       9 -> 18        -0.11889
       9 -> 19         0.11996
       9 -> 20         0.14878
      12 -> 28         0.13929

 Excited State  52:      Singlet-A     15.5077 eV   79.95 nm  f=0.1031  <S**2>=0.000
       7 -> 14         0.63064
       7 -> 15         0.17304
       9 -> 20         0.12333

 Excited State  53:      Singlet-A     15.8603 eV   78.17 nm  f=0.0009  <S**2>=0.000
       8 -> 17         0.47964
       8 -> 21         0.10690
       9 -> 21        -0.40664
      10 -> 22         0.15630
      11 -> 28        -0.15369

 Excited State  54:      Singlet-A     15.8878 eV   78.04 nm  f=0.0202  <S**2>=0.000
       8 -> 17        -0.19404
       9 -> 21         0.12795
      10 -> 18         0.12619
      10 -> 20        -0.16080
      10 -> 22         0.43204
      10 -> 23        -0.35948
      11 -> 28        -0.22484

 Excited State  55:      Singlet-A     15.9007 eV   77.97 nm  f=0.0209  <S**2>=0.000
       8 -> 16        -0.13563
       9 -> 22         0.20542
       9 -> 23        -0.17418
      10 -> 21         0.27991
      11 -> 26        -0.13276
      12 -> 28         0.47015
      12 -> 30        -0.21706
      12 -> 33        -0.12019

 Excited State  56:      Singlet-A     15.9726 eV   77.62 nm  f=0.0093  <S**2>=0.000
       8 -> 18        -0.28672
       8 -> 19        -0.22782
       9 -> 22        -0.13674
       9 -> 23         0.41964
      10 -> 21         0.27004
      10 -> 24        -0.10201
      12 -> 29        -0.21217

 Excited State  57:      Singlet-A     16.0474 eV   77.26 nm  f=0.0170  <S**2>=0.000
       8 -> 18         0.34073
       8 -> 19         0.14722
       8 -> 20         0.14161
      10 -> 21         0.41449
      11 -> 26        -0.10240
      12 -> 28        -0.16128
      12 -> 29        -0.11327
      12 -> 30         0.27444

 Excited State  58:      Singlet-A     16.0814 eV   77.10 nm  f=0.0099  <S**2>=0.000
       8 -> 18        -0.13485
      10 -> 21         0.27227
      12 -> 28        -0.12323
      12 -> 29         0.57280
      12 -> 31         0.12758

 Excited State  59:      Singlet-A     16.1573 eV   76.74 nm  f=0.0325  <S**2>=0.000
       8 -> 17         0.11535
      10 -> 22        -0.10135
      10 -> 23        -0.42731
      11 -> 28         0.49662
      11 -> 31        -0.11158

 Excited State  60:      Singlet-A     16.2426 eV   76.33 nm  f=0.0065  <S**2>=0.000
       6 -> 13        -0.20981
      10 -> 22        -0.13945
      12 -> 32         0.62274

 Excited State  61:      Singlet-A     16.2751 eV   76.18 nm  f=0.1062  <S**2>=0.000
       8 -> 16         0.11615
       8 -> 19        -0.22335
       9 -> 22         0.57777
      12 -> 28        -0.11646
      12 -> 30         0.11031

 Excited State  62:      Singlet-A     16.3245 eV   75.95 nm  f=0.0162  <S**2>=0.000
       9 -> 21         0.11959
      10 -> 22         0.39583
      10 -> 23         0.22591
      11 -> 28         0.34955
      11 -> 29         0.26774
      11 -> 30         0.13142
      12 -> 32         0.19014

 Excited State  63:      Singlet-A     16.3557 eV   75.80 nm  f=0.0038  <S**2>=0.000
       8 -> 17         0.42316
       9 -> 21         0.49379
       9 -> 24        -0.17214
      11 -> 28        -0.14225

 Excited State  64:      Singlet-A     16.4620 eV   75.32 nm  f=0.0257  <S**2>=0.000
       7 -> 14        -0.14339
       7 -> 15         0.52893
      12 -> 28         0.20321
      12 -> 29         0.16269
      12 -> 30         0.22367

 Excited State  65:      Singlet-A     16.4993 eV   75.15 nm  f=0.0022  <S**2>=0.000
      10 -> 22        -0.21886
      10 -> 23        -0.16925
      11 -> 28        -0.11407
      11 -> 29         0.52158
      11 -> 30         0.31397
      11 -> 31        -0.11504

 Excited State  66:      Singlet-A     16.5223 eV   75.04 nm  f=0.0446  <S**2>=0.000
       8 -> 18         0.36551
       8 -> 19        -0.13655
       8 -> 20         0.13872
       9 -> 23         0.38561
      10 -> 24         0.18601
      12 -> 29         0.17126
      12 -> 30        -0.18119

 Excited State  67:      Singlet-A     16.6044 eV   74.67 nm  f=0.0233  <S**2>=0.000
       7 -> 15        -0.22887
       9 -> 23         0.12169
      10 -> 21        -0.13440
      10 -> 24        -0.26048
      11 -> 32         0.25784
      12 -> 28         0.28853
      12 -> 29         0.14677
      12 -> 30         0.33962

 Excited State  68:      Singlet-A     16.6845 eV   74.31 nm  f=0.0557  <S**2>=0.000
       7 -> 15         0.24812
       8 -> 18         0.11091
      10 -> 24        -0.33125
      11 -> 32         0.39870
      12 -> 28        -0.10739
      12 -> 30        -0.30581

 Excited State  69:      Singlet-A     16.7019 eV   74.23 nm  f=0.0000  <S**2>=0.000
       6 -> 13         0.12102
      11 -> 27         0.10379
      11 -> 29        -0.32290
      11 -> 30         0.52933
      11 -> 31        -0.15237
      11 -> 33         0.15914
      11 -> 34        -0.10659

 Excited State  70:      Singlet-A     16.8287 eV   73.67 nm  f=0.1649  <S**2>=0.000
       6 -> 13         0.58257
       9 -> 24        -0.19674
      11 -> 30        -0.12784
      12 -> 32         0.19802

 Excited State  71:      Singlet-A     16.8613 eV   73.53 nm  f=0.0046  <S**2>=0.000
       7 -> 16         0.13050
       8 -> 19         0.41699
       8 -> 20        -0.22911
       9 -> 22         0.19881
       9 -> 23         0.29261
      12 -> 31        -0.27087

 Excited State  72:      Singlet-A     17.0296 eV   72.81 nm  f=0.0007  <S**2>=0.000
       6 -> 14         0.15951
       8 -> 18        -0.13645
       8 -> 19         0.13181
       8 -> 20         0.27757
       8 -> 22         0.13010
      10 -> 24         0.37524
      11 -> 32         0.38619
      12 -> 31        -0.10472

 Excited State  73:      Singlet-A     17.0734 eV   72.62 nm  f=0.0553  <S**2>=0.000
       6 -> 13         0.21148
       7 -> 17         0.12474
       8 -> 24        -0.10075
       9 -> 21         0.12266
       9 -> 24         0.61694

 Excited State  74:      Singlet-A     17.0829 eV   72.58 nm  f=0.1191  <S**2>=0.000
       8 -> 19         0.25063
       9 -> 23         0.12585
      12 -> 31         0.58089

 Excited State  75:      Singlet-A     17.0949 eV   72.53 nm  f=0.0351  <S**2>=0.000
       6 -> 14        -0.15866
       7 -> 16        -0.17937
       8 -> 18        -0.15898
       8 -> 19         0.15721
       8 -> 20         0.46161
       8 -> 22         0.10849
      10 -> 24        -0.23605
      11 -> 32        -0.23672

 Excited State  76:      Singlet-A     17.2586 eV   71.84 nm  f=0.0045  <S**2>=0.000
      10 -> 23        -0.13189
      11 -> 30         0.19973
      11 -> 31         0.61891
      11 -> 33        -0.11272
      11 -> 34         0.10362

 Excited State  77:      Singlet-A     17.4863 eV   70.90 nm  f=0.0085  <S**2>=0.000
       6 -> 14         0.61492
       7 -> 15         0.10213
       7 -> 16        -0.20614
      10 -> 24        -0.11294
      11 -> 32        -0.12659

 Excited State  78:      Singlet-A     17.6043 eV   70.43 nm  f=0.0079  <S**2>=0.000
      10 -> 27        -0.11180
      11 -> 29         0.11907
      11 -> 31         0.16801
      11 -> 33         0.63062

 Excited State  79:      Singlet-A     17.6227 eV   70.35 nm  f=0.0496  <S**2>=0.000
       6 -> 14         0.15175
       7 -> 16         0.41974
       7 -> 18        -0.18315
       8 -> 19        -0.10498
       8 -> 20         0.16923
      10 -> 24        -0.10518
      12 -> 33         0.33097
      12 -> 34        -0.20408

 Excited State  80:      Singlet-A     17.7045 eV   70.03 nm  f=0.0541  <S**2>=0.000
       7 -> 16        -0.27581
       8 -> 20        -0.11011
      12 -> 30        -0.12847
      12 -> 31        -0.10920
      12 -> 33         0.55984

 Excited State  81:      Singlet-A     17.7290 eV   69.93 nm  f=0.0006  <S**2>=0.000
       8 -> 21         0.66428
       8 -> 24        -0.14558

 Excited State  82:      Singlet-A     17.9410 eV   69.11 nm  f=0.0818  <S**2>=0.000
       7 -> 18        -0.18311
       7 -> 19        -0.16933
       7 -> 20        -0.11787
       8 -> 18         0.14605
       8 -> 20        -0.13845
       8 -> 22         0.50454
       8 -> 23        -0.21627

 Excited State  83:      Singlet-A     18.0487 eV   68.69 nm  f=0.0000  <S**2>=0.000
      10 -> 25         0.66781
      10 -> 27         0.14569

 Excited State  84:      Singlet-A     18.1761 eV   68.21 nm  f=0.0032  <S**2>=0.000
       7 -> 17         0.44292
       7 -> 21         0.18490
       8 -> 24        -0.40955
       9 -> 24        -0.18675
       9 -> 26        -0.16023

 Excited State  85:      Singlet-A     18.1929 eV   68.15 nm  f=0.0925  <S**2>=0.000
       6 -> 15         0.18541
       7 -> 16         0.12414
       7 -> 18         0.42144
       7 -> 20         0.25302
       8 -> 23        -0.29667
       9 -> 27         0.14621
      12 -> 34        -0.21917

 Excited State  86:      Singlet-A     18.2533 eV   67.92 nm  f=0.1321  <S**2>=0.000
       6 -> 15        -0.26743
       7 -> 18         0.10261
       7 -> 20         0.14688
       9 -> 25         0.25341
       9 -> 27         0.22378
      12 -> 34         0.46734

 Excited State  87:      Singlet-A     18.3780 eV   67.46 nm  f=0.0336  <S**2>=0.000
       7 -> 18        -0.20859
       7 -> 19        -0.10535
       7 -> 20        -0.10656
       8 -> 22        -0.30360
       8 -> 23        -0.28760
       9 -> 25         0.39642
      10 -> 26         0.21783

 Excited State  88:      Singlet-A     18.4023 eV   67.37 nm  f=0.0453  <S**2>=0.000
       8 -> 24         0.11506
      10 -> 25        -0.12672
      10 -> 27         0.60621
      10 -> 33        -0.11224
      11 -> 34        -0.20475

 Excited State  89:      Singlet-A     18.4089 eV   67.35 nm  f=0.0408  <S**2>=0.000
       6 -> 15         0.10357
       7 -> 16        -0.12261
       8 -> 22         0.19686
       8 -> 23         0.40893
       9 -> 25         0.42835
      12 -> 34        -0.16905

 Excited State  90:      Singlet-A     18.5288 eV   66.91 nm  f=0.0276  <S**2>=0.000
       6 -> 15         0.35044
       7 -> 16         0.11736
       7 -> 19        -0.17753
       8 -> 23         0.11816
       9 -> 25        -0.10549
      10 -> 26         0.45398
      12 -> 34         0.21809

 Excited State  91:      Singlet-A     18.5758 eV   66.75 nm  f=0.0216  <S**2>=0.000
       7 -> 17         0.33577
       8 -> 24         0.35857
      11 -> 34         0.42643

 Excited State  92:      Singlet-A     18.5777 eV   66.74 nm  f=0.0651  <S**2>=0.000
       6 -> 15        -0.32863
       7 -> 18         0.14910
       7 -> 19         0.10102
       8 -> 22         0.11569
       9 -> 27        -0.36640
      10 -> 26         0.39191

 The electronic state is 1-A.
 Alpha  occ. eigenvalues --  -19.24027 -14.48419 -10.41089  -1.14148  -1.01300
 Alpha  occ. eigenvalues --   -0.72628  -0.65978  -0.57958  -0.51241  -0.50979
 Alpha  occ. eigenvalues --   -0.37238  -0.35451
 Alpha virt. eigenvalues --    0.08362   0.08436   0.11381   0.15195   0.17943
 Alpha virt. eigenvalues --    0.18291   0.19410   0.21449   0.24484   0.25297
 Alpha virt. eigenvalues --    0.25768   0.28115   0.32666   0.34161   0.34985

 Mulliken charges:
               1
     1  N    0.150346
     2  C    0.570162
     3  O   -0.414710
     4  H   -0.088721
     5  H   -0.053700
     6  H   -0.163377
 Sum of Mulliken charges =  -0.00000

 Dipole moment (field-independent basis, Debye):
    X=              3.9518    Y=              0.9251    Z=              0.0000  Tot=              4.0586
 Quadrupole moment (field-independent basis, Debye-Ang):
   XX=            -18.1145   YY=            -15.4029   ZZ=            -18.8487
   XY=             -1.3255   XZ=              0.0000   YZ=             -0.0000

 Normal termination of Gaussian 16 at Thu Aug 19 03:59:39 2021.
