 Gaussian 16, Revision C.01,
 Gaussian 16:  EM64L-G16RevC.01  3-Jul-2019

 ----------------------------------------------------------------------
 #P TD(Nstates=10000) wB97XD/Gen SCF(maxcycles=100) Int(Grid=ultrafine)
 ----------------------------------------------------------------------

 ---------------------
 xGDB7_00001_tier4.com
 ---------------------
 Symbolic Z-matrix:
 Charge =  0 Multiplicity = 1

                         Standard orientation:
 ---------------------------------------------------------------------
 Center     Atomic      Atomic             Coordinates (Angstroms)
 Number     Number       Type             X           Y           Z
 ---------------------------------------------------------------------
      1          6           0        0.046419    0.658432    0.000000
      2          8           0        0.046419   -0.751929    0.000000
      3          1           0       -0.438905    1.073261    0.890797
      4          1           0       -0.438905    1.073261   -0.890797
      5          1           0        1.087855    0.977571    0.000000
      6          1           0       -0.859911   -1.059251    0.000000
 ---------------------------------------------------------------------

 SCF Done:  E(RwB97XD) =  -115.610549449     A.U. after   13 cycles

 Excitation energies and oscillator strengths:

 Excited State   1:      Singlet-A"     7.2362 eV  171.34 nm  f=0.0028  <S**2>=0.000
       9 -> 10         0.67181
       9 -> 11        -0.18631
 This state for optimization and/or second-order correction.
 Total Energy, E(TD-HF/TD-DFT) =  -115.344624648
 Copying the excited state density for this state as the 1-particle RhoCI density.

 Excited State   2:      Singlet-A"     8.5801 eV  144.50 nm  f=0.0407  <S**2>=0.000
       9 -> 10         0.18885
       9 -> 11         0.67260

 Excited State   3:      Singlet-A'     8.9970 eV  137.81 nm  f=0.0024  <S**2>=0.000
       8 -> 10         0.67666
       8 -> 11        -0.13506

 Excited State   4:      Singlet-A"     9.5329 eV  130.06 nm  f=0.0140  <S**2>=0.000
       9 -> 13         0.67970
       9 -> 14        -0.11550
       9 -> 15        -0.10070

 Excited State   5:      Singlet-A'     9.5777 eV  129.45 nm  f=0.0691  <S**2>=0.000
       9 -> 12         0.69268

 Excited State   6:      Singlet-A'    10.1219 eV  122.49 nm  f=0.0722  <S**2>=0.000
       8 -> 10         0.13685
       8 -> 11         0.67230

 Excited State   7:      Singlet-A"    10.2499 eV  120.96 nm  f=0.0046  <S**2>=0.000
       9 -> 13         0.13335
       9 -> 14         0.67144

 Excited State   8:      Singlet-A"    10.6372 eV  116.56 nm  f=0.0125  <S**2>=0.000
       9 -> 15         0.67197
       9 -> 17        -0.11035

 Excited State   9:      Singlet-A'    11.1143 eV  111.55 nm  f=0.0819  <S**2>=0.000
       8 -> 13         0.65308
       8 -> 14        -0.17353
       9 -> 16        -0.13131

 Excited State  10:      Singlet-A'    11.1366 eV  111.33 nm  f=0.0195  <S**2>=0.000
       8 -> 13         0.14434
       9 -> 16         0.65925
       9 -> 18         0.17091

 Excited State  11:      Singlet-A"    11.2090 eV  110.61 nm  f=0.0407  <S**2>=0.000
       8 -> 12         0.69600

 Excited State  12:      Singlet-A'    11.6222 eV  106.68 nm  f=0.0551  <S**2>=0.000
       7 -> 10         0.61621
       7 -> 11        -0.15255
       8 -> 14         0.21199
       8 -> 15         0.13689

 Excited State  13:      Singlet-A"    11.7310 eV  105.69 nm  f=0.0116  <S**2>=0.000
       6 -> 10        -0.29453
       9 -> 17         0.60032
       9 -> 19         0.12824

 Excited State  14:      Singlet-A'    11.9332 eV  103.90 nm  f=0.0340  <S**2>=0.000
       8 -> 14        -0.32413
       8 -> 15         0.15067
       9 -> 16        -0.11453
       9 -> 18         0.56973

 Excited State  15:      Singlet-A"    11.9817 eV  103.48 nm  f=0.0538  <S**2>=0.000
       6 -> 10         0.56000
       6 -> 14         0.10827
       9 -> 15         0.11205
       9 -> 17         0.32084
       9 -> 19        -0.20498

 Excited State  16:      Singlet-A'    12.0315 eV  103.05 nm  f=0.0033  <S**2>=0.000
       7 -> 10        -0.28122
       7 -> 11        -0.19686
       8 -> 13         0.14161
       8 -> 14         0.47713
       8 -> 15         0.22157
       9 -> 18         0.24278

 Excited State  17:      Singlet-A"    12.3567 eV  100.34 nm  f=0.0069  <S**2>=0.000
       6 -> 10         0.25045
       8 -> 16         0.18194
       9 -> 19         0.60206

 Excited State  18:      Singlet-A'    12.5509 eV   98.78 nm  f=0.0106  <S**2>=0.000
       7 -> 11         0.23899
       8 -> 15         0.58417
       8 -> 17        -0.21637
       9 -> 18        -0.16480

 Excited State  19:      Singlet-A"    12.5669 eV   98.66 nm  f=0.0293  <S**2>=0.000
       8 -> 16         0.65558
       9 -> 19        -0.15640

 Excited State  20:      Singlet-A'    12.7525 eV   97.22 nm  f=0.1639  <S**2>=0.000
       5 -> 10        -0.10025
       7 -> 11         0.59613
       8 -> 14         0.22203
       8 -> 15        -0.10876
       9 -> 18         0.16144

 Excited State  21:      Singlet-A"    12.8420 eV   96.55 nm  f=0.0501  <S**2>=0.000
       6 -> 11         0.62781
       9 -> 20         0.24305

 Excited State  22:      Singlet-A"    13.2586 eV   93.51 nm  f=0.0023  <S**2>=0.000
       7 -> 12        -0.32017
       8 -> 18         0.60993

 Excited State  23:      Singlet-A"    13.3699 eV   92.73 nm  f=0.0223  <S**2>=0.000
       6 -> 11        -0.25944
       9 -> 19         0.12244
       9 -> 20         0.61327

 Excited State  24:      Singlet-A'    13.4180 eV   92.40 nm  f=0.0214  <S**2>=0.000
       6 -> 12         0.20707
       7 -> 13         0.25236
       8 -> 15         0.14909
       8 -> 17         0.56792
       9 -> 18        -0.11891

 Excited State  25:      Singlet-A'    13.8837 eV   89.30 nm  f=0.1265  <S**2>=0.000
       5 -> 10         0.16029
       7 -> 13         0.57377
       7 -> 14        -0.13774
       8 -> 17        -0.28780

 Excited State  26:      Singlet-A"    13.8945 eV   89.23 nm  f=0.0034  <S**2>=0.000
       7 -> 12         0.60629
       7 -> 16         0.11225
       8 -> 18         0.31094

 Excited State  27:      Singlet-A'    13.9541 eV   88.85 nm  f=0.0647  <S**2>=0.000
       5 -> 10         0.58055
       5 -> 11        -0.13118
       6 -> 12        -0.27956
       7 -> 13        -0.11036

 Excited State  28:      Singlet-A"    14.0813 eV   88.05 nm  f=0.0005  <S**2>=0.000
       6 -> 13         0.62479
       6 -> 14        -0.24624

 Excited State  29:      Singlet-A'    14.2215 eV   87.18 nm  f=0.0550  <S**2>=0.000
       5 -> 10         0.13657
       5 -> 11        -0.14251
       6 -> 12         0.15134
       7 -> 14         0.15244
       8 -> 19         0.57664
       8 -> 20        -0.16408

 Excited State  30:      Singlet-A'    14.5189 eV   85.40 nm  f=0.0953  <S**2>=0.000
       5 -> 10         0.19134
       6 -> 12         0.49268
       7 -> 13        -0.13934
       7 -> 14         0.10988
       7 -> 15         0.26673
       8 -> 19        -0.23811
       9 -> 22         0.15265

 Excited State  31:      Singlet-A"    14.5352 eV   85.30 nm  f=0.0005  <S**2>=0.000
       6 -> 17        -0.10584
       9 -> 20        -0.12689
       9 -> 21         0.66718

 Excited State  32:      Singlet-A'    14.6942 eV   84.38 nm  f=0.0335  <S**2>=0.000
       7 -> 13         0.14194
       7 -> 14         0.44809
       7 -> 15        -0.10306
       8 -> 19        -0.11573
       8 -> 20         0.10994
       9 -> 22        -0.43662

 Excited State  33:      Singlet-A'    14.7040 eV   84.32 nm  f=0.0022  <S**2>=0.000
       6 -> 12        -0.24936
       7 -> 13         0.15653
       7 -> 14         0.14343
       7 -> 15         0.55263
       9 -> 24        -0.12087

 Excited State  34:      Singlet-A"    14.8227 eV   83.64 nm  f=0.0498  <S**2>=0.000
       6 -> 14         0.20336
       6 -> 15         0.28321
       7 -> 16         0.36364
       7 -> 18         0.10694
       8 -> 22         0.10329
       9 -> 23         0.41462

 Excited State  35:      Singlet-A'    14.8889 eV   83.27 nm  f=0.1112  <S**2>=0.000
       5 -> 10         0.13272
       5 -> 11         0.48030
       7 -> 14        -0.10448
       8 -> 19         0.18689
       8 -> 20         0.38749

 Excited State  36:      Singlet-A"    14.9381 eV   83.00 nm  f=0.0619  <S**2>=0.000
       6 -> 13         0.13231
       6 -> 14         0.14802
       6 -> 15        -0.20533
       7 -> 16        -0.43021
       9 -> 23         0.43613

 Excited State  37:      Singlet-A'    15.0172 eV   82.56 nm  f=0.2129  <S**2>=0.000
       5 -> 11         0.13563
       7 -> 14         0.39900
       7 -> 15        -0.19093
       9 -> 22         0.48640

 Excited State  38:      Singlet-A'    15.1284 eV   81.95 nm  f=0.0036  <S**2>=0.000
       5 -> 10        -0.12648
       5 -> 11        -0.40581
       6 -> 16        -0.15568
       8 -> 20         0.47585
       9 -> 24        -0.14021

 Excited State  39:      Singlet-A"    15.1782 eV   81.69 nm  f=0.0250  <S**2>=0.000
       6 -> 13         0.17325
       6 -> 14         0.47057
       6 -> 15         0.24731
       6 -> 19         0.10738
       7 -> 16        -0.17046
       9 -> 21         0.11228
       9 -> 23        -0.31605

 Excited State  40:      Singlet-A'    15.3441 eV   80.80 nm  f=0.3449  <S**2>=0.000
       5 -> 11        -0.12428
       6 -> 18         0.14203
       7 -> 15         0.11751
       8 -> 19        -0.11381
       9 -> 24         0.62719

 Excited State  41:      Singlet-A"    15.3599 eV   80.72 nm  f=0.2481  <S**2>=0.000
       6 -> 13        -0.11140
       6 -> 14        -0.26126
       6 -> 15         0.49657
       6 -> 17        -0.12034
       7 -> 16        -0.33684

 Excited State  42:      Singlet-A'    15.6096 eV   79.43 nm  f=0.1268  <S**2>=0.000
       5 -> 13         0.11668
       6 -> 16         0.57076
       7 -> 15         0.12307
       7 -> 17         0.22571
       8 -> 20         0.14804
       9 -> 22         0.13332

 Excited State  43:      Singlet-A"    15.8621 eV   78.16 nm  f=0.0159  <S**2>=0.000
       5 -> 12         0.10600
       6 -> 15        -0.13598
       7 -> 18         0.60713
       8 -> 24        -0.11461
       9 -> 25        -0.22354

 Excited State  44:      Singlet-A'    15.8994 eV   77.98 nm  f=0.1644  <S**2>=0.000
       5 -> 13         0.14794
       6 -> 16        -0.24803
       7 -> 17         0.49079
       7 -> 19        -0.14525
       8 -> 21         0.32917

 Excited State  45:      Singlet-A"    15.9530 eV   77.72 nm  f=0.0807  <S**2>=0.000
       6 -> 17         0.11878
       7 -> 18         0.26188
       9 -> 25         0.60095

 Excited State  46:      Singlet-A"    16.0200 eV   77.39 nm  f=0.0215  <S**2>=0.000
       5 -> 12         0.66321
       5 -> 16         0.10157
       9 -> 25         0.10129

 Excited State  47:      Singlet-A'    16.1593 eV   76.73 nm  f=0.0036  <S**2>=0.000
       5 -> 13         0.33312
       5 -> 14        -0.11350
       6 -> 18         0.21662
       7 -> 17        -0.35614
       8 -> 21         0.39743

 Excited State  48:      Singlet-A"    16.1863 eV   76.60 nm  f=0.0105  <S**2>=0.000
       6 -> 14        -0.13152
       6 -> 17         0.59023
       8 -> 22        -0.17957
       9 -> 25        -0.18684

 Excited State  49:      Singlet-A'    16.2610 eV   76.25 nm  f=0.0688  <S**2>=0.000
       5 -> 13         0.53668
       6 -> 18        -0.20514
       8 -> 21        -0.30081
       8 -> 23         0.16196
       9 -> 28        -0.10534

 Excited State  50:      Singlet-A'    16.3258 eV   75.94 nm  f=0.0107  <S**2>=0.000
       5 -> 13         0.10495
       6 -> 16        -0.15156
       6 -> 18         0.53888
       7 -> 17         0.18113
       7 -> 19         0.21010
       7 -> 20        -0.10161
       8 -> 21        -0.18662
       9 -> 24        -0.13890

 Excited State  51:      Singlet-A"    16.6020 eV   74.68 nm  f=0.1097  <S**2>=0.000
       6 -> 17         0.19788
       8 -> 22         0.64904

 Excited State  52:      Singlet-A'    16.6099 eV   74.64 nm  f=0.0326  <S**2>=0.000
       5 -> 14         0.14180
       7 -> 17        -0.11260
       8 -> 21         0.11882
       8 -> 23         0.63582

 Excited State  53:      Singlet-A"    16.7105 eV   74.20 nm  f=0.0392  <S**2>=0.000
       6 -> 17        -0.10420
       8 -> 24         0.14653
       9 -> 27         0.59509
       9 -> 29        -0.20221
       9 -> 30         0.13776

 Excited State  54:      Singlet-A'    16.9184 eV   73.28 nm  f=0.0402  <S**2>=0.000
       5 -> 14        -0.19172
       5 -> 15        -0.14509
       7 -> 19         0.35112
       8 -> 23         0.13029
       9 -> 26         0.47869
       9 -> 28         0.15415

 Excited State  55:      Singlet-A'    16.9387 eV   73.20 nm  f=0.0083  <S**2>=0.000
       5 -> 13         0.11404
       5 -> 14         0.60476
       5 -> 15        -0.13663
       7 -> 19         0.13502
       8 -> 21         0.11360
       8 -> 23        -0.12792
       9 -> 26         0.12419

 Excited State  56:      Singlet-A"    16.9830 eV   73.00 nm  f=0.0017  <S**2>=0.000
       6 -> 19        -0.17694
       7 -> 18         0.12102
       8 -> 24         0.61853
       9 -> 29         0.16732

 Excited State  57:      Singlet-A'    16.9862 eV   72.99 nm  f=0.0033  <S**2>=0.000
       5 -> 15         0.31250
       6 -> 18         0.16632
       7 -> 19        -0.34902
       9 -> 26         0.44546

 Excited State  58:      Singlet-A"    17.0469 eV   72.73 nm  f=0.0296  <S**2>=0.000
       6 -> 14        -0.13623
       6 -> 19         0.54092
       6 -> 20        -0.15521
       8 -> 24         0.20044
       9 -> 27        -0.20279
       9 -> 29        -0.19900

 Excited State  59:      Singlet-A"    17.2234 eV   71.99 nm  f=0.0105  <S**2>=0.000
       5 -> 16        -0.29749
       6 -> 19         0.27965
       9 -> 27         0.20670
       9 -> 29         0.47289
       9 -> 30        -0.14371

 Excited State  60:      Singlet-A'    17.2660 eV   71.81 nm  f=0.0195  <S**2>=0.000
       5 -> 15         0.32456
       5 -> 17        -0.10490
       7 -> 19         0.10820
       7 -> 20         0.12813
       9 -> 26        -0.17289
       9 -> 28         0.53122

 Excited State  61:      Singlet-A'    17.3522 eV   71.45 nm  f=0.1805  <S**2>=0.000
       5 -> 15        -0.34740
       7 -> 19        -0.32338
       7 -> 20        -0.26152
       7 -> 21        -0.11416
       8 -> 21        -0.11815
       8 -> 25        -0.11245
       9 -> 28         0.35568

 Excited State  62:      Singlet-A"    17.4745 eV   70.95 nm  f=0.1339  <S**2>=0.000
       5 -> 16         0.59613
       9 -> 27         0.10435
       9 -> 29         0.22975
       9 -> 30        -0.18188

 Excited State  63:      Singlet-A'    17.5377 eV   70.70 nm  f=0.0833  <S**2>=0.000
       5 -> 17         0.11559
       7 -> 20         0.19225
       8 -> 21        -0.11082
       8 -> 25         0.60444
       9 -> 28         0.13321

 Excited State  64:      Singlet-A"    17.7833 eV   69.72 nm  f=0.0020  <S**2>=0.000
       6 -> 20         0.23327
       9 -> 27        -0.10676
       9 -> 29         0.26534
       9 -> 30         0.55763

 Excited State  65:      Singlet-A'    17.8790 eV   69.35 nm  f=0.1538  <S**2>=0.000
       4 -> 10        -0.13859
       5 -> 14        -0.11414
       5 -> 15        -0.21584
       5 -> 17         0.19353
       7 -> 20         0.50502
       8 -> 25        -0.25987
       8 -> 29         0.10995

 Excited State  66:      Singlet-A"    17.8868 eV   69.32 nm  f=0.0018  <S**2>=0.000
       5 -> 18         0.11539
       6 -> 19         0.16188
       6 -> 20         0.57025
       9 -> 30        -0.26065
       9 -> 31         0.11189

 Excited State  67:      Singlet-A'    18.2498 eV   67.94 nm  f=0.0127  <S**2>=0.000
       5 -> 15         0.16687
       5 -> 17         0.55815
       7 -> 20        -0.11841
       8 -> 27         0.27722

 Excited State  68:      Singlet-A"    18.3140 eV   67.70 nm  f=0.0017  <S**2>=0.000
       5 -> 18         0.66384
       6 -> 20        -0.11980
       8 -> 24        -0.10071
       8 -> 26        -0.11408

 Excited State  69:      Singlet-A"    18.4833 eV   67.08 nm  f=0.0081  <S**2>=0.000
       5 -> 18         0.10621
       7 -> 22        -0.10281
       8 -> 26         0.67038

 Excited State  70:      Singlet-A'    18.5034 eV   67.01 nm  f=0.0525  <S**2>=0.000
       5 -> 17        -0.20921
       7 -> 20         0.14724
       7 -> 21        -0.27760
       8 -> 27         0.54706

 Excited State  71:      Singlet-A'    18.6002 eV   66.66 nm  f=0.0060  <S**2>=0.000
       4 -> 10        -0.12621
       5 -> 17        -0.20085
       5 -> 19         0.10454
       7 -> 21         0.54897
       8 -> 27         0.26116

 Excited State  72:      Singlet-A"    18.6879 eV   66.34 nm  f=0.0051  <S**2>=0.000
       6 -> 21        -0.22399
       9 -> 31         0.62887

 Excited State  73:      Singlet-A"    18.7516 eV   66.12 nm  f=0.0283  <S**2>=0.000
       6 -> 21        -0.17251
       7 -> 22         0.24202
       8 -> 28         0.60125

 Excited State  74:      Singlet-A'    18.8679 eV   65.71 nm  f=0.0358  <S**2>=0.000
       4 -> 10         0.39832
       8 -> 29         0.50532
       8 -> 30        -0.14217

 Excited State  75:      Singlet-A'    18.9026 eV   65.59 nm  f=0.0050  <S**2>=0.000
       4 -> 10         0.47944
       4 -> 11        -0.10607
       5 -> 19         0.23504
       7 -> 21         0.13623
       8 -> 29        -0.33749
       9 -> 32         0.11394

 Excited State  76:      Singlet-A'    18.9420 eV   65.45 nm  f=0.0797  <S**2>=0.000
       5 -> 19         0.32720
       6 -> 22        -0.13694
       7 -> 23         0.43825
       8 -> 30        -0.10480
       9 -> 32        -0.35115
       9 -> 35         0.10194

 Excited State  77:      Singlet-A"    19.0359 eV   65.13 nm  f=0.0085  <S**2>=0.000
       6 -> 21        -0.13727
       7 -> 22         0.59363
       7 -> 24         0.19256
       8 -> 28        -0.25441

 Excited State  78:      Singlet-A'    19.0706 eV   65.01 nm  f=0.0584  <S**2>=0.000
       5 -> 19        -0.35975
       5 -> 20         0.12218
       7 -> 23         0.46386
       8 -> 29        -0.19204
       8 -> 30        -0.12670
       9 -> 32         0.20231

 Excited State  79:      Singlet-A"    19.1069 eV   64.89 nm  f=0.0299  <S**2>=0.000
       6 -> 20        -0.15602
       6 -> 21         0.56300
       6 -> 23        -0.19239
       7 -> 22         0.19922
       9 -> 31         0.18945
       9 -> 33        -0.12457

 Excited State  80:      Singlet-A'    19.3761 eV   63.99 nm  f=0.0271  <S**2>=0.000
       4 -> 10        -0.12782
       4 -> 11         0.14386
       5 -> 19         0.21400
       6 -> 22         0.39782
       6 -> 24         0.20554
       7 -> 21        -0.16728
       8 -> 30        -0.34667
       9 -> 32         0.16790

 Excited State  81:      Singlet-A"    19.3815 eV   63.97 nm  f=0.0664  <S**2>=0.000
       6 -> 21         0.11188
       6 -> 23         0.62294
       7 -> 22         0.10187
       7 -> 24        -0.19738
       9 -> 33        -0.12591

 Excited State  82:      Singlet-A'    19.4487 eV   63.75 nm  f=0.0003  <S**2>=0.000
       5 -> 19         0.23627
       6 -> 22        -0.15628
       6 -> 24        -0.16587
       7 -> 21        -0.10988
       7 -> 23         0.12328
       8 -> 30         0.22418
       8 -> 31         0.11186
       9 -> 32         0.47499
       9 -> 35         0.17144

 Excited State  83:      Singlet-A"    19.4544 eV   63.73 nm  f=0.0313  <S**2>=0.000
       6 -> 21         0.14456
       6 -> 23         0.20605
       7 -> 24         0.60923
       8 -> 28         0.12693

 Excited State  84:      Singlet-A'    19.5401 eV   63.45 nm  f=0.0271  <S**2>=0.000
       4 -> 11        -0.16920
       5 -> 20        -0.18152
       6 -> 22         0.40517
       6 -> 24         0.17270
       7 -> 23         0.19458
       8 -> 29         0.11156
       8 -> 30         0.40003

 Excited State  85:      Singlet-A'    19.7048 eV   62.92 nm  f=0.0044  <S**2>=0.000
       4 -> 11         0.37129
       6 -> 22        -0.23120
       6 -> 24         0.48714
       8 -> 30         0.13284

 Excited State  86:      Singlet-A"    19.7146 eV   62.89 nm  f=0.0066  <S**2>=0.000
       6 -> 25        -0.10682
       7 -> 24        -0.15235
       9 -> 31         0.14188
       9 -> 33         0.61197
       9 -> 34        -0.21757

 Excited State  87:      Singlet-A'    19.7890 eV   62.65 nm  f=0.0547  <S**2>=0.000
       4 -> 11         0.45192
       5 -> 20        -0.30481
       6 -> 22         0.15017
       6 -> 24        -0.35619

 Excited State  88:      Singlet-A'    19.8736 eV   62.39 nm  f=0.0818  <S**2>=0.000
       4 -> 11         0.18319
       5 -> 20         0.46543
       6 -> 22         0.16431
       6 -> 28        -0.10641
       7 -> 25        -0.27295
       8 -> 30         0.17000
       8 -> 31         0.14804

 Excited State  89:      Singlet-A"    20.0523 eV   61.83 nm  f=0.0041  <S**2>=0.000
       6 -> 21         0.12200
       9 -> 33         0.21283
       9 -> 34         0.64579

 Excited State  90:      Singlet-A'    20.1997 eV   61.38 nm  f=0.0033  <S**2>=0.000
       5 -> 20         0.11853
       6 -> 28        -0.10265
       7 -> 25         0.55647
       8 -> 29        -0.11604
       8 -> 31         0.23272
       9 -> 35        -0.16292

 Excited State  91:      Singlet-A"    20.3296 eV   60.99 nm  f=0.0395  <S**2>=0.000
       6 -> 25         0.63677
       8 -> 32        -0.12263
       9 -> 36         0.17835

 Excited State  92:      Singlet-A'    20.4206 eV   60.72 nm  f=0.0574  <S**2>=0.000
       5 -> 19        -0.10764
       5 -> 20        -0.18368
       6 -> 28         0.12175
       7 -> 25        -0.16140
       8 -> 31         0.57112
       8 -> 33        -0.17874

 Excited State  93:      Singlet-A"    20.5868 eV   60.22 nm  f=0.0112  <S**2>=0.000
       6 -> 25        -0.19388
       6 -> 27        -0.18905
       9 -> 36         0.63767

 Excited State  94:      Singlet-A'    20.5955 eV   60.20 nm  f=0.1000  <S**2>=0.000

 The electronic state is 1-A'.
 Alpha  occ. eigenvalues --  -19.26645 -10.34165  -1.11661  -0.77660  -0.60387
 Alpha  occ. eigenvalues --   -0.53217  -0.51880  -0.42560  -0.36685
 Alpha virt. eigenvalues --    0.08433   0.11444   0.15806   0.15915   0.18695
 Alpha virt. eigenvalues --    0.21217   0.21814   0.23832   0.24061   0.27833
 Alpha virt. eigenvalues --    0.31687   0.34821   0.35776   0.35906   0.37610

 Mulliken charges:
               1
     1  C    0.493850
     2  O   -0.471284
     3  H   -0.041950
     4  H   -0.041950
     5  H   -0.107488
     6  H    0.168820
 Sum of Mulliken charges =  -0.00000

 Dipole moment (field-independent basis, Debye):
    X=             -1.3992    Y=              0.9904    Z=             -0.0000  Tot=              1.7142
 Quadrupole moment (field-independent basis, Debye-Ang):
   XX=            -11.7974   YY=            -13.4084   ZZ=            -13.8495
   XY=              2.1308   XZ=             -0.0000   YZ=             -0.0000

 Normal termination of Gaussian 16 at Mon Mar 21 16:00:55 2022.
