 Gaussian 16, Revision C.01,
 Gaussian 16:  EM64L-G16RevC.01  3-Jul-2019

 ----------------------------------------------------------------------
 #P TD(Nstates=10000) wB97XD/Gen SCF(maxcycles=100) Int(Grid=ultrafine)
 ----------------------------------------------------------------------

 ---------------------
 xGDB7_00001_tier4.com
 ---------------------
 Symbolic Z-matrix:
 Charge =  0 Multiplicity = 1

                         Standard orientation:
 ---------------------------------------------------------------------
 Center     Atomic      Atomic             Coordinates (Angstroms)
 Number     Number       Type             X           Y           Z
 ---------------------------------------------------------------------
      1          7           0       -0.000002   -0.000000   -0.110463
      2          1           0       -0.147185    0.930214    0.257758
      3          1           0       -0.731998   -0.592574    0.257757
      4          1           0        0.879196   -0.337638    0.257728
 ---------------------------------------------------------------------

 SCF Done:  E(RwB97XD) =  -56.5040768712     A.U. after   13 cycles

 Excitation energies and oscillator strengths:

 Excited State   1:      Singlet-A      7.1660 eV  173.02 nm  f=0.0898  <S**2>=0.000
       5 ->  6         0.70397
 This state for optimization and/or second-order correction.
 Total Energy, E(TD-HF/TD-DFT) =  -56.2407313405
 Copying the excited state density for this state as the 1-particle RhoCI density.

 Excited State   2:      Singlet-A      9.4192 eV  131.63 nm  f=0.0186  <S**2>=0.000
       5 ->  7         0.69289

 Excited State   3:      Singlet-A      9.4192 eV  131.63 nm  f=0.0186  <S**2>=0.000
       5 ->  8         0.69289

 Excited State   4:      Singlet-A     10.9781 eV  112.94 nm  f=0.0007  <S**2>=0.000
       5 ->  9         0.70061

 Excited State   5:      Singlet-A     10.9781 eV  112.94 nm  f=0.0007  <S**2>=0.000
       5 -> 10         0.70061

 Excited State   6:      Singlet-A     11.7344 eV  105.66 nm  f=0.0186  <S**2>=0.000
       3 ->  7         0.11417
       4 ->  8         0.11417
       5 -> 11         0.68430

 Excited State   7:      Singlet-A     12.5425 eV   98.85 nm  f=0.0674  <S**2>=0.000
       4 ->  6         0.65491
       5 -> 13        -0.25523

 Excited State   8:      Singlet-A     12.5426 eV   98.85 nm  f=0.0673  <S**2>=0.000
       3 ->  6         0.65483
       5 -> 12        -0.25543

 Excited State   9:      Singlet-A     12.5814 eV   98.55 nm  f=0.2080  <S**2>=0.000
       5 -> 14         0.69132

 Excited State  10:      Singlet-A     12.6674 eV   97.88 nm  f=0.2319  <S**2>=0.000
       3 ->  6         0.25838
       5 -> 12         0.64999

 Excited State  11:      Singlet-A     12.6674 eV   97.88 nm  f=0.2318  <S**2>=0.000
       4 ->  6         0.25818
       5 -> 13         0.65006

 Excited State  12:      Singlet-A     14.7250 eV   84.20 nm  f=0.0000  <S**2>=0.000
       3 ->  8        -0.47908
       4 ->  7         0.48750

 Excited State  13:      Singlet-A     14.7310 eV   84.17 nm  f=0.0724  <S**2>=0.000
       3 ->  7         0.48642
       4 ->  8        -0.48596

 Excited State  14:      Singlet-A     14.7310 eV   84.17 nm  f=0.0724  <S**2>=0.000
       3 ->  8         0.49016
       4 ->  7         0.48219

 Excited State  15:      Singlet-A     15.9358 eV   77.80 nm  f=0.0005  <S**2>=0.000
       3 ->  7        -0.25673
       3 -> 10         0.11257
       4 ->  8        -0.25672
       4 ->  9         0.11259
       5 -> 15         0.55800

 Excited State  16:      Singlet-A     16.0541 eV   77.23 nm  f=0.0000  <S**2>=0.000
       3 ->  9        -0.49481
       4 -> 10         0.49486

 Excited State  17:      Singlet-A     16.2766 eV   76.17 nm  f=0.0799  <S**2>=0.000
       3 ->  7         0.28928
       3 -> 10        -0.25005
       4 ->  8         0.28927
       4 ->  9        -0.25012
       5 -> 11        -0.10426
       5 -> 15         0.41668

 Excited State  18:      Singlet-A     16.4890 eV   75.19 nm  f=0.0004  <S**2>=0.000
       3 -> 10        -0.13232
       4 ->  9         0.13266
       4 -> 11         0.66038

 Excited State  19:      Singlet-A     16.4890 eV   75.19 nm  f=0.0004  <S**2>=0.000
       3 ->  9        -0.13248
       3 -> 11         0.66038
       4 -> 10        -0.13247

 Excited State  20:      Singlet-A     16.5349 eV   74.98 nm  f=0.0159  <S**2>=0.000
       3 ->  7         0.25087
       3 -> 10         0.41538
       4 ->  8         0.25086
       4 ->  9         0.41547

 Excited State  21:      Singlet-A     16.5403 eV   74.96 nm  f=0.0000  <S**2>=0.000
       5 -> 16         0.70520

 Excited State  22:      Singlet-A     16.6144 eV   74.62 nm  f=0.1587  <S**2>=0.000
       3 -> 10         0.30639
       4 ->  9        -0.30610
       4 -> 11         0.15578
       5 -> 17         0.51973

 Excited State  23:      Singlet-A     16.6144 eV   74.62 nm  f=0.1587  <S**2>=0.000
       3 ->  9        -0.30627
       3 -> 11        -0.15578
       4 -> 10        -0.30623
       5 -> 18         0.51972

 Excited State  24:      Singlet-A     17.0729 eV   72.62 nm  f=0.2291  <S**2>=0.000
       3 ->  9        -0.11951
       3 -> 10        -0.32109
       4 ->  9         0.32103
       4 -> 10        -0.11950
       4 -> 11        -0.11250
       4 -> 14         0.14164
       5 -> 17         0.44247
       5 -> 18        -0.12107

 Excited State  25:      Singlet-A     17.0729 eV   72.62 nm  f=0.2291  <S**2>=0.000
       3 ->  9         0.32108
       3 -> 10        -0.11952
       3 -> 11         0.11246
       3 -> 14        -0.14162
       4 ->  9         0.11950
       4 -> 10         0.32105
       5 -> 17         0.12106
       5 -> 18         0.44248

 Excited State  26:      Singlet-A     17.9304 eV   69.15 nm  f=0.0116  <S**2>=0.000
       3 -> 12        -0.39322
       3 -> 13        -0.21503
       4 -> 12        -0.21515
       4 -> 13         0.39338
       4 -> 14         0.29467

 Excited State  27:      Singlet-A     17.9304 eV   69.15 nm  f=0.0116  <S**2>=0.000
       3 -> 12        -0.21504
       3 -> 13         0.39321
       3 -> 14        -0.29464
       4 -> 12         0.39341
       4 -> 13         0.21514

 Excited State  28:      Singlet-A     18.1062 eV   68.48 nm  f=0.2696  <S**2>=0.000
       3 -> 12         0.49013
       4 -> 13         0.49051
       5 -> 21         0.11164

 Excited State  29:      Singlet-A     18.1131 eV   68.45 nm  f=0.0781  <S**2>=0.000
       3 -> 12         0.18147
       4 -> 11         0.12721
       4 -> 13        -0.18022
       4 -> 14         0.60686
       5 -> 19         0.10840

 Excited State  30:      Singlet-A     18.1132 eV   68.45 nm  f=0.0781  <S**2>=0.000
       3 -> 11         0.12719
       3 -> 13         0.18063
       3 -> 14         0.60688
       4 -> 12         0.18099
       5 -> 20        -0.10841

 Excited State  31:      Singlet-A     18.1590 eV   68.28 nm  f=0.0000  <S**2>=0.000
       3 -> 13         0.49736
       4 -> 12        -0.49699

 Excited State  32:      Singlet-A     19.2603 eV   64.37 nm  f=0.1017  <S**2>=0.000
       4 -> 14        -0.10699
       5 -> 19         0.65951
       5 -> 20         0.18517

 Excited State  33:      Singlet-A     19.2603 eV   64.37 nm  f=0.1017  <S**2>=0.000
       3 -> 14         0.10699
       5 -> 19        -0.18517
       5 -> 20         0.65951

 Excited State  34:      Singlet-A     21.3666 eV   58.03 nm  f=0.0062  <S**2>=0.000
       4 -> 15         0.59215
       5 -> 23         0.35268

 Excited State  35:      Singlet-A     21.3666 eV   58.03 nm  f=0.0062  <S**2>=0.000
       3 -> 15         0.59199
       5 -> 22        -0.35293

 Excited State  36:      Singlet-A     21.4718 eV   57.74 nm  f=0.1199  <S**2>=0.000
       4 -> 15        -0.37614
       5 -> 22        -0.19020
       5 -> 23         0.53903

 Excited State  37:      Singlet-A     21.4718 eV   57.74 nm  f=0.1199  <S**2>=0.000
       3 -> 15         0.37639
       5 -> 22         0.53887
       5 -> 23         0.19018

 Excited State  38:      Singlet-A     21.5427 eV   57.55 nm  f=0.2519  <S**2>=0.000
       3 -> 18        -0.13488
       4 -> 17         0.13485
       5 -> 21         0.65228

 Excited State  39:      Singlet-A     21.7632 eV   56.97 nm  f=0.0020  <S**2>=0.000
       4 -> 16         0.70333

 Excited State  40:      Singlet-A     21.7633 eV   56.97 nm  f=0.0020  <S**2>=0.000
       3 -> 16         0.70333

 Excited State  41:      Singlet-A     22.1998 eV   55.85 nm  f=0.0000  <S**2>=0.000
       3 -> 17         0.45950
       3 -> 18        -0.17846
       4 -> 17         0.17851
       4 -> 18         0.45959

 Excited State  42:      Singlet-A     22.5569 eV   54.97 nm  f=0.1485  <S**2>=0.000
       3 -> 17         0.39603
       3 -> 18         0.25746
       4 -> 17         0.25751
       4 -> 18        -0.39599
       5 -> 22         0.10436
       5 -> 23         0.10461

 Excited State  43:      Singlet-A     22.5569 eV   54.96 nm  f=0.1486  <S**2>=0.000
       3 -> 17        -0.25754
       3 -> 18         0.39601
       4 -> 17         0.39600
       4 -> 18         0.25744
       5 -> 22        -0.10461
       5 -> 23         0.10436

 Excited State  44:      Singlet-A     22.9788 eV   53.96 nm  f=0.0487  <S**2>=0.000
       2 ->  6         0.52781
       3 -> 17        -0.10672
       3 -> 18        -0.27478
       4 -> 17         0.27472
       4 -> 18        -0.10670
       5 -> 21        -0.17119

 Excited State  45:      Singlet-A     24.4868 eV   50.63 nm  f=0.1001  <S**2>=0.000
       2 ->  6         0.43476
       3 -> 17         0.12158
       3 -> 18         0.31302
       3 -> 22        -0.11500
       4 -> 17        -0.31301
       4 -> 18         0.12157
       4 -> 23         0.11499
       5 -> 21         0.10183
       5 -> 27         0.11165

 Excited State  46:      Singlet-A     24.6806 eV   50.24 nm  f=0.0000  <S**2>=0.000
       3 -> 19         0.43128
       3 -> 20         0.24576
       4 -> 19        -0.24591
       4 -> 20         0.43152

 Excited State  47:      Singlet-A     24.8242 eV   49.94 nm  f=0.0412  <S**2>=0.000
       3 -> 19         0.13444
       3 -> 20         0.46651
       4 -> 19         0.46648
       4 -> 20        -0.13421

 Excited State  48:      Singlet-A     24.8242 eV   49.94 nm  f=0.0412  <S**2>=0.000
       3 -> 19         0.46655
       3 -> 20        -0.13424
       4 -> 19        -0.13441
       4 -> 20        -0.46643

 Excited State  49:      Singlet-A     25.0918 eV   49.41 nm  f=0.0655  <S**2>=0.000
       2 ->  6        -0.11502
       3 -> 19        -0.23751
       3 -> 20         0.41680
       4 -> 19        -0.41668
       4 -> 20        -0.23745

 Excited State  50:      Singlet-A     25.5872 eV   48.46 nm  f=0.0271  <S**2>=0.000
       2 ->  7         0.68353

 Excited State  51:      Singlet-A     25.5872 eV   48.46 nm  f=0.0271  <S**2>=0.000
       2 ->  8         0.68353

 Excited State  52:      Singlet-A     26.3587 eV   47.04 nm  f=0.0020  <S**2>=0.000
       2 ->  9         0.11149
       3 -> 22         0.14105
       4 -> 21         0.66449
       4 -> 23         0.14107

 Excited State  53:      Singlet-A     26.3588 eV   47.04 nm  f=0.0020  <S**2>=0.000
       2 -> 10         0.11149
       3 -> 21         0.66449
       3 -> 23        -0.14104
       4 -> 22         0.14108

 Excited State  54:      Singlet-A     26.6681 eV   46.49 nm  f=0.0000  <S**2>=0.000
       3 -> 22        -0.13511
       3 -> 23         0.47969
       4 -> 22         0.47973
       4 -> 23         0.13512

 Excited State  55:      Singlet-A     27.1382 eV   45.69 nm  f=0.0273  <S**2>=0.000
       2 ->  9         0.68221
       3 -> 22        -0.10650
       4 -> 23        -0.10737

 Excited State  56:      Singlet-A     27.1383 eV   45.69 nm  f=0.0273  <S**2>=0.000
       2 -> 10         0.68221
       3 -> 23         0.10689
       4 -> 22        -0.10697

 Excited State  57:      Singlet-A     27.1487 eV   45.67 nm  f=0.2209  <S**2>=0.000
       2 -> 11         0.48581
       3 -> 22         0.32944
       4 -> 23        -0.32918
       5 -> 24         0.10582

 Excited State  58:      Singlet-A     27.4124 eV   45.23 nm  f=0.1388  <S**2>=0.000
       2 -> 11         0.35353
       3 -> 22        -0.27611
       4 -> 23         0.27619
       5 -> 24         0.41701

 Excited State  59:      Singlet-A     27.6489 eV   44.84 nm  f=0.3604  <S**2>=0.000
       2 ->  8         0.12387
       2 ->  9         0.12652
       2 -> 13        -0.10486
       3 -> 22         0.43057
       4 -> 21        -0.19153
       4 -> 23         0.43050

 Excited State  60:      Singlet-A     27.6490 eV   44.84 nm  f=0.3604  <S**2>=0.000
       2 ->  7        -0.12387
       2 -> 10        -0.12652
       2 -> 12         0.10487
       3 -> 21         0.19154
       3 -> 23         0.43056
       4 -> 22        -0.43051

 Excited State  61:      Singlet-A     27.8030 eV   44.59 nm  f=0.0299  <S**2>=0.000
       2 -> 11        -0.35716
       2 -> 14        -0.17762
       3 -> 22         0.13175
       4 -> 23        -0.13167
       5 -> 24         0.54000

 Excited State  62:      Singlet-A     28.7692 eV   43.10 nm  f=0.0153  <S**2>=0.000
       2 -> 12         0.69436

 Excited State  63:      Singlet-A     28.7693 eV   43.10 nm  f=0.0153  <S**2>=0.000
       2 -> 13         0.69436

 Excited State  64:      Singlet-A     29.0546 eV   42.67 nm  f=0.0214  <S**2>=0.000
       2 -> 14         0.67182
       5 -> 24         0.12804

 Excited State  65:      Singlet-A     31.7088 eV   39.10 nm  f=0.0027  <S**2>=0.000
       5 -> 25         0.69919

 Excited State  66:      Singlet-A     31.7088 eV   39.10 nm  f=0.0027  <S**2>=0.000
       5 -> 26         0.69919

 Excited State  67:      Singlet-A     32.3932 eV   38.27 nm  f=0.0218  <S**2>=0.000
       2 -> 15         0.67993
       5 -> 27        -0.16858

 Excited State  68:      Singlet-A     32.4957 eV   38.15 nm  f=0.0000  <S**2>=0.000
       2 -> 16         0.70586

 Excited State  69:      Singlet-A     33.0024 eV   37.57 nm  f=0.0050  <S**2>=0.000
       2 -> 17         0.60334
       4 -> 24         0.32405

 Excited State  70:      Singlet-A     33.0024 eV   37.57 nm  f=0.0050  <S**2>=0.000
       2 -> 18         0.60335
       3 -> 24        -0.32404

 Excited State  71:      Singlet-A     33.7427 eV   36.74 nm  f=0.1260  <S**2>=0.000
       2 -> 17        -0.34241
       3 -> 24        -0.11492
       4 -> 24         0.59818

 Excited State  72:      Singlet-A     33.7428 eV   36.74 nm  f=0.1260  <S**2>=0.000
       2 -> 18         0.34239
       3 -> 24         0.59819
       4 -> 24         0.11492

 Excited State  73:      Singlet-A     35.4258 eV   35.00 nm  f=0.0115  <S**2>=0.000
       2 -> 15         0.10352
       3 -> 26        -0.26072
       4 -> 25         0.26073
       5 -> 27         0.57701

 Excited State  74:      Singlet-A     35.5031 eV   34.92 nm  f=0.0000  <S**2>=0.000
       2 -> 19        -0.41551
       2 -> 20         0.56514

 Excited State  75:      Singlet-A     35.5031 eV   34.92 nm  f=0.0000  <S**2>=0.000
       2 -> 19         0.56514
       2 -> 20         0.41551

 Excited State  76:      Singlet-A     37.1819 eV   33.35 nm  f=0.0000  <S**2>=0.000
       3 -> 25         0.49128
       4 -> 26         0.49136

 Excited State  77:      Singlet-A     37.2046 eV   33.32 nm  f=0.0278  <S**2>=0.000
       2 -> 21         0.70235

 Excited State  78:      Singlet-A     37.4421 eV   33.11 nm  f=0.0037  <S**2>=0.000
       2 -> 22         0.39866
       2 -> 23         0.19432
       3 -> 25        -0.34448
       3 -> 26        -0.16263
       4 -> 25        -0.16264
       4 -> 26         0.34443

 Excited State  79:      Singlet-A     37.4421 eV   33.11 nm  f=0.0037  <S**2>=0.000
       2 -> 22        -0.19435
       2 -> 23         0.39868
       3 -> 25         0.16265
       3 -> 26        -0.34444
       4 -> 25        -0.34444
       4 -> 26        -0.16259

 Excited State  80:      Singlet-A     37.7185 eV   32.87 nm  f=0.0438  <S**2>=0.000
       2 -> 22         0.34568
       2 -> 23         0.42384
       3 -> 25         0.19850
       3 -> 26         0.23728
       4 -> 25         0.23729
       4 -> 26        -0.19849

 Excited State  81:      Singlet-A     37.7185 eV   32.87 nm  f=0.0438  <S**2>=0.000
       2 -> 22         0.42382
       2 -> 23        -0.34566
       3 -> 25         0.23732
       3 -> 26        -0.19851
       4 -> 25        -0.19851
       4 -> 26        -0.23728

 Excited State  82:      Singlet-A     39.3462 eV   31.51 nm  f=0.0378  <S**2>=0.000
       4 -> 27         0.61459
       5 -> 28        -0.33732

 Excited State  83:      Singlet-A     39.3463 eV   31.51 nm  f=0.0378  <S**2>=0.000
       3 -> 27         0.61458
       5 -> 29        -0.33733

 Excited State  84:      Singlet-A     39.6394 eV   31.28 nm  f=0.0389  <S**2>=0.000
       4 -> 27         0.34325
       5 -> 28         0.60305

 Excited State  85:      Singlet-A     39.6394 eV   31.28 nm  f=0.0389  <S**2>=0.000
       3 -> 27         0.34326
       5 -> 29         0.60304

 Excited State  86:      Singlet-A     40.0808 eV   30.93 nm  f=0.0217  <S**2>=0.000
       2 -> 15         0.10981
       2 -> 24         0.20305
       3 -> 26         0.38639
       3 -> 29         0.13660
       4 -> 25        -0.38636
       4 -> 28         0.13661
       5 -> 27         0.27756

 Excited State  87:      Singlet-A     43.4405 eV   28.54 nm  f=0.0409  <S**2>=0.000
       5 -> 30         0.69967

 Excited State  88:      Singlet-A     44.2299 eV   28.03 nm  f=0.0615  <S**2>=0.000
       2 -> 24         0.61591
       3 -> 29        -0.22239
       4 -> 28        -0.22244

 Excited State  89:      Singlet-A     44.9331 eV   27.59 nm  f=0.0000  <S**2>=0.000
       3 -> 28         0.49341
       4 -> 29        -0.49340

 Excited State  90:      Singlet-A     45.2960 eV   27.37 nm  f=0.0298  <S**2>=0.000
       3 -> 28         0.42868
       3 -> 29        -0.24883
       4 -> 28         0.24883
       4 -> 29         0.42866

 Excited State  91:      Singlet-A     45.2960 eV   27.37 nm  f=0.0299  <S**2>=0.000
       3 -> 28         0.24880
       3 -> 29         0.42868
       4 -> 28        -0.42866
       4 -> 29         0.24886

 Excited State  92:      Singlet-A     48.0937 eV   25.78 nm  f=0.0340  <S**2>=0.000
       2 -> 25         0.68240
       2 -> 26         0.13686
       4 -> 30         0.10978

 Excited State  93:      Singlet-A     48.0938 eV   25.78 nm  f=0.0340  <S**2>=0.000
       2 -> 25        -0.13686
       2 -> 26         0.68240
       3 -> 30        -0.10978

 Excited State  94:      Singlet-A     48.3449 eV   25.65 nm  f=0.0541  <S**2>=0.000
       2 -> 24         0.25877
       3 -> 26        -0.11725
       3 -> 29         0.41000
       4 -> 25         0.11725
       4 -> 28         0.40998
       5 -> 27        -0.17534

 Excited State  95:      Singlet-A     48.9366 eV   25.34 nm  f=0.0006  <S**2>=0.000
       2 -> 25        -0.11755
       4 -> 30         0.69187

 Excited State  96:      Singlet-A     48.9367 eV   25.34 nm  f=0.0006  <S**2>=0.000
       2 -> 26         0.11755
       3 -> 30         0.69187

 Excited State  97:      Singlet-A     50.2182 eV   24.69 nm  f=0.0894  <S**2>=0.000
       2 -> 27         0.70504

 Excited State  98:      Singlet-A     52.1176 eV   23.79 nm  f=0.0000  <S**2>=0.000
       5 -> 31         0.70699

 Excited State  99:      Singlet-A     52.5223 eV   23.61 nm  f=0.0446  <S**2>=0.000
       5 -> 32         0.69704

 Excited State 100:      Singlet-A     52.5224 eV   23.61 nm  f=0.0446  <S**2>=0.000
       5 -> 33         0.69704

 Excited State 101:      Singlet-A     55.8305 eV   22.21 nm  f=0.0606  <S**2>=0.000
       2 -> 28         0.69812

 Excited State 102:      Singlet-A     55.8306 eV   22.21 nm  f=0.0606  <S**2>=0.000
       2 -> 29         0.69812

 Excited State 103:      Singlet-A     57.5685 eV   21.54 nm  f=0.0052  <S**2>=0.000
       3 -> 32        -0.20274
       4 -> 33        -0.20278
       5 -> 34         0.64132

 Excited State 104:      Singlet-A     57.6727 eV   21.50 nm  f=0.0000  <S**2>=0.000
       3 -> 33        -0.49890
       4 -> 32         0.49948

 Excited State 105:      Singlet-A     57.7162 eV   21.48 nm  f=0.0594  <S**2>=0.000
       3 -> 31         0.13348
       4 -> 31         0.68104

 Excited State 106:      Singlet-A     57.7164 eV   21.48 nm  f=0.0594  <S**2>=0.000
       3 -> 31         0.68105
       4 -> 31        -0.13345

 Excited State 107:      Singlet-A     57.9355 eV   21.40 nm  f=0.0570  <S**2>=0.000
       3 -> 33         0.48560
       4 -> 32         0.48534

 Excited State 108:      Singlet-A     57.9356 eV   21.40 nm  f=0.0571  <S**2>=0.000
       3 -> 32        -0.48545
       4 -> 33         0.48552

 Excited State 109:      Singlet-A     58.4819 eV   21.20 nm  f=0.3403  <S**2>=0.000
       2 -> 30        -0.10194
       3 -> 32         0.44600
       4 -> 33         0.44594
       5 -> 34         0.28376

 Excited State 110:      Singlet-A     59.9703 eV   20.67 nm  f=0.0344  <S**2>=0.000
       5 -> 35         0.69282

 Excited State 111:      Singlet-A     59.9705 eV   20.67 nm  f=0.0344  <S**2>=0.000
       5 -> 36         0.69282

 Excited State 112:      Singlet-A     60.5648 eV   20.47 nm  f=0.0494  <S**2>=0.000
       2 -> 30         0.68820

 Excited State 113:      Singlet-A     62.5934 eV   19.81 nm  f=0.0166  <S**2>=0.000
       4 -> 34         0.69337

 Excited State 114:      Singlet-A     62.5935 eV   19.81 nm  f=0.0166  <S**2>=0.000
       3 -> 34         0.69337

 Excited State 115:      Singlet-A     63.9934 eV   19.37 nm  f=0.0067  <S**2>=0.000
       3 -> 35        -0.16538
       4 -> 36         0.16538
       5 -> 37         0.65803

 Excited State 116:      Singlet-A     63.9934 eV   19.37 nm  f=0.0067  <S**2>=0.000
       3 -> 36         0.16537
       4 -> 35         0.16541
       5 -> 38         0.65802

 Excited State 117:      Singlet-A     65.3102 eV   18.98 nm  f=0.0000  <S**2>=0.000
       2 -> 31        -0.10146
       3 -> 36        -0.49180
       4 -> 35         0.49403

 Excited State 118:      Singlet-A     65.3881 eV   18.96 nm  f=0.0717  <S**2>=0.000
       3 -> 35         0.46373
       4 -> 36        -0.46332
       5 -> 37         0.22232

 Excited State 119:      Singlet-A     65.3882 eV   18.96 nm  f=0.0717  <S**2>=0.000
       3 -> 36         0.46476
       4 -> 35         0.46228
       5 -> 38        -0.22233

 Excited State 120:      Singlet-A     65.4401 eV   18.95 nm  f=0.0019  <S**2>=0.000
       3 -> 35         0.49542
       4 -> 36         0.49587

 Excited State 121:      Singlet-A     68.0217 eV   18.23 nm  f=0.0000  <S**2>=0.000

 The electronic state is 1-A.
 Alpha  occ. eigenvalues --  -14.42696  -0.94325  -0.55172  -0.55172  -0.35429
 Alpha virt. eigenvalues --    0.10225   0.18565   0.18565   0.24878   0.24879
 Alpha virt. eigenvalues --    0.26090   0.30662   0.30662   0.30830   0.42910
 Alpha virt. eigenvalues --    0.44102   0.46855   0.46855   0.55825   0.55825

 Mulliken charges:
               1
     1  N    0.023490
     2  H   -0.007830
     3  H   -0.007832
     4  H   -0.007828
 Sum of Mulliken charges =  -0.00000

 Dipole moment (field-independent basis, Debye):
    X=              0.0000    Y=             -0.0000    Z=              1.5475  Tot=              1.5475
 Quadrupole moment (field-independent basis, Debye-Ang):
   XX=             -6.2733   YY=             -6.2733   ZZ=             -9.1970
   XY=              0.0000   XZ=             -0.0001   YZ=              0.0000

 Normal termination of Gaussian 16 at Mon Mar 21 16:01:31 2022.
