 Gaussian 16, Revision C.01,
 Gaussian 16:  EM64L-G16RevC.01  3-Jul-2019

 ----------------------------------------------------------------------
 #P TD(Nstates=10000) wB97XD/Gen SCF(maxcycles=100) Int(Grid=ultrafine)
 ----------------------------------------------------------------------

 ---------------------
 xGDB7_00001_tier4.com
 ---------------------
 Symbolic Z-matrix:
 Charge =  0 Multiplicity = 1

                         Standard orientation:
 ---------------------------------------------------------------------
 Center     Atomic      Atomic             Coordinates (Angstroms)
 Number     Number       Type             X           Y           Z
 ---------------------------------------------------------------------
      1          6           0        0.926251   -0.719055    0.000000
      2          6           0        0.000000    0.459276    0.000000
      3          8           0       -1.196998    0.387136    0.000000
      4          1           0        1.575965   -0.668678    0.877698
      5          1           0        1.575965   -0.668678   -0.877698
      6          1           0        0.366733   -1.652236    0.000000
      7          1           0        0.499813    1.451182    0.000000
 ---------------------------------------------------------------------

 SCF Done:  E(RwB97XD) =  -153.676269020     A.U. after   14 cycles

 Excitation energies and oscillator strengths:

 Excited State   1:      Singlet-A"     4.3825 eV  282.91 nm  f=0.0001  <S**2>=0.000
      12 -> 13         0.70397
 This state for optimization and/or second-order correction.
 Total Energy, E(TD-HF/TD-DFT) =  -153.515216652
 Copying the excited state density for this state as the 1-particle RhoCI density.

 Excited State   2:      Singlet-A'     7.6051 eV  163.03 nm  f=0.0189  <S**2>=0.000
      12 -> 14         0.64923
      12 -> 15         0.24166

 Excited State   3:      Singlet-A'     8.4471 eV  146.78 nm  f=0.0773  <S**2>=0.000
      11 -> 13        -0.10389
      12 -> 14        -0.21704
      12 -> 15         0.63773
      12 -> 17        -0.10846

 Excited State   4:      Singlet-A"     8.8915 eV  139.44 nm  f=0.0004  <S**2>=0.000
       7 -> 13         0.13263
       9 -> 13        -0.14049
      10 -> 13         0.67632

 Excited State   5:      Singlet-A'     9.0934 eV  136.34 nm  f=0.1277  <S**2>=0.000
      11 -> 13        -0.44620
      12 -> 17         0.46781
      12 -> 18        -0.25050

 Excited State   6:      Singlet-A"     9.3150 eV  133.10 nm  f=0.0144  <S**2>=0.000
      12 -> 16         0.68208
      12 -> 19        -0.13812

 Excited State   7:      Singlet-A'     9.4152 eV  131.69 nm  f=0.2553  <S**2>=0.000
      11 -> 13         0.46851
      12 -> 14        -0.13556
      12 -> 15         0.10233
      12 -> 17         0.45801

 Excited State   8:      Singlet-A"     9.6429 eV  128.58 nm  f=0.0010  <S**2>=0.000
       9 -> 13         0.67896
      10 -> 13         0.13034

 Excited State   9:      Singlet-A'     9.7663 eV  126.95 nm  f=0.0004  <S**2>=0.000
      11 -> 13        -0.15873
      12 -> 17         0.18698
      12 -> 18         0.62003
      12 -> 20         0.14932

 Excited State  10:      Singlet-A"    10.0721 eV  123.10 nm  f=0.0027  <S**2>=0.000
      12 -> 16         0.12638
      12 -> 19         0.67766

 Excited State  11:      Singlet-A'    10.2306 eV  121.19 nm  f=0.0824  <S**2>=0.000
      12 -> 18        -0.13759
      12 -> 20         0.66965

 Excited State  12:      Singlet-A"    10.4784 eV  118.32 nm  f=0.0080  <S**2>=0.000
      11 -> 14         0.68676

 Excited State  13:      Singlet-A'    10.7509 eV  115.32 nm  f=0.0082  <S**2>=0.000
       8 -> 13         0.16964
      12 -> 21         0.66040
      12 -> 24         0.10073

 Excited State  14:      Singlet-A"    10.9805 eV  112.91 nm  f=0.0055  <S**2>=0.000
       7 -> 13         0.67713
      10 -> 13        -0.14528

 Excited State  15:      Singlet-A'    11.0810 eV  111.89 nm  f=0.0300  <S**2>=0.000
       8 -> 13         0.41407
      10 -> 14         0.52197
      10 -> 15        -0.10022
      12 -> 21        -0.10858

 Excited State  16:      Singlet-A'    11.2428 eV  110.28 nm  f=0.1288  <S**2>=0.000
       8 -> 13         0.48417
      10 -> 14        -0.42570
      10 -> 15         0.10302
      12 -> 21        -0.11365
      12 -> 23        -0.14449

 Excited State  17:      Singlet-A"    11.3143 eV  109.58 nm  f=0.0540  <S**2>=0.000
       8 -> 14         0.16111
      11 -> 15         0.67055

 Excited State  18:      Singlet-A"    11.6198 eV  106.70 nm  f=0.0058  <S**2>=0.000
      12 -> 22         0.68222

 Excited State  19:      Singlet-A'    11.7519 eV  105.50 nm  f=0.0464  <S**2>=0.000
       8 -> 13         0.14118
      12 -> 23         0.47733
      12 -> 24         0.43860
      12 -> 25         0.13203

 Excited State  20:      Singlet-A'    12.1020 eV  102.45 nm  f=0.0665  <S**2>=0.000
      10 -> 15        -0.15674
      11 -> 16        -0.26249
      12 -> 23        -0.39788
      12 -> 24         0.45516

 Excited State  21:      Singlet-A'    12.1226 eV  102.28 nm  f=0.0799  <S**2>=0.000
       9 -> 14        -0.12331
      10 -> 14         0.15420
      10 -> 15         0.62462
      12 -> 23        -0.15903

 Excited State  22:      Singlet-A"    12.1369 eV  102.15 nm  f=0.1336  <S**2>=0.000
       8 -> 14         0.31537
      11 -> 17         0.59231
      11 -> 18        -0.12853

 Excited State  23:      Singlet-A'    12.3715 eV  100.22 nm  f=0.0789  <S**2>=0.000
      10 -> 15        -0.10832
      11 -> 16         0.60812
      12 -> 23        -0.13642
      12 -> 24         0.21704
      12 -> 25        -0.16542

 Excited State  24:      Singlet-A"    12.5269 eV   98.97 nm  f=0.0213  <S**2>=0.000
       8 -> 14         0.19467
       8 -> 15        -0.11331
      11 -> 18         0.64175

 Excited State  25:      Singlet-A'    12.6010 eV   98.39 nm  f=0.0109  <S**2>=0.000
       9 -> 14        -0.31848
      11 -> 16         0.16897
      12 -> 25         0.56782

 Excited State  26:      Singlet-A'    12.7031 eV   97.60 nm  f=0.0027  <S**2>=0.000
       9 -> 14         0.57153
      10 -> 17        -0.14191
      11 -> 19         0.10050
      12 -> 23        -0.10279
      12 -> 25         0.29089

 Excited State  27:      Singlet-A"    12.7787 eV   97.02 nm  f=0.0450  <S**2>=0.000
       8 -> 14         0.54036
      10 -> 16         0.10477
      11 -> 15        -0.14432
      11 -> 17        -0.32408
      11 -> 18        -0.11917

 Excited State  28:      Singlet-A"    12.8971 eV   96.13 nm  f=0.0010  <S**2>=0.000
       8 -> 15        -0.13264
      10 -> 16         0.58610
      10 -> 19         0.23705
      11 -> 20        -0.20471

 Excited State  29:      Singlet-A"    13.0216 eV   95.21 nm  f=0.0030  <S**2>=0.000
       8 -> 14        -0.10427
       8 -> 15         0.29477
      10 -> 16         0.24699
      11 -> 17         0.11077
      11 -> 20         0.54750

 Excited State  30:      Singlet-A'    13.1226 eV   94.48 nm  f=0.0270  <S**2>=0.000
       7 -> 14        -0.12736
       8 -> 16        -0.11868
       9 -> 15         0.16942
      10 -> 17        -0.11625
      11 -> 19         0.60473
      12 -> 25        -0.11095

 Excited State  31:      Singlet-A'    13.2126 eV   93.84 nm  f=0.0099  <S**2>=0.000
       9 -> 15         0.22132
      10 -> 17         0.55761
      10 -> 20        -0.27564

 Excited State  32:      Singlet-A'    13.3194 eV   93.09 nm  f=0.0473  <S**2>=0.000
       7 -> 14        -0.13937
       9 -> 15         0.31271
      10 -> 18         0.54050
      10 -> 20         0.15353
      11 -> 19        -0.12498

 Excited State  33:      Singlet-A"    13.4274 eV   92.34 nm  f=0.0219  <S**2>=0.000
      10 -> 19        -0.12801
      12 -> 26         0.67004

 Excited State  34:      Singlet-A"    13.4687 eV   92.05 nm  f=0.0019  <S**2>=0.000
       8 -> 15        -0.34046
       8 -> 17         0.22869
      11 -> 18        -0.12333
      11 -> 20         0.23851
      11 -> 21         0.46810

 Excited State  35:      Singlet-A'    13.4877 eV   91.92 nm  f=0.1196  <S**2>=0.000
       9 -> 15         0.50356
       9 -> 17        -0.19332
      10 -> 17        -0.13543
      10 -> 18        -0.30945
      11 -> 19        -0.17527
      11 -> 22         0.11276

 Excited State  36:      Singlet-A'    13.7635 eV   90.08 nm  f=0.0243  <S**2>=0.000
       7 -> 14         0.48219
       7 -> 15         0.18237
       8 -> 16         0.11603
       9 -> 17        -0.15526
      10 -> 20         0.33572
      11 -> 19         0.11626
      11 -> 22        -0.15336

 Excited State  37:      Singlet-A"    13.7706 eV   90.04 nm  f=0.0339  <S**2>=0.000
       6 -> 13        -0.13505
       8 -> 15        -0.13012
       9 -> 16         0.10049
      10 -> 16        -0.21336
      10 -> 19         0.54252
      10 -> 22        -0.16666
      11 -> 20         0.17592
      12 -> 27        -0.11172

 Excited State  38:      Singlet-A"    13.8714 eV   89.38 nm  f=0.0000  <S**2>=0.000
       6 -> 13         0.23926
       8 -> 15         0.37303
       8 -> 18         0.19063
      10 -> 19         0.14417
      11 -> 20        -0.11301
      11 -> 21         0.41657
      11 -> 23        -0.12617

 Excited State  39:      Singlet-A'    14.0039 eV   88.54 nm  f=0.0587  <S**2>=0.000
       7 -> 14         0.41898
       7 -> 15        -0.17146
       8 -> 16        -0.14421
       9 -> 18        -0.12993
      10 -> 15        -0.13878
      10 -> 17        -0.14745
      10 -> 18         0.18152
      10 -> 20        -0.29901
      10 -> 21         0.19185
      11 -> 22         0.13776

 Excited State  40:      Singlet-A"    14.0341 eV   88.34 nm  f=0.0004  <S**2>=0.000
       6 -> 13         0.32372
       8 -> 15        -0.20879
       8 -> 18         0.11328
       8 -> 20         0.14137
      11 -> 20         0.13334
      11 -> 21        -0.12931
      12 -> 27         0.48061

 Excited State  41:      Singlet-A"    14.1317 eV   87.73 nm  f=0.0002  <S**2>=0.000
       6 -> 13        -0.35208
       8 -> 15         0.17871
       8 -> 18        -0.15094
       8 -> 20        -0.10051
       9 -> 16         0.19019
      11 -> 23         0.12754
      12 -> 27         0.45094

 Excited State  42:      Singlet-A'    14.1633 eV   87.54 nm  f=0.0919  <S**2>=0.000
       7 -> 14         0.10846
       7 -> 15         0.17216
       9 -> 17         0.46796
       9 -> 18        -0.15856
      10 -> 20        -0.12851
      10 -> 21        -0.28648
      12 -> 28        -0.18219

 Excited State  43:      Singlet-A'    14.2557 eV   86.97 nm  f=0.0938  <S**2>=0.000
       9 -> 18         0.20232
      10 -> 20        -0.12270
      10 -> 21        -0.13412
      12 -> 28         0.58715

 Excited State  44:      Singlet-A"    14.3091 eV   86.65 nm  f=0.0004  <S**2>=0.000
       6 -> 13         0.14212
       9 -> 16         0.62235
      10 -> 22         0.20284
      12 -> 27        -0.12117

 Excited State  45:      Singlet-A'    14.3574 eV   86.36 nm  f=0.0140  <S**2>=0.000
       8 -> 16        -0.29106
       9 -> 17         0.27731
      10 -> 17         0.20716
      10 -> 20         0.24709
      10 -> 25         0.12244
      11 -> 22         0.34934
      12 -> 28         0.16906

 Excited State  46:      Singlet-A"    14.5092 eV   85.45 nm  f=0.0136  <S**2>=0.000
       6 -> 13         0.18864
       8 -> 17        -0.19631
       8 -> 18        -0.36827
       8 -> 20         0.13191
      11 -> 18        -0.10294
      11 -> 21         0.11798
      11 -> 23         0.42717
      11 -> 24         0.13256
      11 -> 25        -0.12206

 Excited State  47:      Singlet-A'    14.6163 eV   84.83 nm  f=0.1030  <S**2>=0.000
       7 -> 15         0.46072
       8 -> 16        -0.20939
       8 -> 19        -0.11356
       9 -> 18         0.29614
       9 -> 20        -0.11617
      10 -> 20        -0.17653
      10 -> 21         0.11097
      12 -> 28        -0.13839

 Excited State  48:      Singlet-A"    14.6706 eV   84.51 nm  f=0.0790  <S**2>=0.000
       6 -> 13        -0.18590
       8 -> 17        -0.27158
       8 -> 18         0.24684
       8 -> 20         0.11193
       8 -> 21         0.18679
      11 -> 21         0.10663
      11 -> 24         0.46764
      11 -> 25         0.12993

 Excited State  49:      Singlet-A'    14.7464 eV   84.08 nm  f=0.0123  <S**2>=0.000
       7 -> 15         0.28361
       8 -> 16         0.22237
       8 -> 19         0.17742
       9 -> 17        -0.19654
       9 -> 18        -0.24114
       9 -> 20        -0.12633
      11 -> 19         0.10289
      11 -> 22         0.35591
      12 -> 29        -0.15108

 Excited State  50:      Singlet-A"    14.7543 eV   84.03 nm  f=0.0064  <S**2>=0.000
       7 -> 16         0.28822
       8 -> 17         0.11032
       9 -> 16         0.14284
       9 -> 19         0.45584
      10 -> 22        -0.34125
      11 -> 23         0.11584

 Excited State  51:      Singlet-A'    14.7607 eV   84.00 nm  f=0.0579  <S**2>=0.000
       7 -> 15        -0.15018
       9 -> 18         0.35017
       9 -> 20         0.11896
      10 -> 21        -0.28936
      10 -> 24         0.12304
      11 -> 22         0.33747
      12 -> 28        -0.18091
      12 -> 29         0.16695

 Excited State  52:      Singlet-A"    14.8887 eV   83.27 nm  f=0.0440  <S**2>=0.000
       6 -> 13         0.13431
       8 -> 17         0.36540
       8 -> 18         0.27702
       8 -> 21        -0.13258
      10 -> 19         0.10466
      10 -> 22         0.15264
      11 -> 21        -0.12157
      11 -> 23         0.35086
      11 -> 24         0.15623
      11 -> 25         0.12127

 Excited State  53:      Singlet-A'    14.9164 eV   83.12 nm  f=0.1582  <S**2>=0.000
       8 -> 16         0.38981
       8 -> 19         0.13176
       9 -> 17         0.20407
       9 -> 18         0.19911
      10 -> 21         0.40929
      12 -> 29         0.10062

 Excited State  54:      Singlet-A"    15.0677 eV   82.29 nm  f=0.0642  <S**2>=0.000
       6 -> 13         0.13705
       8 -> 17         0.14066
       8 -> 18        -0.22526
       8 -> 20        -0.25967
       8 -> 21         0.11617
       9 -> 19         0.22703
      10 -> 19         0.13752
      10 -> 22         0.22930
      11 -> 23        -0.26305
      11 -> 24         0.31338

 Excited State  55:      Singlet-A"    15.1297 eV   81.95 nm  f=0.0033  <S**2>=0.000
       7 -> 16        -0.11931
       8 -> 17        -0.22921
       8 -> 18         0.13114
       9 -> 19         0.39947
      10 -> 22         0.33901
      11 -> 24        -0.26259
      11 -> 25         0.14075

 Excited State  56:      Singlet-A'    15.1542 eV   81.82 nm  f=0.1196  <S**2>=0.000
       7 -> 17        -0.10658
       7 -> 18        -0.10073
       8 -> 19        -0.10012
       9 -> 18        -0.18389
       9 -> 20         0.12556
       9 -> 21         0.11656
      10 -> 24        -0.17804
      12 -> 29         0.55780

 Excited State  57:      Singlet-A'    15.2225 eV   81.45 nm  f=0.0041  <S**2>=0.000
       7 -> 15         0.13017
       7 -> 18         0.21098
       8 -> 16        -0.10858
       8 -> 19         0.13229
       9 -> 20         0.54434
      10 -> 21         0.10307
      10 -> 23        -0.12694
      10 -> 25         0.10281
      12 -> 29        -0.11409

 Excited State  58:      Singlet-A'    15.3611 eV   80.71 nm  f=0.0301  <S**2>=0.000
       8 -> 16        -0.21466
       8 -> 19         0.54380
       8 -> 22        -0.13424
       9 -> 20        -0.16676
      11 -> 22        -0.16807
      12 -> 29         0.15623

 Excited State  59:      Singlet-A"    15.3963 eV   80.53 nm  f=0.1654  <S**2>=0.000
       6 -> 13         0.13397
       7 -> 16         0.22139
       7 -> 19         0.12903
       8 -> 17        -0.20238
       8 -> 20        -0.26193
       9 -> 19        -0.17558
      10 -> 19         0.11574
      10 -> 22        -0.10082
      11 -> 25         0.44096

 Excited State  60:      Singlet-A'    15.5482 eV   79.74 nm  f=0.1266  <S**2>=0.000
       7 -> 17        -0.28777
       7 -> 18         0.41902
       7 -> 20         0.16660
       7 -> 21         0.10841
       8 -> 19        -0.16349
       9 -> 20        -0.19238
       9 -> 21        -0.10796
       9 -> 23         0.10870
      10 -> 23        -0.21097
      10 -> 24         0.10638

 Excited State  61:      Singlet-A'    15.5823 eV   79.57 nm  f=0.0027  <S**2>=0.000
       7 -> 15        -0.15077
       7 -> 17        -0.34109
       7 -> 18        -0.10030
       9 -> 18         0.10633
       9 -> 21         0.42340
      10 -> 24        -0.13273
      12 -> 29        -0.10730
      12 -> 30         0.24693

 Excited State  62:      Singlet-A'    15.6607 eV   79.17 nm  f=0.0338  <S**2>=0.000
       7 -> 17         0.19489
       9 -> 21        -0.15710
      10 -> 23        -0.32452
      10 -> 24        -0.26301
      10 -> 25        -0.17478
      12 -> 30         0.42983
      12 -> 32         0.10788

 Excited State  63:      Singlet-A"    15.6904 eV   79.02 nm  f=0.0446  <S**2>=0.000
       7 -> 16         0.25556
       8 -> 18        -0.13213
       8 -> 20         0.43671
       8 -> 21        -0.24767
       8 -> 23        -0.15221
      10 -> 22         0.11818
      11 -> 23        -0.18337
      11 -> 25         0.21657

 Excited State  64:      Singlet-A"    15.7324 eV   78.81 nm  f=0.1373  <S**2>=0.000
       7 -> 16         0.49140
       8 -> 18         0.11080
       8 -> 21         0.13601
       9 -> 22         0.18202
      10 -> 22         0.23577
      11 -> 25        -0.26610

 Excited State  65:      Singlet-A'    15.7804 eV   78.57 nm  f=0.1976  <S**2>=0.000
       7 -> 20        -0.12589
       9 -> 21        -0.10281
      10 -> 23         0.11923
      10 -> 24         0.41091
      10 -> 25         0.21197
      12 -> 30         0.40338
      12 -> 32         0.11365

 Excited State  66:      Singlet-A'    16.0598 eV   77.20 nm  f=0.0492  <S**2>=0.000
       7 -> 17         0.22061
       7 -> 18         0.14278
       7 -> 20        -0.21919
       9 -> 20        -0.10367
       9 -> 21         0.36064
       9 -> 23         0.14643
      10 -> 20        -0.10130
      10 -> 23        -0.30292
      10 -> 25         0.23865

 Excited State  67:      Singlet-A'    16.1329 eV   76.85 nm  f=0.0112  <S**2>=0.000
       7 -> 17         0.23903
       7 -> 18         0.28664
       7 -> 20         0.19274
       9 -> 18        -0.10610
       9 -> 21         0.20825
      10 -> 23         0.26456
      12 -> 32         0.34001
      12 -> 34         0.17995

 Excited State  68:      Singlet-A"    16.1559 eV   76.74 nm  f=0.1215  <S**2>=0.000
       7 -> 19        -0.29248
      11 -> 25         0.14243
      12 -> 31         0.59261

 Excited State  69:      Singlet-A'    16.2123 eV   76.48 nm  f=0.0327  <S**2>=0.000
       7 -> 18        -0.21779
       7 -> 21         0.15969
       9 -> 20         0.10031
      10 -> 23        -0.20422
      10 -> 24         0.19098
      10 -> 25        -0.23437
      12 -> 29        -0.11472
      12 -> 30        -0.17905
      12 -> 32         0.42252

 Excited State  70:      Singlet-A'    16.2209 eV   76.43 nm  f=0.0618  <S**2>=0.000
       6 -> 14         0.14396
       7 -> 17        -0.19462
       7 -> 20        -0.18014
       9 -> 21        -0.17039
      10 -> 24        -0.26409
      10 -> 25         0.32996
      12 -> 29        -0.12693
      12 -> 32         0.32865

 Excited State  71:      Singlet-A"    16.2734 eV   76.19 nm  f=0.0017  <S**2>=0.000
       7 -> 19        -0.16138
       8 -> 17         0.15688
       8 -> 20         0.16108
       8 -> 21         0.48318
       8 -> 24        -0.15443
      11 -> 24        -0.16027
      11 -> 25         0.21384
      12 -> 31        -0.23486

 Excited State  72:      Singlet-A"    16.3227 eV   75.96 nm  f=0.0548  <S**2>=0.000
       7 -> 19         0.52655
       8 -> 20         0.12755
       8 -> 21         0.22140
       8 -> 24        -0.11676
       9 -> 22        -0.15557
      12 -> 31         0.26562

 Excited State  73:      Singlet-A'    16.4219 eV   75.50 nm  f=0.1150  <S**2>=0.000
       6 -> 14         0.36532
       7 -> 20        -0.11352
       8 -> 22         0.42074
      10 -> 25        -0.11572
      11 -> 26        -0.14875
      11 -> 27        -0.23852

 Excited State  74:      Singlet-A'    16.4927 eV   75.18 nm  f=0.0212  <S**2>=0.000
       6 -> 14         0.49650
       8 -> 22        -0.33460
       9 -> 23        -0.14455
       9 -> 24        -0.14133
      11 -> 27         0.17317

 Excited State  75:      Singlet-A"    16.5236 eV   75.03 nm  f=0.0172  <S**2>=0.000
       6 -> 16        -0.10389
       7 -> 16        -0.13963
       7 -> 19         0.19303
       9 -> 22         0.62105
      10 -> 22        -0.11388

 Excited State  76:      Singlet-A'    16.6104 eV   74.64 nm  f=0.0316  <S**2>=0.000
       7 -> 18        -0.14335
       7 -> 20         0.26013
       7 -> 21        -0.18498
       9 -> 23        -0.10082
      10 -> 23        -0.16113
      10 -> 25         0.20733
      11 -> 26        -0.32481
      12 -> 34         0.34650
      12 -> 37        -0.10741

 Excited State  77:      Singlet-A'    16.7676 eV   73.94 nm  f=0.0300  <S**2>=0.000
       6 -> 14         0.13312
       7 -> 18        -0.11541
       7 -> 20         0.14734
       8 -> 19         0.10060
       9 -> 23         0.17782
       9 -> 25         0.11374
      11 -> 26         0.49427
      12 -> 34         0.21888
      12 -> 35         0.18397

 Excited State  78:      Singlet-A"    16.8290 eV   73.67 nm  f=0.0058  <S**2>=0.000
       8 -> 23        -0.34403
       8 -> 24        -0.36447
       8 -> 25        -0.18829
      12 -> 33         0.40963

 Excited State  79:      Singlet-A'    16.8739 eV   73.48 nm  f=0.1583  <S**2>=0.000
       7 -> 20        -0.18751
       7 -> 21         0.11809
       8 -> 22        -0.12597

 The electronic state is 1-A'.
 Alpha  occ. eigenvalues --  -19.26973 -10.39900 -10.31307  -1.15172  -0.85379
 Alpha  occ. eigenvalues --   -0.67469  -0.57690  -0.54160  -0.53398  -0.49000
 Alpha  occ. eigenvalues --   -0.46020  -0.34943
 Alpha virt. eigenvalues --    0.04228   0.08874   0.11527   0.15697   0.15968
 Alpha virt. eigenvalues --    0.17604   0.18976   0.18994   0.20266   0.23538
 Alpha virt. eigenvalues --    0.25150   0.26246   0.27569   0.31775   0.33735

 Mulliken charges:
               1
     1  C    0.192547
     2  C    0.062628
     3  O   -0.328348
     4  H    0.096168
     5  H    0.096168
     6  H    0.001181
     7  H   -0.120346
 Sum of Mulliken charges =  -0.00000

 Dipole moment (field-independent basis, Debye):
    X=              2.9402    Y=             -0.3278    Z=             -0.0000  Tot=              2.9584
 Quadrupole moment (field-independent basis, Debye-Ang):
   XX=            -21.2354   YY=            -17.8387   ZZ=            -17.8909
   XY=              0.8343   XZ=             -0.0000   YZ=              0.0000

 Normal termination of Gaussian 16 at Mon Mar 21 15:17:11 2022.
