 Gaussian 16, Revision C.01,
 Gaussian 16:  EM64L-G16RevC.01  3-Jul-2019

 ----------------------------------------------------------------------
 #P TD(Nstates=10000) wB97XD/Gen SCF(maxcycles=100) Int(Grid=ultrafine)
 ----------------------------------------------------------------------

 ---------------------
 xGDB7_00001_tier4.com
 ---------------------
 Symbolic Z-matrix:
 Charge =  0 Multiplicity = 1

                         Standard orientation:
 ---------------------------------------------------------------------
 Center     Atomic      Atomic             Coordinates (Angstroms)
 Number     Number       Type             X           Y           Z
 ---------------------------------------------------------------------
      1          9           0        0.000000    0.000000    0.688193
      2          9           0        0.000000    0.000000   -0.688193
 ---------------------------------------------------------------------

 SCF Done:  E(RwB97XD) =  -199.301725230     A.U. after   10 cycles

 Excitation energies and oscillator strengths:

 Excited state symmetry could not be determined.
 Excited State   1:      Singlet-?Sym    4.8933 eV  253.38 nm  f=0.0001  <S**2>=0.000
       8 -> 10         0.37426
       9 -> 10         0.59973
 This state for optimization and/or second-order correction.
 Total Energy, E(TD-HF/TD-DFT) =  -199.121900023
 Copying the excited state density for this state as the 1-particle RhoCI density.

 Excited state symmetry could not be determined.
 Excited State   2:      Singlet-?Sym    4.8933 eV  253.38 nm  f=0.0001  <S**2>=0.000
       8 -> 10         0.59973
       9 -> 10        -0.37426

 Excited state symmetry could not be determined.
 Excited State   3:      Singlet-?Sym    8.7999 eV  140.89 nm  f=0.0000  <S**2>=0.000
       7 -> 10         0.70468

 Excited state symmetry could not be determined.
 Excited State   4:      Singlet-?Sym    8.7999 eV  140.89 nm  f=0.0000  <S**2>=0.000
       6 -> 10         0.70468

 Excited state symmetry could not be determined.
 Excited State   5:      Singlet-?Sym   13.3606 eV   92.80 nm  f=0.0000  <S**2>=0.000
       9 -> 12         0.68730
       9 -> 17        -0.12525

 Excited state symmetry could not be determined.
 Excited State   6:      Singlet-?Sym   13.3606 eV   92.80 nm  f=0.0000  <S**2>=0.000
       8 -> 12         0.68730
       8 -> 17        -0.12525

 Excited state symmetry could not be determined.
 Excited State   7:      Singlet-?Sym   13.4972 eV   91.86 nm  f=0.0327  <S**2>=0.000
       9 -> 11         0.69090

 Excited state symmetry could not be determined.
 Excited State   8:      Singlet-?Sym   13.4972 eV   91.86 nm  f=0.0327  <S**2>=0.000
       8 -> 11         0.69090

 Excited State   9:      Singlet-SGU   13.5429 eV   91.55 nm  f=0.4430  <S**2>=0.000
       5 -> 10         0.49425
       8 -> 13        -0.35219
       9 -> 14        -0.35219

 Excited state symmetry could not be determined.
 Excited State  10:      Singlet-?Sym   14.4474 eV   85.82 nm  f=0.0000  <S**2>=0.000
       8 -> 14         0.49816
       9 -> 13         0.49816

 Excited state symmetry could not be determined.
 Excited State  11:      Singlet-?Sym   14.4474 eV   85.82 nm  f=0.0000  <S**2>=0.000
       8 -> 13        -0.49816
       9 -> 14         0.49816

 Excited state symmetry could not be determined.
 Excited State  12:      Singlet-?Sym   14.5112 eV   85.44 nm  f=0.0000  <S**2>=0.000
       8 -> 14        -0.49841
       9 -> 13         0.49841

 Excited state symmetry could not be determined.
 Excited State  13:      Singlet-?Sym   16.1244 eV   76.89 nm  f=0.0000  <S**2>=0.000
       7 -> 11        -0.18628
       9 -> 17         0.67363

 Excited state symmetry could not be determined.
 Excited State  14:      Singlet-?Sym   16.1244 eV   76.89 nm  f=0.0000  <S**2>=0.000
       6 -> 11        -0.18628
       8 -> 17         0.67363

 Excited state symmetry could not be determined.
 Excited State  15:      Singlet-?Sym   16.2583 eV   76.26 nm  f=0.0000  <S**2>=0.000
       6 -> 13        -0.10592
       7 -> 14         0.10592
       8 -> 16        -0.48810
       9 -> 15         0.48810

 Excited state symmetry could not be determined.
 Excited State  16:      Singlet-?Sym   16.2583 eV   76.26 nm  f=0.0000  <S**2>=0.000
       6 -> 14         0.10592
       7 -> 13         0.10592
       8 -> 15         0.48810
       9 -> 16         0.48810

 Excited state symmetry could not be determined.
 Excited State  17:      Singlet-?Sym   16.3220 eV   75.96 nm  f=0.0000  <S**2>=0.000
       8 -> 15        -0.48953
       9 -> 16         0.48953

 Excited State  18:      Singlet-SGU   16.3254 eV   75.95 nm  f=0.2600  <S**2>=0.000
       5 -> 10         0.46419
       5 -> 11         0.18644
       8 -> 13         0.34413
       9 -> 14         0.34413

 Excited state symmetry could not be determined.
 Excited State  19:      Singlet-?Sym   16.8345 eV   73.65 nm  f=0.0000  <S**2>=0.000
       8 -> 16         0.49520
       9 -> 15         0.49520

 Excited state symmetry could not be determined.
 Excited State  20:      Singlet-?Sym   17.4385 eV   71.10 nm  f=0.1262  <S**2>=0.000
       6 -> 12         0.67249
       6 -> 17        -0.14398
       7 -> 12        -0.12692

 Excited state symmetry could not be determined.
 Excited State  21:      Singlet-?Sym   17.4385 eV   71.10 nm  f=0.1262  <S**2>=0.000
       6 -> 12         0.12692
       7 -> 12         0.67249
       7 -> 17        -0.14398

 Excited state symmetry could not be determined.
 Excited State  22:      Singlet-?Sym   17.6647 eV   70.19 nm  f=0.0000  <S**2>=0.000
       7 -> 11         0.67152
       9 -> 12         0.11899
       9 -> 17         0.16936

 Excited state symmetry could not be determined.
 Excited State  23:      Singlet-?Sym   17.6647 eV   70.19 nm  f=0.0000  <S**2>=0.000
       6 -> 11         0.67152
       8 -> 12         0.11899
       8 -> 17         0.16936

 Excited state symmetry could not be determined.
 Excited State  24:      Singlet-?Sym   18.4286 eV   67.28 nm  f=0.0000  <S**2>=0.000
       6 -> 14         0.48834
       7 -> 13         0.48834
       8 -> 15        -0.10612
       9 -> 16        -0.10612

 Excited state symmetry could not be determined.
 Excited State  25:      Singlet-?Sym   18.4286 eV   67.28 nm  f=0.0000  <S**2>=0.000
       6 -> 13        -0.48834
       7 -> 14         0.48834
       8 -> 16         0.10612
       9 -> 15        -0.10612

 Excited state symmetry could not be determined.
 Excited State  26:      Singlet-?Sym   18.5183 eV   66.95 nm  f=0.0000  <S**2>=0.000
       6 -> 14        -0.48970
       7 -> 13         0.48970

 Excited State  27:      Singlet-SGG   18.7644 eV   66.07 nm  f=0.0000  <S**2>=0.000
       5 -> 12         0.48503
       6 -> 13        -0.35919
       7 -> 14        -0.35919

 Excited State  28:      Singlet-SGG   19.4729 eV   63.67 nm  f=0.0000  <S**2>=0.000
       5 -> 12         0.48698
       5 -> 17        -0.15700
       6 -> 13         0.33864
       7 -> 14         0.33864

 Excited State  29:      Singlet-SGU   19.4970 eV   63.59 nm  f=0.0076  <S**2>=0.000
       5 -> 10        -0.10044
       5 -> 11         0.64395
       6 -> 16         0.17161
       7 -> 15         0.17161

 Excited state symmetry could not be determined.
 Excited State  30:      Singlet-?Sym   19.9987 eV   62.00 nm  f=0.0091  <S**2>=0.000
       5 -> 13         0.29039
       5 -> 14         0.63298
       7 -> 17         0.10651

 Excited state symmetry could not be determined.
 Excited State  31:      Singlet-?Sym   19.9987 eV   62.00 nm  f=0.0091  <S**2>=0.000
       5 -> 13         0.63298
       5 -> 14        -0.29039
       6 -> 17         0.10651

 Excited state symmetry could not be determined.
 Excited State  32:      Singlet-?Sym   20.1795 eV   61.44 nm  f=0.0753  <S**2>=0.000
       5 -> 14        -0.11492
       6 -> 17         0.17159
       7 -> 12         0.13794
       7 -> 17         0.65646

 Excited state symmetry could not be determined.
 Excited State  33:      Singlet-?Sym   20.1795 eV   61.44 nm  f=0.0753  <S**2>=0.000
       5 -> 13        -0.11492
       6 -> 12         0.13794
       6 -> 17         0.65646
       7 -> 17        -0.17159

 Excited state symmetry could not be determined.
 Excited State  34:      Singlet-?Sym   20.2820 eV   61.13 nm  f=0.0000  <S**2>=0.000
       6 -> 15         0.49768
       7 -> 16         0.49768

 Excited state symmetry could not be determined.
 Excited State  35:      Singlet-?Sym   20.2820 eV   61.13 nm  f=0.0000  <S**2>=0.000
       6 -> 16        -0.49768
       7 -> 15         0.49768

 Excited state symmetry could not be determined.
 Excited State  36:      Singlet-?Sym   20.3360 eV   60.97 nm  f=0.0000  <S**2>=0.000
       6 -> 15        -0.49812
       7 -> 16         0.49812

 Excited state symmetry could not be determined.
 Excited State  37:      Singlet-?Sym   20.6965 eV   59.91 nm  f=0.0091  <S**2>=0.000
       5 -> 10         0.13184
       5 -> 11        -0.20865
       6 -> 16         0.46067
       7 -> 15         0.46067

 Excited state symmetry could not be determined.
 Excited State  38:      Singlet-?Sym   21.6766 eV   57.20 nm  f=0.0636  <S**2>=0.000
       8 -> 18         0.67671
       9 -> 18        -0.18271

 Excited state symmetry could not be determined.
 Excited State  39:      Singlet-?Sym   21.6766 eV   57.20 nm  f=0.0636  <S**2>=0.000
       8 -> 18         0.18271
       9 -> 18         0.67671

 Excited state symmetry could not be determined.
 Excited State  40:      Singlet-?Sym   21.8236 eV   56.81 nm  f=0.0000  <S**2>=0.000
       5 -> 15         0.68957
       5 -> 16         0.14978

 Excited state symmetry could not be determined.
 Excited State  41:      Singlet-?Sym   21.8236 eV   56.81 nm  f=0.0000  <S**2>=0.000
       5 -> 15        -0.14978
       5 -> 16         0.68957

 Excited State  42:      Singlet-SGG   21.8400 eV   56.77 nm  f=0.0000  <S**2>=0.000
       5 -> 12         0.14618
       5 -> 17         0.68247

 Excited state symmetry could not be determined.
 Excited State  43:      Singlet-?Sym   22.9913 eV   53.93 nm  f=0.0000  <S**2>=0.000
       8 -> 20         0.49162
       9 -> 19        -0.49162

 Excited state symmetry could not be determined.
 Excited State  44:      Singlet-?Sym   22.9913 eV   53.93 nm  f=0.0000  <S**2>=0.000
       8 -> 19         0.49162
       9 -> 20         0.49162

 Excited state symmetry could not be determined.
 Excited State  45:      Singlet-?Sym   23.4175 eV   52.95 nm  f=0.0000  <S**2>=0.000
       8 -> 20         0.49745
       9 -> 19         0.49746

 Excited state symmetry could not be determined.
 Excited State  46:      Singlet-?Sym   23.4175 eV   52.95 nm  f=0.0000  <S**2>=0.000
       8 -> 19         0.49746
       9 -> 20        -0.49745

 Excited State  47:      Singlet-SGG   25.3509 eV   48.91 nm  f=0.0000  <S**2>=0.000
       4 -> 10         0.68272

 Excited state symmetry could not be determined.
 Excited State  48:      Singlet-?Sym   25.5233 eV   48.58 nm  f=0.0000  <S**2>=0.000
       6 -> 18         0.70136

 Excited state symmetry could not be determined.
 Excited State  49:      Singlet-?Sym   25.5233 eV   48.58 nm  f=0.0000  <S**2>=0.000
       7 -> 18         0.70136

 Excited state symmetry could not be determined.
 Excited State  50:      Singlet-?Sym   26.6045 eV   46.60 nm  f=0.0000  <S**2>=0.000
       6 -> 19        -0.18360
       6 -> 20         0.44583
       7 -> 19        -0.44581
       7 -> 20        -0.18361
       8 -> 24         0.12254
       9 -> 23        -0.12255

 Excited state symmetry could not be determined.
 Excited State  51:      Singlet-?Sym   26.6045 eV   46.60 nm  f=0.0000  <S**2>=0.000
       6 -> 19         0.44581
       6 -> 20         0.18361
       7 -> 19        -0.18360
       7 -> 20         0.44583
       8 -> 23         0.12255
       9 -> 24         0.12254

 Excited State  52:      Singlet-SGU   27.0174 eV   45.89 nm  f=0.2999  <S**2>=0.000
       5 -> 18         0.62597
       8 -> 21         0.22663
       9 -> 22         0.22663

 Excited state symmetry could not be determined.
 Excited State  53:      Singlet-?Sym   27.1008 eV   45.75 nm  f=0.0000  <S**2>=0.000
       8 -> 22         0.49795
       9 -> 21         0.49795

 Excited state symmetry could not be determined.
 Excited State  54:      Singlet-?Sym   27.1010 eV   45.75 nm  f=0.0000  <S**2>=0.000
       8 -> 21         0.49795
       9 -> 22        -0.49795

 Excited state symmetry could not be determined.
 Excited State  55:      Singlet-?Sym   27.3341 eV   45.36 nm  f=0.0000  <S**2>=0.000
       8 -> 22        -0.49886
       9 -> 21         0.49886

 Excited state symmetry could not be determined.
 Excited State  56:      Singlet-?Sym   27.7427 eV   44.69 nm  f=0.4778  <S**2>=0.000
       6 -> 19         0.31981
       6 -> 20         0.37899
       7 -> 19         0.37900
       7 -> 20        -0.31979

 Excited state symmetry could not be determined.
 Excited State  57:      Singlet-?Sym   27.7427 eV   44.69 nm  f=0.4778  <S**2>=0.000
       6 -> 19         0.37900
       6 -> 20        -0.31979
       7 -> 19        -0.31981
       7 -> 20        -0.37899

 Excited state symmetry could not be determined.
 Excited State  58:      Singlet-?Sym   28.6955 eV   43.21 nm  f=0.0000  <S**2>=0.000
       5 -> 19         0.70403

 Excited state symmetry could not be determined.
 Excited State  59:      Singlet-?Sym   28.6955 eV   43.21 nm  f=0.0000  <S**2>=0.000
       5 -> 20         0.70403

 Excited state symmetry could not be determined.
 Excited State  60:      Singlet-?Sym   28.8027 eV   43.05 nm  f=0.9382  <S**2>=0.000
       4 -> 12        -0.11774
       5 -> 10        -0.11979
       5 -> 18        -0.31758
       8 -> 21         0.42095
       9 -> 22         0.42095

 Excited state symmetry could not be determined.
 Excited State  61:      Singlet-?Sym   29.4186 eV   42.14 nm  f=0.0000  <S**2>=0.000
       6 -> 20         0.13022
       7 -> 19        -0.13015
       8 -> 24        -0.47361
       9 -> 23         0.47376

 Excited state symmetry could not be determined.
 Excited State  62:      Singlet-?Sym   29.4186 eV   42.14 nm  f=0.0000  <S**2>=0.000
       6 -> 19        -0.13015
       7 -> 20        -0.13022
       8 -> 23         0.47376
       9 -> 24         0.47361

 Excited state symmetry could not be determined.
 Excited State  63:      Singlet-?Sym   29.4648 eV   42.08 nm  f=0.0235  <S**2>=0.000
       8 -> 25         0.58844
       9 -> 25         0.35623

 Excited state symmetry could not be determined.
 Excited State  64:      Singlet-?Sym   29.4648 eV   42.08 nm  f=0.0235  <S**2>=0.000
       8 -> 25        -0.35623
       9 -> 25         0.58844

 Excited state symmetry could not be determined.
 Excited State  65:      Singlet-?Sym   29.8439 eV   41.54 nm  f=0.3838  <S**2>=0.000
       8 -> 23        -0.48580
       9 -> 24         0.48611

 Excited state symmetry could not be determined.
 Excited State  66:      Singlet-?Sym   29.8439 eV   41.54 nm  f=0.3838  <S**2>=0.000
       8 -> 24         0.48611
       9 -> 23         0.48580

 Excited state symmetry could not be determined.
 Excited State  67:      Singlet-?Sym   30.5384 eV   40.60 nm  f=0.0000  <S**2>=0.000
       6 -> 22         0.39625
       7 -> 21         0.39625
       8 -> 26         0.30106
       9 -> 27         0.30106

 Excited state symmetry could not be determined.
 Excited State  68:      Singlet-?Sym   30.5385 eV   40.60 nm  f=0.0000  <S**2>=0.000
       6 -> 21         0.39624
       7 -> 22        -0.39624
       8 -> 27         0.30107
       9 -> 26        -0.30107

 Excited state symmetry could not be determined.
 Excited State  69:      Singlet-?Sym   30.9261 eV   40.09 nm  f=0.0000  <S**2>=0.000
       6 -> 22        -0.40529
       7 -> 21         0.40529
       8 -> 26        -0.29235
       9 -> 27         0.29235

 Excited state symmetry could not be determined.
 Excited State  70:      Singlet-?Sym   31.2221 eV   39.71 nm  f=0.0000  <S**2>=0.000
       6 -> 25         0.23228
       8 -> 28         0.61179
       9 -> 28        -0.24164

 Excited state symmetry could not be determined.
 Excited State  71:      Singlet-?Sym   31.2221 eV   39.71 nm  f=0.0000  <S**2>=0.000
       7 -> 25         0.23228
       8 -> 28         0.24164
       9 -> 28         0.61179

 Excited state symmetry could not be determined.
 Excited State  72:      Singlet-?Sym   31.5523 eV   39.29 nm  f=0.0000  <S**2>=0.000
       4 -> 10         0.13484
       4 -> 11         0.31930
       6 -> 21         0.40123
       7 -> 22         0.40123
       8 -> 27         0.15790
       9 -> 26         0.15790

 Excited state symmetry could not be determined.
 Excited State  73:      Singlet-?Sym   31.8080 eV   38.98 nm  f=0.0000  <S**2>=0.000
       6 -> 21         0.30285
       7 -> 22        -0.30285
       8 -> 27        -0.39663
       9 -> 26         0.39663

 Excited state symmetry could not be determined.
 Excited State  74:      Singlet-?Sym   31.8080 eV   38.98 nm  f=0.0000  <S**2>=0.000
       6 -> 22        -0.30284
       7 -> 21        -0.30284
       8 -> 26         0.39663
       9 -> 27         0.39663

 Excited state symmetry could not be determined.
 Excited State  75:      Singlet-?Sym   31.8579 eV   38.92 nm  f=0.0000  <S**2>=0.000
       6 -> 22         0.29224
       7 -> 21        -0.29224
       8 -> 26        -0.40441
       9 -> 27         0.40441

 Excited State  76:      Singlet-SGU   32.3233 eV   38.36 nm  f=0.0186  <S**2>=0.000
       3 -> 10         0.23422
       4 -> 12         0.64424
       4 -> 17        -0.12718

 Excited State  77:      Singlet-SGG   32.3751 eV   38.30 nm  f=0.0000  <S**2>=0.000
       4 -> 11         0.57901
       6 -> 21        -0.11922
       7 -> 22        -0.11922
       8 -> 27        -0.24740
       9 -> 26        -0.24740

 Excited State  78:      Singlet-SGU   32.7544 eV   37.85 nm  f=0.0619  <S**2>=0.000
       3 -> 10         0.61976
       4 -> 12        -0.21685
       5 -> 25        -0.12360
       6 -> 27        -0.14352
       7 -> 26        -0.14352

 Excited state symmetry could not be determined.
 Excited State  79:      Singlet-?Sym   32.7823 eV   37.82 nm  f=0.0000  <S**2>=0.000
       4 -> 11         0.24036
       6 -> 21        -0.25643
       7 -> 22        -0.25643
       8 -> 27         0.38761
       9 -> 26         0.38761

 Excited state symmetry could not be determined.
 Excited State  80:      Singlet-?Sym   33.0586 eV   37.50 nm  f=0.0000  <S**2>=0.000
       4 -> 13         0.62279
       6 -> 23         0.22061
       7 -> 24        -0.22038

 Excited state symmetry could not be determined.
 Excited State  81:      Singlet-?Sym   33.0586 eV   37.50 nm  f=0.0000  <S**2>=0.000
       4 -> 14         0.62279
       6 -> 24        -0.22038
       7 -> 23        -0.22061

 Excited state symmetry could not be determined.
 Excited State  82:      Singlet-?Sym   33.0696 eV   37.49 nm  f=0.3973  <S**2>=0.000
       4 -> 16        -0.12911
       5 -> 21         0.66401
       5 -> 22         0.13468

 Excited state symmetry could not be determined.
 Excited State  83:      Singlet-?Sym   33.0696 eV   37.49 nm  f=0.3973  <S**2>=0.000
       4 -> 15        -0.12911
       5 -> 21        -0.13468
       5 -> 22         0.66401

 Excited state symmetry could not be determined.
 Excited State  84:      Singlet-?Sym   33.1470 eV   37.40 nm  f=0.0000  <S**2>=0.000
       6 -> 23         0.46050
       6 -> 24         0.19093
       7 -> 23        -0.19093
       7 -> 24         0.46050

 Excited state symmetry could not be determined.
 Excited State  85:      Singlet-?Sym   33.1470 eV   37.40 nm  f=0.0000  <S**2>=0.000
       6 -> 23        -0.19093
       6 -> 24         0.46050
       7 -> 23        -0.46050
       7 -> 24        -0.19093

 Excited state symmetry could not be determined.
 Excited State  86:      Singlet-?Sym   33.6504 eV   36.84 nm  f=0.0000  <S**2>=0.000
       4 -> 13         0.30953
       6 -> 23        -0.41245
       6 -> 25        -0.23793
       7 -> 24         0.41255

 Excited state symmetry could not be determined.
 Excited State  87:      Singlet-?Sym   33.6504 eV   36.84 nm  f=0.0000  <S**2>=0.000
       4 -> 14         0.30953
       6 -> 24         0.41255
       7 -> 23         0.41245
       7 -> 25        -0.23793

 Excited state symmetry could not be determined.
 Excited State  88:      Singlet-?Sym   33.8399 eV   36.64 nm  f=0.0000  <S**2>=0.000
       6 -> 24         0.16555
       6 -> 25         0.15192
       7 -> 23         0.16550
       7 -> 25         0.59427
       9 -> 28        -0.23688

 Excited state symmetry could not be determined.
 Excited State  89:      Singlet-?Sym   33.8399 eV   36.64 nm  f=0.0000  <S**2>=0.000
       6 -> 23        -0.16550
       6 -> 25         0.59427
       7 -> 24         0.16555
       7 -> 25        -0.15192
       8 -> 28        -0.23688

 Excited State  90:      Singlet-SGU   34.4357 eV   36.00 nm  f=0.0496  <S**2>=0.000
       4 -> 17        -0.45800
       5 -> 25         0.51347

 Excited state symmetry could not be determined.
 Excited State  91:      Singlet-?Sym   34.7908 eV   35.64 nm  f=0.0000  <S**2>=0.000
       5 -> 23         0.66807
       6 -> 27        -0.15824
       7 -> 26         0.15824

 Excited state symmetry could not be determined.
 Excited State  92:      Singlet-?Sym   34.7909 eV   35.64 nm  f=0.0000  <S**2>=0.000
       5 -> 24         0.66805
       6 -> 26         0.15828
       7 -> 27         0.15828

 Excited state symmetry could not be determined.
 Excited State  93:      Singlet-?Sym   35.0331 eV   35.39 nm  f=0.0008  <S**2>=0.000
       4 -> 16         0.67711
       5 -> 21         0.10737
       6 -> 28         0.13226

 Excited state symmetry could not be determined.
 Excited State  94:      Singlet-?Sym   35.0331 eV   35.39 nm  f=0.0008  <S**2>=0.000
       4 -> 15         0.67711
       5 -> 22         0.10737
       7 -> 28         0.13226

 Excited State  95:      Singlet-SGU   35.0813 eV   35.34 nm  f=0.0000  <S**2>=0.000
       4 -> 17         0.50658
       5 -> 25         0.41032
       6 -> 27        -0.17531
       7 -> 26        -0.17531

 Excited state symmetry could not be determined.
 Excited State  96:      Singlet-?Sym   35.4034 eV   35.02 nm  f=0.0000  <S**2>=0.000
       5 -> 23        -0.22763
       6 -> 27        -0.47034
       7 -> 26         0.47034

 Excited state symmetry could not be determined.
 Excited State  97:      Singlet-?Sym   35.4034 eV   35.02 nm  f=0.0000  <S**2>=0.000
       5 -> 24        -0.22769
       6 -> 26         0.47033
       7 -> 27         0.47033

 Excited state symmetry could not be determined.
 Excited State  98:      Singlet-?Sym   35.4566 eV   34.97 nm  f=0.0000  <S**2>=0.000
       6 -> 26        -0.49703
       7 -> 27         0.49703

 Excited state symmetry could not be determined.
 Excited State  99:      Singlet-?Sym   35.7247 eV   34.71 nm  f=0.0625  <S**2>=0.000
       4 -> 16        -0.11948
       6 -> 28         0.68185

 Excited state symmetry could not be determined.
 Excited State 100:      Singlet-?Sym   35.7247 eV   34.71 nm  f=0.0625  <S**2>=0.000
       4 -> 15        -0.11948
       7 -> 28         0.68185

 Excited state symmetry could not be determined.
 Excited State 101:      Singlet-?Sym   36.6916 eV   33.79 nm  f=0.0470  <S**2>=0.000
       3 -> 10         0.19978
       4 -> 17         0.11867
       5 -> 25         0.20840
       6 -> 27         0.42818
       7 -> 26         0.42818
       8 -> 30        -0.10780
       9 -> 29        -0.10780

 Excited state symmetry could not be determined.
 Excited State 102:      Singlet-?Sym   36.7182 eV   33.77 nm  f=0.0000  <S**2>=0.000
       5 -> 27         0.70126

 Excited state symmetry could not be determined.

 The electronic state is 1-SGG.
 Alpha  occ. eigenvalues --  -24.94103 -24.94087  -1.46843  -1.19131  -0.71125
 Alpha  occ. eigenvalues --   -0.65394  -0.65394  -0.51092  -0.51092
 Alpha virt. eigenvalues --   -0.06128   0.16129   0.18512   0.22031   0.22031
 Alpha virt. eigenvalues --    0.27236   0.27236   0.28320   0.48215   0.57215
 Alpha virt. eigenvalues --    0.57215   0.72466   0.72466   0.79319   0.79319

 Mulliken charges:
               1
     1  F    0.000000
     2  F    0.000000
 Sum of Mulliken charges =   0.00000

 Dipole moment (field-independent basis, Debye):
    X=             -0.0000    Y=              0.0000    Z=             -0.0000  Tot=              0.0000
 Quadrupole moment (field-independent basis, Debye-Ang):
   XX=             -9.7320   YY=             -9.7320   ZZ=             -8.8950
   XY=              0.0000   XZ=              0.0000   YZ=              0.0000

 Normal termination of Gaussian 16 at Mon Mar 21 15:54:27 2022.
