 Gaussian 16, Revision C.01,
 Gaussian 16:  EM64L-G16RevC.01  3-Jul-2019

 ----------------------------------------------------------------------
 #P TD(Nstates=10000) wB97XD/Gen SCF(maxcycles=100) Int(Grid=ultrafine)
 ----------------------------------------------------------------------

 ---------------------
 xGDB7_00001_tier4.com
 ---------------------
 Symbolic Z-matrix:
 Charge =  0 Multiplicity = 1

                         Standard orientation:
 ---------------------------------------------------------------------
 Center     Atomic      Atomic             Coordinates (Angstroms)
 Number     Number       Type             X           Y           Z
 ---------------------------------------------------------------------
      1          9           0        0.000000    0.000000    0.091801
      2          1           0        0.000000    0.000000   -0.826212
 ---------------------------------------------------------------------

 SCF Done:  E(RwB97XD) =  -100.349018916     A.U. after   11 cycles

 Excitation energies and oscillator strengths:

 Excited state symmetry could not be determined.
 Excited State   1:      Singlet-?Sym   10.5322 eV  117.72 nm  f=0.0337  <S**2>=0.000
       4 ->  6         0.49951
       5 ->  6         0.49073
 This state for optimization and/or second-order correction.
 Total Energy, E(TD-HF/TD-DFT) =  -99.9619676702
 Copying the excited state density for this state as the 1-particle RhoCI density.

 Excited state symmetry could not be determined.
 Excited State   2:      Singlet-?Sym   10.5322 eV  117.72 nm  f=0.0337  <S**2>=0.000
       4 ->  6        -0.49073
       5 ->  6         0.49951

 Excited State   3:      Singlet-SG    14.3396 eV   86.46 nm  f=0.1438  <S**2>=0.000
       3 ->  6         0.63014
       4 ->  8         0.21772
       5 ->  9         0.21772

 Excited state symmetry could not be determined.
 Excited State   4:      Singlet-?Sym   14.4998 eV   85.51 nm  f=0.0000  <S**2>=0.000
       4 ->  9         0.49741
       5 ->  8         0.49741

 Excited state symmetry could not be determined.
 Excited State   5:      Singlet-?Sym   14.4998 eV   85.51 nm  f=0.0000  <S**2>=0.000
       4 ->  8         0.49741
       5 ->  9        -0.49741

 Excited state symmetry could not be determined.
 Excited State   6:      Singlet-?Sym   14.5305 eV   85.33 nm  f=0.0268  <S**2>=0.000
       4 ->  7         0.55152
       4 -> 10         0.11820
       5 ->  7         0.41479

 Excited state symmetry could not be determined.
 Excited State   7:      Singlet-?Sym   14.5305 eV   85.33 nm  f=0.0268  <S**2>=0.000
       4 ->  7        -0.41479
       5 ->  7         0.55152
       5 -> 10         0.11820

 Excited state symmetry could not be determined.
 Excited State   8:      Singlet-?Sym   14.5606 eV   85.15 nm  f=0.0000  <S**2>=0.000
       4 ->  9        -0.49728
       5 ->  8         0.49728

 Excited state symmetry could not be determined.
 Excited State   9:      Singlet-?Sym   16.0968 eV   77.02 nm  f=0.0216  <S**2>=0.000
       3 ->  6        -0.27975
       3 ->  7        -0.17044
       3 -> 10        -0.12234
       4 ->  8         0.42677
       5 ->  9         0.42677

 Excited state symmetry could not be determined.
 Excited State  10:      Singlet-?Sym   16.3296 eV   75.93 nm  f=0.0758  <S**2>=0.000
       4 ->  7        -0.13830
       4 -> 10         0.65844
       5 -> 10         0.19121

 Excited state symmetry could not be determined.
 Excited State  11:      Singlet-?Sym   16.3296 eV   75.93 nm  f=0.0758  <S**2>=0.000
       4 -> 10        -0.19121
       5 ->  7        -0.13830
       5 -> 10         0.65844

 Excited state symmetry could not be determined.
 Excited State  12:      Singlet-?Sym   17.3129 eV   71.61 nm  f=0.0000  <S**2>=0.000
       4 -> 11         0.49673
       5 -> 12        -0.49673

 Excited state symmetry could not be determined.
 Excited State  13:      Singlet-?Sym   17.3129 eV   71.61 nm  f=0.0000  <S**2>=0.000
       4 -> 12         0.49673
       5 -> 11         0.49673

 Excited state symmetry could not be determined.
 Excited State  14:      Singlet-?Sym   17.4372 eV   71.10 nm  f=0.0000  <S**2>=0.000
       4 -> 12        -0.49686
       5 -> 11         0.49686

 Excited state symmetry could not be determined.
 Excited State  15:      Singlet-?Sym   17.4826 eV   70.92 nm  f=0.1964  <S**2>=0.000
       3 ->  7        -0.12297
       3 -> 10        -0.13706
       4 -> 11         0.47837
       5 -> 12         0.47837

 Excited state symmetry could not be determined.
 Excited State  16:      Singlet-?Sym   18.2747 eV   67.84 nm  f=0.0003  <S**2>=0.000
       3 ->  8         0.45922
       3 ->  9         0.53175

 Excited state symmetry could not be determined.
 Excited State  17:      Singlet-?Sym   18.2747 eV   67.84 nm  f=0.0003  <S**2>=0.000
       3 ->  8         0.53175
       3 ->  9        -0.45922

 Excited State  18:      Singlet-SG    18.6340 eV   66.54 nm  f=0.0339  <S**2>=0.000
       3 ->  6        -0.11909
       3 ->  7         0.67304

 Excited state symmetry could not be determined.
 Excited State  19:      Singlet-?Sym   19.4528 eV   63.74 nm  f=0.0251  <S**2>=0.000
       4 -> 13         0.70014

 Excited state symmetry could not be determined.
 Excited State  20:      Singlet-?Sym   19.4528 eV   63.74 nm  f=0.0251  <S**2>=0.000
       5 -> 13         0.70014

 Excited state symmetry could not be determined.
 Excited State  21:      Singlet-?Sym   21.0162 eV   58.99 nm  f=0.0724  <S**2>=0.000
       3 -> 11        -0.49459
       3 -> 12         0.49656

 Excited state symmetry could not be determined.
 Excited State  22:      Singlet-?Sym   21.0162 eV   58.99 nm  f=0.0724  <S**2>=0.000
       3 -> 11         0.49656
       3 -> 12         0.49459

 Excited State  23:      Singlet-SG    21.0706 eV   58.84 nm  f=0.1106  <S**2>=0.000
       3 -> 10         0.65949
       3 -> 13         0.18110

 Excited State  24:      Singlet-SG    23.8644 eV   51.95 nm  f=0.0700  <S**2>=0.000
       3 -> 10        -0.15387
       3 -> 13         0.67472

 Excited state symmetry could not be determined.
 Excited State  25:      Singlet-?Sym   24.7498 eV   50.10 nm  f=0.0000  <S**2>=0.000
       4 -> 15         0.49953
       5 -> 14         0.49953

 Excited state symmetry could not be determined.
 Excited State  26:      Singlet-?Sym   24.7498 eV   50.10 nm  f=0.0000  <S**2>=0.000
       4 -> 14         0.49953
       5 -> 15        -0.49953

 Excited state symmetry could not be determined.
 Excited State  27:      Singlet-?Sym   25.9538 eV   47.77 nm  f=0.4586  <S**2>=0.000
       4 -> 14         0.40264
       4 -> 15         0.27344
       4 -> 16        -0.11585
       5 -> 14        -0.27344
       5 -> 15         0.40264

 Excited state symmetry could not be determined.
 Excited State  28:      Singlet-?Sym   25.9538 eV   47.77 nm  f=0.4586  <S**2>=0.000
       4 -> 14         0.27344
       4 -> 15        -0.40264
       5 -> 14         0.40264
       5 -> 15         0.27344
       5 -> 16         0.11585

 Excited state symmetry could not be determined.
 Excited State  29:      Singlet-?Sym   27.4093 eV   45.23 nm  f=0.1279  <S**2>=0.000
       4 -> 16         0.58841
       5 -> 16        -0.35786

 Excited state symmetry could not be determined.
 Excited State  30:      Singlet-?Sym   27.4093 eV   45.23 nm  f=0.1279  <S**2>=0.000
       4 -> 16         0.35786
       5 -> 16         0.58841

 Excited state symmetry could not be determined.
 Excited State  31:      Singlet-?Sym   28.7881 eV   43.07 nm  f=0.0000  <S**2>=0.000
       3 -> 14         0.65765
       4 -> 18         0.18305
       5 -> 17        -0.18305

 Excited state symmetry could not be determined.
 Excited State  32:      Singlet-?Sym   28.7881 eV   43.07 nm  f=0.0000  <S**2>=0.000
       3 -> 15         0.65765
       4 -> 17         0.18305
       5 -> 18         0.18305

 Excited state symmetry could not be determined.
 Excited State  33:      Singlet-?Sym   29.4062 eV   42.16 nm  f=0.0000  <S**2>=0.000
       3 -> 14         0.25964
       4 -> 18        -0.46436
       5 -> 17         0.46436

 Excited state symmetry could not be determined.
 Excited State  34:      Singlet-?Sym   29.4062 eV   42.16 nm  f=0.0000  <S**2>=0.000
       3 -> 15        -0.25964
       4 -> 17         0.46436
       5 -> 18         0.46436

 Excited state symmetry could not be determined.
 Excited State  35:      Singlet-?Sym   29.6329 eV   41.84 nm  f=0.0000  <S**2>=0.000
       4 -> 17         0.49934
       5 -> 18        -0.49934

 Excited state symmetry could not be determined.
 Excited State  36:      Singlet-?Sym   29.8555 eV   41.53 nm  f=0.1440  <S**2>=0.000
       3 -> 16         0.33927
       4 -> 18         0.43306
       5 -> 17         0.43306

 Excited State  37:      Singlet-SG    31.9855 eV   38.76 nm  f=0.4522  <S**2>=0.000
       2 ->  6        -0.44741
       3 -> 16         0.49083
       4 -> 18        -0.15084
       5 -> 17        -0.15084

 Excited State  38:      Singlet-SG    32.5233 eV   38.12 nm  f=0.1792  <S**2>=0.000
       2 ->  6         0.53418
       3 -> 16         0.36902
       4 -> 18        -0.18692
       5 -> 17        -0.18692

 Excited state symmetry could not be determined.
 Excited State  39:      Singlet-?Sym   33.5423 eV   36.96 nm  f=0.2920  <S**2>=0.000
       2 ->  8        -0.10244
       3 -> 18         0.68728

 Excited state symmetry could not be determined.
 Excited State  40:      Singlet-?Sym   33.5423 eV   36.96 nm  f=0.2920  <S**2>=0.000
       2 ->  9        -0.10244
       3 -> 17         0.68728

 Excited State  41:      Singlet-SG    36.0065 eV   34.43 nm  f=0.0057  <S**2>=0.000
       2 ->  7         0.69242
       2 -> 10         0.10619

 Excited state symmetry could not be determined.
 Excited State  42:      Singlet-?Sym   36.0990 eV   34.35 nm  f=0.0008  <S**2>=0.000
       2 ->  8         0.64941
       2 ->  9         0.24246

 Excited state symmetry could not be determined.
 Excited State  43:      Singlet-?Sym   36.0990 eV   34.35 nm  f=0.0008  <S**2>=0.000
       2 ->  8        -0.24246
       2 ->  9         0.64941

 Excited State  44:      Singlet-SG    37.7712 eV   32.83 nm  f=0.0100  <S**2>=0.000
       2 ->  7        -0.10670
       2 -> 10         0.69676

 Excited state symmetry could not be determined.
 Excited State  45:      Singlet-?Sym   37.8489 eV   32.76 nm  f=0.0042  <S**2>=0.000
       2 -> 12        -0.11592
       5 -> 19         0.69346

 Excited state symmetry could not be determined.
 Excited State  46:      Singlet-?Sym   37.8489 eV   32.76 nm  f=0.0042  <S**2>=0.000
       2 -> 11        -0.11592
       4 -> 19         0.69346

 Excited state symmetry could not be determined.
 Excited State  47:      Singlet-?Sym   38.5617 eV   32.15 nm  f=0.0047  <S**2>=0.000
       2 -> 11         0.69030
       4 -> 19         0.11706

 Excited state symmetry could not be determined.
 Excited State  48:      Singlet-?Sym   38.5617 eV   32.15 nm  f=0.0047  <S**2>=0.000
       2 -> 12         0.69030
       5 -> 19         0.11706

 Excited State  49:      Singlet-SG    40.9681 eV   30.26 nm  f=0.0097  <S**2>=0.000
       2 -> 13         0.65402
       3 -> 19         0.25540

 Excited State  50:      Singlet-SG    42.0064 eV   29.52 nm  f=0.0057  <S**2>=0.000
       2 -> 13        -0.23132
       3 -> 19         0.62902
       4 -> 20        -0.15508
       5 -> 21        -0.15508

 Excited state symmetry could not be determined.
 Excited State  51:      Singlet-?Sym   44.5740 eV   27.82 nm  f=0.0000  <S**2>=0.000
       4 -> 21        -0.49974
       5 -> 20         0.49974

 Excited state symmetry could not be determined.
 Excited State  52:      Singlet-?Sym   44.6980 eV   27.74 nm  f=0.0000  <S**2>=0.000
       2 -> 15        -0.10144
       4 -> 21         0.49460
       5 -> 20         0.49460

 Excited state symmetry could not be determined.
 Excited State  53:      Singlet-?Sym   44.6980 eV   27.74 nm  f=0.0000  <S**2>=0.000
       2 -> 14        -0.10144
       4 -> 20         0.49460
       5 -> 21        -0.49460

 Excited state symmetry could not be determined.
 Excited State  54:      Singlet-?Sym   46.5655 eV   26.63 nm  f=0.0000  <S**2>=0.000
       2 -> 15         0.69972

 Excited state symmetry could not be determined.
 Excited State  55:      Singlet-?Sym   46.5655 eV   26.63 nm  f=0.0000  <S**2>=0.000
       2 -> 14         0.69972

 Excited state symmetry could not be determined.
 Excited State  56:      Singlet-?Sym   48.5558 eV   25.53 nm  f=0.0000  <S**2>=0.000
       3 -> 20         0.69542

 Excited state symmetry could not be determined.
 Excited State  57:      Singlet-?Sym   48.5558 eV   25.53 nm  f=0.0000  <S**2>=0.000
       3 -> 21         0.69542

 Excited State  58:      Singlet-SG    48.7963 eV   25.41 nm  f=0.0000  <S**2>=0.000
       2 -> 16         0.69380

 Excited state symmetry could not be determined.
 Excited State  59:      Singlet-?Sym   50.2160 eV   24.69 nm  f=0.0466  <S**2>=0.000
       2 -> 17        -0.11509
       4 -> 22        -0.22680
       5 -> 22         0.65587

 Excited state symmetry could not be determined.
 Excited State  60:      Singlet-?Sym   50.2160 eV   24.69 nm  f=0.0466  <S**2>=0.000
       2 -> 18        -0.11509
       4 -> 22         0.65587
       5 -> 22         0.22680

 Excited state symmetry could not be determined.
 Excited State  61:      Singlet-?Sym   51.0710 eV   24.28 nm  f=0.0113  <S**2>=0.000
       2 -> 17         0.69325
       5 -> 22         0.11826

 Excited state symmetry could not be determined.
 Excited State  62:      Singlet-?Sym   51.0710 eV   24.28 nm  f=0.0113  <S**2>=0.000
       2 -> 18         0.69325
       4 -> 22         0.11826

 Excited State  63:      Singlet-SG    51.2707 eV   24.18 nm  f=0.0922  <S**2>=0.000
       2 -> 16        -0.12493
       3 -> 19        -0.12834
       3 -> 22         0.45738
       4 -> 20        -0.34340
       5 -> 21        -0.34340

 Excited State  64:      Singlet-SG    58.1023 eV   21.34 nm  f=0.0014  <S**2>=0.000
       2 -> 19        -0.32013
       2 -> 22         0.10581
       3 -> 22         0.44552
       4 -> 20         0.21872
       4 -> 24         0.18694
       5 -> 21         0.21872
       5 -> 23         0.18694

 Excited state symmetry could not be determined.
 Excited State  65:      Singlet-?Sym   58.9395 eV   21.04 nm  f=0.0000  <S**2>=0.000
       4 -> 24        -0.49994
       5 -> 23         0.49994

 Excited state symmetry could not be determined.
 Excited State  66:      Singlet-?Sym   58.9395 eV   21.04 nm  f=0.0000  <S**2>=0.000
       4 -> 23         0.49994
       5 -> 24         0.49994

 Excited state symmetry could not be determined.
 Excited State  67:      Singlet-?Sym   59.2614 eV   20.92 nm  f=0.0000  <S**2>=0.000
       4 -> 23         0.49992
       5 -> 24        -0.49992

 Excited State  68:      Singlet-SG    59.5918 eV   20.81 nm  f=0.1465  <S**2>=0.000
       2 -> 19         0.48719
       4 -> 24         0.35883
       5 -> 23         0.35883

 Excited State  69:      Singlet-SG    60.4749 eV   20.50 nm  f=0.0042  <S**2>=0.000
       2 -> 19         0.38957
       2 -> 22         0.12453
       3 -> 22         0.26463
       3 -> 25        -0.19368
       4 -> 20         0.16786
       4 -> 24        -0.28055
       5 -> 21         0.16786
       5 -> 23        -0.28055

 Excited state symmetry could not be determined.
 Excited State  70:      Singlet-?Sym   62.0431 eV   19.98 nm  f=0.0053  <S**2>=0.000
       3 -> 23        -0.17695
       3 -> 24        -0.24941
       4 -> 25         0.51901
       5 -> 25         0.36822

 Excited state symmetry could not be determined.
 Excited State  71:      Singlet-?Sym   62.0431 eV   19.98 nm  f=0.0053  <S**2>=0.000
       3 -> 23        -0.24941
       3 -> 24         0.17695
       4 -> 25        -0.36822
       5 -> 25         0.51901

 Excited state symmetry could not be determined.
 Excited State  72:      Singlet-?Sym   63.1428 eV   19.64 nm  f=0.1798  <S**2>=0.000
       3 -> 23        -0.20733
       3 -> 24         0.60163
       4 -> 25         0.28918

 Excited state symmetry could not be determined.
 Excited State  73:      Singlet-?Sym   63.1428 eV   19.64 nm  f=0.1798  <S**2>=0.000
       3 -> 23         0.60163
       3 -> 24         0.20733
       5 -> 25         0.28918

 Excited state symmetry could not be determined.
 Excited State  74:      Singlet-?Sym   66.5386 eV   18.63 nm  f=0.1833  <S**2>=0.000
       2 -> 20         0.52797
       2 -> 21        -0.46755

 Excited state symmetry could not be determined.
 Excited State  75:      Singlet-?Sym   66.5386 eV   18.63 nm  f=0.1833  <S**2>=0.000
       2 -> 20         0.46755
       2 -> 21         0.52797

 Excited State  76:      Singlet-SG    66.8680 eV   18.54 nm  f=0.0189  <S**2>=0.000
       2 -> 22         0.16090
       3 -> 25         0.66341

 Excited state symmetry could not be determined.
 Excited State  77:      Singlet-?Sym   73.0271 eV   16.98 nm  f=0.0186  <S**2>=0.000
       4 -> 26         0.64375
       5 -> 26        -0.28665

 Excited state symmetry could not be determined.
 Excited State  78:      Singlet-?Sym   73.0271 eV   16.98 nm  f=0.0186  <S**2>=0.000
       4 -> 26         0.28665
       5 -> 26         0.64375

 Excited State  79:      Singlet-SG    73.4481 eV   16.88 nm  f=0.0760  <S**2>=0.000
       2 -> 22         0.64337
       2 -> 25         0.12153
       3 -> 25        -0.11359
       3 -> 26        -0.16521

 Excited State  80:      Singlet-SG    77.7780 eV   15.94 nm  f=0.0215  <S**2>=0.000
       2 -> 22         0.13881
       3 -> 26         0.67722

 Excited state symmetry could not be determined.
 Excited State  81:      Singlet-?Sym   80.2833 eV   15.44 nm  f=0.0011  <S**2>=0.000
       2 -> 23         0.65528
       2 -> 24        -0.26460

 Excited state symmetry could not be determined.
 Excited State  82:      Singlet-?Sym   80.2833 eV   15.44 nm  f=0.0011  <S**2>=0.000
       2 -> 23         0.26460
       2 -> 24         0.65528

 Excited State  83:      Singlet-SG    85.5220 eV   14.50 nm  f=0.0400  <S**2>=0.000
       2 -> 22        -0.10226
       2 -> 25         0.68422

 Excited State  84:      Singlet-SG    94.8516 eV   13.07 nm  f=0.0187  <S**2>=0.000
       2 -> 26         0.70524

 Excited state symmetry could not be determined.
 Excited State  85:      Singlet-?Sym   97.2367 eV   12.75 nm  f=0.0000  <S**2>=0.000
       4 -> 28         0.49509
       5 -> 27         0.49509

 Excited state symmetry could not be determined.
 Excited State  86:      Singlet-?Sym   97.2367 eV   12.75 nm  f=0.0000  <S**2>=0.000
       4 -> 27         0.49509
       5 -> 28        -0.49509

 Excited state symmetry could not be determined.
 Excited State  87:      Singlet-?Sym  101.3254 eV   12.24 nm  f=0.0000  <S**2>=0.000
       3 -> 27         0.70534

 Excited state symmetry could not be determined.
 Excited State  88:      Singlet-?Sym  101.3254 eV   12.24 nm  f=0.0000  <S**2>=0.000
       3 -> 28         0.70534

 Excited state symmetry could not be determined.
 Excited State  89:      Singlet-?Sym  101.6679 eV   12.20 nm  f=0.2829  <S**2>=0.000
       3 -> 29        -0.34375
       4 -> 27         0.11689
       4 -> 28         0.41399
       5 -> 27        -0.41399
       5 -> 28         0.11689

 Excited state symmetry could not be determined.
 Excited State  90:      Singlet-?Sym  101.6679 eV   12.20 nm  f=0.2829  <S**2>=0.000
       3 -> 30        -0.34375
       4 -> 27         0.41399
       4 -> 28        -0.11689
       5 -> 27         0.11689
       5 -> 28         0.41399

 Excited state symmetry could not be determined.
 Excited State  91:      Singlet-?Sym  102.1065 eV   12.14 nm  f=0.0000  <S**2>=0.000
       4 -> 29         0.49881
       5 -> 30         0.49881

 Excited state symmetry could not be determined.
 Excited State  92:      Singlet-?Sym  102.1065 eV   12.14 nm  f=0.0000  <S**2>=0.000
       4 -> 30        -0.49881
       5 -> 29         0.49881

 Excited state symmetry could not be determined.
 Excited State  93:      Singlet-?Sym  102.1735 eV   12.13 nm  f=0.0000  <S**2>=0.000
       4 -> 29         0.49997
       5 -> 30        -0.49997

 Excited state symmetry could not be determined.
 Excited State  94:      Singlet-?Sym  107.9567 eV   11.48 nm  f=0.5537  <S**2>=0.000
       4 -> 30         0.49241
       5 -> 29         0.49241

 Excited state symmetry could not be determined.
 Excited State  95:      Singlet-?Sym  110.4297 eV   11.23 nm  f=0.6512  <S**2>=0.000
       3 -> 29         0.60516
       4 -> 28         0.24637
       5 -> 27        -0.24637

 Excited state symmetry could not be determined.
 Excited State  96:      Singlet-?Sym  110.4297 eV   11.23 nm  f=0.6512  <S**2>=0.000
       3 -> 30         0.60516
       4 -> 27         0.24637
       5 -> 28         0.24637

 Excited state symmetry could not be determined.
 Excited State  97:      Singlet-?Sym  120.1596 eV   10.32 nm  f=0.0000  <S**2>=0.000
       2 -> 27         0.70701

 Excited state symmetry could not be determined.
 Excited State  98:      Singlet-?Sym  120.1596 eV   10.32 nm  f=0.0000  <S**2>=0.000
       2 -> 28         0.70701

 Excited state symmetry could not be determined.
 Excited State  99:      Singlet-?Sym  124.9461 eV    9.92 nm  f=0.0104  <S**2>=0.000
       2 -> 29         0.69490
       2 -> 30         0.12635

 Excited state symmetry could not be determined.
 Excited State 100:      Singlet-?Sym  124.9461 eV    9.92 nm  f=0.0104  <S**2>=0.000
       2 -> 29        -0.12635
       2 -> 30         0.69490

 Excited state symmetry could not be determined.
 Excited State 101:      Singlet-?Sym  128.3394 eV    9.66 nm  f=0.1088  <S**2>=0.000
       4 -> 31         0.69659

 Excited state symmetry could not be determined.
 Excited State 102:      Singlet-?Sym  128.3394 eV    9.66 nm  f=0.1088  <S**2>=0.000
       5 -> 31         0.69659

 Excited State 103:      Singlet-SG   133.3620 eV    9.30 nm  f=0.2262  <S**2>=0.000
       3 -> 31         0.70022

 Excited State 104:      Singlet-SG   149.5069 eV    8.29 nm  f=0.0002  <S**2>=0.000
       2 -> 31         0.70698

 The electronic state is 1-SG.
 Alpha  occ. eigenvalues --  -24.82441  -1.29246  -0.64833  -0.51339  -0.51339
 Alpha virt. eigenvalues --    0.08542   0.22093   0.22982   0.22982   0.30619
 Alpha virt. eigenvalues --    0.32429   0.32429   0.41392   0.65607   0.65607
 Alpha virt. eigenvalues --    0.72207   0.81109   0.81109   1.13384   1.42318

 Mulliken charges:
               1
     1  F   -0.271163
     2  H    0.271163
 Sum of Mulliken charges =   0.00000

 Dipole moment (field-independent basis, Debye):
    X=              0.0000    Y=              0.0000    Z=             -1.8433  Tot=              1.8433
 Quadrupole moment (field-independent basis, Debye-Ang):
   XX=             -5.8564   YY=             -5.8564   ZZ=             -3.7352
   XY=              0.0000   XZ=              0.0000   YZ=              0.0000

 Normal termination of Gaussian 16 at Mon Mar 21 16:01:28 2022.
