 Gaussian 16, Revision C.01,
 Gaussian 16:  EM64L-G16RevC.01  3-Jul-2019

 ----------------------------------------------------------------------
 #P TD(Nstates=10000) wB97XD/Gen SCF(maxcycles=100) Int(Grid=ultrafine)
 ----------------------------------------------------------------------

 ---------------------
 xGDB7_00001_tier4.com
 ---------------------
 Symbolic Z-matrix:
 Charge =  0 Multiplicity = 1

                         Standard orientation:
 ---------------------------------------------------------------------
 Center     Atomic      Atomic             Coordinates (Angstroms)
 Number     Number       Type             X           Y           Z
 ---------------------------------------------------------------------
      1          6           0        0.000000    0.000000   -1.173653
      2          6           0        0.000000    0.000000    0.280989
      3          7           0        0.000000    0.000000    1.427442
      4          1           0        0.000000    1.024088   -1.545371
      5          1           0       -0.886886   -0.512044   -1.545371
      6          1           0        0.886886   -0.512044   -1.545371
 ---------------------------------------------------------------------

 SCF Done:  E(RwB97XD) =  -132.611067137     A.U. after   13 cycles

 Excitation energies and oscillator strengths:

 Excited state symmetry could not be determined.
 Excited State   1:      Singlet-?Sym    7.9390 eV  156.17 nm  f=0.0000  <S**2>=0.000
      10 -> 14        -0.48501
      11 -> 13         0.48501
 This state for optimization and/or second-order correction.
 Total Energy, E(TD-HF/TD-DFT) =  -132.319313540
 Copying the excited state density for this state as the 1-particle RhoCI density.

 Excited state symmetry could not be determined.
 Excited State   2:      Singlet-?Sym    8.3008 eV  149.36 nm  f=0.0014  <S**2>=0.000
      10 -> 13        -0.48700
      11 -> 14         0.48700

 Excited state symmetry could not be determined.
 Excited State   3:      Singlet-?Sym    8.3008 eV  149.36 nm  f=0.0014  <S**2>=0.000
      10 -> 14         0.48700
      11 -> 13         0.48700

 Excited State   4:      Singlet-E      9.0873 eV  136.44 nm  f=0.0056  <S**2>=0.000
      11 -> 12         0.67548
      11 -> 15         0.18590

 Excited State   5:      Singlet-E      9.0873 eV  136.44 nm  f=0.0056  <S**2>=0.000
      10 -> 12         0.67548
      10 -> 15         0.18590

 Excited State   6:      Singlet-E      9.6186 eV  128.90 nm  f=0.0182  <S**2>=0.000
       9 -> 14         0.68735
       9 -> 17         0.12959

 Excited State   7:      Singlet-E      9.6186 eV  128.90 nm  f=0.0182  <S**2>=0.000
       9 -> 13         0.68735
       9 -> 16        -0.12959

 Excited State   8:      Singlet-A1    10.2504 eV  120.96 nm  f=0.0488  <S**2>=0.000
       9 -> 12         0.65206
       9 -> 15         0.24803

 Excited State   9:      Singlet-E     10.9910 eV  112.80 nm  f=0.1127  <S**2>=0.000
       7 -> 12        -0.12936
      11 -> 12        -0.17958
      11 -> 15         0.66204

 Excited State  10:      Singlet-E     10.9911 eV  112.80 nm  f=0.1127  <S**2>=0.000
       8 -> 12        -0.12936
      10 -> 12        -0.17957
      10 -> 15         0.66204

 Excited state symmetry could not be determined.
 Excited State  11:      Singlet-?Sym   11.1778 eV  110.92 nm  f=0.7538  <S**2>=0.000
       9 -> 15         0.11366
       9 -> 24         0.10817
      10 -> 13         0.42112
      10 -> 16         0.20232
      11 -> 14         0.42112
      11 -> 17        -0.20233

 Excited state symmetry could not be determined.
 Excited State  12:      Singlet-?Sym   11.8750 eV  104.41 nm  f=0.0000  <S**2>=0.000
       7 -> 13         0.15527
       8 -> 14        -0.15526
      10 -> 14        -0.10803
      10 -> 17         0.41901
      10 -> 19        -0.18295
      11 -> 13         0.10805
      11 -> 16         0.41909
      11 -> 18         0.18298

 Excited state symmetry could not be determined.
 Excited State  13:      Singlet-?Sym   11.9284 eV  103.94 nm  f=0.0232  <S**2>=0.000
      10 -> 17         0.46393
      11 -> 16        -0.46386

 Excited state symmetry could not be determined.
 Excited State  14:      Singlet-?Sym   11.9284 eV  103.94 nm  f=0.0232  <S**2>=0.000
      10 -> 16         0.46389
      11 -> 17         0.46391

 Excited State  15:      Singlet-A1    12.1990 eV  101.63 nm  f=0.0111  <S**2>=0.000
       9 -> 12        -0.21664
       9 -> 15         0.56280
       9 -> 20        -0.12695
      10 -> 16        -0.21666
      11 -> 17         0.21664

 Excited State  16:      Singlet-E     12.4259 eV   99.78 nm  f=0.0098  <S**2>=0.000
      11 -> 20         0.65660

 Excited State  17:      Singlet-E     12.4259 eV   99.78 nm  f=0.0098  <S**2>=0.000
      10 -> 20         0.65659

 Excited State  18:      Singlet-E     12.4970 eV   99.21 nm  f=0.1170  <S**2>=0.000
       8 -> 12         0.68080
      10 -> 15         0.11741

 Excited State  19:      Singlet-E     12.4970 eV   99.21 nm  f=0.1169  <S**2>=0.000
       7 -> 12         0.68081
      11 -> 15         0.11740

 Excited state symmetry could not be determined.
 Excited State  20:      Singlet-?Sym   12.5429 eV   98.85 nm  f=0.0000  <S**2>=0.000
      10 -> 17        -0.21000
      10 -> 19        -0.43506
      11 -> 16        -0.21003
      11 -> 18         0.43519

 Excited state symmetry could not be determined.
 Excited State  21:      Singlet-?Sym   12.6293 eV   98.17 nm  f=0.0064  <S**2>=0.000
       7 -> 14         0.13778
       8 -> 13        -0.13793
      10 -> 18         0.45244
      10 -> 20         0.13821
      11 -> 19        -0.45178

 Excited state symmetry could not be determined.
 Excited State  22:      Singlet-?Sym   12.6293 eV   98.17 nm  f=0.0064  <S**2>=0.000
       7 -> 13        -0.13819
       8 -> 14        -0.13753
      10 -> 19         0.45209
      11 -> 18         0.45213
      11 -> 20        -0.13819

 Excited state symmetry could not be determined.
 Excited State  23:      Singlet-?Sym   12.6329 eV   98.14 nm  f=0.2331  <S**2>=0.000
       7 -> 14        -0.12016
       8 -> 13        -0.11996
      10 -> 18         0.45812
      11 -> 19         0.45876

 Excited state symmetry could not be determined.
 Excited State  24:      Singlet-?Sym   12.6426 eV   98.07 nm  f=0.0000  <S**2>=0.000
       7 -> 13        -0.46496
       8 -> 14         0.46517
      10 -> 17         0.11900
      10 -> 19        -0.12685
      11 -> 16         0.11908
      11 -> 18         0.12624

 Excited state symmetry could not be determined.
 Excited State  25:      Singlet-?Sym   12.7239 eV   97.44 nm  f=0.2771  <S**2>=0.000
       7 -> 14        -0.12130
       8 -> 13        -0.12131
       9 -> 12        -0.11434
       9 -> 15         0.23575
       9 -> 20        -0.12175
       9 -> 24        -0.13906
      10 -> 13        -0.16486
      10 -> 16         0.36920
      10 -> 18        -0.11082
      11 -> 14        -0.16486
      11 -> 17        -0.36919
      11 -> 19        -0.11088

 Excited state symmetry could not be determined.
 Excited State  26:      Singlet-?Sym   12.8451 eV   96.52 nm  f=0.0263  <S**2>=0.000
       6 -> 13         0.10725
       7 -> 14        -0.45056
       8 -> 13         0.45057
      10 -> 16        -0.10834
      10 -> 18         0.12432
      11 -> 17        -0.10833
      11 -> 19        -0.12433

 Excited state symmetry could not be determined.
 Excited State  27:      Singlet-?Sym   12.8451 eV   96.52 nm  f=0.0263  <S**2>=0.000
       6 -> 14        -0.10725
       7 -> 13         0.45057
       8 -> 14         0.45056
      10 -> 17         0.10833
      10 -> 19         0.12433
      11 -> 16        -0.10834
      11 -> 18         0.12432

 Excited State  28:      Singlet-E     13.3083 eV   93.16 nm  f=0.0038  <S**2>=0.000
       9 -> 14        -0.12886
       9 -> 17         0.64568
       9 -> 19        -0.21392

 Excited State  29:      Singlet-E     13.3083 eV   93.16 nm  f=0.0038  <S**2>=0.000
       9 -> 13         0.12886
       9 -> 16         0.64568
       9 -> 18         0.21392

 Excited State  30:      Singlet-A1    13.6265 eV   90.99 nm  f=0.3147  <S**2>=0.000
       6 -> 15         0.11606
       7 -> 14         0.20952
       8 -> 13         0.20952
       9 -> 15         0.16876
       9 -> 20         0.54385
       9 -> 23         0.13081
       9 -> 24        -0.11469

 Excited state symmetry could not be determined.
 Excited State  31:      Singlet-?Sym   13.7025 eV   90.48 nm  f=0.0520  <S**2>=0.000
       6 -> 12         0.15636
       7 -> 14         0.36356
       8 -> 13         0.36356
       9 -> 20        -0.33532
       9 -> 24        -0.10077
      10 -> 22        -0.11271
      11 -> 21         0.11273

 Excited State  32:      Singlet-A1    13.8369 eV   89.60 nm  f=0.0394  <S**2>=0.000
       6 -> 12         0.66560
       9 -> 20         0.10652

 Excited State  33:      Singlet-E     13.9340 eV   88.98 nm  f=0.0009  <S**2>=0.000
       9 -> 16        -0.19938
       9 -> 18         0.63969
       9 -> 22         0.16339
       9 -> 25         0.10291

 Excited State  34:      Singlet-E     13.9340 eV   88.98 nm  f=0.0009  <S**2>=0.000
       9 -> 17         0.19938
       9 -> 19         0.63969
       9 -> 21        -0.16339
       9 -> 26        -0.10291

 Excited State  35:      Singlet-E     14.1607 eV   87.56 nm  f=0.0332  <S**2>=0.000
       6 -> 13         0.62815
       7 -> 19        -0.10501
       8 -> 15        -0.10525
       8 -> 18         0.10501
      10 -> 20         0.12935
      10 -> 24        -0.15367

 Excited State  36:      Singlet-E     14.1607 eV   87.56 nm  f=0.0332  <S**2>=0.000
       6 -> 14         0.62815
       7 -> 15        -0.10524
       7 -> 18        -0.10501
       8 -> 19        -0.10501
      11 -> 20         0.12935
      11 -> 24        -0.15368

 Excited state symmetry could not be determined.
 Excited State  37:      Singlet-?Sym   14.2492 eV   87.01 nm  f=0.0000  <S**2>=0.000
       8 -> 15         0.25797
      10 -> 22         0.42255
      10 -> 24        -0.10170
      11 -> 21         0.42259

 Excited state symmetry could not be determined.
 Excited State  38:      Singlet-?Sym   14.2492 eV   87.01 nm  f=0.0000  <S**2>=0.000
       7 -> 15         0.25784
      10 -> 21         0.42263
      11 -> 22        -0.42260
      11 -> 24        -0.10165

 Excited State  39:      Singlet-E     14.3312 eV   86.51 nm  f=0.0137  <S**2>=0.000
       7 -> 15         0.56907
      10 -> 21        -0.19258
      11 -> 22         0.19257
      11 -> 24        -0.25804

 Excited State  40:      Singlet-E     14.3313 eV   86.51 nm  f=0.0137  <S**2>=0.000
       8 -> 15         0.56901
      10 -> 22        -0.19266
      10 -> 24        -0.25802
      11 -> 21        -0.19270

 Excited state symmetry could not be determined.
 Excited State  41:      Singlet-?Sym   14.4593 eV   85.75 nm  f=0.0000  <S**2>=0.000
      10 -> 21         0.47706
      11 -> 22         0.47709

 Excited State  42:      Singlet-E     14.8089 eV   83.72 nm  f=0.0083  <S**2>=0.000
       6 -> 14         0.15517
       7 -> 15         0.23420
       9 -> 21         0.14954
      11 -> 24         0.57874

 Excited State  43:      Singlet-E     14.8089 eV   83.72 nm  f=0.0083  <S**2>=0.000
       6 -> 13         0.15517
       8 -> 15         0.23420
       9 -> 22        -0.14955
      10 -> 24         0.57875

 Excited state symmetry could not be determined.
 Excited State  44:      Singlet-?Sym   14.8598 eV   83.44 nm  f=0.0052  <S**2>=0.000
       6 -> 15         0.10390
       6 -> 20         0.13290
       9 -> 23        -0.18397
       9 -> 24         0.18724
      10 -> 22         0.39742
      11 -> 21        -0.39734

 Excited state symmetry could not be determined.
 Excited State  45:      Singlet-?Sym   15.0441 eV   82.41 nm  f=0.0479  <S**2>=0.000
       7 -> 17         0.46872
       8 -> 16         0.46874

 Excited state symmetry could not be determined.
 Excited State  46:      Singlet-?Sym   15.0441 eV   82.41 nm  f=0.0479  <S**2>=0.000
       7 -> 16         0.46913
       8 -> 17        -0.46834

 Excited state symmetry could not be determined.
 Excited State  47:      Singlet-?Sym   15.0586 eV   82.33 nm  f=0.0000  <S**2>=0.000
       7 -> 16         0.43112
       7 -> 18         0.22375
       8 -> 17         0.43199
       8 -> 19        -0.22367

 Excited State  48:      Singlet-E     15.1914 eV   81.61 nm  f=0.0001  <S**2>=0.000
       7 -> 20        -0.17707
      11 -> 23         0.65555

 Excited State  49:      Singlet-E     15.1914 eV   81.61 nm  f=0.0001  <S**2>=0.000
       8 -> 20        -0.17703
      10 -> 23         0.65555

 Excited state symmetry could not be determined.
 Excited State  50:      Singlet-?Sym   15.3366 eV   80.84 nm  f=0.0035  <S**2>=0.000
       6 -> 15        -0.18807
       6 -> 20         0.10532
       7 -> 17         0.33545
       7 -> 19        -0.29461
       8 -> 16        -0.33545
       8 -> 18        -0.29458
      10 -> 25         0.12369
      11 -> 26        -0.12371

 Excited State  51:      Singlet-E     15.3445 eV   80.80 nm  f=0.0423  <S**2>=0.000
       7 -> 20        -0.10124
       9 -> 17         0.10189
       9 -> 19         0.12528
       9 -> 21         0.61785
       9 -> 28         0.13454
       9 -> 32        -0.12391
      11 -> 24        -0.14244

 Excited State  52:      Singlet-E     15.3445 eV   80.80 nm  f=0.0423  <S**2>=0.000
       8 -> 20         0.10122
       9 -> 16         0.10189
       9 -> 18        -0.12528
       9 -> 22         0.61785
       9 -> 29         0.13454
       9 -> 33        -0.12391
      10 -> 24         0.14245

 Excited state symmetry could not be determined.
 Excited State  53:      Singlet-?Sym   15.3741 eV   80.64 nm  f=0.0000  <S**2>=0.000
       7 -> 16         0.22669
       7 -> 18        -0.40858
       8 -> 17         0.22667
       8 -> 19         0.40859
      10 -> 26         0.13582
      11 -> 25         0.13582

 Excited State  54:      Singlet-E     15.6598 eV   79.17 nm  f=0.0159  <S**2>=0.000
       7 -> 18        -0.15540
       7 -> 20         0.58804
       7 -> 24         0.13502
       8 -> 19        -0.15547
      11 -> 23         0.19211
      11 -> 24        -0.10620

 Excited State  55:      Singlet-E     15.6599 eV   79.17 nm  f=0.0159  <S**2>=0.000
       7 -> 19        -0.15530
       8 -> 18         0.15561
       8 -> 20         0.58804
       8 -> 24         0.13501
      10 -> 23         0.19209
      10 -> 24        -0.10619

 Excited State  56:      Singlet-A1    15.6908 eV   79.02 nm  f=0.0100  <S**2>=0.000
       6 -> 15         0.38418
       7 -> 17        -0.17248
       7 -> 19        -0.30032
       8 -> 16         0.17247
       8 -> 18        -0.30015
       9 -> 23        -0.17474
       9 -> 24         0.12090
      10 -> 25         0.11895
      11 -> 26        -0.11895

 Excited State  57:      Singlet-A1    15.9107 eV   77.92 nm  f=0.0275  <S**2>=0.000
       6 -> 15         0.29266
       6 -> 20         0.11912
       7 -> 19        -0.10191
       8 -> 18        -0.10190
       9 -> 20        -0.12983
       9 -> 23         0.36106
       9 -> 24        -0.31671
      10 -> 22         0.16118
      10 -> 25        -0.13674
      11 -> 21        -0.16117
      11 -> 26         0.13675

 Excited State  58:      Singlet-E     16.1000 eV   77.01 nm  f=0.3221  <S**2>=0.000
       6 -> 14        -0.12627
       6 -> 17         0.37013
       7 -> 18        -0.36227
       7 -> 20        -0.22995
       8 -> 19        -0.36226

 Excited State  59:      Singlet-E     16.1000 eV   77.01 nm  f=0.3221  <S**2>=0.000
       6 -> 13         0.12627
       6 -> 16         0.37011
       7 -> 19         0.36226
       8 -> 18        -0.36226
       8 -> 20         0.23000

 Excited State  60:      Singlet-A1    16.2193 eV   76.44 nm  f=0.1242  <S**2>=0.000
       6 -> 15         0.33858
       7 -> 17         0.20123
       7 -> 19         0.14885
       8 -> 16        -0.20123
       8 -> 18         0.14883
       9 -> 20        -0.10444
       9 -> 23         0.25006
       9 -> 24         0.35832

 Excited State  61:      Singlet-A1    16.3159 eV   75.99 nm  f=0.0074  <S**2>=0.000
       6 -> 15        -0.17570
       7 -> 17        -0.17579
       8 -> 16         0.17578
       9 -> 23         0.35445
      10 -> 25         0.33052
      11 -> 26        -0.33057

 Excited state symmetry could not be determined.
 Excited State  62:      Singlet-?Sym   16.3379 eV   75.89 nm  f=0.0000  <S**2>=0.000
       7 -> 18         0.15628
       8 -> 19        -0.15622
      10 -> 26         0.45858
      11 -> 25         0.45867

 Excited State  63:      Singlet-E     16.3835 eV   75.68 nm  f=0.0041  <S**2>=0.000
       6 -> 17         0.51029
       6 -> 19        -0.13014
       7 -> 18         0.20841
       8 -> 19         0.20845
      10 -> 26        -0.22774
      11 -> 25         0.22763

 Excited State  64:      Singlet-E     16.3835 eV   75.68 nm  f=0.0041  <S**2>=0.000
       6 -> 16         0.51030
       6 -> 18         0.13015
       7 -> 19        -0.20843
       8 -> 18         0.20843
      10 -> 25         0.22770
      11 -> 26         0.22764

 Excited State  65:      Singlet-A1    16.5876 eV   74.74 nm  f=0.0098  <S**2>=0.000
       6 -> 15        -0.17148
       7 -> 19        -0.17799
       8 -> 18        -0.17801
       9 -> 23         0.24441
       9 -> 24         0.27462
      10 -> 25        -0.24114
      10 -> 29         0.19670
      11 -> 26         0.24116
      11 -> 28        -0.19671

 Excited state symmetry could not be determined.
 Excited State  66:      Singlet-?Sym   16.8703 eV   73.49 nm  f=0.4610  <S**2>=0.000
       6 -> 14         0.11553
       6 -> 17         0.13877
       6 -> 19        -0.30653
       9 -> 26        -0.19394
      10 -> 26         0.35855
      11 -> 25        -0.35852

 Excited state symmetry could not be determined.
 Excited State  67:      Singlet-?Sym   16.8704 eV   73.49 nm  f=0.4609  <S**2>=0.000
       6 -> 13         0.11552
       6 -> 16        -0.13873
       6 -> 18        -0.30658
       9 -> 25         0.19396
      10 -> 25         0.35853
      11 -> 26         0.35851

 Excited State  68:      Singlet-E     17.0148 eV   72.87 nm  f=0.0767  <S**2>=0.000
       6 -> 17         0.22446
       6 -> 19         0.56795
       9 -> 26         0.11361
      10 -> 26         0.18312
      11 -> 25        -0.18310

 Excited State  69:      Singlet-E     17.0148 eV   72.87 nm  f=0.0767  <S**2>=0.000
       6 -> 16        -0.22447
       6 -> 18         0.56792
       9 -> 25        -0.11358
      10 -> 25         0.18315
      11 -> 26         0.18314

 Excited state symmetry could not be determined.
 Excited State  70:      Singlet-?Sym   17.4238 eV   71.16 nm  f=0.0581  <S**2>=0.000
       6 -> 19        -0.13105
       7 -> 22        -0.15485
       8 -> 21         0.15483
       9 -> 26         0.15334
      10 -> 28        -0.35298
      10 -> 32         0.13441
      11 -> 27        -0.26633
      11 -> 29         0.35303
      11 -> 33        -0.13442

 Excited state symmetry could not be determined.
 Excited State  71:      Singlet-?Sym   17.4238 eV   71.16 nm  f=0.0581  <S**2>=0.000
       6 -> 18         0.13103
       7 -> 21        -0.15485
       8 -> 22        -0.15480
       9 -> 25         0.15336
      10 -> 27         0.26642
      10 -> 29         0.35296
      10 -> 33        -0.13440
      11 -> 28         0.35298
      11 -> 32        -0.13440

 Excited state symmetry could not be determined.
 Excited State  72:      Singlet-?Sym   17.4652 eV   70.99 nm  f=0.0000  <S**2>=0.000
       7 -> 22        -0.14528
       8 -> 21        -0.14529
      10 -> 28         0.44276
      10 -> 32        -0.12999
      11 -> 29         0.44279
      11 -> 33        -0.12998

 Excited State  73:      Singlet-E     17.4782 eV   70.94 nm  f=0.0978  <S**2>=0.000
       6 -> 19        -0.13360
       9 -> 26         0.31388
      11 -> 27         0.56655

 Excited State  74:      Singlet-E     17.4782 eV   70.94 nm  f=0.0978  <S**2>=0.000
       6 -> 18        -0.13363
       9 -> 25        -0.31398
      10 -> 27         0.56648

 Excited State  75:      Singlet-E     17.4928 eV   70.88 nm  f=0.0189  <S**2>=0.000
       6 -> 19        -0.11700
       9 -> 26         0.53761
      10 -> 28         0.19438
      11 -> 27        -0.26781
      11 -> 29        -0.19430

 Excited State  76:      Singlet-E     17.4928 eV   70.88 nm  f=0.0189  <S**2>=0.000
       6 -> 18         0.11696
       9 -> 25         0.53755
      10 -> 27         0.26787
      10 -> 29        -0.19439
      11 -> 28        -0.19440

 Excited State  77:      Singlet-A1    17.7857 eV   69.71 nm  f=0.4106  <S**2>=0.000
       6 -> 20         0.51723
       7 -> 21         0.25537
       8 -> 22        -0.25539
      10 -> 29         0.13447
      11 -> 28        -0.13442

 Excited State  78:      Singlet-E     17.9737 eV   68.98 nm  f=0.0020  <S**2>=0.000
      11 -> 30         0.65364
      11 -> 34        -0.16508

 Excited State  79:      Singlet-E     17.9737 eV   68.98 nm  f=0.0020  <S**2>=0.000
      10 -> 30         0.65364
      10 -> 34        -0.16508

 Excited State  80:      Singlet-A1    18.2038 eV   68.11 nm  f=0.0179  <S**2>=0.000
       6 -> 20         0.36929
       7 -> 21        -0.29708
       8 -> 22         0.29695
       9 -> 24         0.16945
      10 -> 29        -0.20126
      11 -> 28         0.20116

 Excited state symmetry could not be determined.
 Excited State  81:      Singlet-?Sym   18.2327 eV   68.00 nm  f=0.0108  <S**2>=0.000
       7 -> 21         0.42923
       8 -> 22         0.42934
      10 -> 29         0.21082
      11 -> 28         0.21088

 Excited state symmetry could not be determined.
 Excited State  82:      Singlet-?Sym   18.2327 eV   68.00 nm  f=0.0108  <S**2>=0.000
       7 -> 22         0.42929
       8 -> 21        -0.42928
      10 -> 28        -0.21086
      11 -> 29         0.21086

 Excited state symmetry could not be determined.
 Excited State  83:      Singlet-?Sym   18.3650 eV   67.51 nm  f=0.0000  <S**2>=0.000
       7 -> 22         0.37127
       8 -> 21         0.37128
      10 -> 28         0.19766
      10 -> 32         0.26240
      11 -> 29         0.19766
      11 -> 33         0.26242

 Excited State  84:      Singlet-E     18.4067 eV   67.36 nm  f=0.0004  <S**2>=0.000
       9 -> 29         0.11481
      10 -> 33         0.10935
      11 -> 31         0.66181
      11 -> 32         0.10943

 Excited State  85:      Singlet-E     18.4067 eV   67.36 nm  f=0.0004  <S**2>=0.000
       9 -> 28         0.11479

 The electronic state is 1-A1.
 Alpha  occ. eigenvalues --  -14.44734 -10.35508 -10.34452  -1.00593  -0.87613
 Alpha  occ. eigenvalues --   -0.60703  -0.55842  -0.55842  -0.45342  -0.42246
 Alpha  occ. eigenvalues --   -0.42246
 Alpha virt. eigenvalues --    0.07429   0.10276   0.10276   0.13643   0.18170
 Alpha virt. eigenvalues --    0.18170   0.20516   0.20516   0.21299   0.28888
 Alpha virt. eigenvalues --    0.28888   0.30382   0.31427   0.36839   0.36839

 Mulliken charges:
               1
     1  C    0.177340
     2  C   -0.328314
     3  N   -0.031392
     4  H    0.060789
     5  H    0.060789
     6  H    0.060789
 Sum of Mulliken charges =  -0.00000

 Dipole moment (field-independent basis, Debye):
    X=             -0.0000    Y=              0.0000    Z=             -4.0590  Tot=              4.0590
 Quadrupole moment (field-independent basis, Debye-Ang):
   XX=            -17.5176   YY=            -17.5176   ZZ=            -20.8774
   XY=             -0.0000   XZ=              0.0000   YZ=             -0.0000

 Normal termination of Gaussian 16 at Mon Mar 21 15:16:45 2022.
