 Gaussian 16, Revision C.01,
 Gaussian 16:  EM64L-G16RevC.01  3-Jul-2019

 ----------------------------------------------------------------------
 #P TD(Nstates=10000) wB97XD/Gen SCF(maxcycles=100) Int(Grid=ultrafine)
 ----------------------------------------------------------------------

 ---------------------
 xGDB7_00001_tier4.com
 ---------------------
 Symbolic Z-matrix:
 Charge =  0 Multiplicity = 1

                         Standard orientation:
 ---------------------------------------------------------------------
 Center     Atomic      Atomic             Coordinates (Angstroms)
 Number     Number       Type             X           Y           Z
 ---------------------------------------------------------------------
      1          6           0        0.000284   -0.018657   -1.236532
      2          6           0       -0.000055    0.003295    0.218717
      3          6           0       -0.000323    0.021367    1.415619
      4          1           0        0.273656    0.958689   -1.636635
      5          1           0       -0.987794   -0.279414   -1.618263
      6          1           0        0.715256   -0.752703   -1.610700
      7          1           0       -0.000556    0.037402    2.478776
 ---------------------------------------------------------------------

 SCF Done:  E(RwB97XD) =  -116.528826382     A.U. after   14 cycles

 Excitation energies and oscillator strengths:

 Excited State   1:      Singlet-A      6.7988 eV  182.36 nm  f=0.0000  <S**2>=0.000
      10 -> 13         0.36044
      10 -> 14        -0.33176
      11 -> 13        -0.33179
      11 -> 14        -0.36043
 This state for optimization and/or second-order correction.
 Total Energy, E(TD-HF/TD-DFT) =  -116.278976646
 Copying the excited state density for this state as the 1-particle RhoCI density.

 Excited State   2:      Singlet-A      7.0469 eV  175.94 nm  f=0.0006  <S**2>=0.000
      10 -> 14         0.48239
      11 -> 13        -0.48238

 Excited State   3:      Singlet-A      7.0470 eV  175.94 nm  f=0.0006  <S**2>=0.000
      10 -> 13         0.48238
      11 -> 14         0.48239

 Excited State   4:      Singlet-A      7.6621 eV  161.81 nm  f=0.0325  <S**2>=0.000
      11 -> 12         0.67337
      11 -> 15         0.11411
      11 -> 16         0.14482

 Excited State   5:      Singlet-A      7.6621 eV  161.81 nm  f=0.0325  <S**2>=0.000
      10 -> 12         0.67337
      10 -> 15         0.11411
      10 -> 16         0.14482

 Excited State   6:      Singlet-A      8.7786 eV  141.23 nm  f=0.0217  <S**2>=0.000
      11 -> 15         0.66676
      11 -> 16        -0.20592

 Excited State   7:      Singlet-A      8.7786 eV  141.23 nm  f=0.0217  <S**2>=0.000
      10 -> 15         0.66676
      10 -> 16        -0.20593

 Excited State   8:      Singlet-A      9.4617 eV  131.04 nm  f=0.0721  <S**2>=0.000
      11 -> 12        -0.16319
      11 -> 15         0.18168
      11 -> 16         0.63407
      11 -> 21        -0.12634

 Excited State   9:      Singlet-A      9.4618 eV  131.04 nm  f=0.0721  <S**2>=0.000
      10 -> 12        -0.16319
      10 -> 15         0.18168
      10 -> 16         0.63407
      10 -> 21        -0.12634

 Excited State  10:      Singlet-A      9.8103 eV  126.38 nm  f=0.9865  <S**2>=0.000
      10 -> 13         0.30599
      10 -> 14         0.33243
      10 -> 17         0.16448
      11 -> 13         0.33243
      11 -> 14        -0.30599
      11 -> 18        -0.16449

 Excited State  11:      Singlet-A     10.6314 eV  116.62 nm  f=0.0000  <S**2>=0.000
      10 -> 18         0.43440
      10 -> 19         0.14847
      10 -> 20        -0.13331
      11 -> 17         0.43445
      11 -> 19         0.13336
      11 -> 20         0.14843

 Excited State  12:      Singlet-A     10.6565 eV  116.35 nm  f=0.0041  <S**2>=0.000
      10 -> 17        -0.10149
      10 -> 18         0.46419
      11 -> 17        -0.46412
      11 -> 18        -0.10151

 Excited State  13:      Singlet-A     10.6565 eV  116.35 nm  f=0.0041  <S**2>=0.000
      10 -> 17         0.46414
      10 -> 18         0.10144
      11 -> 17        -0.10157
      11 -> 18         0.46417

 Excited State  14:      Singlet-A     11.0059 eV  112.65 nm  f=0.3196  <S**2>=0.000
      10 -> 13        -0.10175
      10 -> 14        -0.11055
      10 -> 17         0.39030
      10 -> 19         0.15357
      10 -> 20         0.17092
      11 -> 13        -0.11055
      11 -> 14         0.10176
      11 -> 18        -0.39029
      11 -> 19        -0.17099
      11 -> 20         0.15356

 Excited State  15:      Singlet-A     11.1750 eV  110.95 nm  f=0.0000  <S**2>=0.000
      10 -> 18        -0.18917
      10 -> 19         0.32995
      10 -> 20        -0.29561
      11 -> 17        -0.18920
      11 -> 19         0.29651
      11 -> 20         0.32923

 Excited State  16:      Singlet-A     11.2080 eV  110.62 nm  f=0.0041  <S**2>=0.000
      10 -> 20         0.42232
      10 -> 21        -0.27358
      10 -> 23        -0.11855
      11 -> 19         0.42178
      11 -> 22        -0.11840

 Excited State  17:      Singlet-A     11.2080 eV  110.62 nm  f=0.0041  <S**2>=0.000
      10 -> 19        -0.42193
      10 -> 22         0.11845
      11 -> 20         0.42215
      11 -> 21         0.27359
      11 -> 23        -0.11852

 Excited State  18:      Singlet-A     11.3003 eV  109.72 nm  f=0.0055  <S**2>=0.000
      10 -> 17         0.22862
      10 -> 19        -0.28478
      10 -> 20        -0.31716
      11 -> 18        -0.22864
      11 -> 19         0.31734
      11 -> 20        -0.28516

 Excited State  19:      Singlet-A     11.3353 eV  109.38 nm  f=0.0125  <S**2>=0.000
      10 -> 19         0.18694
      11 -> 16         0.10575
      11 -> 20        -0.18712
      11 -> 21         0.61326

 Excited State  20:      Singlet-A     11.3353 eV  109.38 nm  f=0.0125  <S**2>=0.000
      10 -> 16         0.10574
      10 -> 20         0.18737
      10 -> 21         0.61327
      11 -> 19         0.18664

 Excited State  21:      Singlet-A     11.9452 eV  103.79 nm  f=0.1273  <S**2>=0.000
       9 -> 12         0.65842
       9 -> 15        -0.18810

 Excited State  22:      Singlet-A     11.9453 eV  103.79 nm  f=0.1273  <S**2>=0.000
       8 -> 12         0.65841
       8 -> 15        -0.18810

 Excited State  23:      Singlet-A     12.1319 eV  102.20 nm  f=0.0294  <S**2>=0.000
      10 -> 22        -0.39367
      10 -> 23        -0.22375
      11 -> 22        -0.22355
      11 -> 23         0.39382

 Excited State  24:      Singlet-A     12.1319 eV  102.20 nm  f=0.0294  <S**2>=0.000
      10 -> 22        -0.22362
      10 -> 23         0.39369
      11 -> 22         0.39381
      11 -> 23         0.22368

 Excited State  25:      Singlet-A     12.1981 eV  101.64 nm  f=0.0000  <S**2>=0.000
       8 -> 13         0.23461
       8 -> 14        -0.13804
       9 -> 13        -0.13803
       9 -> 14        -0.23469
      10 -> 22        -0.24424
      10 -> 23         0.32557
      11 -> 22        -0.32554
      11 -> 23        -0.24392

 Excited State  26:      Singlet-A     12.2822 eV  100.95 nm  f=0.0038  <S**2>=0.000
       7 -> 13         0.48990
       7 -> 14        -0.10520
       8 -> 14         0.11236
       9 -> 13        -0.11240
      10 -> 24        -0.22063
      11 -> 24        -0.37444

 Excited State  27:      Singlet-A     12.2822 eV  100.95 nm  f=0.0039  <S**2>=0.000
       7 -> 13         0.10522
       7 -> 14         0.48992
       8 -> 13         0.11243
       9 -> 14         0.11219
      10 -> 24        -0.37446
      11 -> 24         0.22066

 Excited State  28:      Singlet-A     12.3299 eV  100.56 nm  f=0.0000  <S**2>=0.000
       8 -> 13        -0.34987
       8 -> 14         0.20579
       9 -> 13         0.20597
       9 -> 14         0.35007
      10 -> 22        -0.15587
      10 -> 23         0.20786
      11 -> 22        -0.20794
      11 -> 23        -0.15587

 Excited State  29:      Singlet-A     12.4818 eV   99.33 nm  f=0.0064  <S**2>=0.000
       8 -> 13        -0.13903
       8 -> 14        -0.39674
       9 -> 13         0.39675
       9 -> 14        -0.13916
      10 -> 24        -0.15450
      11 -> 24        -0.27814

 Excited State  30:      Singlet-A     12.4818 eV   99.33 nm  f=0.0064  <S**2>=0.000
       8 -> 13         0.39686
       8 -> 14        -0.13915
       9 -> 13         0.13904
       9 -> 14         0.39669
      10 -> 24         0.27805
      11 -> 24        -0.15446

 Excited State  31:      Singlet-A     12.6206 eV   98.24 nm  f=0.0076  <S**2>=0.000
       7 -> 12         0.62638
       7 -> 15        -0.11136
      10 -> 22        -0.13788
      10 -> 23        -0.10338
      11 -> 22         0.10336
      11 -> 23        -0.13788

 Excited State  32:      Singlet-A     12.7497 eV   97.24 nm  f=0.0137  <S**2>=0.000
       7 -> 14         0.44831
       8 -> 13        -0.17725
       9 -> 14        -0.17724
      10 -> 24         0.35975
      11 -> 24        -0.22379

 Excited State  33:      Singlet-A     12.7497 eV   97.24 nm  f=0.0137  <S**2>=0.000
       7 -> 13         0.44833
       8 -> 14        -0.17726
       9 -> 13         0.17724
      10 -> 24         0.22379
      11 -> 24         0.35971

 Excited State  34:      Singlet-A     12.9978 eV   95.39 nm  f=0.1624  <S**2>=0.000
       6 -> 15        -0.13605
       7 -> 12         0.26599
       8 -> 13        -0.10869
       8 -> 14        -0.18477
       9 -> 13        -0.18473
       9 -> 14         0.10867
      10 -> 22         0.28638
      10 -> 23         0.21473
      11 -> 22        -0.21470
      11 -> 23         0.28639

 Excited State  35:      Singlet-A     13.1318 eV   94.42 nm  f=0.1047  <S**2>=0.000
       7 -> 15         0.11248
       7 -> 21         0.11033
       8 -> 13         0.20986
       8 -> 14         0.35674
       9 -> 13         0.35668
       9 -> 14        -0.20982
      10 -> 22         0.16017
      10 -> 23         0.12009
      11 -> 22        -0.12009
      11 -> 23         0.16018

 Excited State  36:      Singlet-A     13.5663 eV   91.39 nm  f=0.0000  <S**2>=0.000
       9 -> 12         0.12088
       9 -> 15         0.46407
       9 -> 16         0.48670
       9 -> 21         0.10995

 Excited State  37:      Singlet-A     13.5664 eV   91.39 nm  f=0.0000  <S**2>=0.000
       8 -> 12         0.12088
       8 -> 15         0.46408
       8 -> 16         0.48670
       8 -> 21         0.10996

 Excited State  38:      Singlet-A     13.6210 eV   91.02 nm  f=0.0000  <S**2>=0.000
      10 -> 25         0.35879
      10 -> 26        -0.31049
      11 -> 25         0.31049
      11 -> 26         0.35880

 Excited State  39:      Singlet-A     13.7016 eV   90.49 nm  f=0.0317  <S**2>=0.000
      10 -> 25        -0.29709
      10 -> 26        -0.34321
      11 -> 25         0.34332
      11 -> 26        -0.29702

 Excited State  40:      Singlet-A     13.9983 eV   88.57 nm  f=0.1454  <S**2>=0.000
       6 -> 14        -0.32712
      10 -> 25        -0.26352
      10 -> 26         0.33011
      11 -> 25         0.33002
      11 -> 26         0.26358

 Excited State  41:      Singlet-A     13.9984 eV   88.57 nm  f=0.1454  <S**2>=0.000
       6 -> 13        -0.32714
      10 -> 25         0.33006
      10 -> 26         0.26355
      11 -> 25         0.26354
      11 -> 26        -0.33005

 Excited State  42:      Singlet-A     14.0569 eV   88.20 nm  f=0.0188  <S**2>=0.000
       6 -> 12        -0.21137
       7 -> 15         0.58699
       7 -> 16         0.21099

 Excited State  43:      Singlet-A     14.4336 eV   85.90 nm  f=0.0584  <S**2>=0.000
       8 -> 17        -0.12031
       8 -> 18        -0.41894
       9 -> 17         0.41930
       9 -> 18        -0.12032
      10 -> 28        -0.10115
      11 -> 29        -0.10119

 Excited State  44:      Singlet-A     14.4336 eV   85.90 nm  f=0.0584  <S**2>=0.000
       8 -> 17         0.41905
       8 -> 18        -0.12028
       9 -> 17         0.12054
       9 -> 18         0.41908
      10 -> 29        -0.10121
      11 -> 28         0.10123

 Excited State  45:      Singlet-A     14.4961 eV   85.53 nm  f=0.0001  <S**2>=0.000
       8 -> 17        -0.10865
       9 -> 12         0.13879
       9 -> 15         0.44396
       9 -> 16        -0.39709
       9 -> 18        -0.10867
       9 -> 21        -0.17382
       9 -> 24         0.11197
      11 -> 27        -0.12233

 Excited State  46:      Singlet-A     14.4962 eV   85.53 nm  f=0.0001  <S**2>=0.000
       8 -> 12         0.13882
       8 -> 15         0.44400
       8 -> 16        -0.39715
       8 -> 18         0.10823
       8 -> 21        -0.17387
       8 -> 24         0.11199
       9 -> 17        -0.10852
      10 -> 27        -0.12264

 Excited State  47:      Singlet-A     14.5440 eV   85.25 nm  f=0.2843  <S**2>=0.000
       6 -> 12         0.10551
       6 -> 15         0.21286
       7 -> 15        -0.12335
       7 -> 16         0.60412

 Excited State  48:      Singlet-A     14.5611 eV   85.15 nm  f=0.0000  <S**2>=0.000
       8 -> 18         0.47892
       9 -> 17         0.47851

 Excited State  49:      Singlet-A     14.5816 eV   85.03 nm  f=0.0113  <S**2>=0.000
       6 -> 13         0.21433
      10 -> 27         0.46575
      10 -> 30         0.10641
      11 -> 27         0.38981

 Excited State  50:      Singlet-A     14.5816 eV   85.03 nm  f=0.0113  <S**2>=0.000
       6 -> 14        -0.21439
      10 -> 27        -0.38979
      11 -> 27         0.46575
      11 -> 30         0.10641

 Excited State  51:      Singlet-A     14.7124 eV   84.27 nm  f=0.0030  <S**2>=0.000
       6 -> 14        -0.10065
       8 -> 18         0.14262
       9 -> 17        -0.14252
      10 -> 29        -0.43556
      11 -> 28         0.43570

 Excited State  52:      Singlet-A     14.7125 eV   84.27 nm  f=0.0030  <S**2>=0.000
       6 -> 13        -0.10060
       8 -> 17        -0.14256
       9 -> 18        -0.14261
      10 -> 28         0.43568
      11 -> 29         0.43562

 Excited State  53:      Singlet-A     14.7746 eV   83.92 nm  f=0.0000  <S**2>=0.000
       8 -> 19         0.12170
       8 -> 20        -0.16808
       9 -> 19         0.16807
       9 -> 20         0.12171
      10 -> 28        -0.34071
      10 -> 29        -0.26032
      11 -> 28        -0.26014
      11 -> 29         0.34077

 Excited State  54:      Singlet-A     14.9320 eV   83.03 nm  f=0.0000  <S**2>=0.000
       8 -> 18        -0.10295
       8 -> 19         0.25256
       8 -> 20        -0.34865
       9 -> 17        -0.10290
       9 -> 19         0.34888
       9 -> 20         0.25252
      10 -> 28         0.16288
      10 -> 29         0.12432
      11 -> 28         0.12444
      11 -> 29        -0.16284

 Excited State  55:      Singlet-A     14.9805 eV   82.76 nm  f=0.0081  <S**2>=0.000
       7 -> 15         0.10401
       8 -> 17        -0.32451
       8 -> 19        -0.27267
       8 -> 20        -0.19732
       9 -> 18         0.32474
       9 -> 19         0.19828
       9 -> 20        -0.27367

 Excited State  56:      Singlet-A     14.9857 eV   82.74 nm  f=0.1826  <S**2>=0.000
       6 -> 13        -0.27156
       6 -> 14         0.14632
       7 -> 18         0.43917
       8 -> 19        -0.13207
       9 -> 20         0.12993
      10 -> 25        -0.16348
      10 -> 28        -0.11249
      11 -> 26         0.16316
      11 -> 27         0.21767
      11 -> 29        -0.11227

 Excited State  57:      Singlet-A     14.9857 eV   82.73 nm  f=0.1826  <S**2>=0.000
       6 -> 13         0.14634
       6 -> 14         0.27154
       7 -> 17         0.43918
       8 -> 20         0.13166
       9 -> 19         0.13029
      10 -> 26         0.16346
      10 -> 27        -0.21765
      10 -> 29        -0.11262
      11 -> 25         0.16316
      11 -> 28         0.11221

 Excited State  58:      Singlet-A     15.1860 eV   81.64 nm  f=0.0259  <S**2>=0.000
       6 -> 12         0.59328
       6 -> 15         0.12940
       6 -> 16         0.16699
       7 -> 15         0.24072
       7 -> 16        -0.10814

 Excited State  59:      Singlet-A     15.2255 eV   81.43 nm  f=0.0135  <S**2>=0.000
       6 -> 13         0.17408
       6 -> 14        -0.15259
       6 -> 18         0.11945
       7 -> 18         0.45036
       8 -> 19         0.29025
       9 -> 20        -0.29031

 Excited State  60:      Singlet-A     15.2255 eV   81.43 nm  f=0.0135  <S**2>=0.000
       6 -> 13        -0.15257
       6 -> 14        -0.17411
       6 -> 17         0.11945
       7 -> 17         0.45035
       8 -> 20        -0.29032
       9 -> 19        -0.29022

 Excited State  61:      Singlet-A     15.3407 eV   80.82 nm  f=0.0588  <S**2>=0.000
       8 -> 17         0.22913
       8 -> 19        -0.16701
       8 -> 20        -0.12091
       9 -> 18        -0.22910
       9 -> 19         0.12091
       9 -> 20        -0.16695
      10 -> 28        -0.19747
      10 -> 29         0.25856
      10 -> 32        -0.11650
      11 -> 28         0.25854
      11 -> 29         0.19746
      11 -> 31        -0.11648

 Excited State  62:      Singlet-A     15.5409 eV   79.78 nm  f=0.0073  <S**2>=0.000
       6 -> 12        -0.13879
       7 -> 15        -0.11615
       7 -> 21         0.11384
       8 -> 17         0.22890
       8 -> 19        -0.21430
       8 -> 20        -0.15510
       9 -> 18        -0.22887
       9 -> 19         0.15519
       9 -> 20        -0.21423
      10 -> 28         0.14541
      10 -> 29        -0.19040
      10 -> 32         0.13146
      11 -> 28        -0.19041
      11 -> 29        -0.14542
      11 -> 31         0.13147

 Excited State  63:      Singlet-A     15.6448 eV   79.25 nm  f=0.3900  <S**2>=0.000
       6 -> 13         0.25004
       6 -> 14        -0.18272
       7 -> 18         0.16971
       7 -> 19         0.10195
       7 -> 20        -0.11482
       8 -> 19        -0.27620
       9 -> 16         0.15209
       9 -> 20         0.27624
       9 -> 21        -0.24407
       9 -> 24         0.13645
      11 -> 30         0.16153

 Excited State  64:      Singlet-A     15.6448 eV   79.25 nm  f=0.3901  <S**2>=0.000
       6 -> 13        -0.18271
       6 -> 14        -0.25003
       7 -> 17         0.16971
       7 -> 19         0.11485
       7 -> 20         0.10194
       8 -> 16        -0.15206
       8 -> 20         0.27625
       8 -> 21         0.24408
       8 -> 24        -0.13642
       9 -> 19         0.27618
      10 -> 30        -0.16157

 Excited State  65:      Singlet-A     15.8547 eV   78.20 nm  f=0.0478  <S**2>=0.000
       7 -> 19         0.43496
       7 -> 20        -0.28256
       8 -> 21        -0.12171
       9 -> 16        -0.11076
       9 -> 21         0.31643
       9 -> 24        -0.16267
      11 -> 30         0.13123

 Excited State  66:      Singlet-A     15.8547 eV   78.20 nm  f=0.0478  <S**2>=0.000
       7 -> 19         0.28290
       7 -> 20         0.43481
       8 -> 16         0.11072
       8 -> 21        -0.31627
       8 -> 24         0.16261
       9 -> 21        -0.12196
      10 -> 30        -0.13116

 Excited State  67:      Singlet-A     15.9218 eV   77.87 nm  f=0.0403  <S**2>=0.000
       7 -> 19         0.39418
       8 -> 19         0.10932
       8 -> 21         0.21857
       9 -> 20        -0.10929
       9 -> 21        -0.20697
      10 -> 30         0.12695
      10 -> 31        -0.18908
      11 -> 30        -0.18559
      11 -> 32        -0.18906

 Excited State  68:      Singlet-A     15.9218 eV   77.87 nm  f=0.0402  <S**2>=0.000
       7 -> 20         0.39455
       8 -> 20        -0.10933
       8 -> 21         0.20700
       9 -> 19        -0.10929
       9 -> 21         0.21824
      10 -> 30         0.18558
      10 -> 32        -0.18899
      11 -> 30         0.12699
      11 -> 31         0.18896

 Excited State  69:      Singlet-A     16.0168 eV   77.41 nm  f=0.0019  <S**2>=0.000
       6 -> 12        -0.12655
       6 -> 15         0.48198
       6 -> 16        -0.26983
       7 -> 12         0.10231
       7 -> 15         0.11428
       7 -> 16        -0.18002
      10 -> 32        -0.17762
      11 -> 31        -0.17755

 Excited State  70:      Singlet-A     16.0946 eV   77.03 nm  f=0.2434  <S**2>=0.000
       6 -> 14        -0.12886
      10 -> 30         0.43648
      10 -> 31         0.23912
      11 -> 30        -0.34414
      11 -> 32         0.23898

 Excited State  71:      Singlet-A     16.0946 eV   77.03 nm  f=0.2435  <S**2>=0.000
       6 -> 13        -0.12888
      10 -> 30         0.34412
      10 -> 32         0.23900
      11 -> 30         0.43642
      11 -> 31        -0.23918

 Excited State  72:      Singlet-A     16.1990 eV   76.54 nm  f=0.0000  <S**2>=0.000
      10 -> 31        -0.43306
      10 -> 32         0.22108
      11 -> 31         0.22295
      11 -> 32         0.43441

 Excited State  73:      Singlet-A     16.2002 eV   76.53 nm  f=0.1940  <S**2>=0.000
       8 -> 19        -0.13506
       9 -> 20         0.13500
       9 -> 21         0.26660
      10 -> 30        -0.11532
      10 -> 32         0.35202
      11 -> 30        -0.19124
      11 -> 31        -0.35067

 Excited State  74:      Singlet-A     16.2002 eV   76.53 nm  f=0.1940  <S**2>=0.000
       8 -> 20        -0.13509
       8 -> 21         0.26660
       9 -> 19        -0.13503
      10 -> 30        -0.19125
      10 -> 31         0.35199
      11 -> 30         0.11533
      11 -> 32         0.35069

 Excited State  75:      Singlet-A     16.5068 eV   75.11 nm  f=0.0070  <S**2>=0.000
       6 -> 12        -0.10490
       6 -> 16         0.30430
       7 -> 21         0.46845
      10 -> 31        -0.12028
      10 -> 32        -0.23489
      11 -> 31        -0.23492
      11 -> 32         0.12020

 Excited State  76:      Singlet-A     16.5307 eV   75.00 nm  f=0.0078  <S**2>=0.000
      11 -> 34         0.39538
      11 -> 35         0.45517
      11 -> 36        -0.24302

 The electronic state is 1-A.
 Alpha  occ. eigenvalues --  -10.32112 -10.30285 -10.28816  -0.87597  -0.79483
 Alpha  occ. eigenvalues --   -0.61515  -0.54320  -0.52200  -0.52200  -0.35517
 Alpha  occ. eigenvalues --   -0.35517
 Alpha virt. eigenvalues --    0.08751   0.11597   0.11597   0.12097   0.14905
 Alpha virt. eigenvalues --    0.19583   0.19583   0.22169   0.22169   0.22914
 Alpha virt. eigenvalues --    0.27175   0.27175   0.28474   0.33971   0.33971

 Mulliken charges:
               1
     1  C    0.348621
     2  C    0.809105
     3  C   -1.057778
     4  H   -0.007980
     5  H   -0.007989
     6  H   -0.008015
     7  H   -0.075963
 Sum of Mulliken charges =   0.00000

 Dipole moment (field-independent basis, Debye):
    X=              0.0002    Y=             -0.0121    Z=             -0.8023  Tot=              0.8024
 Quadrupole moment (field-independent basis, Debye-Ang):
   XX=            -19.5199   YY=            -19.5186   ZZ=            -14.0426
   XY=             -0.0000   XZ=             -0.0012   YZ=              0.0826

 Normal termination of Gaussian 16 at Mon Mar 21 15:52:37 2022.
