 Gaussian 16, Revision C.01,
 Gaussian 16:  EM64L-G16RevC.01  3-Jul-2019

 ----------------------------------------------------------------------
 #P TD(Nstates=10000) wB97XD/Gen SCF(maxcycles=100) Int(Grid=ultrafine)
 ----------------------------------------------------------------------

 ---------------------
 xGDB7_00001_tier4.com
 ---------------------
 Symbolic Z-matrix:
 Charge =  0 Multiplicity = 1

                         Standard orientation:
 ---------------------------------------------------------------------
 Center     Atomic      Atomic             Coordinates (Angstroms)
 Number     Number       Type             X           Y           Z
 ---------------------------------------------------------------------
      1          8           0        0.000000    0.000000    0.596896
      2          8           0        0.000000    0.000000   -0.596896
 ---------------------------------------------------------------------

 SCF Done:  E(RwB97XD) =  -150.102524083     A.U. after   10 cycles

 Excitation energies and oscillator strengths:

 Excited state symmetry could not be determined.
 Excited State   1:      Singlet-?Sym    0.0022 eV 576226.74 nm  f=0.0000  <S**2>=0.000
       6 -> 23        -0.11252
       7 -> 22        -0.11381
       8 ->  9        -8.04346
       8 -> 15         0.24214
       6 <- 23        -0.11281
       7 <- 22        -0.11347
       8 <-  9        -8.01237
       8 <- 15         0.24078
 This state for optimization and/or second-order correction.
 Total Energy, E(TD-HF/TD-DFT) =  -150.102445011
 Copying the excited state density for this state as the 1-particle RhoCI density.

 Excited state symmetry could not be determined.
 Excited State   2:      Singlet-?Sym    6.8218 eV  181.75 nm  f=0.0000  <S**2>=0.000
       7 ->  9         0.70610

 Excited state symmetry could not be determined.
 Excited State   3:      Singlet-?Sym    7.7009 eV  161.00 nm  f=0.0000  <S**2>=0.000
       5 ->  9         0.70661

 Excited state symmetry could not be determined.
 Excited State   4:      Singlet-?Sym    8.2054 eV  151.10 nm  f=0.0215  <S**2>=0.000
       8 -> 10         0.69599
       8 -> 17        -0.11625

 Excited state symmetry could not be determined.
 Excited State   5:      Singlet-?Sym    8.2805 eV  149.73 nm  f=0.0000  <S**2>=0.000
       8 -> 11         0.68434
       8 -> 14        -0.17250

 Excited state symmetry could not be determined.
 Excited State   6:      Singlet-?Sym    9.0922 eV  136.36 nm  f=0.0000  <S**2>=0.000
       8 -> 12         0.70573

 Excited state symmetry could not be determined.
 Excited State   7:      Singlet-?Sym    9.1582 eV  135.38 nm  f=0.1166  <S**2>=0.000
       6 ->  9         0.29059
       8 -> 13         0.64233

 Excited state symmetry could not be determined.
 Excited State   8:      Singlet-?Sym   10.5431 eV  117.60 nm  f=0.0000  <S**2>=0.000
       8 -> 11         0.17053
       8 -> 14         0.68268

 Excited state symmetry could not be determined.
 Excited State   9:      Singlet-?Sym   10.5889 eV  117.09 nm  f=0.0711  <S**2>=0.000
       5 -> 17        -0.14273
       6 ->  9         0.62610
       8 -> 13        -0.29304
       6 <-  9        -0.10408

 Excited state symmetry could not be determined.
 Excited State  10:      Singlet-?Sym   10.9415 eV  113.32 nm  f=0.0000  <S**2>=0.000
       8 -> 15         0.70405

 Excited state symmetry could not be determined.
 Excited State  11:      Singlet-?Sym   11.3012 eV  109.71 nm  f=0.0000  <S**2>=0.000
       8 -> 16         0.70464

 Excited state symmetry could not be determined.
 Excited State  12:      Singlet-?Sym   11.8877 eV  104.30 nm  f=0.0093  <S**2>=0.000
       8 -> 10         0.10415
       8 -> 17         0.67042
       8 -> 18        -0.18880

 Excited state symmetry could not be determined.
 Excited State  13:      Singlet-?Sym   15.3031 eV   81.02 nm  f=0.1679  <S**2>=0.000
       7 -> 11         0.28211
       8 -> 17         0.17342
       8 -> 18         0.61482

 Excited state symmetry could not be determined.
 Excited State  14:      Singlet-?Sym   15.6297 eV   79.33 nm  f=0.0000  <S**2>=0.000
       6 -> 10        -0.35699
       8 -> 19         0.60185

 Excited state symmetry could not be determined.
 Excited State  15:      Singlet-?Sym   15.6768 eV   79.09 nm  f=0.0000  <S**2>=0.000
       7 -> 10         0.43185
       7 -> 17        -0.10595
       8 -> 20         0.54730

 Excited state symmetry could not be determined.
 Excited State  16:      Singlet-?Sym   15.8844 eV   78.05 nm  f=0.0000  <S**2>=0.000
       6 -> 10         0.59463
       8 -> 19         0.36721

 Excited state symmetry could not be determined.
 Excited State  17:      Singlet-?Sym   15.8919 eV   78.02 nm  f=0.0000  <S**2>=0.000
       7 -> 10         0.54230
       8 -> 20        -0.44475

 Excited state symmetry could not be determined.
 Excited State  18:      Singlet-?Sym   15.9007 eV   77.97 nm  f=0.1691  <S**2>=0.000
       4 ->  9         0.10585
       6 -> 11         0.67638
       6 -> 14        -0.17035

 Excited state symmetry could not be determined.
 Excited State  19:      Singlet-?Sym   16.0178 eV   77.40 nm  f=0.0303  <S**2>=0.000
       7 -> 11         0.61985
       7 -> 14        -0.16249
       8 -> 18        -0.29098

 Excited state symmetry could not be determined.
 Excited State  20:      Singlet-?Sym   16.0974 eV   77.02 nm  f=0.0342  <S**2>=0.000
       4 ->  9         0.68263

 Excited State  21:      Singlet-SGU   16.1239 eV   76.89 nm  f=0.2557  <S**2>=0.000
       5 -> 10         0.69477

 Excited State  22:      Singlet-SGG   16.5671 eV   74.84 nm  f=0.0000  <S**2>=0.000
       5 -> 11         0.62567
       6 -> 12        -0.29766

 Excited state symmetry could not be determined.
 Excited State  23:      Singlet-?Sym   16.6012 eV   74.68 nm  f=0.0000  <S**2>=0.000
       6 -> 13         0.15579
       7 -> 12         0.68729

 Excited state symmetry could not be determined.
 Excited State  24:      Singlet-?Sym   16.6755 eV   74.35 nm  f=0.0000  <S**2>=0.000
       5 -> 11         0.17537
       6 -> 12         0.50894
       7 -> 13        -0.45233

 Excited state symmetry could not be determined.
 Excited State  25:      Singlet-?Sym   16.9080 eV   73.33 nm  f=0.0000  <S**2>=0.000
       6 -> 13         0.68925
       7 -> 12        -0.15587

 Excited state symmetry could not be determined.
 Excited State  26:      Singlet-?Sym   17.1034 eV   72.49 nm  f=0.0549  <S**2>=0.000
       5 -> 12         0.70023

 Excited state symmetry could not be determined.
 Excited State  27:      Singlet-?Sym   17.3266 eV   71.56 nm  f=0.0470  <S**2>=0.000
       5 -> 13         0.70516

 Excited state symmetry could not be determined.
 Excited State  28:      Singlet-?Sym   17.3611 eV   71.41 nm  f=0.0000  <S**2>=0.000
       5 -> 11         0.21708
       5 -> 14        -0.17886
       6 -> 12         0.37035
       7 -> 13         0.52560

 Excited state symmetry could not be determined.
 Excited State  29:      Singlet-?Sym   18.1295 eV   68.39 nm  f=0.0388  <S**2>=0.000
       7 -> 11         0.18131
       7 -> 14         0.67916

 Excited state symmetry could not be determined.
 Excited State  30:      Singlet-?Sym   18.2243 eV   68.03 nm  f=0.0609  <S**2>=0.000
       6 -> 11         0.18251
       6 -> 14         0.67691

 Excited state symmetry could not be determined.
 Excited State  31:      Singlet-?Sym   18.4963 eV   67.03 nm  f=0.0000  <S**2>=0.000
       7 -> 15         0.69588

 Excited state symmetry could not be determined.
 Excited State  32:      Singlet-?Sym   18.5513 eV   66.83 nm  f=0.0000  <S**2>=0.000
       6 -> 15         0.55474
       7 -> 16        -0.43343

 Excited state symmetry could not be determined.
 Excited State  33:      Singlet-?Sym   18.6257 eV   66.57 nm  f=0.0000  <S**2>=0.000
       5 -> 11         0.15854
       5 -> 14         0.67142

 Excited state symmetry could not be determined.
 Excited State  34:      Singlet-?Sym   18.6544 eV   66.46 nm  f=0.0000  <S**2>=0.000
       6 -> 16         0.69894

 Excited state symmetry could not be determined.
 Excited State  35:      Singlet-?Sym   18.6736 eV   66.40 nm  f=0.0446  <S**2>=0.000
       5 -> 17         0.12479
       6 -> 15         0.42145
       7 -> 16         0.54623

 Excited state symmetry could not be determined.
 Excited State  36:      Singlet-?Sym   18.8646 eV   65.72 nm  f=0.0000  <S**2>=0.000
       5 -> 15         0.70102

 Excited state symmetry could not be determined.
 Excited State  37:      Singlet-?Sym   18.9569 eV   65.40 nm  f=0.0000  <S**2>=0.000
       5 -> 16         0.70131

 Excited state symmetry could not be determined.
 Excited State  38:      Singlet-?Sym   19.2618 eV   64.37 nm  f=0.0000  <S**2>=0.000
       6 -> 10         0.12410
       6 -> 17         0.66056
       6 -> 18        -0.20284

 Excited state symmetry could not be determined.
 Excited State  39:      Singlet-?Sym   19.3211 eV   64.17 nm  f=0.0000  <S**2>=0.000
       7 -> 10         0.11601
       7 -> 17         0.66230
       7 -> 18        -0.19641

 Excited state symmetry could not be determined.
 Excited State  40:      Singlet-?Sym   20.6528 eV   60.03 nm  f=0.0004  <S**2>=0.000
       5 -> 17        -0.41704
       8 -> 23         0.55282

 Excited state symmetry could not be determined.
 Excited State  41:      Singlet-?Sym   20.7454 eV   59.76 nm  f=0.0000  <S**2>=0.000
       8 -> 21         0.69874

 Excited state symmetry could not be determined.
 Excited State  42:      Singlet-?Sym   20.8264 eV   59.53 nm  f=0.0000  <S**2>=0.000
       8 -> 22         0.70391

 Excited state symmetry could not be determined.
 Excited State  43:      Singlet-?Sym   21.8301 eV   56.80 nm  f=0.1898  <S**2>=0.000
       6 -> 20        -0.19560
       7 -> 19         0.12139
       8 -> 24         0.66423

 Excited state symmetry could not be determined.
 Excited State  44:      Singlet-?Sym   21.8615 eV   56.71 nm  f=0.1485  <S**2>=0.000
       6 -> 19         0.20176
       7 -> 20         0.13223
       8 -> 25         0.66288

 Excited State  45:      Singlet-SGU   21.9363 eV   56.52 nm  f=0.7670  <S**2>=0.000
       4 -> 11         0.30677
       5 -> 17         0.42779
       5 -> 18         0.22991
       8 -> 23         0.37410

 Excited state symmetry could not be determined.
 Excited State  46:      Singlet-?Sym   22.4005 eV   55.35 nm  f=0.0000  <S**2>=0.000
       8 -> 27         0.69899

 Excited state symmetry could not be determined.
 Excited State  47:      Singlet-?Sym   22.6297 eV   54.79 nm  f=0.0553  <S**2>=0.000
       8 -> 28         0.70026

 Excited state symmetry could not be determined.
 Excited State  48:      Singlet-?Sym   22.7232 eV   54.56 nm  f=0.0000  <S**2>=0.000
       4 -> 10        -0.44950
       4 -> 17         0.10900
       8 -> 26         0.52284

 Excited state symmetry could not be determined.
 Excited State  49:      Singlet-?Sym   22.9373 eV   54.05 nm  f=0.0000  <S**2>=0.000
       6 -> 17         0.19574
       6 -> 18         0.67115

 Excited state symmetry could not be determined.
 Excited State  50:      Singlet-?Sym   22.9668 eV   53.98 nm  f=0.0000  <S**2>=0.000
       7 -> 17         0.19534
       7 -> 18         0.67216

 Excited state symmetry could not be determined.
 Excited State  51:      Singlet-?Sym   23.1066 eV   53.66 nm  f=0.0116  <S**2>=0.000
       6 -> 20        -0.44293
       7 -> 19         0.50464
       8 -> 24        -0.22074

 Excited state symmetry could not be determined.
 Excited State  52:      Singlet-?Sym   23.1196 eV   53.63 nm  f=0.0128  <S**2>=0.000
       6 -> 19         0.44364
       7 -> 20         0.49829
       8 -> 25        -0.23331

 Excited State  53:      Singlet-SGG   23.3175 eV   53.17 nm  f=0.0000  <S**2>=0.000
       4 -> 10         0.53457
       8 -> 26         0.44569

 Excited State  54:      Singlet-SGU   23.4937 eV   52.77 nm  f=0.0215  <S**2>=0.000
       4 -> 11         0.55791
       5 -> 17        -0.17096
       5 -> 18        -0.38248

 Excited state symmetry could not be determined.
 Excited State  55:      Singlet-?Sym   23.7663 eV   52.17 nm  f=0.0000  <S**2>=0.000
       5 -> 19         0.70285

 Excited state symmetry could not be determined.
 Excited State  56:      Singlet-?Sym   23.7817 eV   52.13 nm  f=0.0000  <S**2>=0.000
       5 -> 20         0.70164

 Excited state symmetry could not be determined.
 Excited State  57:      Singlet-?Sym   23.8739 eV   51.93 nm  f=0.0000  <S**2>=0.000
       4 -> 12         0.69814

 Excited state symmetry could not be determined.
 Excited State  58:      Singlet-?Sym   23.9629 eV   51.74 nm  f=0.5707  <S**2>=0.000
       6 -> 19         0.50680
       7 -> 20        -0.47889

 Excited state symmetry could not be determined.
 Excited State  59:      Singlet-?Sym   24.0369 eV   51.58 nm  f=0.6259  <S**2>=0.000
       4 ->  9         0.10172
       6 -> 20         0.50480
       7 -> 19         0.46908

 Excited state symmetry could not be determined.
 Excited State  60:      Singlet-?Sym   24.1144 eV   51.41 nm  f=0.0000  <S**2>=0.000
       4 -> 13         0.70216

 Excited state symmetry could not be determined.
 Excited State  61:      Singlet-?Sym   25.2711 eV   49.06 nm  f=0.0452  <S**2>=0.000
       4 -> 11         0.24455
       4 -> 14         0.58063
       5 -> 18         0.26200
       8 -> 23        -0.11360

 Excited State  62:      Singlet-SGU   25.2971 eV   49.01 nm  f=0.6424  <S**2>=0.000
       4 -> 11         0.15085
       4 -> 14        -0.36741
       5 -> 17        -0.22790
       5 -> 18         0.45481
       5 -> 28        -0.11089
       6 ->  9        -0.13151
       8 -> 23        -0.17112
       8 -> 30        -0.10206

 Excited state symmetry could not be determined.
 Excited State  63:      Singlet-?Sym   25.6933 eV   48.26 nm  f=0.0008  <S**2>=0.000
       4 -> 15         0.69560

 Excited state symmetry could not be determined.
 Excited State  64:      Singlet-?Sym   25.7815 eV   48.09 nm  f=0.0016  <S**2>=0.000
       4 -> 16         0.69808

 Excited State  65:      Singlet-SGG   27.3048 eV   45.41 nm  f=0.0000  <S**2>=0.000
       4 -> 17         0.62032
       4 -> 18        -0.14391
       5 -> 21         0.10424
       6 -> 22        -0.21356
       7 -> 23        -0.15161

 Excited state symmetry could not be determined.
 Excited State  66:      Singlet-?Sym   28.3509 eV   43.73 nm  f=0.0000  <S**2>=0.000
       6 -> 23         0.24643
       7 -> 22         0.66005

 Excited state symmetry could not be determined.
 Excited State  67:      Singlet-?Sym   28.3744 eV   43.70 nm  f=0.0000  <S**2>=0.000
       6 -> 22         0.58750
       7 -> 23        -0.37038

 Excited state symmetry could not be determined.
 Excited State  68:      Singlet-?Sym   28.3758 eV   43.69 nm  f=0.0000  <S**2>=0.000
       5 -> 22        -0.37721
       6 -> 21         0.59380

 Excited state symmetry could not be determined.
 Excited State  69:      Singlet-?Sym   28.4815 eV   43.53 nm  f=0.0103  <S**2>=0.000
       5 -> 23        -0.26226
       7 -> 21         0.64985

 Excited state symmetry could not be determined.
 Excited State  70:      Singlet-?Sym   28.7148 eV   43.18 nm  f=0.0000  <S**2>=0.000
       5 -> 21         0.63955
       7 -> 23         0.25943

 Excited state symmetry could not be determined.
 Excited State  71:      Singlet-?Sym   28.7238 eV   43.16 nm  f=0.0000  <S**2>=0.000
       6 -> 23         0.66235
       7 -> 22        -0.24657

 Excited state symmetry could not be determined.
 Excited State  72:      Singlet-?Sym   28.7360 eV   43.15 nm  f=0.0000  <S**2>=0.000
       3 ->  9         0.64423
       6 -> 25        -0.19531
       7 -> 24        -0.20272

 Excited state symmetry could not be determined.
 Excited State  73:      Singlet-?Sym   28.9273 eV   42.86 nm  f=0.0000  <S**2>=0.000
       4 -> 17         0.29257
       4 -> 18         0.17196
       5 -> 21        -0.22386
       6 -> 22         0.28657
       7 -> 23         0.49702

 Excited state symmetry could not be determined.
 Excited State  74:      Singlet-?Sym   29.1755 eV   42.50 nm  f=0.3191  <S**2>=0.000
       5 -> 22         0.58483
       6 -> 21         0.37657

 Excited state symmetry could not be determined.
 Excited State  75:      Singlet-?Sym   29.2137 eV   42.44 nm  f=0.0000  <S**2>=0.000
       6 -> 25         0.54508
       7 -> 24        -0.44749

 Excited state symmetry could not be determined.
 Excited State  76:      Singlet-?Sym   29.2166 eV   42.44 nm  f=0.0000  <S**2>=0.000
       6 -> 24         0.54699
       7 -> 25         0.44681

 Excited state symmetry could not be determined.
 Excited State  77:      Singlet-?Sym   29.3654 eV   42.22 nm  f=0.0000  <S**2>=0.000
       4 -> 19         0.29965
       5 -> 24         0.55532
       6 -> 26        -0.18511
       7 -> 27        -0.24485

 Excited state symmetry could not be determined.
 Excited State  78:      Singlet-?Sym   29.3750 eV   42.21 nm  f=0.0041  <S**2>=0.000
       4 -> 20         0.29626
       5 -> 25         0.55588
       6 -> 27        -0.28290
       7 -> 26         0.14196

 Excited state symmetry could not be determined.
 Excited State  79:      Singlet-?Sym   29.4109 eV   42.16 nm  f=0.2872  <S**2>=0.000
       5 -> 23         0.64658
       7 -> 21         0.26194

 Excited state symmetry could not be determined.
 Excited State  80:      Singlet-?Sym   29.5699 eV   41.93 nm  f=0.0000  <S**2>=0.000
       3 ->  9         0.25972
       6 -> 25         0.38335
       6 -> 28        -0.18227
       7 -> 24         0.49443

 Excited state symmetry could not be determined.
 Excited State  81:      Singlet-?Sym   29.5911 eV   41.90 nm  f=0.0000  <S**2>=0.000
       6 -> 24        -0.43837
       7 -> 25         0.54105
       7 -> 28         0.11423

 Excited state symmetry could not be determined.
 Excited State  82:      Singlet-?Sym   30.0388 eV   41.27 nm  f=0.0000  <S**2>=0.000
       5 -> 27         0.64755
       6 -> 28        -0.26295

 Excited state symmetry could not be determined.
 Excited State  83:      Singlet-?Sym   30.0874 eV   41.21 nm  f=0.0000  <S**2>=0.000
       5 -> 24         0.23327
       6 -> 26        -0.10393
       7 -> 27         0.64260
       8 -> 29        -0.12242

 Excited state symmetry could not be determined.
 Excited State  84:      Singlet-?Sym   30.1182 eV   41.17 nm  f=0.0061  <S**2>=0.000
       5 -> 28         0.48529
       7 -> 26         0.48461

 Excited state symmetry could not be determined.
 Excited State  85:      Singlet-?Sym   30.1669 eV   41.10 nm  f=0.0000  <S**2>=0.000
       5 -> 26         0.54311
       7 -> 28        -0.43737

 Excited state symmetry could not be determined.
 Excited State  86:      Singlet-?Sym   30.1836 eV   41.08 nm  f=0.0069  <S**2>=0.000
       4 -> 20         0.10766
       5 -> 25         0.29221
       5 -> 28         0.17785
       6 -> 27         0.56182
       7 -> 26        -0.22764

 Excited state symmetry could not be determined.
 Excited State  87:      Singlet-?Sym   30.2200 eV   41.03 nm  f=0.0000  <S**2>=0.000
       5 -> 24         0.20367
       6 -> 26         0.67231

 Excited state symmetry could not be determined.
 Excited State  88:      Singlet-?Sym   30.3521 eV   40.85 nm  f=0.0000  <S**2>=0.000
       5 -> 26         0.44318
       7 -> 28         0.53669

 Excited state symmetry could not be determined.
 Excited State  89:      Singlet-?Sym   30.4009 eV   40.78 nm  f=0.0000  <S**2>=0.000
       5 -> 27         0.25755
       6 -> 25         0.12752
       6 -> 28         0.62674
       7 -> 24         0.11087

 Excited State  90:      Singlet-SGG   30.7233 eV   40.36 nm  f=0.0000  <S**2>=0.000
       4 -> 18         0.66769
       6 -> 22        -0.13389
       7 -> 23        -0.14141

 Excited state symmetry could not be determined.
 Excited State  91:      Singlet-?Sym   30.7445 eV   40.33 nm  f=0.0000  <S**2>=0.000
       4 -> 19         0.63155
       5 -> 24        -0.30895

 Excited state symmetry could not be determined.
 Excited State  92:      Singlet-?Sym   30.7689 eV   40.30 nm  f=0.0000  <S**2>=0.000
       4 -> 20         0.62901
       5 -> 25        -0.31157

 Excited state symmetry could not be determined.
 Excited State  93:      Singlet-?Sym   31.1611 eV   39.79 nm  f=0.0038  <S**2>=0.000
       5 -> 28         0.41816
       6 -> 27        -0.26988
       7 -> 26        -0.40719
       8 -> 30        -0.23992

 Excited state symmetry could not be determined.
 Excited State  94:      Singlet-?Sym   32.6866 eV   37.93 nm  f=0.0000  <S**2>=0.000
       7 -> 27         0.13988
       8 -> 29         0.69025

 Excited state symmetry could not be determined.
 Excited State  95:      Singlet-?Sym   34.7854 eV   35.64 nm  f=0.0060  <S**2>=0.000
       3 -> 10         0.18487
       3 -> 17        -0.20542
       4 -> 21         0.11978
       5 -> 28         0.16545
       6 -> 27        -0.10319
       8 -> 30         0.58724

 Excited state symmetry could not be determined.
 Excited State  96:      Singlet-?Sym   35.0015 eV   35.42 nm  f=0.0000  <S**2>=0.000
       8 -> 31         0.70198

 Excited state symmetry could not be determined.
 Excited State  97:      Singlet-?Sym   35.5956 eV   34.83 nm  f=0.0804  <S**2>=0.000
       4 -> 21         0.68504
       8 -> 30        -0.12782

 Excited state symmetry could not be determined.
 Excited State  98:      Singlet-?Sym   35.7260 eV   34.70 nm  f=0.0000  <S**2>=0.000
       4 -> 22         0.70051

 Excited state symmetry could not be determined.
 Excited State  99:      Singlet-?Sym   36.0193 eV   34.42 nm  f=0.0000  <S**2>=0.000
       4 -> 23         0.69950

 Excited state symmetry could not be determined.
 Excited State 100:      Singlet-?Sym   36.6044 eV   33.87 nm  f=0.0000  <S**2>=0.000
       4 -> 24         0.70590

 Excited state symmetry could not be determined.
 Excited State 101:      Singlet-?Sym   36.6166 eV   33.86 nm  f=0.0000  <S**2>=0.000
       4 -> 25         0.70565

 Excited State 102:      Singlet-SGG   37.0123 eV   33.50 nm  f=0.0000  <S**2>=0.000
       3 -> 11         0.68120
       3 -> 14        -0.17377

 Excited state symmetry could not be determined.
 Excited State 103:      Singlet-?Sym   37.1104 eV   33.41 nm  f=0.0586  <S**2>=0.000
       4 -> 27         0.69268
       5 -> 29        -0.11848

 Excited state symmetry could not be determined.
 Excited State 104:      Singlet-?Sym   37.2332 eV   33.30 nm  f=0.0527  <S**2>=0.000
       4 -> 26         0.69736

 Excited State 105:      Singlet-SGU   37.3225 eV   33.22 nm  f=0.0086  <S**2>=0.000
       3 -> 10         0.67649
       8 -> 30        -0.14426

 Excited state symmetry could not be determined.
 Excited State 106:      Singlet-?Sym   37.5047 eV   33.06 nm  f=0.0000  <S**2>=0.000
       4 -> 28         0.69849

 Excited state symmetry could not be determined.
 Excited State 107:      Singlet-?Sym   37.8551 eV   32.75 nm  f=0.0000  <S**2>=0.000
       3 -> 12         0.70540

 Excited state symmetry could not be determined.
 Excited State 108:      Singlet-?Sym   38.0767 eV   32.56 nm  f=0.0002  <S**2>=0.000
       3 -> 13         0.70531

 Excited state symmetry could not be determined.
 Excited State 109:      Singlet-?Sym   39.3571 eV   31.50 nm  f=0.0000  <S**2>=0.000
       3 -> 11         0.17970
       3 -> 14         0.67833

 Excited state symmetry could not be determined.
 Excited State 110:      Singlet-?Sym   39.6825 eV   31.24 nm  f=0.0000  <S**2>=0.000
       3 -> 15         0.70501

 Excited state symmetry could not be determined.
 Excited State 111:      Singlet-?Sym   39.7671 eV   31.18 nm  f=0.0000  <S**2>=0.000
       3 -> 16         0.70504

 Excited state symmetry could not be determined.
 Excited State 112:      Singlet-?Sym   40.0418 eV   30.96 nm  f=0.0000  <S**2>=0.000
       7 -> 29         0.69961

 Excited state symmetry could not be determined.
 Excited State 113:      Singlet-?Sym   40.2543 eV   30.80 nm  f=0.0000  <S**2>=0.000
       6 -> 29         0.55322
       7 -> 30        -0.43235

 Excited state symmetry could not be determined.
 Excited State 114:      Singlet-?Sym   40.6465 eV   30.50 nm  f=0.0000  <S**2>=0.000
       6 -> 30         0.70540

 Excited state symmetry could not be determined.
 Excited State 115:      Singlet-?Sym   40.6759 eV   30.48 nm  f=0.0514  <S**2>=0.000
       4 -> 27         0.11874
       5 -> 29         0.69582

 Excited state symmetry could not be determined.
 Excited State 116:      Singlet-?Sym   40.9309 eV   30.29 nm  f=0.0672  <S**2>=0.000

 Unable to determine electronic state:  partially filled degenerate orbitals.
 Alpha  occ. eigenvalues --  -19.42636 -19.42623  -1.40357  -0.88778  -0.64108
 Alpha  occ. eigenvalues --   -0.62866  -0.62602  -0.34928
 Alpha virt. eigenvalues --   -0.10910   0.11982   0.15128   0.17482   0.18273
 Alpha virt. eigenvalues --    0.22131   0.22328   0.22604   0.32370   0.41697
 Alpha virt. eigenvalues --    0.45186   0.45268   0.61999   0.63808   0.64705

 Mulliken charges:
               1
     1  O   -0.000000
     2  O   -0.000000
 Sum of Mulliken charges =  -0.00000

 Dipole moment (field-independent basis, Debye):
    X=             -0.0000    Y=              0.0000    Z=             -0.0000  Tot=              0.0000
 Quadrupole moment (field-independent basis, Debye-Ang):
   XX=             -9.2293   YY=            -11.1379   ZZ=            -10.6979
   XY=              0.0000   XZ=              0.0000   YZ=              0.0000

 Normal termination of Gaussian 16 at Mon Mar 21 15:54:26 2022.
