 Gaussian 16, Revision C.01,
 Gaussian 16:  EM64L-G16RevC.01  3-Jul-2019

 ----------------------------------------------------------------------
 #P TD(Nstates=10000) lc-blyp/Gen SCF(maxcycles=100) Int(Grid=ultrafine
 )
 ----------------------------------------------------------------------

 ---------------------
 xGDB7_00001_tier4.com
 ---------------------
 Symbolic Z-matrix:
 Charge =  0 Multiplicity = 1

                         Standard orientation:
 ---------------------------------------------------------------------
 Center     Atomic      Atomic             Coordinates (Angstroms)
 Number     Number       Type             X           Y           Z
 ---------------------------------------------------------------------
      1          7           0       -0.000002   -0.000000   -0.110463
      2          1           0       -0.147185    0.930214    0.257758
      3          1           0       -0.731998   -0.592574    0.257757
      4          1           0        0.879196   -0.337638    0.257728
 ---------------------------------------------------------------------

 SCF Done:  E(RLC-B+HF-LYP) =  -56.3760938582     A.U. after   12 cycles

 Excitation energies and oscillator strengths:

 Excited State   1:      Singlet-A      7.3234 eV  169.30 nm  f=0.0784  <S**2>=0.000
       5 ->  6         0.69801
 This state for optimization and/or second-order correction.
 Total Energy, E(TD-HF/TD-DFT) =  -56.1069638694
 Copying the excited state density for this state as the 1-particle RhoCI density.

 Excited State   2:      Singlet-A      9.5119 eV  130.35 nm  f=0.0129  <S**2>=0.000
       5 ->  7         0.66179
       5 ->  8        -0.17283
       5 -> 10        -0.10901

 Excited State   3:      Singlet-A      9.5119 eV  130.35 nm  f=0.0129  <S**2>=0.000
       5 ->  7         0.17283
       5 ->  8         0.66179
       5 ->  9        -0.10901

 Excited State   4:      Singlet-A     10.9419 eV  113.31 nm  f=0.0012  <S**2>=0.000
       5 ->  8         0.12241
       5 ->  9         0.68420

 Excited State   5:      Singlet-A     10.9419 eV  113.31 nm  f=0.0012  <S**2>=0.000
       5 ->  7         0.12240
       5 -> 10         0.68420

 Excited State   6:      Singlet-A     11.9843 eV  103.46 nm  f=0.0158  <S**2>=0.000
       3 ->  7         0.12063
       4 ->  8         0.12063
       5 -> 11         0.67863

 Excited State   7:      Singlet-A     12.5468 eV   98.82 nm  f=0.0577  <S**2>=0.000
       4 ->  6         0.64227
       5 -> 13        -0.26600

 Excited State   8:      Singlet-A     12.5468 eV   98.82 nm  f=0.0577  <S**2>=0.000
       3 ->  6         0.64223
       5 -> 12        -0.26608

 Excited State   9:      Singlet-A     12.8484 eV   96.50 nm  f=0.2354  <S**2>=0.000
       3 ->  6         0.26683
       5 -> 12         0.63422

 Excited State  10:      Singlet-A     12.8484 eV   96.50 nm  f=0.2354  <S**2>=0.000
       4 ->  6         0.26675
       5 -> 13         0.63425

 Excited State  11:      Singlet-A     12.8674 eV   96.36 nm  f=0.2297  <S**2>=0.000
       5 -> 14         0.68233

 Excited State  12:      Singlet-A     14.7678 eV   83.96 nm  f=0.0000  <S**2>=0.000
       3 ->  8        -0.48107
       4 ->  7         0.48196

 Excited State  13:      Singlet-A     14.8137 eV   83.70 nm  f=0.0631  <S**2>=0.000
       3 ->  7        -0.15724
       3 ->  8         0.46397
       4 ->  7         0.46312
       4 ->  8         0.15711

 Excited State  14:      Singlet-A     14.8137 eV   83.70 nm  f=0.0631  <S**2>=0.000
       3 ->  7        -0.46352
       3 ->  8        -0.15729
       4 ->  7        -0.15707
       4 ->  8         0.46357

 Excited State  15:      Singlet-A     15.9608 eV   77.68 nm  f=0.0000  <S**2>=0.000
       3 ->  9        -0.48985
       4 -> 10         0.48989

 Excited State  16:      Singlet-A     16.1985 eV   76.54 nm  f=0.0168  <S**2>=0.000
       3 ->  7         0.33209
       3 -> 10        -0.26179
       4 ->  8         0.33208
       4 ->  9        -0.26184
       5 -> 11        -0.12926
       5 -> 14         0.13840
       5 -> 16        -0.29242

 Excited State  17:      Singlet-A     16.4183 eV   75.52 nm  f=0.0031  <S**2>=0.000
       3 -> 10        -0.18319
       4 ->  9         0.18330
       4 -> 11         0.61998
       5 -> 17        -0.11231

 Excited State  18:      Singlet-A     16.4184 eV   75.52 nm  f=0.0031  <S**2>=0.000
       3 ->  9        -0.18325
       3 -> 11         0.61998
       4 -> 10        -0.18323
       5 -> 18         0.11233

 Excited State  19:      Singlet-A     16.5555 eV   74.89 nm  f=0.0063  <S**2>=0.000
       3 -> 10        -0.36685
       4 ->  9        -0.36691
       5 -> 16         0.45519

 Excited State  20:      Singlet-A     16.6138 eV   74.63 nm  f=0.0000  <S**2>=0.000
       5 -> 15         0.70689

 Excited State  21:      Singlet-A     16.7405 eV   74.06 nm  f=0.3657  <S**2>=0.000
       3 -> 10        -0.40702
       4 ->  9         0.40704
       4 -> 11        -0.28487
       5 -> 17        -0.22246

 Excited State  22:      Singlet-A     16.7405 eV   74.06 nm  f=0.3657  <S**2>=0.000
       3 ->  9         0.40705
       3 -> 11         0.28486
       4 -> 10         0.40702
       5 -> 18        -0.22245

 Excited State  23:      Singlet-A     16.7696 eV   73.93 nm  f=0.0535  <S**2>=0.000
       3 ->  7         0.31562
       3 -> 10         0.20539
       4 ->  8         0.31560
       4 ->  9         0.20509
       5 -> 11        -0.10096
       5 -> 16         0.43576

 Excited State  24:      Singlet-A     17.3581 eV   71.43 nm  f=0.0599  <S**2>=0.000
       3 -> 10        -0.17832
       4 ->  9         0.17830
       4 -> 14         0.12874
       5 ->  8         0.10125
       5 -> 17         0.60859
       5 -> 18        -0.13522

 Excited State  25:      Singlet-A     17.3582 eV   71.43 nm  f=0.0599  <S**2>=0.000
       3 ->  9         0.17831
       3 -> 14        -0.12873
       4 -> 10         0.17831
       5 ->  7        -0.10125
       5 -> 17         0.13522
       5 -> 18         0.60859

 Excited State  26:      Singlet-A     18.0099 eV   68.84 nm  f=0.0003  <S**2>=0.000
       3 -> 12        -0.45434
       3 -> 13        -0.12333
       4 -> 11        -0.11590
       4 -> 12        -0.12344
       4 -> 13         0.45446
       4 -> 14         0.18101

 Excited State  27:      Singlet-A     18.0099 eV   68.84 nm  f=0.0003  <S**2>=0.000
       3 -> 11         0.11592
       3 -> 12        -0.12336
       3 -> 13         0.45420
       3 -> 14        -0.18098
       4 -> 12         0.45461
       4 -> 13         0.12341

 Excited State  28:      Singlet-A     18.1131 eV   68.45 nm  f=0.0000  <S**2>=0.000
       3 -> 13         0.48740
       4 -> 12        -0.48701

 Excited State  29:      Singlet-A     18.1785 eV   68.20 nm  f=0.3034  <S**2>=0.000
       3 -> 12         0.48544
       4 -> 13         0.48532

 Excited State  30:      Singlet-A     18.2742 eV   67.85 nm  f=0.1034  <S**2>=0.000
       3 -> 12         0.10802
       4 -> 11         0.11405
       4 -> 13        -0.10800
       4 -> 14         0.65295
       5 -> 17        -0.11002

 Excited State  31:      Singlet-A     18.2743 eV   67.85 nm  f=0.1034  <S**2>=0.000
       3 -> 11         0.11404
       3 -> 13         0.10802
       3 -> 14         0.65296
       4 -> 12         0.10795
       5 -> 18         0.11001

 Excited State  32:      Singlet-A     19.6831 eV   62.99 nm  f=0.0738  <S**2>=0.000
       5 -> 19         0.62305
       5 -> 20         0.29017

 Excited State  33:      Singlet-A     19.6831 eV   62.99 nm  f=0.0738  <S**2>=0.000
       5 -> 19        -0.29017
       5 -> 20         0.62305

 Excited State  34:      Singlet-A     21.6815 eV   57.18 nm  f=0.0070  <S**2>=0.000
       3 -> 18        -0.10233
       4 -> 16         0.53330
       4 -> 17        -0.10234
       5 -> 23         0.41608

 Excited State  35:      Singlet-A     21.6815 eV   57.18 nm  f=0.0069  <S**2>=0.000
       3 -> 16         0.53321
       3 -> 17         0.10234
       4 -> 18        -0.10235
       5 -> 22         0.41618

 Excited State  36:      Singlet-A     21.8627 eV   56.71 nm  f=0.0462  <S**2>=0.000
       3 -> 16        -0.13926
       4 -> 15         0.62541
       5 -> 22         0.28167

 Excited State  37:      Singlet-A     21.8627 eV   56.71 nm  f=0.0463  <S**2>=0.000
       3 -> 15         0.62514
       4 -> 16         0.13958
       5 -> 23        -0.28208

 Excited State  38:      Singlet-A     21.9039 eV   56.60 nm  f=0.1011  <S**2>=0.000
       3 -> 15         0.31265
       4 -> 16        -0.41709
       5 -> 23         0.44912

 Excited State  39:      Singlet-A     21.9039 eV   56.60 nm  f=0.1012  <S**2>=0.000
       3 -> 16        -0.41732
       4 -> 15        -0.31210
       5 -> 22         0.44928

 Excited State  40:      Singlet-A     21.9496 eV   56.49 nm  f=0.2537  <S**2>=0.000
       3 -> 18        -0.12805
       4 -> 17         0.12802
       5 -> 21         0.65460

 Excited State  41:      Singlet-A     22.5759 eV   54.92 nm  f=0.0000  <S**2>=0.000
       3 -> 17         0.45706
       3 -> 18        -0.13890
       4 -> 17         0.13893
       4 -> 18         0.45712

 Excited State  42:      Singlet-A     22.9488 eV   54.03 nm  f=0.1373  <S**2>=0.000
       3 -> 17         0.46381
       4 -> 18        -0.46374
       5 -> 22        -0.14605

 Excited State  43:      Singlet-A     22.9488 eV   54.03 nm  f=0.1373  <S**2>=0.000
       3 -> 18         0.46376
       4 -> 17         0.46379
       5 -> 23         0.14606

 Excited State  44:      Singlet-A     23.3377 eV   53.13 nm  f=0.0426  <S**2>=0.000
       2 ->  6         0.54592
       3 -> 18        -0.26717
       4 -> 17         0.26712
       5 -> 21        -0.16779

 Excited State  45:      Singlet-A     24.8157 eV   49.96 nm  f=0.1066  <S**2>=0.000
       2 ->  6         0.41545
       3 -> 18         0.32504
       3 -> 20         0.11662
       3 -> 22         0.12734
       4 -> 17        -0.32502
       4 -> 19         0.11667
       4 -> 23         0.12734
       5 -> 21         0.10941
       5 -> 27         0.10958

 Excited State  46:      Singlet-A     24.8240 eV   49.95 nm  f=0.0000  <S**2>=0.000
       3 -> 19        -0.48654
       4 -> 20         0.48669

 Excited State  47:      Singlet-A     25.0479 eV   49.50 nm  f=0.0374  <S**2>=0.000
       3 -> 19         0.44712
       3 -> 20        -0.17814
       4 -> 19         0.17815
       4 -> 20         0.44698

 Excited State  48:      Singlet-A     25.0479 eV   49.50 nm  f=0.0374  <S**2>=0.000
       3 -> 19        -0.17817
       3 -> 20        -0.44702
       4 -> 19         0.44708
       4 -> 20        -0.17812

 Excited State  49:      Singlet-A     25.4309 eV   48.75 nm  f=0.0826  <S**2>=0.000
       3 -> 18        -0.10288
       3 -> 20         0.47405
       4 -> 17         0.10287
       4 -> 19         0.47398

 Excited State  50:      Singlet-A     25.9376 eV   47.80 nm  f=0.0236  <S**2>=0.000
       2 ->  7         0.66343
       2 ->  8        -0.14128

 Excited State  51:      Singlet-A     25.9376 eV   47.80 nm  f=0.0236  <S**2>=0.000
       2 ->  7         0.14128
       2 ->  8         0.66343

 Excited State  52:      Singlet-A     26.5471 eV   46.70 nm  f=0.0010  <S**2>=0.000
       2 ->  9         0.15623
       3 -> 22        -0.15292
       4 -> 21         0.64615
       4 -> 23         0.15293

 Excited State  53:      Singlet-A     26.5471 eV   46.70 nm  f=0.0010  <S**2>=0.000
       2 -> 10         0.15623
       3 -> 21         0.64615
       3 -> 23        -0.15290
       4 -> 22        -0.15293

 Excited State  54:      Singlet-A     26.8916 eV   46.11 nm  f=0.0000  <S**2>=0.000
       3 -> 23        -0.49589
       4 -> 22         0.49592

 Excited State  55:      Singlet-A     27.3344 eV   45.36 nm  f=0.0232  <S**2>=0.000
       2 ->  9         0.66490
       3 -> 22         0.10779
       4 -> 21        -0.11011
       4 -> 23        -0.10782

 Excited State  56:      Singlet-A     27.3344 eV   45.36 nm  f=0.0232  <S**2>=0.000
       2 -> 10         0.66490
       3 -> 21        -0.11012
       3 -> 23         0.10781
       4 -> 22         0.10779

 Excited State  57:      Singlet-A     27.4928 eV   45.10 nm  f=0.0811  <S**2>=0.000
       2 -> 11         0.61876
       3 -> 22        -0.20132
       4 -> 23        -0.20132
       5 -> 24         0.15624

 Excited State  58:      Singlet-A     27.7855 eV   44.62 nm  f=0.2384  <S**2>=0.000
       2 -> 11         0.18135
       3 -> 18        -0.10576
       3 -> 22         0.38479
       4 -> 17         0.10575
       4 -> 23         0.38487
       5 -> 24         0.34057

 Excited State  59:      Singlet-A     28.0080 eV   44.27 nm  f=0.3772  <S**2>=0.000
       2 ->  8        -0.10948
       2 ->  9        -0.11155
       2 -> 13         0.12911
       3 -> 22         0.42253
       4 -> 21         0.21874
       4 -> 23        -0.42246

 Excited State  60:      Singlet-A     28.0080 eV   44.27 nm  f=0.3772  <S**2>=0.000
       2 ->  7        -0.10948
       2 -> 10        -0.11154
       2 -> 12         0.12912
       3 -> 21         0.21874
       3 -> 23         0.42251
       4 -> 22         0.42247

 Excited State  61:      Singlet-A     28.2436 eV   43.90 nm  f=0.0489  <S**2>=0.000
       2 -> 11        -0.26469
       2 -> 14        -0.16913
       3 -> 22        -0.15615
       4 -> 23        -0.15610
       5 -> 24         0.58097

 Excited State  62:      Singlet-A     29.0431 eV   42.69 nm  f=0.0273  <S**2>=0.000
       2 -> 12         0.68114

 Excited State  63:      Singlet-A     29.0432 eV   42.69 nm  f=0.0273  <S**2>=0.000
       2 -> 13         0.68114

 Excited State  64:      Singlet-A     29.5261 eV   41.99 nm  f=0.0357  <S**2>=0.000
       2 -> 14         0.66799
       3 -> 22        -0.11299
       4 -> 23        -0.11298
       5 -> 24         0.11079

 Excited State  65:      Singlet-A     32.0987 eV   38.63 nm  f=0.0049  <S**2>=0.000
       5 -> 25         0.69812

 Excited State  66:      Singlet-A     32.0988 eV   38.63 nm  f=0.0049  <S**2>=0.000
       5 -> 26         0.69812

 Excited State  67:      Singlet-A     32.8012 eV   37.80 nm  f=0.0000  <S**2>=0.000
       2 -> 15         0.70484

 Excited State  68:      Singlet-A     33.0138 eV   37.56 nm  f=0.0177  <S**2>=0.000
       2 -> 16         0.67839
       5 -> 27        -0.16346

 Excited State  69:      Singlet-A     33.6219 eV   36.88 nm  f=0.0069  <S**2>=0.000
       2 -> 17         0.54626
       2 -> 18        -0.12356
       2 -> 19        -0.11845
       4 -> 24         0.38118

 Excited State  70:      Singlet-A     33.6220 eV   36.88 nm  f=0.0069  <S**2>=0.000
       2 -> 17         0.12357
       2 -> 18         0.54627
       2 -> 20         0.11846
       3 -> 24        -0.38116

 Excited State  71:      Singlet-A     34.1733 eV   36.28 nm  f=0.1014  <S**2>=0.000
       2 -> 17        -0.37370
       2 -> 18         0.11882
       4 -> 24         0.57973

 Excited State  72:      Singlet-A     34.1734 eV   36.28 nm  f=0.1014  <S**2>=0.000
       2 -> 17         0.11881
       2 -> 18         0.37368
       3 -> 24         0.57975

 Excited State  73:      Singlet-A     35.7075 eV   34.72 nm  f=0.0089  <S**2>=0.000
       2 -> 16         0.10717
       3 -> 26        -0.25190
       4 -> 25         0.25190
       5 -> 27         0.57884

 Excited State  74:      Singlet-A     35.9733 eV   34.47 nm  f=0.0001  <S**2>=0.000
       2 -> 18        -0.10224
       2 -> 20         0.68928

 Excited State  75:      Singlet-A     35.9733 eV   34.47 nm  f=0.0001  <S**2>=0.000
       2 -> 17         0.10224
       2 -> 19         0.68928

 Excited State  76:      Singlet-A     37.4678 eV   33.09 nm  f=0.0000  <S**2>=0.000
       3 -> 25         0.48384
       3 -> 26        -0.11422
       4 -> 25         0.11425
       4 -> 26         0.48388

 Excited State  77:      Singlet-A     37.6793 eV   32.91 nm  f=0.0305  <S**2>=0.000
       2 -> 21         0.69811

 Excited State  78:      Singlet-A     37.8269 eV   32.78 nm  f=0.0106  <S**2>=0.000
       2 -> 22         0.29865
       3 -> 25         0.43818
       4 -> 26        -0.43814

 Excited State  79:      Singlet-A     37.8270 eV   32.78 nm  f=0.0106  <S**2>=0.000
       2 -> 23        -0.29865
       3 -> 26         0.43816
       4 -> 25         0.43816

 Excited State  80:      Singlet-A     38.2095 eV   32.45 nm  f=0.0338  <S**2>=0.000
       2 -> 22         0.62935
       3 -> 25        -0.21175
       4 -> 26         0.21174

 Excited State  81:      Singlet-A     38.2096 eV   32.45 nm  f=0.0338  <S**2>=0.000
       2 -> 23         0.62935
       3 -> 26         0.21174
       4 -> 25         0.21174

 Excited State  82:      Singlet-A     39.5942 eV   31.31 nm  f=0.0064  <S**2>=0.000
       4 -> 27         0.69914

 Excited State  83:      Singlet-A     39.5943 eV   31.31 nm  f=0.0064  <S**2>=0.000
       3 -> 27         0.69914

 Excited State  84:      Singlet-A     39.9293 eV   31.05 nm  f=0.0653  <S**2>=0.000
       5 -> 28         0.69314

 Excited State  85:      Singlet-A     39.9294 eV   31.05 nm  f=0.0653  <S**2>=0.000
       5 -> 29         0.69314

 Excited State  86:      Singlet-A     40.6029 eV   30.54 nm  f=0.0208  <S**2>=0.000
       2 -> 16         0.11718
       2 -> 24         0.18067
       3 -> 26         0.38803
       3 -> 29         0.14451
       4 -> 25        -0.38801
       4 -> 28         0.14452
       5 -> 27         0.27346

 Excited State  87:      Singlet-A     43.9538 eV   28.21 nm  f=0.0278  <S**2>=0.000
       2 -> 24         0.11102
       5 -> 30         0.69282

 Excited State  88:      Singlet-A     44.7767 eV   27.69 nm  f=0.0634  <S**2>=0.000
       2 -> 24         0.61281
       3 -> 29        -0.21971
       4 -> 28        -0.21974
       5 -> 30        -0.12416

 Excited State  89:      Singlet-A     45.1299 eV   27.47 nm  f=0.0000  <S**2>=0.000
       3 -> 28         0.49402
       4 -> 29        -0.49402

 Excited State  90:      Singlet-A     45.6454 eV   27.16 nm  f=0.0286  <S**2>=0.000
       3 -> 28         0.44589
       3 -> 29        -0.21649
       4 -> 28         0.21649
       4 -> 29         0.44588

 Excited State  91:      Singlet-A     45.6454 eV   27.16 nm  f=0.0286  <S**2>=0.000
       3 -> 28         0.21648
       3 -> 29         0.44589
       4 -> 28        -0.44588
       4 -> 29         0.21650

 Excited State  92:      Singlet-A     48.5773 eV   25.52 nm  f=0.0329  <S**2>=0.000
       2 -> 25         0.70011

 Excited State  93:      Singlet-A     48.5774 eV   25.52 nm  f=0.0329  <S**2>=0.000
       2 -> 26         0.70012

 Excited State  94:      Singlet-A     48.8555 eV   25.38 nm  f=0.0547  <S**2>=0.000
       2 -> 24         0.26656
       3 -> 26        -0.12167
       3 -> 29         0.40943
       4 -> 25         0.12167
       4 -> 28         0.40942
       5 -> 27        -0.17903

 Excited State  95:      Singlet-A     49.2273 eV   25.19 nm  f=0.0003  <S**2>=0.000
       4 -> 30         0.69886

 Excited State  96:      Singlet-A     49.2273 eV   25.19 nm  f=0.0003  <S**2>=0.000
       3 -> 30         0.69886

 Excited State  97:      Singlet-A     50.6971 eV   24.46 nm  f=0.0843  <S**2>=0.000
       2 -> 27         0.70508

 Excited State  98:      Singlet-A     52.7310 eV   23.51 nm  f=0.0000  <S**2>=0.000
       5 -> 33         0.70688

 Excited State  99:      Singlet-A     53.1185 eV   23.34 nm  f=0.0417  <S**2>=0.000
       5 -> 31         0.70023

 Excited State 100:      Singlet-A     53.1186 eV   23.34 nm  f=0.0417  <S**2>=0.000
       5 -> 32         0.70023

 Excited State 101:      Singlet-A     56.3677 eV   22.00 nm  f=0.0628  <S**2>=0.000
       2 -> 28         0.70100

 Excited State 102:      Singlet-A     56.3678 eV   22.00 nm  f=0.0628  <S**2>=0.000
       2 -> 29         0.70100

 Excited State 103:      Singlet-A     58.1707 eV   21.31 nm  f=0.0000  <S**2>=0.000
       3 -> 32        -0.49711
       4 -> 31         0.49734

 Excited State 104:      Singlet-A     58.2317 eV   21.29 nm  f=0.0002  <S**2>=0.000
       3 -> 31        -0.24354
       4 -> 32        -0.24352
       5 -> 34         0.61237

 Excited State 105:      Singlet-A     58.4892 eV   21.20 nm  f=0.0030  <S**2>=0.000
       3 -> 31        -0.18544
       3 -> 32        -0.10090
       3 -> 33         0.61098
       4 -> 31        -0.10047
       4 -> 32         0.18489
       4 -> 33        -0.17648

 Excited State 106:      Singlet-A     58.4892 eV   21.20 nm  f=0.0031  <S**2>=0.000
       3 -> 31        -0.10077
       3 -> 32         0.18310
       3 -> 33         0.17623
       4 -> 31         0.18254
       4 -> 32         0.10033
       4 -> 33         0.61253

 Excited State 107:      Singlet-A     58.5118 eV   21.19 nm  f=0.1005  <S**2>=0.000
       3 -> 31        -0.13079
       3 -> 32         0.42320
       4 -> 31         0.42325
       4 -> 32         0.13092
       4 -> 33        -0.29645
       5 -> 35         0.10192

 Excited State 108:      Singlet-A     58.5119 eV   21.19 nm  f=0.1006  <S**2>=0.000
       3 -> 31        -0.42199
       3 -> 32        -0.13053
       3 -> 33        -0.29979
       4 -> 31        -0.13061
       4 -> 32         0.42231
       5 -> 36        -0.10189

 Excited State 109:      Singlet-A     59.3326 eV   20.90 nm  f=0.3267  <S**2>=0.000
       2 -> 30        -0.12174
       3 -> 31         0.42096
       4 -> 32         0.42096
       5 -> 34         0.34281

 Excited State 110:      Singlet-A     60.6220 eV   20.45 nm  f=0.0367  <S**2>=0.000
       5 -> 35         0.69191

 Excited State 111:      Singlet-A     60.6221 eV   20.45 nm  f=0.0367  <S**2>=0.000
       5 -> 36         0.69191

 Excited State 112:      Singlet-A     61.1171 eV   20.29 nm  f=0.0567  <S**2>=0.000
       2 -> 30         0.68499

 Excited State 113:      Singlet-A     63.2365 eV   19.61 nm  f=0.0147  <S**2>=0.000
       4 -> 34         0.69521

 Excited State 114:      Singlet-A     63.2366 eV   19.61 nm  f=0.0147  <S**2>=0.000
       3 -> 34         0.69520

 Excited State 115:      Singlet-A     64.5338 eV   19.21 nm  f=0.0117  <S**2>=0.000
       3 -> 35        -0.14333
       4 -> 36         0.14333
       5 -> 37         0.66606

 Excited State 116:      Singlet-A     64.5339 eV   19.21 nm  f=0.0117  <S**2>=0.000
       3 -> 36         0.14332
       4 -> 35         0.14335
       5 -> 38         0.66605

 Excited State 117:      Singlet-A     65.8953 eV   18.82 nm  f=0.0000  <S**2>=0.000
       2 -> 33        -0.11602
       3 -> 36        -0.48698
       4 -> 35         0.48731

 Excited State 118:      Singlet-A     66.1264 eV   18.75 nm  f=0.0015  <S**2>=0.000
       3 -> 35         0.49127

 The electronic state is 1-A.
 Alpha  occ. eigenvalues --  -14.22991  -1.00640  -0.60190  -0.60190  -0.40409
 Alpha virt. eigenvalues --    0.09516   0.17663   0.17663   0.23842   0.23842
 Alpha virt. eigenvalues --    0.25482   0.29702   0.29702   0.30732   0.42601
 Alpha virt. eigenvalues --    0.43720   0.48497   0.48497   0.56494   0.56494

 Mulliken charges:
               1
     1  N    0.131507
     2  H   -0.043836
     3  H   -0.043837
     4  H   -0.043834
 Sum of Mulliken charges =  -0.00000

 Dipole moment (field-independent basis, Debye):
    X=              0.0000    Y=             -0.0000    Z=              1.6289  Tot=              1.6289
 Quadrupole moment (field-independent basis, Debye-Ang):
   XX=             -6.3938   YY=             -6.3938   ZZ=             -9.3303
   XY=              0.0000   XZ=             -0.0001   YZ=              0.0000

 Normal termination of Gaussian 16 at Mon Mar 21 04:09:10 2022.
