 Gaussian 16, Revision C.01,
 Gaussian 16:  EM64L-G16RevC.01  3-Jul-2019

 ----------------------------------------------------------------------
 #P TD(Nstates=10000) lc-blyp/Gen SCF(maxcycles=100) Int(Grid=ultrafine
 )
 ----------------------------------------------------------------------

 ---------------------
 xGDB7_00001_tier4.com
 ---------------------
 Symbolic Z-matrix:
 Charge =  0 Multiplicity = 1

                         Standard orientation:
 ---------------------------------------------------------------------
 Center     Atomic      Atomic             Coordinates (Angstroms)
 Number     Number       Type             X           Y           Z
 ---------------------------------------------------------------------
      1          6           0        0.000000    0.865978    0.000000
      2          6           0        0.749967   -0.432983    0.000000
      3          6           0       -0.749954   -0.432999    0.000000
      4          1           0       -0.000033    1.451806   -0.909176
      5          1           0       -0.000033    1.451806    0.909176
      6          1           0        1.257295   -0.725894    0.909177
      7          1           0        1.257295   -0.725894   -0.909177
      8          1           0       -1.257302   -0.725899    0.909179
      9          1           0       -1.257302   -0.725899   -0.909179
 ---------------------------------------------------------------------

 SCF Done:  E(RLC-B+HF-LYP) =  -117.435027687     A.U. after   11 cycles

 Excitation energies and oscillator strengths:

 Excited State   1:      Singlet-A'     8.7517 eV  141.67 nm  f=0.0000  <S**2>=0.000
      12 -> 13         0.66964
      12 -> 17         0.15680
 This state for optimization and/or second-order correction.
 Total Energy, E(TD-HF/TD-DFT) =  -117.113410249
 Copying the excited state density for this state as the 1-particle RhoCI density.

 Excited State   2:      Singlet-A'     8.7518 eV  141.67 nm  f=0.0000  <S**2>=0.000
      11 -> 13         0.66964
      11 -> 17         0.15680

 Excited State   3:      Singlet-A'     9.5303 eV  130.10 nm  f=0.0000  <S**2>=0.000
      11 -> 14        -0.48696
      12 -> 15         0.48763

 Excited State   4:      Singlet-A"     9.5963 eV  129.20 nm  f=0.0000  <S**2>=0.000
      12 -> 16         0.68139
      12 -> 34         0.11743

 Excited State   5:      Singlet-A"     9.5965 eV  129.20 nm  f=0.0000  <S**2>=0.000
      11 -> 16         0.68138
      11 -> 34         0.11743

 Excited State   6:      Singlet-A'     9.6076 eV  129.05 nm  f=0.0000  <S**2>=0.000
      11 -> 15         0.47680
      11 -> 21        -0.10451
      12 -> 14         0.48008
      12 -> 22        -0.10498

 Excited State   7:      Singlet-A'     9.6371 eV  128.65 nm  f=0.1167  <S**2>=0.000
      11 -> 14         0.43913
      11 -> 15        -0.18079
      11 -> 17         0.14490
      12 -> 14         0.17934
      12 -> 15         0.43835

 Excited State   8:      Singlet-A'     9.6371 eV  128.65 nm  f=0.1167  <S**2>=0.000
      11 -> 14         0.18007
      11 -> 15         0.44023
      12 -> 14        -0.43725
      12 -> 15         0.18006
      12 -> 17         0.14492

 Excited State   9:      Singlet-A"    10.4201 eV  118.99 nm  f=0.0000  <S**2>=0.000
       9 -> 15         0.20611
      10 -> 13         0.61169
      10 -> 14         0.20612

 Excited State  10:      Singlet-A"    10.4202 eV  118.98 nm  f=0.0000  <S**2>=0.000
       9 -> 13         0.61168
       9 -> 14        -0.20612
      10 -> 15         0.20615

 Excited State  11:      Singlet-A'    10.8736 eV  114.02 nm  f=0.0360  <S**2>=0.000
      11 -> 20        -0.12652
      12 -> 13        -0.17314
      12 -> 17         0.64359

 Excited State  12:      Singlet-A'    10.8737 eV  114.02 nm  f=0.0360  <S**2>=0.000
      11 -> 13        -0.17314
      11 -> 17         0.64358
      12 -> 20         0.12661

 Excited State  13:      Singlet-A"    11.1373 eV  111.32 nm  f=0.2388  <S**2>=0.000
       7 -> 13        -0.12291
       9 -> 14         0.48029
      10 -> 15         0.48032

 Excited State  14:      Singlet-A'    11.3026 eV  109.70 nm  f=0.3196  <S**2>=0.000
      10 -> 16         0.23384
      11 -> 17        -0.12313
      12 -> 20         0.60721
      12 -> 33         0.10500

 Excited State  15:      Singlet-A'    11.3027 eV  109.69 nm  f=0.3197  <S**2>=0.000
       9 -> 16        -0.23384
      11 -> 20         0.60722
      11 -> 33         0.10500
      12 -> 17         0.12305

 Excited State  16:      Singlet-A"    11.5387 eV  107.45 nm  f=0.0000  <S**2>=0.000
       9 -> 15        -0.44957
       9 -> 21         0.18564
      10 -> 14         0.45423
      10 -> 22        -0.18631

 Excited State  17:      Singlet-A"    11.5471 eV  107.37 nm  f=0.0000  <S**2>=0.000
       9 -> 15         0.40394
       9 -> 20         0.11635
      10 -> 13        -0.24034
      10 -> 14         0.39869
      10 -> 17        -0.27474

 Excited State  18:      Singlet-A"    11.5471 eV  107.37 nm  f=0.0000  <S**2>=0.000
       9 -> 13         0.24037
       9 -> 14         0.40134
       9 -> 17         0.27472
      10 -> 15        -0.40129
      10 -> 20         0.11638

 Excited State  19:      Singlet-A'    11.8424 eV  104.70 nm  f=0.0517  <S**2>=0.000
      10 -> 16         0.62863
      12 -> 20        -0.24398

 Excited State  20:      Singlet-A'    11.8425 eV  104.69 nm  f=0.0517  <S**2>=0.000
       9 -> 16         0.62862
      11 -> 20         0.24398

 Excited State  21:      Singlet-A"    12.0024 eV  103.30 nm  f=0.0000  <S**2>=0.000
      11 -> 18        -0.48443
      12 -> 19         0.48474

 Excited State  22:      Singlet-A"    12.2063 eV  101.57 nm  f=0.0000  <S**2>=0.000
      11 -> 18         0.40669
      11 -> 19        -0.25908
      12 -> 18         0.26023
      12 -> 19         0.40649

 Excited State  23:      Singlet-A"    12.2064 eV  101.57 nm  f=0.0000  <S**2>=0.000
      11 -> 18        -0.25980
      11 -> 19        -0.40572
      12 -> 18         0.40745
      12 -> 19        -0.25952

 Excited State  24:      Singlet-A"    12.2604 eV  101.13 nm  f=0.0087  <S**2>=0.000
      11 -> 19         0.47049
      11 -> 25         0.10780
      12 -> 18         0.46836
      12 -> 26         0.10771

 Excited State  25:      Singlet-A'    12.4788 eV   99.36 nm  f=0.0109  <S**2>=0.000
      10 -> 16         0.11306
      11 -> 22         0.45016
      11 -> 23         0.12026
      12 -> 21         0.45511
      12 -> 24        -0.12202

 Excited State  26:      Singlet-A'    12.4788 eV   99.36 nm  f=0.0109  <S**2>=0.000
       9 -> 16        -0.11307
      11 -> 21        -0.45258
      11 -> 24         0.12112
      12 -> 22         0.45270
      12 -> 23         0.12116

 Excited State  27:      Singlet-A'    12.4996 eV   99.19 nm  f=0.0000  <S**2>=0.000
      11 -> 22         0.45767
      11 -> 23         0.16515
      12 -> 21        -0.45273
      12 -> 24         0.16382

 Excited State  28:      Singlet-A"    12.5298 eV   98.95 nm  f=0.0000  <S**2>=0.000
       9 -> 17        -0.29143
       9 -> 22        -0.10873
      10 -> 20         0.58111
      10 -> 21         0.10873
      10 -> 33         0.10904

 Excited State  29:      Singlet-A"    12.5299 eV   98.95 nm  f=0.0000  <S**2>=0.000
       9 -> 20         0.58108
       9 -> 21        -0.10876
       9 -> 33         0.10904
      10 -> 17         0.29149
      10 -> 22        -0.10875

 Excited State  30:      Singlet-A'    12.8174 eV   96.73 nm  f=0.0000  <S**2>=0.000
       7 -> 16        -0.13542
       9 -> 18         0.18090
      10 -> 19         0.18091
      11 -> 15         0.10710
      11 -> 21         0.41789
      11 -> 24        -0.10864
      12 -> 14         0.10708
      12 -> 22         0.41773
      12 -> 23         0.10861

 Excited State  31:      Singlet-A"    12.8363 eV   96.59 nm  f=0.0000  <S**2>=0.000
       9 -> 13        -0.17645
       9 -> 14        -0.14916
       9 -> 17         0.41928
       9 -> 20        -0.10273
      10 -> 15         0.14916
      10 -> 17         0.15426
      10 -> 20         0.27914
      12 -> 27         0.27613

 Excited State  32:      Singlet-A"    12.8363 eV   96.59 nm  f=0.0000  <S**2>=0.000
       9 -> 15         0.14919
       9 -> 17        -0.15427
       9 -> 20        -0.27921
      10 -> 13        -0.17645
      10 -> 14         0.14918
      10 -> 17         0.41931
      10 -> 20        -0.10270
      11 -> 27         0.27577

 Excited State  33:      Singlet-A'    13.1105 eV   94.57 nm  f=0.0000  <S**2>=0.000
      11 -> 22        -0.17326
      11 -> 23         0.44176
      12 -> 21         0.17328
      12 -> 24         0.44196

 Excited State  34:      Singlet-A"    13.2018 eV   93.91 nm  f=0.0000  <S**2>=0.000
       9 -> 17        -0.27892
      12 -> 27         0.60524

 Excited State  35:      Singlet-A"    13.2020 eV   93.91 nm  f=0.0000  <S**2>=0.000
      10 -> 17        -0.27879
      11 -> 27         0.60482

 Excited State  36:      Singlet-A'    13.4070 eV   92.48 nm  f=0.0000  <S**2>=0.000
       8 -> 13        -0.17236
       8 -> 17        -0.14352
      11 -> 24        -0.43805
      12 -> 23         0.43946

 Excited State  37:      Singlet-A'    13.4751 eV   92.01 nm  f=0.0581  <S**2>=0.000
      11 -> 23         0.28793
      11 -> 24         0.36042
      12 -> 23         0.35930
      12 -> 24        -0.28763

 Excited State  38:      Singlet-A'    13.4751 eV   92.01 nm  f=0.0581  <S**2>=0.000
      11 -> 23         0.35988
      11 -> 24        -0.28815
      12 -> 23        -0.28741
      12 -> 24        -0.35985

 Excited State  39:      Singlet-A"    13.6003 eV   91.16 nm  f=0.0000  <S**2>=0.000
      11 -> 25        -0.47269
      12 -> 26         0.47408
      12 -> 27         0.11471

 Excited State  40:      Singlet-A"    13.6003 eV   91.16 nm  f=0.0000  <S**2>=0.000
      11 -> 26         0.47239
      11 -> 27        -0.11766
      12 -> 25         0.47365

 Excited State  41:      Singlet-A"    13.6416 eV   90.89 nm  f=0.0487  <S**2>=0.000
       7 -> 13         0.10401
       9 -> 23        -0.12131
      10 -> 24         0.12128
      11 -> 19        -0.11754
      11 -> 25         0.40068
      11 -> 26        -0.20759
      12 -> 18        -0.11743
      12 -> 25         0.20687
      12 -> 26         0.39956

 Excited State  42:      Singlet-A"    13.7571 eV   90.12 nm  f=0.0000  <S**2>=0.000
      11 -> 25         0.22233
      11 -> 26         0.42930
      12 -> 25        -0.42868
      12 -> 26         0.22204

 Excited State  43:      Singlet-A'    13.9441 eV   88.92 nm  f=0.0000  <S**2>=0.000
       8 -> 13         0.61459
       8 -> 17         0.10611
       9 -> 18        -0.17452
      10 -> 19        -0.17454
      11 -> 24        -0.12422
      12 -> 23         0.12417

 Excited State  44:      Singlet-A'    14.0219 eV   88.42 nm  f=0.2025  <S**2>=0.000
       9 -> 18        -0.13537
      10 -> 19         0.13535
      12 -> 28         0.63895

 Excited State  45:      Singlet-A'    14.0220 eV   88.42 nm  f=0.2024  <S**2>=0.000
       9 -> 19         0.13538
      10 -> 18         0.13544
      11 -> 28         0.63894

 Excited State  46:      Singlet-A"    14.2289 eV   87.14 nm  f=0.0000  <S**2>=0.000
       7 -> 15        -0.19760
       9 -> 20         0.10247
       9 -> 21         0.37739
       9 -> 22         0.16327
      10 -> 17         0.11486
      10 -> 21        -0.16332
      10 -> 22         0.37749
      10 -> 28        -0.15918

 Excited State  47:      Singlet-A"    14.2289 eV   87.14 nm  f=0.0000  <S**2>=0.000
       7 -> 14        -0.19760
       9 -> 17         0.11487
       9 -> 21         0.16328
       9 -> 22        -0.37739
       9 -> 28        -0.15916
      10 -> 20        -0.10245
      10 -> 21         0.37750
      10 -> 22         0.16331

 Excited State  48:      Singlet-A'    14.2996 eV   86.70 nm  f=0.0000  <S**2>=0.000
       9 -> 19        -0.40499
       9 -> 25        -0.25753
      10 -> 18         0.40633
      10 -> 26         0.25753

 Excited State  49:      Singlet-A'    14.3483 eV   86.41 nm  f=0.0001  <S**2>=0.000
       9 -> 19         0.44680
      10 -> 16        -0.13538
      10 -> 18         0.44557
      10 -> 27         0.13543
      11 -> 28        -0.16016

 Excited State  50:      Singlet-A'    14.3483 eV   86.41 nm  f=0.0001  <S**2>=0.000
       9 -> 16        -0.13538
       9 -> 18        -0.44616
       9 -> 27         0.13539
      10 -> 19         0.44623
      12 -> 28        -0.16009

 Excited State  51:      Singlet-A"    14.3499 eV   86.40 nm  f=0.0000  <S**2>=0.000
       7 -> 20        -0.11170
       9 -> 15         0.18314
       9 -> 21         0.43048
       9 -> 24        -0.11876
      10 -> 14        -0.18313
      10 -> 22        -0.43038
      10 -> 23        -0.11875

 Excited State  52:      Singlet-A'    14.5788 eV   85.04 nm  f=0.0000  <S**2>=0.000
       8 -> 13         0.21338
       8 -> 17         0.12884
       9 -> 18         0.40685
      10 -> 19         0.40675
      11 -> 21        -0.19343
      12 -> 22        -0.19345

 Excited State  53:      Singlet-A'    14.5965 eV   84.94 nm  f=0.2322  <S**2>=0.000
       8 -> 14         0.67069

 Excited State  54:      Singlet-A'    14.5966 eV   84.94 nm  f=0.2322  <S**2>=0.000
       8 -> 15         0.67069

 Excited State  55:      Singlet-A"    14.6700 eV   84.52 nm  f=0.0005  <S**2>=0.000
       8 -> 16         0.40678
       9 -> 22        -0.35483
       9 -> 23        -0.15967
      10 -> 21        -0.35476
      10 -> 24         0.15965

 Excited State  56:      Singlet-A"    14.8043 eV   83.75 nm  f=0.0863  <S**2>=0.000
       8 -> 16         0.50616
       9 -> 22         0.31741
      10 -> 21         0.31737

 Excited State  57:      Singlet-A"    14.9257 eV   83.07 nm  f=0.8463  <S**2>=0.000
       7 -> 13         0.57564
       7 -> 17         0.16775
       9 -> 23        -0.18276
      10 -> 24         0.18279
      11 -> 25        -0.11887
      12 -> 26        -0.11886

 Excited State  58:      Singlet-A'    15.3258 eV   80.90 nm  f=0.0000  <S**2>=0.000
       8 -> 20         0.55955
       8 -> 33         0.14717
      11 -> 30        -0.22178
      12 -> 29        -0.22265

 Excited State  59:      Singlet-A'    15.3294 eV   80.88 nm  f=0.4703  <S**2>=0.000
       9 -> 25        -0.13740
      10 -> 26        -0.13510
      10 -> 27         0.60568

 Excited State  60:      Singlet-A'    15.3295 eV   80.88 nm  f=0.4704  <S**2>=0.000
       9 -> 26         0.13908
       9 -> 27         0.60487
      10 -> 25        -0.13719

 Excited State  61:      Singlet-A"    15.4050 eV   80.48 nm  f=0.5224  <S**2>=0.000
       7 -> 13        -0.32401
       8 -> 16        -0.19945
       9 -> 23        -0.38893
      10 -> 24         0.39333

 Excited State  62:      Singlet-A"    15.4114 eV   80.45 nm  f=0.0000  <S**2>=0.000
       9 -> 24        -0.46456
      10 -> 17        -0.12825
      10 -> 23         0.46472

 Excited State  63:      Singlet-A"    15.4114 eV   80.45 nm  f=0.0000  <S**2>=0.000
       9 -> 17         0.12826
       9 -> 23         0.46647
      10 -> 24         0.46280

 Excited State  64:      Singlet-A'    15.4567 eV   80.21 nm  f=0.0000  <S**2>=0.000
       9 -> 19         0.26698
       9 -> 25        -0.37622
       9 -> 26         0.13123
      10 -> 18        -0.26695
      10 -> 25         0.13129
      10 -> 26         0.37631

 Excited State  65:      Singlet-A'    15.6245 eV   79.35 nm  f=0.2540  <S**2>=0.000
       7 -> 19         0.10545
       9 -> 25         0.44814
      10 -> 26         0.44864
      10 -> 27         0.18997

 Excited State  66:      Singlet-A'    15.6245 eV   79.35 nm  f=0.2539  <S**2>=0.000
       7 -> 18         0.10545
       9 -> 26        -0.44745
       9 -> 27         0.19271
      10 -> 25         0.44811

 Excited State  67:      Singlet-A"    15.7142 eV   78.90 nm  f=0.0000  <S**2>=0.000
       7 -> 20         0.11442
       9 -> 21         0.13156
       9 -> 24         0.45463
      10 -> 22        -0.13154
      10 -> 23         0.45443

 Excited State  68:      Singlet-A"    15.7582 eV   78.68 nm  f=0.0000  <S**2>=0.000
       7 -> 15        -0.35156
       7 -> 21         0.15007
      10 -> 28         0.57017

 Excited State  69:      Singlet-A"    15.7582 eV   78.68 nm  f=0.0000  <S**2>=0.000
       7 -> 14        -0.35166
       7 -> 22         0.15007
       9 -> 28         0.57011

 Excited State  70:      Singlet-A'    15.7942 eV   78.50 nm  f=0.0000  <S**2>=0.000
       7 -> 16        -0.33177
       8 -> 13        -0.14782
       8 -> 17         0.53870
       9 -> 26         0.11332
      10 -> 25         0.11324

 Excited State  71:      Singlet-A"    15.9922 eV   77.53 nm  f=0.0000  <S**2>=0.000
       7 -> 14         0.51129
       7 -> 15         0.14144
       9 -> 22        -0.17941
       9 -> 28         0.30473
      10 -> 21         0.17940

 Excited State  72:      Singlet-A"    15.9922 eV   77.53 nm  f=0.0000  <S**2>=0.000
       7 -> 14        -0.14142
       7 -> 15         0.51136
       9 -> 21         0.17942
      10 -> 22         0.17940
      10 -> 28         0.30462

 Excited State  73:      Singlet-A'    16.0489 eV   77.25 nm  f=0.0000  <S**2>=0.000
       8 -> 20         0.37607
      11 -> 29         0.15481
      11 -> 30         0.35111
      12 -> 29         0.35127
      12 -> 30        -0.15487

 Excited State  74:      Singlet-A'    16.0971 eV   77.02 nm  f=0.0000  <S**2>=0.000
       7 -> 16        -0.10660
       8 -> 17        -0.22965
       9 -> 25         0.14798
       9 -> 26         0.42421
      10 -> 25         0.42414
      10 -> 26        -0.14796

 Excited State  75:      Singlet-A'    16.2912 eV   76.10 nm  f=0.0000  <S**2>=0.000
       7 -> 16        -0.20899
       8 -> 17        -0.14518
      11 -> 29        -0.38804
      11 -> 30         0.17106
      12 -> 29         0.17129
      12 -> 30         0.38844

 Excited State  76:      Singlet-A'    16.4014 eV   75.59 nm  f=0.2169  <S**2>=0.000
      10 -> 27        -0.17479
      11 -> 29         0.27179
      11 -> 30         0.33261
      11 -> 32         0.13236
      12 -> 29        -0.33247
      12 -> 30         0.27166
      12 -> 33         0.11055

 Excited State  77:      Singlet-A'    16.4014 eV   75.59 nm  f=0.2169  <S**2>=0.000
       9 -> 27         0.17493
      11 -> 29         0.33270
      11 -> 30        -0.27182
      11 -> 33         0.11053
      12 -> 29         0.27160
      12 -> 30         0.33237
      12 -> 32        -0.13244

 Excited State  78:      Singlet-A"    16.4450 eV   75.39 nm  f=0.0000  <S**2>=0.000
       7 -> 20         0.63450
       7 -> 33         0.16321
       9 -> 24        -0.12655
      10 -> 23        -0.12654

 Excited State  79:      Singlet-A'    16.4951 eV   75.16 nm  f=0.0000  <S**2>=0.000
       7 -> 16         0.54007
       8 -> 17         0.23898
       9 -> 26         0.10608
      10 -> 25         0.10606
      11 -> 29        -0.16219
      12 -> 30         0.16204

 Excited State  80:      Singlet-A'    16.6637 eV   74.40 nm  f=0.0255  <S**2>=0.000
      11 -> 33         0.15247
      12 -> 32         0.64379

 Excited State  81:      Singlet-A'    16.6638 eV   74.40 nm  f=0.0255  <S**2>=0.000
      11 -> 32         0.64373
      12 -> 33        -0.15271

 Excited State  82:      Singlet-A'    16.8259 eV   73.69 nm  f=0.0065  <S**2>=0.000
       6 -> 13        -0.14029
       8 -> 21         0.35006
       8 -> 24        -0.10090
      11 -> 32         0.15854
      12 -> 20        -0.10156
      12 -> 33         0.50609

 Excited State  83:      Singlet-A'    16.8260 eV   73.69 nm  f=0.0065  <S**2>=0.000
       5 -> 13         0.14027
       8 -> 22        -0.35012
       8 -> 23        -0.10091
      11 -> 20        -0.10158
      11 -> 33         0.50614
      12 -> 32        -0.15824

 Excited State  84:      Singlet-A"    16.9404 eV   73.19 nm  f=0.0000  <S**2>=0.000
       5 -> 16        -0.20837
       8 -> 18         0.58662
      11 -> 31        -0.11361
      12 -> 34         0.22747

 Excited State  85:      Singlet-A"    16.9405 eV   73.19 nm  f=0.0000  <S**2>=0.000
       6 -> 16        -0.20838
       8 -> 19         0.58663
      11 -> 34         0.22741
      12 -> 31         0.11367

 Excited State  86:      Singlet-A"    17.1889 eV   72.13 nm  f=0.0450  <S**2>=0.000
       7 -> 13        -0.14272
       7 -> 17         0.63996
       8 -> 27         0.16037

 Excited State  87:      Singlet-A"    17.3354 eV   71.52 nm  f=0.0000  <S**2>=0.000
       8 -> 25         0.13832
      11 -> 34        -0.42325
      12 -> 31         0.50810

 Excited State  88:      Singlet-A"    17.3355 eV   71.52 nm  f=0.0000  <S**2>=0.000
       8 -> 26        -0.13825
      11 -> 31         0.50731
      12 -> 34         0.42410

 Excited State  89:      Singlet-A"    17.4316 eV   71.13 nm  f=0.0000  <S**2>=0.000
       8 -> 18        -0.24115
      11 -> 31        -0.43428
      12 -> 34         0.47110

 Excited State  90:      Singlet-A"    17.4316 eV   71.13 nm  f=0.0000  <S**2>=0.000
       8 -> 19        -0.24130
      11 -> 34         0.47188
      12 -> 31         0.43335

 Excited State  91:      Singlet-A'    17.6723 eV   70.16 nm  f=0.0556  <S**2>=0.000
       5 -> 15        -0.13038
       6 -> 13         0.15951
       6 -> 14        -0.13040
       6 -> 17         0.13602
       7 -> 19         0.17895
       8 -> 21         0.46985
       8 -> 24         0.14684
      12 -> 33        -0.28123

 Excited State  92:      Singlet-A'    17.6723 eV   70.16 nm  f=0.0556  <S**2>=0.000
       5 -> 13         0.15951
       5 -> 14         0.13038
       5 -> 17         0.13602
       6 -> 15        -0.13039
       7 -> 18         0.17898
       8 -> 22         0.46983
       8 -> 23        -0.14686
      11 -> 33         0.28125

 Excited State  93:      Singlet-A"    17.8698 eV   69.38 nm  f=0.1300  <S**2>=0.000
       7 -> 28        -0.12917
       9 -> 29        -0.24823
       9 -> 30        -0.39811
      10 -> 29         0.39830
      10 -> 30        -0.24832

 Excited State  94:      Singlet-A'    17.9874 eV   68.93 nm  f=0.0025  <S**2>=0.000
       5 -> 15         0.16173
       6 -> 13         0.58880
       6 -> 14         0.16176
       7 -> 19        -0.15251
      12 -> 33         0.14395

 Excited State  95:      Singlet-A'    17.9875 eV   68.93 nm  f=0.0025  <S**2>=0.000
       5 -> 13         0.58880
       5 -> 14        -0.16174

 The electronic state is 1-A'.
 Alpha  occ. eigenvalues --  -10.15228 -10.15207 -10.15207  -1.01949  -0.74763
 Alpha  occ. eigenvalues --   -0.74763  -0.64203  -0.60487  -0.49066  -0.49066
 Alpha  occ. eigenvalues --   -0.42382  -0.42381
 Alpha virt. eigenvalues --    0.08896   0.10746   0.10746   0.14280   0.17253
 Alpha virt. eigenvalues --    0.20964   0.20964   0.21916   0.23687   0.23688
 Alpha virt. eigenvalues --    0.26498   0.26498   0.27570   0.27570   0.27608

 Mulliken charges:
               1
     1  C    0.604838
     2  C    0.604906
     3  C    0.604816
     4  H   -0.302423
     5  H   -0.302423
     6  H   -0.302433
     7  H   -0.302433
     8  H   -0.302424
     9  H   -0.302424
 Sum of Mulliken charges =  -0.00000

 Dipole moment (field-independent basis, Debye):
    X=             -0.0000    Y=              0.0000    Z=             -0.0000  Tot=              0.0000
 Quadrupole moment (field-independent basis, Debye-Ang):
   XX=            -20.9055   YY=            -20.9055   ZZ=            -18.6644
   XY=             -0.0001   XZ=             -0.0000   YZ=              0.0000

 Normal termination of Gaussian 16 at Mon Mar 21 20:09:21 2022.
