 Gaussian 16, Revision C.01,
 Gaussian 16:  EM64L-G16RevC.01  3-Jul-2019

 ----------------------------------------------------------------------
 #P TD(Nstates=10000) lc-blyp/Gen SCF(maxcycles=100) Int(Grid=ultrafine
 )
 ----------------------------------------------------------------------

 ---------------------
 xGDB7_00001_tier4.com
 ---------------------
 Symbolic Z-matrix:
 Charge =  0 Multiplicity = 1

                         Standard orientation:
 ---------------------------------------------------------------------
 Center     Atomic      Atomic             Coordinates (Angstroms)
 Number     Number       Type             X           Y           Z
 ---------------------------------------------------------------------
      1          7           0        1.106441    0.142513   -0.090982
      2          7           0       -0.080753   -0.512520    0.006066
      3          6           0       -1.148696    0.167456    0.008166
      4          1           0        1.854749   -0.409916    0.291533
      5          1           0        1.109676    1.100453    0.242713
      6          1           0       -2.089851   -0.366199    0.035249
      7          1           0       -1.162209    1.260974   -0.024080
 ---------------------------------------------------------------------

 SCF Done:  E(RLC-B+HF-LYP) =  -149.469924337     A.U. after   15 cycles

 Excitation energies and oscillator strengths:

 Excited State   1:      Singlet-A      5.8799 eV  210.86 nm  f=0.0025  <S**2>=0.000
      11 -> 13         0.49581
      11 -> 14        -0.46839
 This state for optimization and/or second-order correction.
 Total Energy, E(TD-HF/TD-DFT) =  -149.253841955
 Copying the excited state density for this state as the 1-particle RhoCI density.

 Excited State   2:      Singlet-A      6.3705 eV  194.62 nm  f=0.2198  <S**2>=0.000
      12 -> 13         0.59140
      12 -> 14        -0.36119

 Excited State   3:      Singlet-A      6.8949 eV  179.82 nm  f=0.0262  <S**2>=0.000
      12 -> 13         0.31260
      12 -> 14         0.51983
      12 -> 15         0.32138

 Excited State   4:      Singlet-A      8.0181 eV  154.63 nm  f=0.0269  <S**2>=0.000
      12 -> 13        -0.12990
      12 -> 14        -0.23045
      12 -> 15         0.56347
      12 -> 16         0.25982
      12 -> 18        -0.10262

 Excited State   5:      Singlet-A      8.4776 eV  146.25 nm  f=0.0269  <S**2>=0.000
      11 -> 13        -0.31890
      11 -> 14        -0.32100
      12 -> 15        -0.12363
      12 -> 16         0.46946

 Excited State   6:      Singlet-A      8.5039 eV  145.80 nm  f=0.0239  <S**2>=0.000
      11 -> 13         0.33491
      11 -> 14         0.33820
      11 -> 15         0.12217
      12 -> 15        -0.15599
      12 -> 16         0.41744

 Excited State   7:      Singlet-A      9.1366 eV  135.70 nm  f=0.0071  <S**2>=0.000
      12 -> 14        -0.10646
      12 -> 15         0.10339
      12 -> 17         0.59296
      12 -> 18         0.25365
      12 -> 27        -0.12202

 Excited State   8:      Singlet-A      9.4194 eV  131.63 nm  f=0.0216  <S**2>=0.000
      11 -> 14        -0.17185
      11 -> 15         0.64043
      11 -> 16         0.12634

 Excited State   9:      Singlet-A      9.7351 eV  127.36 nm  f=0.0140  <S**2>=0.000
      12 -> 17        -0.25480
      12 -> 18         0.57141
      12 -> 19         0.20514

 Excited State  10:      Singlet-A      9.8754 eV  125.55 nm  f=0.0063  <S**2>=0.000
       9 -> 13         0.39879
       9 -> 14        -0.39401
      10 -> 13        -0.25423
      10 -> 14         0.23162
      12 -> 19        -0.15610

 Excited State  11:      Singlet-A      9.9845 eV  124.18 nm  f=0.1751  <S**2>=0.000
      11 -> 13        -0.10565
      11 -> 15        -0.13590
      11 -> 16         0.64366
      11 -> 18         0.13419

 Excited State  12:      Singlet-A     10.1958 eV  121.60 nm  f=0.0001  <S**2>=0.000
      12 -> 18        -0.20323
      12 -> 19         0.62877

 Excited State  13:      Singlet-A     10.5541 eV  117.48 nm  f=0.0425  <S**2>=0.000
       9 -> 13         0.10329
      10 -> 13         0.13341
      10 -> 14        -0.13047
      11 -> 16        -0.10620
      11 -> 17         0.44376
      11 -> 18         0.38133
      11 -> 27        -0.11767
      12 -> 20        -0.17377

 Excited State  14:      Singlet-A     10.8697 eV  114.06 nm  f=0.0904  <S**2>=0.000
       9 -> 13         0.25916
       9 -> 14        -0.19722
      10 -> 13         0.39523
      10 -> 14        -0.34714
      11 -> 17        -0.15116
      11 -> 18        -0.18258

 Excited State  15:      Singlet-A     11.0173 eV  112.54 nm  f=0.0893  <S**2>=0.000
      11 -> 17         0.45631
      11 -> 18        -0.39036
      11 -> 19        -0.19373
      12 -> 20         0.20093
      12 -> 21        -0.11206

 Excited State  16:      Singlet-A     11.1115 eV  111.58 nm  f=0.0023  <S**2>=0.000
      11 -> 18         0.27421
      12 -> 20         0.59394

 Excited State  17:      Singlet-A     11.1888 eV  110.81 nm  f=0.0690  <S**2>=0.000
      11 -> 18        -0.12287
      12 -> 21         0.63760

 Excited State  18:      Singlet-A     11.3230 eV  109.50 nm  f=0.0453  <S**2>=0.000
      11 -> 18        -0.10922
      11 -> 19         0.64189
      12 -> 20         0.15567
      12 -> 21        -0.11967

 Excited State  19:      Singlet-A     11.5258 eV  107.57 nm  f=0.0541  <S**2>=0.000
      10 -> 14         0.11259
      12 -> 22         0.64600

 Excited State  20:      Singlet-A     11.8268 eV  104.83 nm  f=0.0493  <S**2>=0.000
      10 -> 13         0.39309
      10 -> 14         0.40385
      10 -> 15         0.30026
      12 -> 22        -0.15840
      12 -> 27        -0.11399

 Excited State  21:      Singlet-A     12.1964 eV  101.66 nm  f=0.0100  <S**2>=0.000
      11 -> 20         0.58586
      11 -> 21        -0.17815
      11 -> 22        -0.15333
      11 -> 23         0.14595
      12 -> 24        -0.14776

 Excited State  22:      Singlet-A     12.2492 eV  101.22 nm  f=0.0050  <S**2>=0.000
       8 -> 13         0.44795
       8 -> 14        -0.41840
      12 -> 23        -0.18771
      12 -> 24        -0.15061

 Excited State  23:      Singlet-A     12.2880 eV  100.90 nm  f=0.0764  <S**2>=0.000
       8 -> 13         0.15767
       8 -> 14        -0.15899
       9 -> 13        -0.18275
       9 -> 14        -0.17584
      11 -> 20         0.13019
      11 -> 22        -0.11108
      12 -> 23         0.28610
      12 -> 24         0.41144
      12 -> 25        -0.12830

 Excited State  24:      Singlet-A     12.3646 eV  100.27 nm  f=0.1025  <S**2>=0.000
       9 -> 13         0.36294
       9 -> 14         0.39998
      11 -> 21        -0.19959
      12 -> 23         0.25547
      12 -> 24         0.11241

 Excited State  25:      Singlet-A     12.4074 eV   99.93 nm  f=0.0662  <S**2>=0.000
       9 -> 14         0.12371
      11 -> 20         0.23539
      11 -> 21         0.55558
      11 -> 22         0.16586
      12 -> 23         0.12786
      12 -> 24         0.11725

 Excited State  26:      Singlet-A     12.5509 eV   98.79 nm  f=0.0042  <S**2>=0.000
       9 -> 13        -0.12032
      12 -> 23         0.46148
      12 -> 24        -0.41919

 Excited State  27:      Singlet-A     12.8249 eV   96.67 nm  f=0.1562  <S**2>=0.000
      11 -> 20         0.15330
      11 -> 21        -0.22876
      11 -> 22         0.58307
      11 -> 23        -0.11633

 Excited State  28:      Singlet-A     12.9382 eV   95.83 nm  f=0.1471  <S**2>=0.000
      10 -> 14         0.17191
      10 -> 15        -0.32637
      10 -> 16        -0.18797
      12 -> 25         0.47469

 Excited State  29:      Singlet-A     12.9770 eV   95.54 nm  f=0.0799  <S**2>=0.000
      10 -> 13        -0.10177
      10 -> 14        -0.18321
      10 -> 15         0.35900
      12 -> 22         0.11319
      12 -> 24         0.14239
      12 -> 25         0.36192
      12 -> 26        -0.15109
      12 -> 27        -0.23573

 Excited State  30:      Singlet-A     13.0955 eV   94.68 nm  f=0.0279  <S**2>=0.000
       9 -> 15        -0.19743
      10 -> 15         0.19966
      10 -> 16         0.28036
      12 -> 25         0.17826
      12 -> 26         0.23958
      12 -> 27         0.36593
      12 -> 28         0.10187
      12 -> 36         0.10335

 Excited State  31:      Singlet-A     13.3189 eV   93.09 nm  f=0.0903  <S**2>=0.000
       7 -> 13        -0.18443
       9 -> 15         0.48401
      10 -> 16         0.34817
      11 -> 23        -0.12937
      12 -> 25         0.10199

 Excited State  32:      Singlet-A     13.3579 eV   92.82 nm  f=0.0254  <S**2>=0.000
      11 -> 22         0.16876
      11 -> 23         0.59088
      11 -> 24        -0.22330

 Excited State  33:      Singlet-A     13.5286 eV   91.65 nm  f=0.1067  <S**2>=0.000
       9 -> 15         0.22995
      10 -> 15         0.17488
      10 -> 16        -0.33220
      12 -> 26         0.47799

 Excited State  34:      Singlet-A     13.6311 eV   90.96 nm  f=0.0292  <S**2>=0.000
       9 -> 15         0.14781
       9 -> 17        -0.10110
      10 -> 15         0.11537
      10 -> 16        -0.28216
      10 -> 17        -0.14472
      12 -> 17         0.10444
      12 -> 26        -0.35652
      12 -> 27         0.37352

 Excited State  35:      Singlet-A     13.8817 eV   89.32 nm  f=0.0643  <S**2>=0.000
       7 -> 13        -0.12433
       9 -> 16        -0.19974
      11 -> 23         0.17483
      11 -> 24         0.55609

 Excited State  36:      Singlet-A     13.9796 eV   88.69 nm  f=0.0110  <S**2>=0.000
       7 -> 13         0.26736
       7 -> 14        -0.22798
       9 -> 15         0.10106
       9 -> 16         0.39213
      10 -> 17         0.17751
      11 -> 24         0.23538
      11 -> 25         0.15940

 Excited State  37:      Singlet-A     14.0718 eV   88.11 nm  f=0.0077  <S**2>=0.000
       7 -> 13         0.36979
       7 -> 14        -0.36727
       9 -> 16        -0.24918
      10 -> 17        -0.25577

 Excited State  38:      Singlet-A     14.1904 eV   87.37 nm  f=0.0077  <S**2>=0.000
       7 -> 14        -0.10509
       9 -> 15         0.10122
       9 -> 16        -0.28416
      10 -> 14        -0.11337
      10 -> 17         0.39923
      10 -> 18         0.21831
      11 -> 25        -0.20943
      12 -> 27         0.12038

 Excited State  39:      Singlet-A     14.2230 eV   87.17 nm  f=0.0287  <S**2>=0.000
       9 -> 16        -0.11802
       9 -> 17         0.13157
       9 -> 18         0.16029
       9 -> 19         0.11372
      10 -> 17         0.17640
      11 -> 25         0.45143
      11 -> 26        -0.19018
      11 -> 27        -0.19057

 Excited State  40:      Singlet-A     14.5338 eV   85.31 nm  f=0.0968  <S**2>=0.000
       7 -> 15         0.10875
       9 -> 16        -0.17701
       9 -> 18         0.10440
      10 -> 18        -0.16049
      11 -> 17         0.12304
      11 -> 25         0.20377
      11 -> 26         0.35190
      11 -> 27         0.38396

 Excited State  41:      Singlet-A     14.5994 eV   84.92 nm  f=0.0264  <S**2>=0.000
       8 -> 13        -0.11832
       8 -> 14        -0.14583
       9 -> 17        -0.15115
       9 -> 18        -0.26835
      10 -> 17        -0.18822
      10 -> 18         0.38950
      10 -> 19         0.13124
      11 -> 25         0.27726

 Excited State  42:      Singlet-A     14.7737 eV   83.92 nm  f=0.0261  <S**2>=0.000
       8 -> 13         0.22983
       8 -> 14         0.20912
       9 -> 16         0.12454
       9 -> 17         0.11677
       9 -> 18         0.33353
      10 -> 18         0.30678
      10 -> 19         0.20837
      11 -> 26         0.14166
      12 -> 28        -0.14343

 Excited State  43:      Singlet-A     14.8612 eV   83.43 nm  f=0.0131  <S**2>=0.000
       7 -> 15        -0.10772
       8 -> 13         0.33174
       8 -> 14         0.34919
       9 -> 17        -0.25191
       9 -> 18        -0.19454
       9 -> 19        -0.14059
      11 -> 25         0.12419
      11 -> 26        -0.16853

 Excited State  44:      Singlet-A     14.9093 eV   83.16 nm  f=0.0081  <S**2>=0.000
       7 -> 15        -0.10686
       8 -> 13         0.10624
       8 -> 14         0.10446
       9 -> 17         0.15606
       9 -> 18        -0.17894
       9 -> 19        -0.13973
      11 -> 26         0.42358
      11 -> 27        -0.28334
      12 -> 28         0.11405

 Excited State  45:      Singlet-A     15.0317 eV   82.48 nm  f=0.0319  <S**2>=0.000
      10 -> 19         0.11247
      10 -> 21        -0.15782
      11 -> 25         0.11328
      11 -> 27         0.13078
      12 -> 28         0.49451
      12 -> 29        -0.28442
      12 -> 33        -0.10556

 Excited State  46:      Singlet-A     15.0450 eV   82.41 nm  f=0.0637  <S**2>=0.000
       8 -> 13        -0.11677
       8 -> 14        -0.12882
      10 -> 18        -0.23548
      10 -> 19         0.47881
      10 -> 20        -0.15837
      11 -> 26         0.10540
      12 -> 27        -0.10605
      12 -> 28         0.10457
      12 -> 29         0.17290

 Excited State  47:      Singlet-A     15.2333 eV   81.39 nm  f=0.0269  <S**2>=0.000
       9 -> 17        -0.21063
       9 -> 19         0.25312
      10 -> 19        -0.22175
      10 -> 20        -0.18140
      11 -> 26         0.11094
      11 -> 27        -0.11204
      12 -> 27        -0.16188
      12 -> 28         0.23208
      12 -> 29         0.22016
      12 -> 30         0.22205

 Excited State  48:      Singlet-A     15.3065 eV   81.00 nm  f=0.0264  <S**2>=0.000
       7 -> 15        -0.10684
       9 -> 17         0.36128
       9 -> 18        -0.16336
      11 -> 26        -0.12513
      11 -> 27         0.17948
      12 -> 29         0.34561
      12 -> 30         0.10775

 Excited State  49:      Singlet-A     15.4580 eV   80.21 nm  f=0.1419  <S**2>=0.000
       9 -> 17         0.11276
       9 -> 18        -0.19705
       9 -> 19         0.53263
      10 -> 19         0.18395

 Excited State  50:      Singlet-A     15.5761 eV   79.60 nm  f=0.0273  <S**2>=0.000
      10 -> 17         0.10295
      10 -> 18        -0.10407
      12 -> 28        -0.14228
      12 -> 29        -0.23429
      12 -> 30         0.52687
      12 -> 32        -0.12666

 Excited State  51:      Singlet-A     15.6430 eV   79.26 nm  f=0.0709  <S**2>=0.000
       6 -> 13        -0.10539
       7 -> 13         0.28589
       7 -> 14         0.28097
       7 -> 15         0.26906
       8 -> 15        -0.21267
       9 -> 15         0.18385
      10 -> 20         0.21762
      11 -> 27        -0.10213
      12 -> 29         0.15579
      12 -> 30         0.12815

 Excited State  52:      Singlet-A     15.7948 eV   78.50 nm  f=0.0226  <S**2>=0.000
       7 -> 13         0.18676
       7 -> 14         0.20817
       7 -> 15         0.11389
       8 -> 15         0.35045
       8 -> 16        -0.12874
       8 -> 18         0.10898
       9 -> 15         0.13233
       9 -> 17         0.10853
       9 -> 18        -0.14551
      10 -> 20        -0.29188
      10 -> 21         0.14566
      12 -> 29        -0.10138

 Excited State  53:      Singlet-A     15.8761 eV   78.09 nm  f=0.0213  <S**2>=0.000
       6 -> 13         0.14678
       8 -> 15         0.36597
       9 -> 17        -0.12452
       9 -> 20        -0.13121
      10 -> 20         0.38551
      11 -> 28        -0.13094
      11 -> 30         0.11042

 Excited State  54:      Singlet-A     15.9847 eV   77.56 nm  f=0.0166  <S**2>=0.000
       8 -> 15        -0.15829
       9 -> 20        -0.11415
       9 -> 23         0.13697
       9 -> 24        -0.10020
      10 -> 21         0.30344
      11 -> 28        -0.28909
      11 -> 29         0.28127
      11 -> 30         0.23489
      12 -> 31         0.13902
      12 -> 32        -0.10133

 Excited State  55:      Singlet-A     16.0133 eV   77.43 nm  f=0.0955  <S**2>=0.000
       6 -> 14         0.11480
       8 -> 15         0.10129
       8 -> 16        -0.13127
       9 -> 20        -0.12577
      10 -> 20         0.14051
      10 -> 21         0.38138
      11 -> 28         0.29798
      11 -> 29        -0.11052
      12 -> 31         0.10326
      12 -> 32        -0.17455

 Excited State  56:      Singlet-A     16.1518 eV   76.76 nm  f=0.0119  <S**2>=0.000
       6 -> 13        -0.10073
       8 -> 16         0.25160
       9 -> 20         0.40016
       9 -> 21         0.15945
      10 -> 20         0.14157
      10 -> 21         0.16071
      11 -> 28        -0.13421
      11 -> 30        -0.12790
      12 -> 31         0.16624
      12 -> 32        -0.11868

 Excited State  57:      Singlet-A     16.2530 eV   76.28 nm  f=0.0058  <S**2>=0.000
       6 -> 13        -0.10297
       6 -> 14         0.11319
       8 -> 16         0.28182
       8 -> 17        -0.10287
       9 -> 20        -0.14757
      10 -> 21        -0.11615
      10 -> 22        -0.10816
      10 -> 23        -0.18147
      11 -> 28         0.11073
      12 -> 28        -0.10028
      12 -> 29        -0.12980
      12 -> 31         0.34052
      12 -> 33         0.24264

 Excited State  58:      Singlet-A     16.3147 eV   76.00 nm  f=0.1241  <S**2>=0.000
       6 -> 13         0.27452
       6 -> 14        -0.23794
       8 -> 16         0.11170
       9 -> 20         0.17443
       9 -> 21        -0.18637
       9 -> 23         0.19392
      10 -> 22         0.18646
      11 -> 28         0.30395
      12 -> 32         0.12465

 Excited State  59:      Singlet-A     16.3374 eV   75.89 nm  f=0.0414  <S**2>=0.000
       8 -> 16         0.37958
       8 -> 17        -0.13393
       9 -> 20        -0.20858
      10 -> 21         0.16020
      10 -> 22         0.14527
      12 -> 28         0.10438
      12 -> 31        -0.36262

 Excited State  60:      Singlet-A     16.3778 eV   75.70 nm  f=0.1201  <S**2>=0.000
       6 -> 13        -0.18438
       6 -> 14         0.16019
       9 -> 20         0.27802
       9 -> 21        -0.18507
       9 -> 23         0.14271
      10 -> 20         0.12000
      10 -> 22        -0.12831
      11 -> 29         0.15717
      11 -> 30         0.22373
      12 -> 31        -0.25243
      12 -> 33         0.15817

 Excited State  61:      Singlet-A     16.4912 eV   75.18 nm  f=0.0095  <S**2>=0.000
       8 -> 16        -0.21884
       9 -> 22        -0.17025
      10 -> 21         0.10104
      10 -> 22         0.23602
      11 -> 29        -0.10244
      12 -> 33         0.45639

 Excited State  62:      Singlet-A     16.5323 eV   75.00 nm  f=0.0487  <S**2>=0.000
       6 -> 13        -0.22992
       6 -> 14         0.22317
       9 -> 22         0.12017
      10 -> 22         0.30700
      10 -> 23         0.14021
      12 -> 31         0.16544
      12 -> 32         0.29095
      12 -> 34         0.20281

 Excited State  63:      Singlet-A     16.6491 eV   74.47 nm  f=0.0964  <S**2>=0.000
       9 -> 21         0.28882
       9 -> 22         0.29012
       9 -> 23        -0.20223
       9 -> 24         0.11026
      10 -> 23         0.11964
      11 -> 29         0.19707
      11 -> 30         0.17205
      12 -> 33         0.19300
      12 -> 34        -0.13685

 Excited State  64:      Singlet-A     16.7131 eV   74.18 nm  f=0.1143  <S**2>=0.000
       7 -> 17         0.20293
       8 -> 17        -0.11022
       9 -> 21         0.24908
       9 -> 22        -0.20224
       9 -> 24        -0.11342
      10 -> 22         0.18010
      11 -> 28         0.28221
      11 -> 29         0.10684
      11 -> 30         0.17996
      12 -> 32        -0.14006
      12 -> 33        -0.13973

 Excited State  65:      Singlet-A     16.8547 eV   73.56 nm  f=0.0088  <S**2>=0.000
       7 -> 15         0.22103
       9 -> 22         0.13726
      10 -> 21        -0.11795
      10 -> 22         0.27068
      10 -> 23        -0.17282
      10 -> 24        -0.23766
      11 -> 29         0.10849
      11 -> 30        -0.20018
      12 -> 29         0.11283
      12 -> 30        -0.13911
      12 -> 32        -0.22052
      12 -> 34        -0.11354

 Excited State  66:      Singlet-A     16.9757 eV   73.04 nm  f=0.0174  <S**2>=0.000
       7 -> 15         0.12224
       7 -> 19        -0.15049
       7 -> 21        -0.11435
       8 -> 18         0.10374
       9 -> 21         0.30857
       9 -> 23         0.29098
      10 -> 23        -0.25103
      11 -> 29        -0.15877
      12 -> 32         0.12825
      12 -> 34         0.15317

 Excited State  67:      Singlet-A     16.9975 eV   72.94 nm  f=0.2181  <S**2>=0.000
       7 -> 15        -0.19778
       8 -> 15        -0.12469
       8 -> 17         0.17315
       8 -> 18         0.33059
       9 -> 22         0.16618
      10 -> 22         0.16384
      10 -> 24        -0.11745
      11 -> 29        -0.19605
      11 -> 30         0.27249
      12 -> 34        -0.16289

 Excited State  68:      Singlet-A     17.0136 eV   72.87 nm  f=0.1748  <S**2>=0.000
       6 -> 15        -0.10984
       7 -> 15        -0.10094
       7 -> 16         0.13752
       8 -> 17         0.11541
       8 -> 18         0.34284
       8 -> 19         0.11413
       9 -> 22        -0.10340
      11 -> 28         0.10715
      11 -> 29         0.32389
      11 -> 30        -0.20362
      12 -> 34         0.12377
      12 -> 35         0.15204

 Excited State  69:      Singlet-A     17.1214 eV   72.41 nm  f=0.0810  <S**2>=0.000
       9 -> 23        -0.15732
      10 -> 24        -0.23002
      11 -> 29        -0.12700
      11 -> 30         0.20767
      12 -> 32        -0.15908
      12 -> 34         0.45028

 Excited State  70:      Singlet-A     17.1771 eV   72.18 nm  f=0.0223  <S**2>=0.000
       7 -> 13        -0.13910
       7 -> 14        -0.20521
       7 -> 15         0.30121
       8 -> 17        -0.12105

 The electronic state is 1-A.
 Alpha  occ. eigenvalues --  -14.28756 -14.27811 -10.18188  -1.16015  -0.96120
 Alpha  occ. eigenvalues --   -0.76011  -0.67748  -0.64867  -0.55960  -0.53786
 Alpha  occ. eigenvalues --   -0.40653  -0.36216
 Alpha virt. eigenvalues --    0.08259   0.09066   0.11924   0.15397   0.19168
 Alpha virt. eigenvalues --    0.19574   0.21167   0.24807   0.25278   0.26614
 Alpha virt. eigenvalues --    0.28691   0.29103   0.31920   0.33060   0.36890

 Mulliken charges:
               1
     1  N    0.188379
     2  N   -0.183533
     3  C    0.712303
     4  H   -0.029544
     5  H   -0.013227
     6  H   -0.440924
     7  H   -0.233453
 Sum of Mulliken charges =  -0.00000

 Dipole moment (field-independent basis, Debye):
    X=              0.2910    Y=              1.7509    Z=              1.0594  Tot=              2.0671
 Quadrupole moment (field-independent basis, Debye-Ang):
   XX=            -14.9607   YY=            -18.7627   ZZ=            -20.7588
   XY=             -0.3919   XZ=              1.9378   YZ=              0.3260

 1\1\GINC-HEL25\SP\RLC-BLYP TD-FC\Gen\C1H4N2\SABYASACHI\21-Mar-2022\0\\
 #P TD(Nstates=10000) lc-blyp/Gen SCF(maxcycles=100) Int(Grid=ultrafine
 )\\xGDB7_00001_tier4.com\\0,1\N,0,1.106441,0.142513,-0.090982\N,0,-0.0
 80753,-0.51252,0.006066\C,0,-1.148696,0.167456,0.008166\H,0,1.854749,-
 0.409916,0.291533\H,0,1.109677,1.100453,0.242713\H,0,-2.089851,-0.3661
 99,0.035249\H,0,-1.162208,1.260974,-0.02408\\Version=EM64L-G16RevC.01\
 State=1-A\HF=-149.4699243\RMSD=3.471e-09\PG=C01 [X(C1H4N2)]\\@
 The archive entry for this job was punched.

 Normal termination of Gaussian 16 at Mon Mar 21 20:08:59 2022.
