 Gaussian 16, Revision C.01,
 Gaussian 16:  EM64L-G16RevC.01  3-Jul-2019

 ----------------------------------------------------------------------
 #P TD(Nstates=10000) lc-blyp/Gen SCF(maxcycles=100) Int(Grid=ultrafine
 )
 ----------------------------------------------------------------------

 ---------------------
 xGDB7_00001_tier4.com
 ---------------------
 Symbolic Z-matrix:
 Charge =  0 Multiplicity = 1

                         Standard orientation:
 ---------------------------------------------------------------------
 Center     Atomic      Atomic             Coordinates (Angstroms)
 Number     Number       Type             X           Y           Z
 ---------------------------------------------------------------------
      1          6           0       -1.131573   -0.504386    0.000000
      2          6           0        0.000000    0.472223    0.000000
      3          6           0        1.284136    0.150792    0.000000
      4          1           0       -1.767446   -0.362776    0.877699
      5          1           0       -0.770122   -1.533458    0.000000
      6          1           0       -1.767446   -0.362776   -0.877699
      7          1           0       -0.276551    1.523465    0.000000
      8          1           0        1.608435   -0.884555    0.000000
      9          1           0        2.057749    0.908327    0.000000
 ---------------------------------------------------------------------

 SCF Done:  E(RLC-B+HF-LYP) =  -117.437705785     A.U. after   13 cycles

 Excitation energies and oscillator strengths:

 Excited State   1:      Singlet-A'     7.6639 eV  161.78 nm  f=0.4287  <S**2>=0.000
      12 -> 14         0.69719
 This state for optimization and/or second-order correction.
 Total Energy, E(TD-HF/TD-DFT) =  -117.156063972
 Copying the excited state density for this state as the 1-particle RhoCI density.

 Excited State   2:      Singlet-A"     7.7134 eV  160.74 nm  f=0.0298  <S**2>=0.000
      12 -> 13         0.63378
      12 -> 15        -0.15008
      12 -> 16        -0.24125

 Excited State   3:      Singlet-A"     8.4488 eV  146.75 nm  f=0.0004  <S**2>=0.000
      11 -> 14         0.57414
      12 -> 15        -0.18139
      12 -> 16         0.30365

 Excited State   4:      Singlet-A"     8.5414 eV  145.16 nm  f=0.0010  <S**2>=0.000
      11 -> 14        -0.37986
      12 -> 13         0.10940
      12 -> 15        -0.27350
      12 -> 16         0.48620

 Excited State   5:      Singlet-A"     8.7714 eV  141.35 nm  f=0.0273  <S**2>=0.000
      12 -> 13         0.22769
      12 -> 15         0.58543
      12 -> 16         0.23677
      12 -> 17         0.11536
      12 -> 19         0.10981

 Excited State   6:      Singlet-A"     9.4438 eV  131.29 nm  f=0.0005  <S**2>=0.000
       7 -> 14         0.15746
       8 -> 14        -0.27053
      10 -> 14         0.61044

 Excited State   7:      Singlet-A"     9.8230 eV  126.22 nm  f=0.0024  <S**2>=0.000
      12 -> 16        -0.14970
      12 -> 17         0.63598
      12 -> 22        -0.18206

 Excited State   8:      Singlet-A"    10.1815 eV  121.77 nm  f=0.0588  <S**2>=0.000
      12 -> 16        -0.11088
      12 -> 19         0.66896

 Excited State   9:      Singlet-A'    10.2136 eV  121.39 nm  f=0.0054  <S**2>=0.000
      11 -> 13         0.62644
      11 -> 16        -0.22286

 Excited State  10:      Singlet-A'    10.3528 eV  119.76 nm  f=0.1046  <S**2>=0.000
      12 -> 18         0.62969
      12 -> 21         0.19359
      12 -> 24         0.14716

 Excited State  11:      Singlet-A'    10.6948 eV  115.93 nm  f=0.0275  <S**2>=0.000
       8 -> 13         0.11200
      10 -> 13         0.57026
      10 -> 15         0.12254
      11 -> 15         0.31619

 Excited State  12:      Singlet-A"    10.7734 eV  115.08 nm  f=0.0004  <S**2>=0.000
      12 -> 20         0.64379
      12 -> 22         0.20175

 Excited State  13:      Singlet-A"    10.9392 eV  113.34 nm  f=0.0004  <S**2>=0.000
       7 -> 14         0.15440
       8 -> 14         0.61377
      10 -> 14         0.24206

 Excited State  14:      Singlet-A'    11.0156 eV  112.55 nm  f=0.3041  <S**2>=0.000
      10 -> 13         0.12518
      10 -> 15         0.11165
      11 -> 13         0.14680
      11 -> 15        -0.22712
      11 -> 16         0.57237
      12 -> 18        -0.11057
      12 -> 21         0.12209

 Excited State  15:      Singlet-A'    11.0522 eV  112.18 nm  f=0.0162  <S**2>=0.000
      10 -> 13        -0.11808
      10 -> 15        -0.10005
      11 -> 15         0.35267
      12 -> 18        -0.12858
      12 -> 21         0.51268
      12 -> 24        -0.13493

 Excited State  16:      Singlet-A'    11.2429 eV  110.28 nm  f=0.0979  <S**2>=0.000
       8 -> 13         0.17108
      10 -> 13        -0.25364
      11 -> 13         0.18398
      11 -> 15         0.36107
      11 -> 16         0.25877
      12 -> 21        -0.34880

 Excited State  17:      Singlet-A"    11.3062 eV  109.66 nm  f=0.0987  <S**2>=0.000
       9 -> 13         0.10969
       9 -> 15         0.10131
      12 -> 17         0.14914
      12 -> 20        -0.15405
      12 -> 22         0.57717
      12 -> 23        -0.20614

 Excited State  18:      Singlet-A"    11.6691 eV  106.25 nm  f=0.0185  <S**2>=0.000
       9 -> 16        -0.11254
      12 -> 20        -0.12653
      12 -> 22         0.15218
      12 -> 23         0.63203

 Excited State  19:      Singlet-A'    11.7839 eV  105.22 nm  f=0.0286  <S**2>=0.000
       8 -> 13         0.15526
      10 -> 15         0.18252
      10 -> 16         0.40894
      11 -> 17        -0.14672
      12 -> 18        -0.14519
      12 -> 21         0.10807
      12 -> 24         0.39575
      12 -> 26        -0.10142

 Excited State  20:      Singlet-A"    11.9614 eV  103.65 nm  f=0.0809  <S**2>=0.000
       9 -> 13         0.57760
       9 -> 15         0.28373
      12 -> 22        -0.10744
      12 -> 25        -0.13373

 Excited State  21:      Singlet-A'    11.9753 eV  103.53 nm  f=0.0441  <S**2>=0.000
       9 -> 14        -0.14258
      10 -> 15        -0.10113
      10 -> 16         0.46932
      12 -> 24        -0.41565

 Excited State  22:      Singlet-A'    12.1268 eV  102.24 nm  f=0.0486  <S**2>=0.000
       9 -> 14         0.64614
      10 -> 16         0.11210

 Excited State  23:      Singlet-A'    12.1594 eV  101.97 nm  f=0.0010  <S**2>=0.000
       7 -> 13        -0.10224
      10 -> 13        -0.15807
      10 -> 15         0.53006
      10 -> 17        -0.19497
      11 -> 17         0.11409
      11 -> 19        -0.15190
      12 -> 24        -0.15782

 Excited State  24:      Singlet-A"    12.3616 eV  100.30 nm  f=0.0011  <S**2>=0.000
       7 -> 14         0.53160
       9 -> 13        -0.12330
      10 -> 14        -0.16830
      10 -> 18        -0.16600
      11 -> 18        -0.28905

 Excited State  25:      Singlet-A'    12.3911 eV  100.06 nm  f=0.0569  <S**2>=0.000
       8 -> 15        -0.11496
      10 -> 15        -0.11596
      11 -> 17         0.56965
      11 -> 19        -0.17702
      12 -> 24         0.14915
      12 -> 26        -0.10802

 Excited State  26:      Singlet-A"    12.4752 eV   99.38 nm  f=0.0002  <S**2>=0.000
       7 -> 14         0.28494
       8 -> 18         0.12052
      11 -> 18         0.53913
      11 -> 21         0.16225
      12 -> 25        -0.15912

 Excited State  27:      Singlet-A"    12.6342 eV   98.13 nm  f=0.1009  <S**2>=0.000
       7 -> 14         0.17639
       9 -> 13         0.12798
       9 -> 20        -0.10029
      10 -> 21         0.14215
      12 -> 25         0.57980

 Excited State  28:      Singlet-A'    12.6795 eV   97.78 nm  f=0.1589  <S**2>=0.000
       8 -> 15        -0.12171
       9 -> 14        -0.10916
      10 -> 17        -0.10835
      11 -> 17         0.12680
      11 -> 19         0.59054
      11 -> 20        -0.15677

 Excited State  29:      Singlet-A'    12.7379 eV   97.33 nm  f=0.0105  <S**2>=0.000
       8 -> 13         0.37547
       8 -> 15        -0.14059
       8 -> 16        -0.14091
      10 -> 17         0.38845
      10 -> 23        -0.14995
      11 -> 15        -0.11483
      11 -> 17         0.17402
      11 -> 20         0.17728

 Excited State  30:      Singlet-A'    12.8762 eV   96.29 nm  f=0.0032  <S**2>=0.000
       8 -> 13        -0.35344
       8 -> 15         0.11503
       8 -> 16        -0.24975
      10 -> 16         0.11076
      11 -> 15         0.12539
      11 -> 20         0.41997

 Excited State  31:      Singlet-A"    12.9203 eV   95.96 nm  f=0.0333  <S**2>=0.000
       7 -> 18        -0.13855
      10 -> 18         0.61626
      11 -> 18        -0.10869
      11 -> 21        -0.13541
      12 -> 27        -0.10337

 Excited State  32:      Singlet-A'    13.0243 eV   95.19 nm  f=0.1485  <S**2>=0.000
       8 -> 13        -0.31074
       8 -> 15        -0.19547
       8 -> 16         0.24717
      10 -> 15         0.10323
      10 -> 17         0.35503
      10 -> 19        -0.27591
      11 -> 20        -0.14644
      11 -> 22         0.10097

 Excited State  33:      Singlet-A"    13.2678 eV   93.45 nm  f=0.0059  <S**2>=0.000
      10 -> 18         0.10733
      11 -> 21         0.16692
      12 -> 27         0.57602
      12 -> 28        -0.24308

 Excited State  34:      Singlet-A'    13.2892 eV   93.30 nm  f=0.0158  <S**2>=0.000
       8 -> 17         0.14137
      10 -> 19        -0.18859
      11 -> 20         0.19004
      11 -> 22         0.21292
      12 -> 21         0.11255
      12 -> 24         0.13537
      12 -> 26         0.48620

 Excited State  35:      Singlet-A"    13.2993 eV   93.23 nm  f=0.0027  <S**2>=0.000
       9 -> 16         0.56751
       9 -> 19        -0.10005
       9 -> 20        -0.16221
      11 -> 21        -0.25598
      12 -> 23         0.10838
      12 -> 27         0.10720

 Excited State  36:      Singlet-A'    13.3801 eV   92.66 nm  f=0.2282  <S**2>=0.000
       7 -> 16         0.10241
       8 -> 15        -0.16100
      10 -> 17         0.12148
      10 -> 19         0.40538
      10 -> 23        -0.11046
      11 -> 20        -0.15771
      12 -> 26         0.38068

 Excited State  37:      Singlet-A"    13.3890 eV   92.60 nm  f=0.1049  <S**2>=0.000
       9 -> 16         0.28803
      10 -> 21         0.12261
      11 -> 18        -0.15089
      11 -> 21         0.51148
      11 -> 24        -0.14761
      12 -> 25        -0.12889
      12 -> 27        -0.12819

 Excited State  38:      Singlet-A'    13.5435 eV   91.55 nm  f=0.1132  <S**2>=0.000
       8 -> 16         0.21005
       8 -> 17         0.15353
      10 -> 19         0.31826
      10 -> 20        -0.29745
      11 -> 22         0.33103
      12 -> 26        -0.18347

 Excited State  39:      Singlet-A"    13.6361 eV   90.92 nm  f=0.0033  <S**2>=0.000
       9 -> 15        -0.25802
       9 -> 17         0.42002
       9 -> 23        -0.15536
      12 -> 27        -0.20829
      12 -> 28        -0.33837

 Excited State  40:      Singlet-A"    13.7405 eV   90.23 nm  f=0.0000  <S**2>=0.000
       9 -> 15        -0.12985
       9 -> 19         0.14335
      10 -> 18        -0.10479
      10 -> 21         0.57309
      11 -> 21        -0.14684
      11 -> 24         0.13494
      12 -> 25        -0.11184

 Excited State  41:      Singlet-A'    13.7662 eV   90.06 nm  f=0.0193  <S**2>=0.000
       7 -> 16         0.11565
       8 -> 15        -0.14894
       8 -> 16        -0.18718
       8 -> 17         0.12642
       9 -> 18         0.26804
      10 -> 17        -0.12705
      10 -> 20         0.31220
      11 -> 22         0.35368
      11 -> 23        -0.10658

 Excited State  42:      Singlet-A'    13.8877 eV   89.28 nm  f=0.1775  <S**2>=0.000
       6 -> 13        -0.10047
       7 -> 13        -0.18062
       7 -> 16         0.12772
       8 -> 15         0.50138
       8 -> 16         0.12746
      11 -> 17         0.14883
      11 -> 20        -0.13729
      11 -> 22         0.11521
      11 -> 23        -0.11146

 Excited State  43:      Singlet-A"    13.8980 eV   89.21 nm  f=0.0010  <S**2>=0.000
       9 -> 13         0.21299
       9 -> 15        -0.33041
       9 -> 17         0.18557
      12 -> 27         0.20931
      12 -> 28         0.41428

 Excited State  44:      Singlet-A"    14.0076 eV   88.51 nm  f=0.0060  <S**2>=0.000
       8 -> 18        -0.21756
      11 -> 21         0.14168
      11 -> 24         0.59868

 Excited State  45:      Singlet-A'    14.0669 eV   88.14 nm  f=0.0062  <S**2>=0.000
       8 -> 15        -0.10932
       8 -> 16         0.40611
       9 -> 18         0.12368
      10 -> 16         0.13144
      10 -> 19         0.10310
      10 -> 20         0.22858
      10 -> 23        -0.10293
      11 -> 20         0.28337
      11 -> 22        -0.20953
      11 -> 23        -0.11919

 Excited State  46:      Singlet-A'    14.2006 eV   87.31 nm  f=0.0820  <S**2>=0.000
       7 -> 13        -0.15352
       7 -> 16         0.11535
       8 -> 19        -0.18402
       9 -> 18        -0.11583
      10 -> 20         0.20353
      10 -> 22        -0.20177
      11 -> 23         0.48348
      12 -> 29         0.16717

 Excited State  47:      Singlet-A'    14.2439 eV   87.04 nm  f=0.2203  <S**2>=0.000
       7 -> 13        -0.12701
       8 -> 17        -0.21679
       8 -> 22         0.10065
       9 -> 18         0.42469
      10 -> 20        -0.22733
      10 -> 22        -0.29110
      12 -> 29        -0.10213

 Excited State  48:      Singlet-A"    14.3722 eV   86.27 nm  f=0.0525  <S**2>=0.000
       6 -> 14        -0.12330
       9 -> 13        -0.13702
       9 -> 15         0.28382
       9 -> 17         0.30260
       9 -> 19        -0.28370
       9 -> 20         0.16082
       9 -> 22         0.10244
       9 -> 23        -0.11307
      10 -> 21         0.22002
      12 -> 28         0.18785
      12 -> 30         0.15581

 Excited State  49:      Singlet-A'    14.3773 eV   86.24 nm  f=0.0024  <S**2>=0.000
       7 -> 13         0.49889
       7 -> 17         0.15802
       8 -> 15         0.12824
       9 -> 18         0.10752
      10 -> 15         0.13899
      10 -> 17         0.10376
      10 -> 19         0.10636
      10 -> 22        -0.13077
      12 -> 29         0.17976

 Excited State  50:      Singlet-A'    14.5710 eV   85.09 nm  f=0.0500  <S**2>=0.000
       7 -> 13        -0.15801
       8 -> 16        -0.13532
       8 -> 17         0.11291
       8 -> 19         0.19421
      10 -> 22        -0.15170
      11 -> 23        -0.12946
      11 -> 25        -0.13797
      12 -> 29         0.51851

 Excited State  51:      Singlet-A'    14.6424 eV   84.67 nm  f=0.1151  <S**2>=0.000
       8 -> 19        -0.28163
       8 -> 20         0.11634
       9 -> 18         0.16288
      10 -> 22         0.31639
      10 -> 23         0.12452
      10 -> 25         0.10010
      11 -> 25         0.27864
      12 -> 29         0.26868

 Excited State  52:      Singlet-A'    14.7070 eV   84.30 nm  f=0.1653  <S**2>=0.000
       7 -> 13        -0.14512
       7 -> 15         0.13936
       7 -> 19         0.11337
       8 -> 17        -0.23145
       8 -> 19         0.21733
       8 -> 20        -0.18165
       9 -> 21        -0.11077
      10 -> 15        -0.11389
      10 -> 20         0.10715
      10 -> 22         0.17863
      10 -> 23         0.29782
      11 -> 22         0.14611
      11 -> 25        -0.23076

 Excited State  53:      Singlet-A'    14.7997 eV   83.77 nm  f=0.0108  <S**2>=0.000
       8 -> 17         0.21854
       9 -> 18         0.28229
       9 -> 21         0.12990
      10 -> 22         0.25231
      10 -> 23        -0.14776
      10 -> 25         0.14953
      11 -> 23         0.31451
      11 -> 25        -0.25816

 Excited State  54:      Singlet-A"    14.8161 eV   83.68 nm  f=0.0235  <S**2>=0.000
       7 -> 18        -0.12991
       8 -> 18         0.38290
       8 -> 21         0.29421
       9 -> 15         0.10782
      10 -> 24        -0.33584
      11 -> 18        -0.10951
      11 -> 29         0.13811

 Excited State  55:      Singlet-A"    14.9305 eV   83.04 nm  f=0.0048  <S**2>=0.000
       6 -> 14        -0.19573
       9 -> 15        -0.20547
       9 -> 17        -0.17540
       9 -> 19        -0.23255
       9 -> 20         0.14406
       9 -> 22        -0.17088
       9 -> 25         0.11127
      10 -> 24        -0.10357
      12 -> 28        -0.12954
      12 -> 30         0.41390

 Excited State  56:      Singlet-A"    14.9928 eV   82.70 nm  f=0.0438  <S**2>=0.000
       6 -> 14         0.16371
       9 -> 19         0.37995
       9 -> 23        -0.23172
      12 -> 28        -0.11224
      12 -> 30         0.38867
      12 -> 34         0.10822

 Excited State  57:      Singlet-A"    15.0670 eV   82.29 nm  f=0.0024  <S**2>=0.000
       6 -> 14         0.19158
       8 -> 21         0.40572
       9 -> 19        -0.11395
      10 -> 24         0.30604
      11 -> 26         0.32785

 Excited State  58:      Singlet-A'    15.0750 eV   82.25 nm  f=0.0442  <S**2>=0.000
       7 -> 13        -0.16433
       7 -> 16        -0.17529
       8 -> 17         0.22662
       8 -> 19        -0.28925
       8 -> 23        -0.10340
      10 -> 22        -0.12022
      10 -> 23         0.31359
      10 -> 25         0.10488
      11 -> 22        -0.13075
      11 -> 25        -0.16795
      12 -> 31        -0.13412

 Excited State  59:      Singlet-A'    15.2381 eV   81.36 nm  f=0.0395  <S**2>=0.000
       7 -> 15         0.14945
       7 -> 16        -0.26640
       9 -> 21         0.12623
      10 -> 20         0.12917
      12 -> 29        -0.10775
      12 -> 31         0.54037

 Excited State  60:      Singlet-A'    15.2796 eV   81.14 nm  f=0.0428  <S**2>=0.000
       7 -> 15        -0.10747
       7 -> 16         0.31513
       9 -> 21         0.38104
      10 -> 23         0.18139
      10 -> 25        -0.18348
      12 -> 31         0.19439

 Excited State  61:      Singlet-A'    15.3446 eV   80.80 nm  f=0.0038  <S**2>=0.000
       7 -> 15         0.48763
       9 -> 21         0.27405
      12 -> 31        -0.26394

 Excited State  62:      Singlet-A"    15.3673 eV   80.68 nm  f=0.0478  <S**2>=0.000
       6 -> 14        -0.15898
       9 -> 15        -0.10583
       9 -> 16         0.17887
       9 -> 20         0.41476
       9 -> 22        -0.21714
       9 -> 23        -0.18368
      12 -> 25         0.10081
      12 -> 30        -0.28733
      12 -> 33        -0.16871

 Excited State  63:      Singlet-A'    15.4129 eV   80.44 nm  f=0.0769  <S**2>=0.000
       7 -> 15        -0.24468
       7 -> 16        -0.15935
       8 -> 17        -0.30834
       9 -> 21         0.37943
      10 -> 23        -0.12498
      11 -> 22         0.14790
      12 -> 29         0.11722
      12 -> 31        -0.14112

 Excited State  64:      Singlet-A"    15.5255 eV   79.86 nm  f=0.3314  <S**2>=0.000
       6 -> 14         0.47814
       7 -> 21         0.10403
       9 -> 19        -0.15498
       9 -> 20         0.18860
      10 -> 24        -0.29483
      10 -> 26        -0.15826

 Excited State  65:      Singlet-A'    15.5422 eV   79.77 nm  f=0.1072  <S**2>=0.000
       7 -> 16         0.28912
       7 -> 20        -0.10302
       8 -> 19        -0.28225
       8 -> 22         0.12046
      10 -> 19        -0.10927
      10 -> 20        -0.11803
      10 -> 23        -0.21115
      10 -> 25         0.17938
      11 -> 23        -0.18014
      11 -> 25        -0.25805

 Excited State  66:      Singlet-A"    15.6018 eV   79.47 nm  f=0.0113  <S**2>=0.000
       6 -> 14         0.14381
       8 -> 18         0.46515
       8 -> 21        -0.19733
      10 -> 24         0.29286
      11 -> 18        -0.15009
      11 -> 24         0.15185
      11 -> 26        -0.19054

 Excited State  67:      Singlet-A"    15.7119 eV   78.91 nm  f=0.0134  <S**2>=0.000
       9 -> 22         0.11079
      12 -> 28        -0.16185
      12 -> 32         0.57345
      12 -> 34         0.23836

 Excited State  68:      Singlet-A"    15.8468 eV   78.24 nm  f=0.0535  <S**2>=0.000
       6 -> 14        -0.10118
       8 -> 21        -0.24169
       8 -> 24         0.26570
      10 -> 26        -0.10062
      11 -> 24         0.10009
      11 -> 26         0.48578
      11 -> 29        -0.14219

 Excited State  69:      Singlet-A'    15.8906 eV   78.02 nm  f=0.2089  <S**2>=0.000
       7 -> 15         0.14166
       8 -> 19        -0.12112
       8 -> 20         0.31711
       8 -> 25        -0.13204
      10 -> 25        -0.23982
      11 -> 25        -0.27876
      11 -> 27         0.33098

 Excited State  70:      Singlet-A'    16.0061 eV   77.46 nm  f=0.0157  <S**2>=0.000
       7 -> 16         0.16128
       7 -> 19         0.14675
       8 -> 19         0.21157
       8 -> 20         0.33593
       9 -> 18        -0.12654
       9 -> 21         0.10894
      10 -> 22        -0.12894
      10 -> 23         0.10020
      10 -> 25         0.38272

 Excited State  71:      Singlet-A"    16.0120 eV   77.43 nm  f=0.0029  <S**2>=0.000
       6 -> 14        -0.12291
       9 -> 20         0.13171
      12 -> 33         0.59984
      12 -> 34         0.10953
      12 -> 36        -0.14537

 Excited State  72:      Singlet-A"    16.1143 eV   76.94 nm  f=0.0855  <S**2>=0.000
       7 -> 18        -0.11815
       7 -> 21        -0.19317
       8 -> 21         0.11969
       8 -> 24         0.31473
      10 -> 26         0.41677
      11 -> 29        -0.26366
      11 -> 31        -0.10095

 Excited State  73:      Singlet-A'    16.1833 eV   76.61 nm  f=0.2934  <S**2>=0.000
       7 -> 17         0.13029
       8 -> 20        -0.28391
       8 -> 22        -0.33881
      10 -> 20        -0.14092
      10 -> 25         0.13358
      11 -> 25         0.11049
      11 -> 27         0.36388

 Excited State  74:      Singlet-A'    16.2400 eV   76.35 nm  f=0.0652  <S**2>=0.000
       6 -> 13         0.11172
       7 -> 17         0.33968
       7 -> 19        -0.20412
       8 -> 20         0.16384
      10 -> 22         0.10238

 The electronic state is 1-A'.
 Alpha  occ. eigenvalues --  -10.15907 -10.14903 -10.14304  -0.95349  -0.84248
 Alpha  occ. eigenvalues --   -0.69905  -0.61089  -0.55927  -0.55029  -0.50193
 Alpha  occ. eigenvalues --   -0.47148  -0.37969
 Alpha virt. eigenvalues --    0.08713   0.10413   0.11033   0.11678   0.17046
 Alpha virt. eigenvalues --    0.18082   0.19402   0.20091   0.21735   0.23200
 Alpha virt. eigenvalues --    0.23603   0.25036   0.27072   0.29570   0.31169

 Mulliken charges:
               1
     1  C    0.787832
     2  C   -0.258285
     3  C    0.151739
     4  H   -0.052380
     5  H   -0.025150
     6  H   -0.052380
     7  H   -0.304065
     8  H   -0.156022
     9  H   -0.091289
 Sum of Mulliken charges =   0.00000

 Dipole moment (field-independent basis, Debye):
    X=             -0.4004    Y=             -0.0396    Z=              0.0000  Tot=              0.4024
 Quadrupole moment (field-independent basis, Debye-Ang):
   XX=            -19.4102   YY=            -19.3421   ZZ=            -21.9466
   XY=             -0.2516   XZ=             -0.0000   YZ=             -0.0000

 Normal termination of Gaussian 16 at Mon Mar 21 04:10:52 2022.
