 Gaussian 16, Revision C.01,
 Gaussian 16:  EM64L-G16RevC.01  3-Jul-2019

 ----------------------------------------------------------------------
 #P TD(Nstates=10000) lc-blyp/Gen SCF(maxcycles=100) Int(Grid=ultrafine
 )
 ----------------------------------------------------------------------

 ---------------------
 xGDB7_00001_tier4.com
 ---------------------
 Symbolic Z-matrix:
 Charge =  0 Multiplicity = 1

                         Standard orientation:
 ---------------------------------------------------------------------
 Center     Atomic      Atomic             Coordinates (Angstroms)
 Number     Number       Type             X           Y           Z
 ---------------------------------------------------------------------
      1          6           0        0.000000    1.267731   -0.259082
      2          6           0       -0.000000   -0.000000    0.585552
      3          6           0       -0.000000   -1.267731   -0.259082
      4          1           0        0.000000    2.164308    0.363087
      5          1           0       -0.881453    1.307675   -0.903652
      6          1           0        0.881453    1.307675   -0.903652
      7          1           0       -0.874532    0.000000    1.242055
      8          1           0        0.874532   -0.000000    1.242055
      9          1           0       -0.881453   -1.307675   -0.903652
     10          1           0       -0.000000   -2.164308    0.363087
     11          1           0        0.881453   -1.307675   -0.903652
 ---------------------------------------------------------------------

 SCF Done:  E(RLC-B+HF-LYP) =  -118.664679877     A.U. after   11 cycles

 Excitation energies and oscillator strengths:

 Excited State   1:      Singlet-B1     9.3448 eV  132.68 nm  f=0.0010  <S**2>=0.000
      10 -> 15        -0.10492
      13 -> 14         0.65690
      13 -> 16         0.16959
 This state for optimization and/or second-order correction.
 Total Energy, E(TD-HF/TD-DFT) =  -118.321266222
 Copying the excited state density for this state as the 1-particle RhoCI density.

 Excited State   2:      Singlet-A1     9.7911 eV  126.63 nm  f=0.0057  <S**2>=0.000
       9 -> 15        -0.11697
      11 -> 15        -0.12471
      12 -> 14         0.65624
      12 -> 16         0.13593

 Excited State   3:      Singlet-B2     9.8198 eV  126.26 nm  f=0.0453  <S**2>=0.000
       8 -> 15         0.10710
      11 -> 14         0.67228
      12 -> 15        -0.10093

 Excited State   4:      Singlet-A2    10.2518 eV  120.94 nm  f=0.0000  <S**2>=0.000
      10 -> 14        -0.37647
      13 -> 15         0.56719

 Excited State   5:      Singlet-B1    10.4370 eV  118.79 nm  f=0.2139  <S**2>=0.000
       7 -> 14         0.11256
      10 -> 15         0.13741
      13 -> 14        -0.14052
      13 -> 16         0.64270

 Excited State   6:      Singlet-B2    10.5917 eV  117.06 nm  f=0.0031  <S**2>=0.000
       9 -> 14        -0.32680
      12 -> 15         0.58522

 Excited State   7:      Singlet-A1    10.7266 eV  115.59 nm  f=0.1083  <S**2>=0.000
       8 -> 14         0.19057
      11 -> 15         0.57027
      12 -> 16         0.32646

 Excited State   8:      Singlet-A1    10.9146 eV  113.59 nm  f=0.1553  <S**2>=0.000
      11 -> 15        -0.29827
      12 -> 14        -0.16361
      12 -> 16         0.57807

 Excited State   9:      Singlet-B2    11.0777 eV  111.92 nm  f=0.0287  <S**2>=0.000
      11 -> 16         0.67810

 Excited State  10:      Singlet-A1    11.1144 eV  111.55 nm  f=0.1702  <S**2>=0.000
      13 -> 17         0.66694
      13 -> 19         0.12141

 Excited State  11:      Singlet-A2    11.2799 eV  109.92 nm  f=0.0000  <S**2>=0.000
      10 -> 14         0.45759
      10 -> 18         0.14335
      11 -> 17        -0.32918
      13 -> 15         0.32197

 Excited State  12:      Singlet-B1    11.3124 eV  109.60 nm  f=0.0541  <S**2>=0.000
      10 -> 15         0.20521
      12 -> 17         0.33213
      13 -> 18         0.54929

 Excited State  13:      Singlet-B1    11.3893 eV  108.86 nm  f=0.0497  <S**2>=0.000
      10 -> 15        -0.10228
      12 -> 17         0.57515
      12 -> 19         0.12403
      13 -> 18        -0.29645
      13 -> 20         0.13253

 Excited State  14:      Singlet-A2    11.4971 eV  107.84 nm  f=0.0000  <S**2>=0.000
      10 -> 14         0.24372
      11 -> 17         0.59770
      13 -> 15         0.17500

 Excited State  15:      Singlet-A1    11.7012 eV  105.96 nm  f=0.0127  <S**2>=0.000
       9 -> 15         0.20328
      12 -> 18         0.62765
      12 -> 20        -0.14301

 Excited State  16:      Singlet-B2    11.7279 eV  105.72 nm  f=0.2503  <S**2>=0.000
       8 -> 15        -0.14203
      11 -> 18         0.63913
      12 -> 15        -0.13162

 Excited State  17:      Singlet-A2    11.9781 eV  103.51 nm  f=0.0000  <S**2>=0.000
      10 -> 14         0.16608
      10 -> 16         0.46355
      10 -> 24         0.16929
      13 -> 21         0.42900

 Excited State  18:      Singlet-B1    11.9997 eV  103.32 nm  f=0.0001  <S**2>=0.000
      10 -> 15         0.38699
      12 -> 17        -0.10435
      12 -> 19         0.14210
      13 -> 20         0.50749
      13 -> 24         0.13663

 Excited State  19:      Singlet-B2    12.0057 eV  103.27 nm  f=0.0189  <S**2>=0.000
       9 -> 14         0.53679
       9 -> 16         0.12733
       9 -> 18         0.12906
      11 -> 20         0.16152
      12 -> 15         0.27650

 Excited State  20:      Singlet-A1    12.1611 eV  101.95 nm  f=0.0173  <S**2>=0.000
      12 -> 20        -0.13406
      13 -> 19         0.64894

 Excited State  21:      Singlet-B1    12.1846 eV  101.76 nm  f=0.0256  <S**2>=0.000
       9 -> 23         0.11844
      12 -> 17        -0.10560
      12 -> 19         0.64442
      13 -> 20        -0.12386

 Excited State  22:      Singlet-A2    12.2453 eV  101.25 nm  f=0.0000  <S**2>=0.000
       8 -> 23        -0.10668
      11 -> 19         0.66321
      11 -> 41        -0.11403

 Excited State  23:      Singlet-B2    12.4135 eV   99.88 nm  f=0.0364  <S**2>=0.000
       8 -> 15        -0.13330
       9 -> 14        -0.20210
       9 -> 16         0.19103
      11 -> 20         0.51046
      11 -> 24         0.15364
      12 -> 15        -0.11395
      12 -> 21         0.26191

 Excited State  24:      Singlet-B2    12.4319 eV   99.73 nm  f=0.1722  <S**2>=0.000
       9 -> 16         0.33096
      10 -> 17        -0.24447
      11 -> 20        -0.33786
      12 -> 21         0.36293
      13 -> 22        -0.14955

 Excited State  25:      Singlet-A1    12.4609 eV   99.50 nm  f=0.0083  <S**2>=0.000
       8 -> 14         0.10775
       9 -> 15         0.33623
      11 -> 21         0.12496
      12 -> 20         0.51571
      12 -> 24         0.15078
      13 -> 19         0.13092

 Excited State  26:      Singlet-B1    12.5547 eV   98.76 nm  f=0.1146  <S**2>=0.000
       7 -> 14         0.18616
      10 -> 15         0.40853
      10 -> 21         0.11110
      10 -> 25        -0.11360
      11 -> 22         0.10480
      13 -> 14         0.13591
      13 -> 16        -0.13054
      13 -> 18        -0.23416
      13 -> 20        -0.36541

 Excited State  27:      Singlet-B2    12.6250 eV   98.21 nm  f=0.3490  <S**2>=0.000
       9 -> 16         0.20685
      10 -> 17         0.47261
      10 -> 19        -0.18147
      11 -> 18        -0.10047
      11 -> 20        -0.11246
      12 -> 21         0.18290
      13 -> 22         0.26244
      13 -> 23        -0.17984

 Excited State  28:      Singlet-A1    12.7259 eV   97.43 nm  f=0.0692  <S**2>=0.000
       8 -> 16        -0.24145
      11 -> 21         0.59930
      12 -> 20        -0.10823

 Excited State  29:      Singlet-A2    12.7280 eV   97.41 nm  f=0.0000  <S**2>=0.000
       9 -> 19        -0.12728
      10 -> 16         0.12321
      10 -> 18         0.47476
      12 -> 23        -0.23113
      13 -> 21        -0.20638
      13 -> 25         0.26326

 Excited State  30:      Singlet-A2    12.7492 eV   97.25 nm  f=0.0000  <S**2>=0.000
       9 -> 17         0.49190
      10 -> 16        -0.11370
      12 -> 22         0.43242

 Excited State  31:      Singlet-B2    12.8373 eV   96.58 nm  f=0.0003  <S**2>=0.000
      10 -> 19         0.27993
      10 -> 26         0.10110
      13 -> 22         0.35086
      13 -> 23         0.50193

 Excited State  32:      Singlet-A1    12.8554 eV   96.45 nm  f=0.0472  <S**2>=0.000
       8 -> 14         0.42307
       8 -> 18         0.12827
       9 -> 15         0.29343
       9 -> 25        -0.12360
      11 -> 15        -0.10640
      11 -> 27         0.10896
      12 -> 18        -0.17854
      12 -> 20        -0.25482
      12 -> 24        -0.10320

 Excited State  33:      Singlet-A2    12.8708 eV   96.33 nm  f=0.0000  <S**2>=0.000
       7 -> 15        -0.16350
       9 -> 19         0.17670
      10 -> 16        -0.19048
      10 -> 18         0.18248
      10 -> 20         0.30547
      12 -> 23         0.27083
      13 -> 21         0.21086
      13 -> 25         0.31406

 Excited State  34:      Singlet-B1    12.9160 eV   95.99 nm  f=0.0051  <S**2>=0.000
       7 -> 14        -0.16983
       7 -> 16        -0.20841
      10 -> 21         0.31076
      11 -> 22        -0.14332
      13 -> 24         0.50418

 Excited State  35:      Singlet-B1    13.0508 eV   95.00 nm  f=0.0685  <S**2>=0.000
       8 -> 17        -0.10654
       8 -> 19        -0.15024
      11 -> 22         0.35924
      11 -> 23         0.53201

 Excited State  36:      Singlet-B1    13.1225 eV   94.48 nm  f=0.0158  <S**2>=0.000
       8 -> 17        -0.25610
      11 -> 22         0.46653
      11 -> 23        -0.38404
      11 -> 44         0.11124

 Excited State  37:      Singlet-B2    13.1299 eV   94.43 nm  f=0.0414  <S**2>=0.000
       9 -> 16         0.22592
       9 -> 18         0.44341
      11 -> 20        -0.10454
      12 -> 21        -0.20977
      12 -> 25         0.36132

 Excited State  38:      Singlet-A2    13.1621 eV   94.20 nm  f=0.0000  <S**2>=0.000
       9 -> 19         0.19709
      10 -> 16         0.31636
      10 -> 20        -0.10389
      12 -> 22         0.18426
      12 -> 23         0.43255
      13 -> 21        -0.31337

 Excited State  39:      Singlet-A1    13.2928 eV   93.27 nm  f=0.0026  <S**2>=0.000
       8 -> 14        -0.23350
       8 -> 16        -0.12596
       8 -> 18        -0.20790
       9 -> 15         0.29448
       9 -> 21         0.11928
      11 -> 21        -0.12018
      11 -> 25         0.30309
      11 -> 27        -0.11399
      12 -> 18        -0.12991
      12 -> 20        -0.25470
      12 -> 24         0.17067

 Excited State  40:      Singlet-A2    13.4431 eV   92.23 nm  f=0.0000  <S**2>=0.000
      10 -> 16         0.25517
      10 -> 18        -0.22794
      10 -> 20         0.44782
      10 -> 24         0.10585
      12 -> 22        -0.10312
      12 -> 23        -0.15377
      13 -> 21        -0.25302
      13 -> 25         0.12779
      13 -> 27         0.15987

 Excited State  41:      Singlet-B2    13.4883 eV   91.92 nm  f=0.0027  <S**2>=0.000
       9 -> 16         0.38260
       9 -> 18        -0.11918
       9 -> 20        -0.19630
      10 -> 17         0.13416
      11 -> 24         0.12952
      12 -> 21        -0.33151
      12 -> 25        -0.26312
      13 -> 23         0.15918

 Excited State  42:      Singlet-A1    13.6168 eV   91.05 nm  f=0.0031  <S**2>=0.000
       8 -> 14         0.30352
       9 -> 15        -0.21058
       9 -> 21         0.18675
      10 -> 22        -0.13074
      11 -> 21        -0.10259
      11 -> 25         0.12631
      12 -> 24         0.45904
      13 -> 26        -0.11336

 Excited State  43:      Singlet-B2    13.6897 eV   90.57 nm  f=0.0976  <S**2>=0.000
       9 -> 18        -0.10454
      10 -> 17        -0.33979
      11 -> 24         0.12071
      12 -> 25        -0.11554
      13 -> 22         0.46980
      13 -> 23        -0.27210

 Excited State  44:      Singlet-B2    13.7765 eV   90.00 nm  f=0.0546  <S**2>=0.000
       8 -> 21        -0.11417
       9 -> 16        -0.20102
      11 -> 20        -0.17172
      11 -> 24         0.57737
      12 -> 21         0.11373
      12 -> 27        -0.11773

 Excited State  45:      Singlet-A1    13.8253 eV   89.68 nm  f=0.0059  <S**2>=0.000
       7 -> 17        -0.17769
       8 -> 14         0.17654
       9 -> 15        -0.23218
      10 -> 22         0.25998
      11 -> 25         0.39645
      11 -> 27         0.10232
      12 -> 24        -0.14220
      13 -> 26         0.28255

 Excited State  46:      Singlet-B2    13.8331 eV   89.63 nm  f=0.0019  <S**2>=0.000
       9 -> 16         0.12622
       9 -> 18        -0.25491
       9 -> 20         0.37225
      11 -> 24         0.19294
      12 -> 21        -0.15380
      12 -> 25         0.24396
      12 -> 27         0.31163
      13 -> 22        -0.10392

 Excited State  47:      Singlet-A2    13.8722 eV   89.38 nm  f=0.0000  <S**2>=0.000
       9 -> 19        -0.10473
      10 -> 14         0.13214
      10 -> 18        -0.13159
      10 -> 20        -0.19973
      10 -> 24        -0.22405
      13 -> 15         0.15112
      13 -> 25         0.30144
      13 -> 27         0.37346
      13 -> 30         0.23487

 Excited State  48:      Singlet-B1    13.8765 eV   89.35 nm  f=0.0973  <S**2>=0.000
       7 -> 14         0.54174
       7 -> 18         0.17273
      10 -> 15        -0.20656
      12 -> 29         0.15148
      13 -> 24         0.20289

 Excited State  49:      Singlet-B2    14.0000 eV   88.56 nm  f=0.1324  <S**2>=0.000
       7 -> 23        -0.10627
       8 -> 15         0.13233
       9 -> 20        -0.10555
      10 -> 17         0.15684
      10 -> 19         0.53478
      11 -> 28        -0.10087
      13 -> 23        -0.26944

 Excited State  50:      Singlet-A2    14.0603 eV   88.18 nm  f=0.0000  <S**2>=0.000
       9 -> 17        -0.42934
       9 -> 26         0.11148
      12 -> 22         0.46270
      12 -> 23        -0.16208

 Excited State  51:      Singlet-B1    14.1453 eV   87.65 nm  f=0.0072  <S**2>=0.000
       7 -> 14        -0.23928
       7 -> 20        -0.10464
       9 -> 22         0.22503
       9 -> 23         0.13825
      10 -> 27         0.11594
      11 -> 22        -0.12933
      12 -> 26         0.33371
      12 -> 29         0.18733
      13 -> 28         0.34626

 Excited State  52:      Singlet-A2    14.2413 eV   87.06 nm  f=0.0000  <S**2>=0.000
       8 -> 22        -0.12054
       8 -> 23        -0.13046
       9 -> 19         0.40347
      10 -> 18         0.12210
      11 -> 26         0.28931
      11 -> 29         0.10872
      12 -> 23        -0.24511
      13 -> 25        -0.16108
      13 -> 27         0.23769

 Excited State  53:      Singlet-A1    14.2904 eV   86.76 nm  f=0.0117  <S**2>=0.000
       8 -> 14        -0.17531
       8 -> 16        -0.13005
       8 -> 18         0.22066
       8 -> 20        -0.15935
      11 -> 21        -0.12612
      11 -> 25         0.10496
      11 -> 27         0.47663
      12 -> 28         0.12175
      13 -> 26        -0.15659
      13 -> 29         0.11378

 Excited State  54:      Singlet-B2    14.3334 eV   86.50 nm  f=0.0052  <S**2>=0.000
       8 -> 15         0.50486
       8 -> 25        -0.11424
       9 -> 14        -0.15455
       9 -> 20         0.16202
       9 -> 24         0.10807
      11 -> 28        -0.17549
      11 -> 31        -0.11492
      12 -> 25         0.13808
      12 -> 27        -0.18039
      12 -> 30        -0.14466

 Excited State  55:      Singlet-A1    14.3649 eV   86.31 nm  f=0.1412  <S**2>=0.000
       8 -> 14        -0.15186
       8 -> 16         0.37151
       9 -> 21        -0.10808
      10 -> 22         0.10140
      10 -> 23         0.11730
      11 -> 21         0.16661
      11 -> 27         0.12609
      12 -> 24         0.27518
      12 -> 28         0.11453
      13 -> 26         0.21390
      13 -> 29         0.27590

 Excited State  56:      Singlet-B1    14.3706 eV   86.28 nm  f=0.0333  <S**2>=0.000
       8 -> 17        -0.18523
       9 -> 22         0.28829
       9 -> 23        -0.12235
      11 -> 22        -0.15627
      12 -> 26         0.35309
      12 -> 29        -0.29284
      13 -> 28        -0.27593

 Excited State  57:      Singlet-A2    14.3803 eV   86.22 nm  f=0.0000  <S**2>=0.000
       7 -> 15         0.13860
       9 -> 19         0.17992
      10 -> 18        -0.25110
      10 -> 20        -0.11467
      11 -> 26         0.15159
      11 -> 29         0.17147
      12 -> 23        -0.11163
      13 -> 25         0.37725
      13 -> 27        -0.33761

 Excited State  58:      Singlet-B1    14.4455 eV   85.83 nm  f=0.0412  <S**2>=0.000
       7 -> 16        -0.23131
       7 -> 18         0.18423
      10 -> 21         0.46188
      13 -> 20         0.13861
      13 -> 24        -0.35367

 Excited State  59:      Singlet-A1    14.4520 eV   85.79 nm  f=0.2875  <S**2>=0.000
       7 -> 19        -0.11178
       8 -> 16        -0.32107
       8 -> 20         0.16813
      10 -> 23         0.28989
      11 -> 27        -0.12336
      12 -> 24        -0.10936
      13 -> 26         0.12487
      13 -> 29         0.41695

 Excited State  60:      Singlet-A2    14.6733 eV   84.50 nm  f=0.0000  <S**2>=0.000
       8 -> 22        -0.11711
       9 -> 17        -0.11668
       9 -> 19        -0.37260
      11 -> 26         0.49464
      11 -> 29         0.15628
      12 -> 23         0.15117

 Excited State  61:      Singlet-B2    14.7251 eV   84.20 nm  f=0.0940  <S**2>=0.000
       8 -> 15        -0.27729
       9 -> 18         0.10425
       9 -> 20         0.33369
       9 -> 24         0.20531
      11 -> 28        -0.25491
      11 -> 31        -0.12982
      12 -> 25        -0.24714
      12 -> 27        -0.12165
      12 -> 30        -0.16681

 Excited State  62:      Singlet-A1    14.7565 eV   84.02 nm  f=0.0108  <S**2>=0.000
       8 -> 16        -0.29618
      10 -> 22         0.12403
      11 -> 25        -0.29021
      12 -> 24         0.17105
      12 -> 28         0.21137
      13 -> 19        -0.10239
      13 -> 26         0.32649
      13 -> 29        -0.23943

 Excited State  63:      Singlet-A2    14.7656 eV   83.97 nm  f=0.0000  <S**2>=0.000
       8 -> 22         0.10772
       8 -> 23        -0.11383
      11 -> 26        -0.23497
      11 -> 29         0.60140

 Excited State  64:      Singlet-A1    14.8169 eV   83.68 nm  f=0.0001  <S**2>=0.000
      11 -> 27        -0.23194
      12 -> 28         0.55996
      12 -> 31         0.12448
      13 -> 26        -0.17512

 Excited State  65:      Singlet-B2    14.8798 eV   83.32 nm  f=0.0564  <S**2>=0.000
       8 -> 15         0.18100
       9 -> 18         0.31934
      10 -> 19        -0.11873
      11 -> 28        -0.11976
      12 -> 25        -0.24693
      12 -> 27         0.46366

 Excited State  66:      Singlet-B1    14.9689 eV   82.83 nm  f=0.0185  <S**2>=0.000
       7 -> 16         0.28655
       8 -> 17         0.37099
       9 -> 23         0.10045
      10 -> 25        -0.30388
      11 -> 22         0.14577
      12 -> 26         0.20067
      13 -> 28        -0.19364

 Excited State  67:      Singlet-B1    15.0137 eV   82.58 nm  f=0.1137  <S**2>=0.000
       7 -> 16         0.41280
       8 -> 17        -0.28608
      10 -> 21         0.21997
      10 -> 25        -0.15327
      10 -> 27        -0.10636
      11 -> 22        -0.12663
      12 -> 26        -0.22614
      12 -> 29        -0.12077
      13 -> 28         0.12999
      13 -> 31         0.13835

 Excited State  68:      Singlet-A2    15.0198 eV   82.55 nm  f=0.0000  <S**2>=0.000
       7 -> 15         0.60215
       7 -> 25        -0.12658
      10 -> 14        -0.11817
      10 -> 18         0.14441
      13 -> 27         0.16166
      13 -> 30        -0.10208

 Excited State  69:      Singlet-B1    15.0564 eV   82.35 nm  f=0.1843  <S**2>=0.000
       7 -> 14        -0.10565
       8 -> 17        -0.28927
       9 -> 23         0.10809
      10 -> 25        -0.16821
      12 -> 29         0.40469
      13 -> 28        -0.38315

 Excited State  70:      Singlet-A1    15.1181 eV   82.01 nm  f=0.0036  <S**2>=0.000
       7 -> 17        -0.10373
       7 -> 19        -0.16723
      10 -> 23         0.51396
      13 -> 26        -0.22841
      13 -> 29        -0.29305

 Excited State  71:      Singlet-A1    15.1684 eV   81.74 nm  f=0.0175  <S**2>=0.000
       7 -> 17         0.21747
       8 -> 16         0.18871
       8 -> 18         0.18476
       9 -> 21         0.34926
      10 -> 22        -0.21619
      11 -> 25         0.13529
      11 -> 27        -0.11065
      12 -> 24        -0.16371
      13 -> 26         0.26912
      13 -> 29        -0.14051

 Excited State  72:      Singlet-A2    15.1705 eV   81.73 nm  f=0.0000  <S**2>=0.000
       7 -> 21        -0.16589
      10 -> 16        -0.10389
      10 -> 20        -0.21291
      10 -> 24         0.54437
      10 -> 31         0.10354
      13 -> 21        -0.12318
      13 -> 27         0.16740
      13 -> 34         0.11744

 Excited State  73:      Singlet-B2    15.2617 eV   81.24 nm  f=0.3168  <S**2>=0.000
       8 -> 15         0.11437
       9 -> 18         0.14730
       9 -> 20         0.17563
       9 -> 24         0.17679
      11 -> 28         0.55254
      12 -> 25        -0.18283

 Excited State  74:      Singlet-B1    15.2849 eV   81.12 nm  f=0.0010  <S**2>=0.000
       7 -> 16         0.22052
       7 -> 18        -0.14154
       8 -> 17         0.12061
       8 -> 19         0.21030
       9 -> 23        -0.29719
      10 -> 21         0.17543
      10 -> 25         0.22344
      10 -> 27        -0.10482
      12 -> 26         0.19706
      12 -> 29         0.31735

 Excited State  75:      Singlet-A1    15.3918 eV   80.55 nm  f=0.0367  <S**2>=0.000
       8 -> 18         0.13393
       8 -> 20         0.12950
       9 -> 21         0.33348
       9 -> 25        -0.18419
      10 -> 22         0.47508
      13 -> 26        -0.14228

 Excited State  76:      Singlet-B1    15.5309 eV   79.83 nm  f=0.2770  <S**2>=0.000
       7 -> 16         0.19309
       7 -> 20        -0.17700
       8 -> 19        -0.26952

 The electronic state is 1-A1.
 Alpha  occ. eigenvalues --  -10.14559 -10.13807 -10.13802  -0.94793  -0.83717
 Alpha  occ. eigenvalues --   -0.73242  -0.60078  -0.57706  -0.53246  -0.51109
 Alpha  occ. eigenvalues --   -0.46451  -0.46231  -0.44995
 Alpha virt. eigenvalues --    0.08232   0.10765   0.11630   0.15003   0.16524
 Alpha virt. eigenvalues --    0.18174   0.19112   0.19551   0.20857   0.22884
 Alpha virt. eigenvalues --    0.23323   0.24305   0.25865   0.26767   0.27996

 Mulliken charges:
               1
     1  C    0.589580
     2  C   -0.339583
     3  C    0.589580
     4  H   -0.114136
     5  H   -0.077677
     6  H   -0.077677
     7  H   -0.150300
     8  H   -0.150300
     9  H   -0.077677
    10  H   -0.114136
    11  H   -0.077677
 Sum of Mulliken charges =  -0.00000

 Dipole moment (field-independent basis, Debye):
    X=              0.0000    Y=             -0.0000    Z=              0.0818  Tot=              0.0818
 Quadrupole moment (field-independent basis, Debye-Ang):
   XX=            -21.6651   YY=            -22.5204   ZZ=            -22.1696
   XY=              0.0000   XZ=              0.0000   YZ=             -0.0000

 Normal termination of Gaussian 16 at Mon Mar 21 20:16:45 2022.
