 Gaussian 16, Revision C.01,
 Gaussian 16:  EM64L-G16RevC.01  3-Jul-2019

 ----------------------------------------------------------------------
 #P TD(Nstates=10000) lc-blyp/Gen SCF(maxcycles=100) Int(Grid=ultrafine
 )
 ----------------------------------------------------------------------

 ---------------------
 xGDB7_00001_tier4.com
 ---------------------
 Symbolic Z-matrix:
 Charge =  0 Multiplicity = 1

                         Standard orientation:
 ---------------------------------------------------------------------
 Center     Atomic      Atomic             Coordinates (Angstroms)
 Number     Number       Type             X           Y           Z
 ---------------------------------------------------------------------
      1          6           0       -0.026655   -0.220923    1.206915
      2          7           0       -0.026655    0.579675   -0.000000
      3          6           0       -0.026655   -0.220923   -1.206915
      4          1           0        0.028929    0.427196    2.082330
      5          1           0        0.800836   -0.947383    1.258571
      6          1           0       -0.961718   -0.783094    1.269367
      7          1           0        0.770359    1.199905   -0.000000
      8          1           0       -0.961718   -0.783094   -1.269367
      9          1           0        0.800836   -0.947383   -1.258571
     10          1           0        0.028929    0.427196   -2.082330
 ---------------------------------------------------------------------

 SCF Done:  E(RLC-B+HF-LYP) =  -134.677104007     A.U. after   13 cycles

 Excitation energies and oscillator strengths:

 Excited State   1:      Singlet-A'     6.4036 eV  193.62 nm  f=0.0005  <S**2>=0.000
      13 -> 14         0.61261
      13 -> 16         0.31973
 This state for optimization and/or second-order correction.
 Total Energy, E(TD-HF/TD-DFT) =  -134.441774886
 Copying the excited state density for this state as the 1-particle RhoCI density.

 Excited State   2:      Singlet-A'     7.7101 eV  160.81 nm  f=0.0505  <S**2>=0.000
      13 -> 14        -0.30348
      13 -> 16         0.60542
      13 -> 18        -0.12232

 Excited State   3:      Singlet-A"     7.8116 eV  158.72 nm  f=0.0027  <S**2>=0.000
      13 -> 15         0.68396

 Excited State   4:      Singlet-A'     8.6389 eV  143.52 nm  f=0.0367  <S**2>=0.000
      13 -> 17         0.53330
      13 -> 18        -0.37959
      13 -> 20         0.20667

 Excited State   5:      Singlet-A'     8.7501 eV  141.69 nm  f=0.0827  <S**2>=0.000
      13 -> 14        -0.11656
      13 -> 17         0.38389
      13 -> 18         0.52660
      13 -> 22        -0.14944

 Excited State   6:      Singlet-A'     9.3616 eV  132.44 nm  f=0.0184  <S**2>=0.000
      13 -> 17        -0.21510
      13 -> 20         0.60258
      13 -> 22        -0.23594

 Excited State   7:      Singlet-A"     9.5982 eV  129.17 nm  f=0.0232  <S**2>=0.000
      13 -> 19         0.66860

 Excited State   8:      Singlet-A'     9.8046 eV  126.46 nm  f=0.0063  <S**2>=0.000
      13 -> 18         0.15813
      13 -> 20         0.23711
      13 -> 22         0.62051

 Excited State   9:      Singlet-A"    10.2718 eV  120.70 nm  f=0.0076  <S**2>=0.000
      11 -> 15        -0.13219
      12 -> 14        -0.37978
      13 -> 21         0.46566
      13 -> 23        -0.27143

 Excited State  10:      Singlet-A'    10.3859 eV  119.38 nm  f=0.0321  <S**2>=0.000
      10 -> 15         0.10368
      11 -> 14         0.61729
      11 -> 16         0.14400
      12 -> 15         0.22119

 Excited State  11:      Singlet-A"    10.4009 eV  119.21 nm  f=0.0807  <S**2>=0.000
      11 -> 15         0.14430
      12 -> 14         0.46396
      13 -> 21         0.17921
      13 -> 23        -0.42036

 Excited State  12:      Singlet-A"    10.5034 eV  118.04 nm  f=0.0531  <S**2>=0.000
      12 -> 14         0.21330
      13 -> 21         0.47039
      13 -> 23         0.44124

 Excited State  13:      Singlet-A'    10.8154 eV  114.64 nm  f=0.0007  <S**2>=0.000
      13 -> 20         0.10000
      13 -> 24         0.66133

 Excited State  14:      Singlet-A"    10.8763 eV  113.99 nm  f=0.0015  <S**2>=0.000
      10 -> 14         0.50366
      10 -> 18         0.11798
      11 -> 15         0.22982
      13 -> 25         0.29327
      13 -> 26        -0.15498

 Excited State  15:      Singlet-A"    11.0946 eV  111.75 nm  f=0.0502  <S**2>=0.000
      10 -> 14        -0.27942
      11 -> 15        -0.11898
      13 -> 25         0.59108

 Excited State  16:      Singlet-A'    11.3523 eV  109.22 nm  f=0.1306  <S**2>=0.000
       7 -> 14         0.10344
       8 -> 14         0.11801
      11 -> 16        -0.44906
      11 -> 18        -0.11125
      12 -> 15         0.45284
      13 -> 27        -0.11186

 Excited State  17:      Singlet-A"    11.3971 eV  108.79 nm  f=0.0297  <S**2>=0.000
      11 -> 15         0.21027
      12 -> 16        -0.11789
      13 -> 26         0.55812
      13 -> 30        -0.18695

 Excited State  18:      Singlet-A"    11.5633 eV  107.22 nm  f=0.0079  <S**2>=0.000
       9 -> 14         0.14312
      10 -> 14         0.24416
      11 -> 15        -0.29134
      12 -> 16         0.45407
      12 -> 18         0.16764
      13 -> 26         0.20755

 Excited State  19:      Singlet-A'    11.6431 eV  106.49 nm  f=0.1489  <S**2>=0.000
       8 -> 14         0.21346
      10 -> 15        -0.29429
      11 -> 14        -0.18775
      11 -> 16         0.40336
      12 -> 15         0.33749

 Excited State  20:      Singlet-A"    11.9064 eV  104.13 nm  f=0.0044  <S**2>=0.000
       9 -> 14        -0.16042
      10 -> 14        -0.14774
      11 -> 15         0.35303
      12 -> 14        -0.18602
      12 -> 16         0.45787
      12 -> 18        -0.14181

 Excited State  21:      Singlet-A'    12.2229 eV  101.44 nm  f=0.0174  <S**2>=0.000
       8 -> 14         0.15179
      10 -> 15        -0.34425
      11 -> 16        -0.16303
      11 -> 17        -0.18851
      11 -> 18         0.20813
      13 -> 27         0.43587

 Excited State  22:      Singlet-A'    12.2332 eV  101.35 nm  f=0.0072  <S**2>=0.000
      10 -> 15         0.28419
      11 -> 14        -0.12288
      11 -> 16         0.17491
      11 -> 18        -0.19972
      11 -> 22         0.10224
      12 -> 15         0.18541
      13 -> 27         0.36864
      13 -> 28        -0.28508

 Excited State  23:      Singlet-A"    12.3946 eV  100.03 nm  f=0.0000  <S**2>=0.000
       9 -> 14        -0.22483
       9 -> 16        -0.10614
      10 -> 16         0.47696
      11 -> 19        -0.21228
      12 -> 18         0.24058
      12 -> 20         0.10998

 Excited State  24:      Singlet-A"    12.4411 eV   99.66 nm  f=0.0925  <S**2>=0.000
       9 -> 14        -0.13456
      10 -> 16        -0.31895
      11 -> 21        -0.13345
      12 -> 17         0.37242
      12 -> 18         0.37458

 Excited State  25:      Singlet-A'    12.4625 eV   99.49 nm  f=0.0427  <S**2>=0.000
      11 -> 17         0.55287
      12 -> 21        -0.17488
      13 -> 27         0.22599
      13 -> 28         0.22445

 Excited State  26:      Singlet-A"    12.4699 eV   99.43 nm  f=0.1900  <S**2>=0.000
       9 -> 14         0.11535
      10 -> 16         0.16833
      11 -> 19        -0.10765
      11 -> 21        -0.11440
      12 -> 17         0.51735
      12 -> 18        -0.30548

 Excited State  27:      Singlet-A'    12.7132 eV   97.52 nm  f=0.0877  <S**2>=0.000
      10 -> 15         0.29013
      11 -> 14        -0.13820
      11 -> 17        -0.24065
      11 -> 18         0.21675
      11 -> 20        -0.10057
      12 -> 15         0.11743
      13 -> 27         0.10037
      13 -> 28         0.40094

 Excited State  28:      Singlet-A'    12.7653 eV   97.13 nm  f=0.0789  <S**2>=0.000
       9 -> 15         0.18375
      11 -> 17         0.11952
      11 -> 18         0.49247
      12 -> 15         0.10111
      12 -> 21        -0.10114
      13 -> 27        -0.13259
      13 -> 28        -0.32014

 Excited State  29:      Singlet-A"    12.8114 eV   96.78 nm  f=0.0853  <S**2>=0.000
       8 -> 15        -0.12344
       9 -> 14         0.38964
       9 -> 16         0.16673
      10 -> 16         0.11417
      10 -> 18        -0.21124
      10 -> 20        -0.21893
      11 -> 15         0.18217
      12 -> 18         0.18502
      13 -> 30        -0.22556

 Excited State  30:      Singlet-A"    12.8920 eV   96.17 nm  f=0.0640  <S**2>=0.000
       9 -> 14         0.18049
      10 -> 14        -0.10611
      10 -> 16         0.10714
      10 -> 17         0.21384
      10 -> 20         0.17973
      11 -> 15         0.13992
      12 -> 18         0.18001
      12 -> 20        -0.30261
      13 -> 26         0.13711
      13 -> 30         0.34141

 Excited State  31:      Singlet-A"    13.1229 eV   94.48 nm  f=0.0133  <S**2>=0.000
       8 -> 15        -0.10241
       9 -> 14         0.18384
      10 -> 17         0.36002
      11 -> 19        -0.15688
      11 -> 21        -0.13721
      12 -> 17        -0.11543
      12 -> 18        -0.10455
      12 -> 20         0.35043
      12 -> 22        -0.27034

 Excited State  32:      Singlet-A'    13.1260 eV   94.46 nm  f=0.0529  <S**2>=0.000
       8 -> 14         0.12218
       8 -> 16         0.14189
      11 -> 20         0.46572
      11 -> 22        -0.23885
      12 -> 19        -0.22383
      12 -> 25         0.12805
      13 -> 29        -0.13572

 Excited State  33:      Singlet-A'    13.1546 eV   94.25 nm  f=0.0305  <S**2>=0.000
       8 -> 14         0.38410
       8 -> 16         0.24388
      10 -> 19         0.13081
      11 -> 20        -0.30714
      12 -> 15        -0.14043
      12 -> 19        -0.20994
      13 -> 28        -0.12869

 Excited State  34:      Singlet-A"    13.2153 eV   93.82 nm  f=0.1580  <S**2>=0.000
       9 -> 16         0.25231
      10 -> 14        -0.11597
      10 -> 16         0.11927
      10 -> 17        -0.13284
      10 -> 18         0.36347
      11 -> 15         0.13480
      11 -> 19         0.27129
      11 -> 25         0.10466
      12 -> 20         0.22752
      12 -> 22        -0.10460
      13 -> 26         0.12122
      13 -> 30         0.14114

 Excited State  35:      Singlet-A'    13.2553 eV   93.54 nm  f=0.1047  <S**2>=0.000
      11 -> 20         0.20217
      11 -> 22         0.22634
      12 -> 23         0.15576
      13 -> 28        -0.13806
      13 -> 29         0.54272

 Excited State  36:      Singlet-A"    13.2783 eV   93.37 nm  f=0.0001  <S**2>=0.000
       8 -> 15         0.11007
      10 -> 17         0.22905
      10 -> 18         0.34560
      10 -> 20        -0.16468
      11 -> 21        -0.14659
      12 -> 20        -0.32797
      12 -> 22        -0.14524
      13 -> 30        -0.23668

 Excited State  37:      Singlet-A"    13.4338 eV   92.29 nm  f=0.0176  <S**2>=0.000
       9 -> 14        -0.26646
       9 -> 16         0.26568
      10 -> 16         0.13664
      10 -> 17         0.30856
      10 -> 20        -0.11744
      10 -> 22         0.14580
      11 -> 15        -0.15235
      11 -> 19         0.26820
      11 -> 25        -0.15006
      12 -> 22         0.17997

 Excited State  38:      Singlet-A'    13.4656 eV   92.07 nm  f=0.0923  <S**2>=0.000
       9 -> 15         0.15541
      10 -> 19         0.12981
      10 -> 21         0.11068
      11 -> 20         0.15261
      11 -> 22         0.43708
      12 -> 23         0.14479
      12 -> 25        -0.10888
      13 -> 29        -0.32824

 Excited State  39:      Singlet-A"    13.5155 eV   91.73 nm  f=0.0208  <S**2>=0.000
       9 -> 14         0.11350
      10 -> 17         0.12420
      10 -> 18         0.17810
      10 -> 20         0.28430
      10 -> 24        -0.10720
      11 -> 19        -0.10936
      11 -> 23         0.12612
      12 -> 20         0.20024
      12 -> 22         0.33925
      12 -> 24        -0.11073
      13 -> 26        -0.11906
      13 -> 30        -0.19428

 Excited State  40:      Singlet-A'    13.5524 eV   91.48 nm  f=0.0573  <S**2>=0.000
       8 -> 14         0.32737
       8 -> 16        -0.13092
       8 -> 18         0.20194
       9 -> 15        -0.11200
      10 -> 15         0.16884
      11 -> 20         0.10127
      12 -> 19         0.45236

 Excited State  41:      Singlet-A'    13.7861 eV   89.93 nm  f=0.0179  <S**2>=0.000
       7 -> 16        -0.16242
       8 -> 16         0.12465
       8 -> 17         0.11006
       8 -> 18        -0.15039
      10 -> 19         0.39047
      11 -> 20         0.12009
      11 -> 24         0.19074
      12 -> 23        -0.22665
      13 -> 31         0.17860
      13 -> 34         0.14096

 Excited State  42:      Singlet-A"    13.7888 eV   89.92 nm  f=0.0392  <S**2>=0.000
       9 -> 16         0.25779
      10 -> 18        -0.17370
      10 -> 20         0.40141
      10 -> 22        -0.18663
      11 -> 21        -0.17448
      11 -> 23        -0.17724
      12 -> 22        -0.20477
      13 -> 30        -0.10720

 Excited State  43:      Singlet-A'    13.8293 eV   89.65 nm  f=0.0353  <S**2>=0.000
       7 -> 17        -0.11357
       8 -> 17        -0.18289
      11 -> 17         0.15428
      11 -> 18         0.10588
      12 -> 21         0.52890
      12 -> 23        -0.17260
      13 -> 34         0.10316

 Excited State  44:      Singlet-A"    13.9432 eV   88.92 nm  f=0.0070  <S**2>=0.000
       9 -> 17         0.38169
       9 -> 18         0.10313
      10 -> 17         0.19072
      11 -> 19         0.10018
      11 -> 21         0.39743
      11 -> 23        -0.19234
      12 -> 17         0.12044
      12 -> 22        -0.13133

 Excited State  45:      Singlet-A'    14.0110 eV   88.49 nm  f=0.1304  <S**2>=0.000
      10 -> 19        -0.13630
      12 -> 23         0.19309
      13 -> 29        -0.15353
      13 -> 31         0.46625
      13 -> 34         0.29194

 Excited State  46:      Singlet-A"    14.0993 eV   87.94 nm  f=0.0050  <S**2>=0.000
       9 -> 16        -0.19560
       9 -> 18        -0.22667
      10 -> 20         0.19588
      10 -> 22         0.26711
      11 -> 19         0.20064
      11 -> 23         0.34112
      12 -> 22        -0.20429
      13 -> 30        -0.10629

 Excited State  47:      Singlet-A'    14.1309 eV   87.74 nm  f=0.1691  <S**2>=0.000
       8 -> 14         0.10143
       8 -> 18         0.10317
       9 -> 15         0.56710
      11 -> 14         0.11140
      11 -> 18        -0.16574
      11 -> 24         0.10531
      12 -> 25         0.10361

 Excited State  48:      Singlet-A"    14.2352 eV   87.10 nm  f=0.0495  <S**2>=0.000
       8 -> 15         0.13739
       9 -> 16         0.32988
       9 -> 18         0.11145
      10 -> 17        -0.12020
      10 -> 22         0.31341
      11 -> 19        -0.29092
      11 -> 21         0.12451
      11 -> 25        -0.15073
      12 -> 22        -0.22493

 Excited State  49:      Singlet-A'    14.2370 eV   87.09 nm  f=0.0725  <S**2>=0.000
       7 -> 14         0.12462
       7 -> 18         0.11522
       8 -> 14        -0.24515
       8 -> 16         0.23693
       9 -> 19         0.11177
      10 -> 15        -0.15877
      10 -> 19         0.16301
      11 -> 18        -0.11515
      11 -> 22        -0.17535
      12 -> 19         0.21405
      12 -> 21         0.11757
      12 -> 23         0.30017
      13 -> 34        -0.10653

 Excited State  50:      Singlet-A"    14.4321 eV   85.91 nm  f=0.0002  <S**2>=0.000
       8 -> 15         0.15527
       9 -> 16        -0.26600
       9 -> 17        -0.14989
       9 -> 18         0.38978
       9 -> 22        -0.10764
      10 -> 22         0.15145
      11 -> 19         0.16586
      11 -> 23        -0.20847
      11 -> 25        -0.22162

 Excited State  51:      Singlet-A'    14.4914 eV   85.56 nm  f=0.0372  <S**2>=0.000
       7 -> 14         0.49518
       7 -> 16         0.14587
       7 -> 18         0.15002
      10 -> 23         0.10999
      11 -> 22         0.16854
      12 -> 21        -0.12268
      12 -> 23        -0.12571
      12 -> 25         0.18736
      13 -> 31        -0.13721

 Excited State  52:      Singlet-A"    14.5817 eV   85.03 nm  f=0.0187  <S**2>=0.000
       8 -> 19         0.12047
      11 -> 26         0.12842
      12 -> 24         0.51605
      13 -> 30         0.11114
      13 -> 33        -0.23949
      13 -> 35        -0.13338

 Excited State  53:      Singlet-A'    14.5871 eV   85.00 nm  f=0.0126  <S**2>=0.000
       8 -> 16        -0.20030
       8 -> 17         0.14018
       8 -> 18         0.10725
       8 -> 20         0.17474
       9 -> 15        -0.11730
      10 -> 21         0.33929
      10 -> 23        -0.12363
      12 -> 19        -0.14955
      12 -> 25         0.26161
      12 -> 26         0.14757
      13 -> 32         0.14184

 Excited State  54:      Singlet-A'    14.6533 eV   84.61 nm  f=0.2488  <S**2>=0.000
       8 -> 16        -0.14759
      10 -> 21         0.17748
      11 -> 22        -0.10392
      11 -> 24         0.12450
      12 -> 23         0.19125
      12 -> 25        -0.10242
      13 -> 31        -0.34306
      13 -> 34         0.35326

 Excited State  55:      Singlet-A"    14.6808 eV   84.45 nm  f=0.0013  <S**2>=0.000
       8 -> 15         0.39274
       9 -> 20         0.15414
      10 -> 20        -0.11186
      11 -> 26        -0.12555
      12 -> 24        -0.12998
      13 -> 30         0.23445
      13 -> 33        -0.31825
      13 -> 35        -0.12714

 Excited State  56:      Singlet-A'    14.7711 eV   83.94 nm  f=0.0892  <S**2>=0.000
       7 -> 14        -0.19942
       8 -> 14        -0.14223
       8 -> 16         0.13496
       8 -> 18         0.16935
      10 -> 19        -0.11480
      11 -> 24        -0.21105
      12 -> 23        -0.12103
      12 -> 25         0.28633
      13 -> 31        -0.14129
      13 -> 32        -0.27312
      13 -> 34         0.15892

 Excited State  57:      Singlet-A'    14.8307 eV   83.60 nm  f=0.0189  <S**2>=0.000
       8 -> 16         0.11008
      11 -> 24        -0.14468
      13 -> 32         0.53674
      13 -> 34         0.19378
      13 -> 36         0.11670
      13 -> 41        -0.16823

 Excited State  58:      Singlet-A"    14.8685 eV   83.39 nm  f=0.0069  <S**2>=0.000
       8 -> 15         0.38394
       9 -> 17         0.23917
       9 -> 22         0.18338
      10 -> 14         0.10370
      10 -> 24         0.13943
      11 -> 21        -0.19321
      11 -> 25         0.15911
      12 -> 22         0.10951
      12 -> 24         0.14921
      13 -> 33         0.25198

 Excited State  59:      Singlet-A"    14.9324 eV   83.03 nm  f=0.1031  <S**2>=0.000
       8 -> 15        -0.13257
       9 -> 17         0.37318
       9 -> 18         0.17278
       9 -> 20         0.27634
      10 -> 17        -0.13752
      11 -> 21        -0.22403
      11 -> 23         0.12516
      11 -> 25        -0.22321
      11 -> 26        -0.16513

 Excited State  60:      Singlet-A'    14.9441 eV   82.97 nm  f=0.0165  <S**2>=0.000
       8 -> 16         0.38283
       8 -> 17         0.10334
       8 -> 22         0.12139
      10 -> 19        -0.29125
      10 -> 23        -0.13184
      11 -> 24         0.24012
      12 -> 26         0.23508

 Excited State  61:      Singlet-A"    15.0271 eV   82.51 nm  f=0.1296  <S**2>=0.000
       8 -> 15         0.11083
       8 -> 19         0.11182
       9 -> 17        -0.14967
       9 -> 20         0.17680
       9 -> 22        -0.21445
      10 -> 22        -0.25718
      11 -> 21         0.19893
      11 -> 25        -0.17545
      12 -> 24         0.23210
      13 -> 33         0.29023

 Excited State  62:      Singlet-A"    15.0733 eV   82.25 nm  f=0.1102  <S**2>=0.000
       9 -> 17        -0.12015
       9 -> 18        -0.17105
       9 -> 20         0.34613
       9 -> 22         0.12098
      10 -> 22         0.26892
      10 -> 24        -0.14702
      11 -> 23        -0.32406
      11 -> 26        -0.18640
      12 -> 24         0.10588

 Excited State  63:      Singlet-A'    15.1519 eV   81.83 nm  f=0.1014  <S**2>=0.000
       7 -> 14         0.10178
       7 -> 18        -0.10723
       8 -> 16        -0.10828
       8 -> 18         0.26133
       9 -> 23        -0.12137
      10 -> 21        -0.22452
      10 -> 23        -0.28255
      10 -> 25        -0.12693
      11 -> 24         0.29274
      13 -> 37        -0.13427

 Excited State  64:      Singlet-A'    15.1862 eV   81.64 nm  f=0.1690  <S**2>=0.000
       7 -> 14        -0.18756
       7 -> 16         0.13595
       8 -> 17        -0.15997
       8 -> 22        -0.11509
      10 -> 21        -0.20389
      10 -> 23         0.26590
      11 -> 24         0.21189
      12 -> 23         0.18592
      12 -> 25         0.23551
      12 -> 26         0.15387
      13 -> 37        -0.15444
      13 -> 38         0.14733

 Excited State  65:      Singlet-A'    15.3091 eV   80.99 nm  f=0.0899  <S**2>=0.000
       8 -> 17         0.24232
       8 -> 20         0.24336
       8 -> 22         0.10105
       9 -> 19         0.12329
      10 -> 21        -0.25088
      11 -> 24        -0.18837
      11 -> 27        -0.16928
      12 -> 26         0.31131
      13 -> 36         0.10084

 Excited State  66:      Singlet-A"    15.4111 eV   80.45 nm  f=0.3123  <S**2>=0.000
       7 -> 15        -0.30147
       9 -> 20         0.27197
      10 -> 24         0.40668
      11 -> 26         0.13254
      11 -> 30        -0.11460
      13 -> 33        -0.13877

 Excited State  67:      Singlet-A'    15.4365 eV   80.32 nm  f=0.0031  <S**2>=0.000
       8 -> 17         0.36766
       8 -> 18         0.10138
       8 -> 20        -0.23175
      10 -> 23         0.24514
      12 -> 26        -0.10011
      13 -> 34        -0.18306
      13 -> 36         0.31427
      13 -> 38        -0.14879

 Excited State  68:      Singlet-A"    15.4633 eV   80.18 nm  f=0.0403  <S**2>=0.000
       7 -> 15         0.11023

 The electronic state is 1-A'.
 Alpha  occ. eigenvalues --  -14.23150 -10.16726 -10.16723  -1.06135  -0.85819
 Alpha  occ. eigenvalues --   -0.77664  -0.63349  -0.58727  -0.57345  -0.51838
 Alpha  occ. eigenvalues --   -0.49359  -0.49124  -0.34788
 Alpha virt. eigenvalues --    0.08139   0.10744   0.12932   0.16166   0.17027
 Alpha virt. eigenvalues --    0.19276   0.19411   0.20837   0.21047   0.23564
 Alpha virt. eigenvalues --    0.24349   0.25532   0.27206   0.28864   0.32726

 Mulliken charges:
               1
     1  C    0.812166
     2  N   -0.607735
     3  C    0.812166
     4  H   -0.264221
     5  H   -0.055532
     6  H   -0.150049
     7  H   -0.076994
     8  H   -0.150049
     9  H   -0.055532
    10  H   -0.264221
 Sum of Mulliken charges =  -0.00000

 Dipole moment (field-independent basis, Debye):
    X=              0.9927    Y=             -0.4580    Z=             -0.0000  Tot=              1.0933
 Quadrupole moment (field-independent basis, Debye-Ang):
   XX=            -21.1241   YY=            -21.7263   ZZ=            -20.0459
   XY=              2.1215   XZ=              0.0000   YZ=             -0.0000

 1\1\GINC-HEL13\SP\RLC-BLYP TD-FC\Gen\C2H7N1\SABYASACHI\21-Mar-2022\0\\
 #P TD(Nstates=10000) lc-blyp/Gen SCF(maxcycles=100) Int(Grid=ultrafine
 )\\xGDB7_00001_tier4.com\\0,1\C,0,-0.026655,-0.220923,1.206915\N,0,-0.
 026655,0.579675,0.\C,0,-0.026655,-0.220923,-1.206915\H,0,0.028929,0.42
 7196,2.08233\H,0,0.800836,-0.947383,1.258571\H,0,-0.961718,-0.783094,1
 .269367\H,0,0.770359,1.199905,0.\H,0,-0.961718,-0.783094,-1.269367\H,0
 ,0.800836,-0.947383,-1.258571\H,0,0.028929,0.427196,-2.08233\\Version=
 EM64L-G16RevC.01\State=1-A'\HF=-134.677104\RMSD=3.288e-09\PG=CS [SG(H1

 Normal termination of Gaussian 16 at Mon Mar 21 04:11:34 2022.
