 Gaussian 16, Revision C.01,
 Gaussian 16:  EM64L-G16RevC.01  3-Jul-2019

 ----------------------------------------------------------------------
 #P TD(Nstates=10000) lc-blyp/Gen SCF(maxcycles=100) Int(Grid=ultrafine
 )
 ----------------------------------------------------------------------

 ---------------------
 xGDB7_00001_tier4.com
 ---------------------
 Symbolic Z-matrix:
 Charge =  0 Multiplicity = 1

                         Standard orientation:
 ---------------------------------------------------------------------
 Center     Atomic      Atomic             Coordinates (Angstroms)
 Number     Number       Type             X           Y           Z
 ---------------------------------------------------------------------
      1          6           0        0.630149   -0.000001   -0.000003
      2          9           0       -0.748512    0.000002    0.000001
      3          1           0        0.985250    0.897475   -0.509314
      4          1           0        0.985222   -0.889832   -0.522562
      5          1           0        0.985245   -0.007652    1.031883
 ---------------------------------------------------------------------

 SCF Done:  E(RLC-B+HF-LYP) =  -139.364764557     A.U. after   11 cycles

 Excitation energies and oscillator strengths:

 Excited State   1:      Singlet-A      9.6519 eV  128.46 nm  f=0.0125  <S**2>=0.000
       9 -> 10         0.54785
       9 -> 11        -0.40537
       9 -> 14         0.12160
 This state for optimization and/or second-order correction.
 Total Energy, E(TD-HF/TD-DFT) =  -139.010065044
 Copying the excited state density for this state as the 1-particle RhoCI density.

 Excited State   2:      Singlet-A      9.6519 eV  128.46 nm  f=0.0125  <S**2>=0.000
       8 -> 10         0.54784
       8 -> 11        -0.40537
       8 -> 14         0.12160

 Excited State   3:      Singlet-A     10.3939 eV  119.29 nm  f=0.0432  <S**2>=0.000
       9 -> 10         0.42031
       9 -> 11         0.52905
       9 -> 20         0.12193

 Excited State   4:      Singlet-A     10.3940 eV  119.28 nm  f=0.0432  <S**2>=0.000
       8 -> 10         0.42031
       8 -> 11         0.52905
       8 -> 20         0.12193

 Excited State   5:      Singlet-A     11.9099 eV  104.10 nm  f=0.0409  <S**2>=0.000
       8 -> 12         0.22849
       8 -> 13        -0.43118
       9 -> 12         0.43170
       9 -> 13         0.22848

 Excited State   6:      Singlet-A     11.9099 eV  104.10 nm  f=0.0409  <S**2>=0.000
       8 -> 12         0.43140
       8 -> 13         0.22836
       9 -> 12        -0.22861
       9 -> 13         0.43148

 Excited State   7:      Singlet-A     11.9754 eV  103.53 nm  f=0.0000  <S**2>=0.000
       8 -> 13         0.48737
       9 -> 12         0.48679

 Excited State   8:      Singlet-A     12.1114 eV  102.37 nm  f=0.1260  <S**2>=0.000
       8 -> 12         0.48103
       9 -> 13        -0.48096

 Excited State   9:      Singlet-A     12.7112 eV   97.54 nm  f=0.0000  <S**2>=0.000
       8 -> 15         0.48645
       9 -> 16         0.48653

 Excited State  10:      Singlet-A     12.7658 eV   97.12 nm  f=0.0444  <S**2>=0.000
       7 -> 10        -0.18896
       7 -> 11         0.22801
       8 -> 16        -0.12484
       9 -> 11         0.13270
       9 -> 14         0.57711
       9 -> 15        -0.12486

 Excited State  11:      Singlet-A     12.7659 eV   97.12 nm  f=0.0444  <S**2>=0.000
       6 -> 10        -0.18896
       6 -> 11         0.22800
       8 -> 11         0.13270
       8 -> 14         0.57711
       8 -> 15         0.12503
       9 -> 16        -0.12470

 Excited State  12:      Singlet-A     13.2327 eV   93.70 nm  f=0.1530  <S**2>=0.000
       8 -> 14         0.16627
       8 -> 15        -0.29452
       8 -> 16         0.34525
       9 -> 14         0.12122
       9 -> 15         0.34600
       9 -> 16         0.29454

 Excited State  13:      Singlet-A     13.2327 eV   93.70 nm  f=0.1530  <S**2>=0.000
       8 -> 14        -0.12123
       8 -> 15         0.34563
       8 -> 16         0.29419
       9 -> 14         0.16625
       9 -> 15         0.29489
       9 -> 16        -0.34562

 Excited State  14:      Singlet-A     13.2712 eV   93.42 nm  f=0.0057  <S**2>=0.000
       8 -> 16         0.48073
       9 -> 15        -0.47976

 Excited State  15:      Singlet-A     13.8187 eV   89.72 nm  f=0.0000  <S**2>=0.000
       6 -> 13        -0.12455
       7 -> 12        -0.12496
       8 -> 18        -0.47042
       9 -> 17         0.47195

 Excited State  16:      Singlet-A     13.8470 eV   89.54 nm  f=0.0059  <S**2>=0.000
       6 -> 12        -0.10226
       7 -> 10         0.24127
       7 -> 13        -0.10222
       8 -> 17         0.40683
       8 -> 18        -0.12955
       9 -> 14         0.10777
       9 -> 17        -0.12898
       9 -> 18        -0.40679

 Excited State  17:      Singlet-A     13.8470 eV   89.54 nm  f=0.0059  <S**2>=0.000
       6 -> 10         0.24121
       6 -> 13         0.10246
       7 -> 12        -0.10205
       8 -> 14         0.10775
       8 -> 17         0.12921
       8 -> 18         0.40760
       9 -> 17         0.40606
       9 -> 18        -0.12934

 Excited State  18:      Singlet-A     13.9784 eV   88.70 nm  f=0.1174  <S**2>=0.000
       7 -> 10         0.51997
       7 -> 11        -0.23488
       7 -> 14         0.14915
       8 -> 16        -0.10202
       8 -> 17        -0.16223
       9 -> 14         0.21791
       9 -> 15        -0.10199
       9 -> 18         0.16222

 Excited State  19:      Singlet-A     13.9785 eV   88.70 nm  f=0.1175  <S**2>=0.000
       6 -> 10         0.52001
       6 -> 11        -0.23487
       6 -> 14         0.14916
       8 -> 14         0.21791
       8 -> 15         0.10202
       8 -> 18        -0.16225
       9 -> 16        -0.10200
       9 -> 17        -0.16213

 Excited State  20:      Singlet-A     14.0492 eV   88.25 nm  f=0.0569  <S**2>=0.000
       5 -> 10         0.59217
       5 -> 11        -0.35516

 Excited State  21:      Singlet-A     14.3699 eV   86.28 nm  f=0.0003  <S**2>=0.000
       7 -> 10         0.24750
       7 -> 11         0.53056
       7 -> 14        -0.13296
       7 -> 20         0.14095
       9 -> 19         0.14648
       9 -> 20         0.23125

 Excited State  22:      Singlet-A     14.3700 eV   86.28 nm  f=0.0003  <S**2>=0.000
       6 -> 10         0.24749
       6 -> 11         0.53057
       6 -> 14        -0.13296
       6 -> 20         0.14095
       8 -> 19         0.14648
       8 -> 20         0.23126

 Excited State  23:      Singlet-A     14.5181 eV   85.40 nm  f=0.0007  <S**2>=0.000
       5 -> 10        -0.16693
       5 -> 11        -0.28778
       8 -> 17         0.41679
       9 -> 18         0.41680

 Excited State  24:      Singlet-A     15.1410 eV   81.89 nm  f=0.4868  <S**2>=0.000
       5 -> 10         0.31324
       5 -> 11         0.49249
       5 -> 14         0.10477
       8 -> 17         0.23215
       9 -> 18         0.23215

 Excited State  25:      Singlet-A     15.5190 eV   79.89 nm  f=0.0045  <S**2>=0.000
       5 -> 13        -0.15516
       6 -> 12         0.11579
       7 -> 10        -0.20356
       7 -> 11        -0.16775
       7 -> 13         0.11549
       9 -> 11        -0.12208
       9 -> 14         0.12757
       9 -> 19         0.37942
       9 -> 20         0.40113

 Excited State  26:      Singlet-A     15.5190 eV   79.89 nm  f=0.0045  <S**2>=0.000
       5 -> 12         0.15457
       6 -> 10        -0.20355
       6 -> 11        -0.16775
       6 -> 13        -0.11585
       7 -> 12         0.11618
       8 -> 11        -0.12208
       8 -> 14         0.12757
       8 -> 19         0.37941
       8 -> 20         0.40112

 Excited State  27:      Singlet-A     15.9954 eV   77.51 nm  f=0.0871  <S**2>=0.000
       5 -> 12         0.58484
       6 -> 13        -0.17143
       7 -> 12         0.17280
       8 -> 19        -0.15767
       8 -> 20        -0.10877

 Excited State  28:      Singlet-A     15.9954 eV   77.51 nm  f=0.0871  <S**2>=0.000
       5 -> 13         0.58581
       6 -> 12        -0.17133
       7 -> 13        -0.17014
       9 -> 19         0.15764
       9 -> 20         0.10874

 Excited State  29:      Singlet-A     16.1198 eV   76.91 nm  f=0.0000  <S**2>=0.000
       6 -> 12         0.10518
       6 -> 13         0.43506
       6 -> 15        -0.12134
       7 -> 12         0.45582
       7 -> 13        -0.10454
       7 -> 16        -0.12271
       8 -> 18        -0.10931
       9 -> 17         0.11463

 Excited State  30:      Singlet-A     16.1208 eV   76.91 nm  f=0.0073  <S**2>=0.000
       5 -> 13         0.31212
       6 -> 12         0.36143
       6 -> 13         0.20080
       7 -> 12        -0.19000
       7 -> 13         0.35966
       8 -> 17         0.10010

 Excited State  31:      Singlet-A     16.1208 eV   76.91 nm  f=0.0073  <S**2>=0.000
       5 -> 12         0.31418
       6 -> 12        -0.19246
       6 -> 13         0.37005
       7 -> 12        -0.34920
       7 -> 13        -0.19789
       8 -> 18        -0.10252

 Excited State  32:      Singlet-A     16.4605 eV   75.32 nm  f=0.0283  <S**2>=0.000
       5 -> 11         0.10660
       6 -> 12         0.43543
       6 -> 13        -0.10251
       6 -> 16        -0.14756
       7 -> 12        -0.10248
       7 -> 13        -0.43537
       7 -> 15         0.14757

 Excited State  33:      Singlet-A     16.7102 eV   74.20 nm  f=0.0338  <S**2>=0.000
       7 -> 11         0.15087
       7 -> 14         0.33236
       9 -> 19         0.42362
       9 -> 20        -0.34872

 Excited State  34:      Singlet-A     16.7102 eV   74.20 nm  f=0.0338  <S**2>=0.000
       6 -> 11         0.15087
       6 -> 14         0.33234
       8 -> 19         0.42362
       8 -> 20        -0.34874

 Excited State  35:      Singlet-A     16.7979 eV   73.81 nm  f=0.0000  <S**2>=0.000
       6 -> 13         0.10149
       6 -> 15         0.43359
       7 -> 12         0.10148
       7 -> 16         0.43359
       8 -> 22        -0.12889
       9 -> 21         0.12890

 Excited State  36:      Singlet-A     17.0001 eV   72.93 nm  f=0.0734  <S**2>=0.000
       5 -> 15         0.61853
       5 -> 18         0.13617
       5 -> 25         0.11740
       6 -> 16         0.13312
       7 -> 15         0.13691

 Excited State  37:      Singlet-A     17.0002 eV   72.93 nm  f=0.0734  <S**2>=0.000
       5 -> 16         0.61930
       5 -> 17        -0.13634
       5 -> 26         0.11752
       6 -> 15         0.13406
       7 -> 16        -0.13311

 Excited State  38:      Singlet-A     17.0028 eV   72.92 nm  f=0.0307  <S**2>=0.000
       5 -> 14         0.45129
       6 -> 16        -0.33325
       7 -> 15         0.33204

 Excited State  39:      Singlet-A     17.2307 eV   71.96 nm  f=0.1550  <S**2>=0.000
       5 -> 16         0.20804
       5 -> 17        -0.12219
       6 -> 15        -0.25194
       6 -> 18        -0.18837
       7 -> 16         0.25231
       7 -> 17        -0.18869
       8 -> 19         0.10347
       8 -> 20        -0.10507
       8 -> 22         0.27247
       9 -> 21         0.27256

 Excited State  40:      Singlet-A     17.2307 eV   71.96 nm  f=0.1549  <S**2>=0.000
       5 -> 15        -0.20942
       5 -> 18        -0.12316
       6 -> 16         0.25191
       6 -> 17        -0.18839
       7 -> 15         0.25141
       7 -> 18         0.18812
       8 -> 21         0.27252
       9 -> 19         0.10347
       9 -> 20        -0.10512
       9 -> 22        -0.27251

 Excited State  41:      Singlet-A     17.3980 eV   71.26 nm  f=0.1267  <S**2>=0.000
       6 -> 15         0.21912
       6 -> 16         0.23450
       7 -> 15         0.23465
       7 -> 16        -0.21975
       8 -> 21        -0.29842
       9 -> 22         0.29931
       9 -> 23        -0.11917

 Excited State  42:      Singlet-A     17.3981 eV   71.26 nm  f=0.1267  <S**2>=0.000
       6 -> 15         0.23436
       6 -> 16        -0.21953
       7 -> 15        -0.21939
       7 -> 16        -0.23507
       8 -> 22         0.29810
       8 -> 23         0.11916
       9 -> 21         0.29965

 Excited State  43:      Singlet-A     17.4067 eV   71.23 nm  f=0.0000  <S**2>=0.000
       6 -> 15         0.14404
       6 -> 18        -0.21203
       7 -> 16         0.14228
       7 -> 17         0.21128
       8 -> 21        -0.21684
       8 -> 22         0.34344
       9 -> 21        -0.34202
       9 -> 22        -0.21573

 Excited State  44:      Singlet-A     17.4371 eV   71.10 nm  f=0.1086  <S**2>=0.000
       5 -> 14         0.43076
       6 -> 16         0.22016
       7 -> 15        -0.22001
       8 -> 21         0.24750
       8 -> 22         0.15622
       9 -> 21        -0.15620
       9 -> 22         0.24757

 Excited State  45:      Singlet-A     17.4581 eV   71.02 nm  f=0.2500  <S**2>=0.000
       5 -> 14        -0.22644
       6 -> 12        -0.12267
       6 -> 16        -0.20793
       6 -> 17        -0.19739
       7 -> 13         0.12261
       7 -> 15         0.20768
       7 -> 18        -0.19731
       8 -> 21         0.28314
       8 -> 22         0.17871
       9 -> 21        -0.17856
       9 -> 22         0.28301

 Excited State  46:      Singlet-A     17.6913 eV   70.08 nm  f=0.0012  <S**2>=0.000
       7 -> 11         0.13031
       7 -> 14         0.51433
       7 -> 19        -0.11507
       7 -> 20        -0.10352
       9 -> 19        -0.27332
       9 -> 20         0.26961

 Excited State  47:      Singlet-A     17.6913 eV   70.08 nm  f=0.0012  <S**2>=0.000
       6 -> 11         0.13031
       6 -> 14         0.51435
       6 -> 19        -0.11507
       6 -> 20        -0.10352
       8 -> 19        -0.27332
       8 -> 20         0.26961

 Excited State  48:      Singlet-A     18.0216 eV   68.80 nm  f=0.0156  <S**2>=0.000
       5 -> 15        -0.14680
       5 -> 18         0.38471
       6 -> 16         0.10203
       7 -> 15         0.10170
       9 -> 23         0.49929

 Excited State  49:      Singlet-A     18.0216 eV   68.80 nm  f=0.0156  <S**2>=0.000
       5 -> 16         0.14635
       5 -> 17         0.38536
       6 -> 15        -0.10204
       7 -> 16         0.10235
       8 -> 23         0.49895

 Excited State  50:      Singlet-A     18.0820 eV   68.57 nm  f=0.0188  <S**2>=0.000
       5 -> 17        -0.25050
       5 -> 18         0.45408
       7 -> 14         0.11336
       8 -> 23         0.16343
       9 -> 23        -0.36176

 Excited State  51:      Singlet-A     18.0820 eV   68.57 nm  f=0.0189  <S**2>=0.000
       5 -> 17         0.45399
       5 -> 18         0.25059
       6 -> 14         0.11343
       8 -> 23        -0.36215
       9 -> 23        -0.16323

 Excited State  52:      Singlet-A     18.3408 eV   67.60 nm  f=0.0000  <S**2>=0.000
       6 -> 18        -0.40630
       7 -> 17         0.40717
       8 -> 21         0.12564
       8 -> 22        -0.19913
       9 -> 21         0.19951
       9 -> 22         0.12592

 Excited State  53:      Singlet-A     18.3881 eV   67.43 nm  f=0.0301  <S**2>=0.000
       6 -> 17         0.16237
       6 -> 18         0.38044
       7 -> 17         0.37982
       7 -> 18        -0.16248
       8 -> 22         0.21367
       9 -> 21         0.21330
       9 -> 24        -0.11651

 Excited State  54:      Singlet-A     18.3881 eV   67.43 nm  f=0.0301  <S**2>=0.000
       6 -> 17         0.38005
       6 -> 18        -0.16244
       7 -> 17        -0.16225
       7 -> 18        -0.37984
       8 -> 21         0.21353
       8 -> 24         0.11648
       9 -> 22        -0.21344

 Excited State  55:      Singlet-A     18.5773 eV   66.74 nm  f=0.0011  <S**2>=0.000
       5 -> 14        -0.13537
       5 -> 20        -0.16816
       6 -> 17         0.40851
       7 -> 18         0.40848
       8 -> 21         0.15169
       9 -> 22         0.15168

 Excited State  56:      Singlet-A     18.8621 eV   65.73 nm  f=0.0007  <S**2>=0.000
       9 -> 24         0.68396

 Excited State  57:      Singlet-A     18.8622 eV   65.73 nm  f=0.0007  <S**2>=0.000
       8 -> 24         0.68397

 Excited State  58:      Singlet-A     19.0144 eV   65.21 nm  f=0.0000  <S**2>=0.000
       6 -> 18         0.11150
       7 -> 17        -0.11151
       8 -> 25         0.46836
       9 -> 26         0.46856

 Excited State  59:      Singlet-A     19.0841 eV   64.97 nm  f=0.0489  <S**2>=0.000
       7 -> 14        -0.10557
       7 -> 19        -0.17750
       7 -> 20        -0.16479
       8 -> 25         0.25097
       8 -> 26         0.33956
       9 -> 25         0.33976
       9 -> 26        -0.25084

 Excited State  60:      Singlet-A     19.0841 eV   64.97 nm  f=0.0489  <S**2>=0.000
       6 -> 14         0.10558
       6 -> 19         0.17748
       6 -> 20         0.16477
       8 -> 25         0.33976
       8 -> 26        -0.25086
       9 -> 25        -0.25096
       9 -> 26        -0.33958

 Excited State  61:      Singlet-A     19.2254 eV   64.49 nm  f=0.0703  <S**2>=0.000
       8 -> 26         0.46665
       9 -> 25        -0.46647

 Excited State  62:      Singlet-A     19.5197 eV   63.52 nm  f=0.0094  <S**2>=0.000
       7 -> 11        -0.11472
       7 -> 14         0.12807
       7 -> 19         0.39031
       7 -> 20         0.41148
       8 -> 26         0.17603
       9 -> 23         0.16838
       9 -> 25         0.17597

 Excited State  63:      Singlet-A     19.5198 eV   63.52 nm  f=0.0094  <S**2>=0.000
       6 -> 11        -0.11472
       6 -> 14         0.12807
       6 -> 19         0.39032
       6 -> 20         0.41149
       8 -> 23         0.16838
       8 -> 25        -0.17599
       9 -> 26         0.17598

 Excited State  64:      Singlet-A     20.0439 eV   61.86 nm  f=0.0000  <S**2>=0.000
       8 -> 27        -0.15795
       8 -> 28         0.46134
       9 -> 27         0.46174
       9 -> 28         0.15799

 Excited State  65:      Singlet-A     20.0518 eV   61.83 nm  f=0.0297  <S**2>=0.000
       4 -> 11        -0.28869
       5 -> 19         0.17393
       5 -> 20         0.14452
       8 -> 27        -0.37292
       8 -> 28        -0.12758
       9 -> 27        -0.12771
       9 -> 28         0.37293

 Excited State  66:      Singlet-A     20.1485 eV   61.54 nm  f=0.0889  <S**2>=0.000
       8 -> 27        -0.31212
       8 -> 28         0.37125
       9 -> 27        -0.37094
       9 -> 28        -0.31202

 Excited State  67:      Singlet-A     20.1485 eV   61.54 nm  f=0.0889  <S**2>=0.000
       8 -> 27         0.37105
       8 -> 28         0.31217
       9 -> 27        -0.31197
       9 -> 28         0.37114

 Excited State  68:      Singlet-A     20.1593 eV   61.50 nm  f=0.0145  <S**2>=0.000
       4 -> 10         0.60813
       4 -> 11        -0.22311
       4 -> 14         0.14087
       8 -> 27         0.10905
       9 -> 28        -0.10895

 Excited State  69:      Singlet-A     20.4996 eV   60.48 nm  f=0.1468  <S**2>=0.000
       4 -> 10         0.24172
       4 -> 11         0.42500
       4 -> 14        -0.13907
       5 -> 19         0.43894

 Excited State  70:      Singlet-A     20.5395 eV   60.36 nm  f=0.0248  <S**2>=0.000
       7 -> 20        -0.11825
       9 -> 29         0.66794

 Excited State  71:      Singlet-A     20.5395 eV   60.36 nm  f=0.0248  <S**2>=0.000
       6 -> 20        -0.11824
       8 -> 29         0.66794

 Excited State  72:      Singlet-A     20.9618 eV   59.15 nm  f=0.0026  <S**2>=0.000
       7 -> 19         0.47666
       7 -> 20        -0.43055
       9 -> 29        -0.10102
       9 -> 30         0.21059

 Excited State  73:      Singlet-A     20.9619 eV   59.15 nm  f=0.0026  <S**2>=0.000
       6 -> 19         0.47667
       6 -> 20        -0.43055
       8 -> 29        -0.10100
       8 -> 30         0.21059

 Excited State  74:      Singlet-A     21.0187 eV   58.99 nm  f=0.0044  <S**2>=0.000
       4 -> 10        -0.13525
       4 -> 11        -0.30983
       5 -> 19         0.46683
       5 -> 20        -0.12699
       8 -> 27         0.19316
       9 -> 28        -0.19318

 Excited State  75:      Singlet-A     21.3487 eV   58.08 nm  f=0.0538  <S**2>=0.000
       4 -> 10        -0.11667
       5 -> 20         0.53950
       5 -> 23        -0.14170
       8 -> 27         0.11816
       8 -> 32        -0.11832
       9 -> 28        -0.11817
       9 -> 31        -0.11833

 Excited State  76:      Singlet-A     21.4555 eV   57.79 nm  f=0.0011  <S**2>=0.000
       5 -> 21        -0.33720
       5 -> 22         0.30230
       6 -> 21         0.17987
       7 -> 19        -0.12378
       7 -> 22        -0.17975
       7 -> 23        -0.20254
       8 -> 30        -0.10323
       9 -> 30         0.36283

 Excited State  77:      Singlet-A     21.4555 eV   57.79 nm  f=0.0011  <S**2>=0.000
       5 -> 21         0.30154
       5 -> 22         0.33678
       6 -> 19        -0.12373
       6 -> 22         0.18086
       6 -> 23        -0.20245
       7 -> 21         0.18122
       8 -> 30         0.36272
       9 -> 30         0.10327

 Excited State  78:      Singlet-A     21.5642 eV   57.50 nm  f=0.0008  <S**2>=0.000
       5 -> 21        -0.10737
       6 -> 21        -0.44108
       7 -> 22         0.44164
       7 -> 23        -0.15459
       9 -> 30         0.14170

 Excited State  79:      Singlet-A     21.5643 eV   57.50 nm  f=0.0008  <S**2>=0.000
       5 -> 22        -0.10827
       6 -> 22         0.44055
       6 -> 23         0.15471
       7 -> 21         0.44139
       8 -> 30        -0.14189

 Excited State  80:      Singlet-A     21.5966 eV   57.41 nm  f=0.0000  <S**2>=0.000
       6 -> 21        -0.32320
       6 -> 22         0.36861
       7 -> 21        -0.36778
       7 -> 22        -0.32271

 Excited State  81:      Singlet-A     21.6095 eV   57.37 nm  f=0.1166  <S**2>=0.000
       5 -> 21         0.34433
       5 -> 22        -0.35084
       7 -> 19        -0.12423
       7 -> 23        -0.25996

 The electronic state is 1-A.
 Alpha  occ. eigenvalues --  -24.52069 -10.23380  -1.32911  -0.85888  -0.63724
 Alpha  occ. eigenvalues --   -0.63685  -0.63685  -0.48722  -0.48722
 Alpha virt. eigenvalues --    0.07856   0.13278   0.16104   0.16104   0.19972
 Alpha virt. eigenvalues --    0.21741   0.21741   0.23228   0.23228   0.33572
 Alpha virt. eigenvalues --    0.36469   0.36917   0.36917   0.39153   0.41018

 Mulliken charges:
               1
     1  C    0.853244
     2  F   -0.447516
     3  H   -0.135231
     4  H   -0.135248
     5  H   -0.135250
 Sum of Mulliken charges =  -0.00000

 Dipole moment (field-independent basis, Debye):
    X=              2.0051    Y=             -0.0000    Z=              0.0000  Tot=              2.0051
 Quadrupole moment (field-independent basis, Debye-Ang):
   XX=            -12.8829   YY=            -12.0491   ZZ=            -12.0492
   XY=              0.0000   XZ=              0.0000   YZ=              0.0000

 1\1\GINC-HEL25\SP\RLC-BLYP TD-FC\Gen\C1H3F1\SABYASACHI\21-Mar-2022\0\\
 #P TD(Nstates=10000) lc-blyp/Gen SCF(maxcycles=100) Int(Grid=ultrafine
 )\\xGDB7_00001_tier4.com\\0,1\C,0,-0.630149,-0.000001,0.000003\F,0,0.7
 48512,0.000002,-0.000001\H,0,-0.98525,0.899676,0.505416\H,0,-0.985222,
 -0.887557,0.526417\H,0,-0.985245,-0.012128,-1.03184\\Version=EM64L-G16
 RevC.01\State=1-A\HF=-139.3647646\RMSD=7.307e-09\PG=C01 [X(C1H3F1)]\\@
 The archive entry for this job was punched.

 Normal termination of Gaussian 16 at Mon Mar 21 20:07:06 2022.
