 Gaussian 16, Revision C.01,
 Gaussian 16:  EM64L-G16RevC.01  3-Jul-2019

 ----------------------------------------------------------------------
 #P TD(Nstates=10000) lc-blyp/Gen SCF(maxcycles=100) Int(Grid=ultrafine
 )
 ----------------------------------------------------------------------

 ---------------------
 xGDB7_00001_tier4.com
 ---------------------
 Symbolic Z-matrix:
 Charge =  0 Multiplicity = 1

                         Standard orientation:
 ---------------------------------------------------------------------
 Center     Atomic      Atomic             Coordinates (Angstroms)
 Number     Number       Type             X           Y           Z
 ---------------------------------------------------------------------
      1          8           0        0.000000    0.000000    0.596896
      2          8           0        0.000000    0.000000   -0.596896
 ---------------------------------------------------------------------

 SCF Done:  E(RLC-B+HF-LYP) =  -149.877768173     A.U. after   11 cycles

 Excitation energies and oscillator strengths:

 Excited state symmetry could not be determined.
 Excited State   1:      Singlet-?Sym    0.0054 eV 231339.74 nm  f=0.0000  <S**2>=0.000
       8 ->  9        -5.18931
       8 -> 15         0.35678
       8 -> 26        -0.12703
       8 <-  9        -5.14122
       8 <- 15         0.35293
       8 <- 26        -0.12549
 This state for optimization and/or second-order correction.
 Total Energy, E(TD-HF/TD-DFT) =  -149.877571218
 Copying the excited state density for this state as the 1-particle RhoCI density.

 Excited state symmetry could not be determined.
 Excited State   2:      Singlet-?Sym    6.8200 eV  181.79 nm  f=0.0000  <S**2>=0.000
       6 ->  9         0.70466

 Excited state symmetry could not be determined.
 Excited State   3:      Singlet-?Sym    7.7445 eV  160.09 nm  f=0.0000  <S**2>=0.000
       5 ->  9         0.70481

 Excited state symmetry could not be determined.
 Excited State   4:      Singlet-?Sym    8.2917 eV  149.53 nm  f=0.0000  <S**2>=0.000
       8 -> 11         0.65607
       8 -> 14        -0.25713

 Excited state symmetry could not be determined.
 Excited State   5:      Singlet-?Sym    8.5648 eV  144.76 nm  f=0.0213  <S**2>=0.000
       8 -> 10         0.67843
       8 -> 17        -0.18907

 Excited state symmetry could not be determined.
 Excited State   6:      Singlet-?Sym    9.1088 eV  136.11 nm  f=0.0000  <S**2>=0.000
       8 -> 12         0.70510

 Excited state symmetry could not be determined.
 Excited State   7:      Singlet-?Sym    9.2686 eV  133.77 nm  f=0.1241  <S**2>=0.000
       7 ->  9         0.32544
       8 -> 13         0.62322

 Excited state symmetry could not be determined.
 Excited State   8:      Singlet-?Sym   10.6294 eV  116.64 nm  f=0.0634  <S**2>=0.000
       5 -> 17        -0.11718
       5 -> 18         0.10979
       7 ->  9         0.60906
       8 -> 13        -0.33059
       7 <-  9        -0.10176

 Excited state symmetry could not be determined.
 Excited State   9:      Singlet-?Sym   10.7367 eV  115.48 nm  f=0.0000  <S**2>=0.000
       8 -> 11         0.25227
       8 -> 14         0.65068

 Excited state symmetry could not be determined.
 Excited State  10:      Singlet-?Sym   11.3287 eV  109.44 nm  f=0.0000  <S**2>=0.000
       8 -> 15         0.69844

 Excited state symmetry could not be determined.
 Excited State  11:      Singlet-?Sym   11.7830 eV  105.22 nm  f=0.0000  <S**2>=0.000
       8 -> 16         0.70291

 Excited state symmetry could not be determined.
 Excited State  12:      Singlet-?Sym   12.0827 eV  102.61 nm  f=0.0193  <S**2>=0.000
       8 -> 10         0.16425
       8 -> 17         0.57019
       8 -> 18        -0.36981

 Excited state symmetry could not be determined.
 Excited State  13:      Singlet-?Sym   15.5597 eV   79.68 nm  f=0.1478  <S**2>=0.000
       6 -> 11         0.38858
       6 -> 14        -0.17519
       8 -> 10         0.10081
       8 -> 17         0.30504
       8 -> 18         0.46177

 Excited state symmetry could not be determined.
 Excited State  14:      Singlet-?Sym   15.6002 eV   79.48 nm  f=0.0000  <S**2>=0.000
       8 -> 19         0.69868

 Excited state symmetry could not be determined.
 Excited State  15:      Singlet-?Sym   15.6073 eV   79.44 nm  f=0.0000  <S**2>=0.000
       8 -> 20         0.69825

 Excited state symmetry could not be determined.
 Excited State  16:      Singlet-?Sym   15.8915 eV   78.02 nm  f=0.1977  <S**2>=0.000
       4 ->  9         0.49222
       7 -> 11         0.47762
       7 -> 14        -0.14270

 Excited state symmetry could not be determined.
 Excited State  17:      Singlet-?Sym   16.1173 eV   76.93 nm  f=0.0043  <S**2>=0.000
       4 ->  9         0.48977
       7 -> 11        -0.45173
       7 -> 14         0.21711

 Excited state symmetry could not be determined.
 Excited State  18:      Singlet-?Sym   16.2114 eV   76.48 nm  f=0.0000  <S**2>=0.000
       7 -> 10         0.66616
       7 -> 17        -0.21337

 Excited state symmetry could not be determined.
 Excited State  19:      Singlet-?Sym   16.3683 eV   75.75 nm  f=0.0000  <S**2>=0.000
       6 -> 10         0.66219
       6 -> 17        -0.20734

 Excited state symmetry could not be determined.
 Excited State  20:      Singlet-?Sym   16.3725 eV   75.73 nm  f=0.0105  <S**2>=0.000
       6 -> 11         0.52169
       6 -> 14        -0.19821
       8 -> 17        -0.19830
       8 -> 18        -0.38110

 Excited State  21:      Singlet-SGU   16.4313 eV   75.46 nm  f=0.2975  <S**2>=0.000
       5 -> 10         0.68092
       5 -> 17        -0.14272

 Excited State  22:      Singlet-SGG   16.5938 eV   74.72 nm  f=0.0000  <S**2>=0.000
       5 -> 11         0.62787
       5 -> 14        -0.20125
       7 -> 12        -0.23518

 Excited state symmetry could not be determined.
 Excited State  23:      Singlet-?Sym   16.7997 eV   73.80 nm  f=0.0000  <S**2>=0.000
       6 -> 12         0.70172

 Excited state symmetry could not be determined.
 Excited State  24:      Singlet-?Sym   16.8765 eV   73.47 nm  f=0.0000  <S**2>=0.000
       5 -> 11         0.14392
       6 -> 13        -0.40193
       7 -> 12         0.55348

 Excited state symmetry could not be determined.
 Excited State  25:      Singlet-?Sym   17.0107 eV   72.89 nm  f=0.0000  <S**2>=0.000
       7 -> 13         0.70611

 Excited state symmetry could not be determined.
 Excited State  26:      Singlet-?Sym   17.1160 eV   72.44 nm  f=0.0629  <S**2>=0.000
       5 -> 12         0.70150

 Excited state symmetry could not be determined.
 Excited State  27:      Singlet-?Sym   17.3963 eV   71.27 nm  f=0.0606  <S**2>=0.000
       5 -> 13         0.70238

 Excited state symmetry could not be determined.
 Excited State  28:      Singlet-?Sym   17.6347 eV   70.31 nm  f=0.0000  <S**2>=0.000
       5 -> 11         0.11007
       5 -> 14        -0.22590
       6 -> 13         0.55883
       7 -> 12         0.34313

 Excited state symmetry could not be determined.
 Excited State  29:      Singlet-?Sym   18.5458 eV   66.85 nm  f=0.0236  <S**2>=0.000
       6 -> 11         0.25831
       6 -> 14         0.64447

 Excited state symmetry could not be determined.
 Excited State  30:      Singlet-?Sym   18.5539 eV   66.82 nm  f=0.0378  <S**2>=0.000
       7 -> 11         0.25518
       7 -> 14         0.65124

 Excited state symmetry could not be determined.
 Excited State  31:      Singlet-?Sym   18.7944 eV   65.97 nm  f=0.0000  <S**2>=0.000
       5 -> 11         0.24732
       5 -> 14         0.62635
       6 -> 13         0.13843
       7 -> 12         0.11277

 Excited state symmetry could not be determined.
 Excited State  32:      Singlet-?Sym   19.0028 eV   65.25 nm  f=0.0000  <S**2>=0.000
       6 -> 15         0.68008
       7 -> 16         0.10075
       8 -> 22         0.13598

 Excited state symmetry could not be determined.
 Excited State  33:      Singlet-?Sym   19.0254 eV   65.17 nm  f=0.0006  <S**2>=0.000
       6 -> 16        -0.30867
       7 -> 15         0.62523

 Excited state symmetry could not be determined.
 Excited State  34:      Singlet-?Sym   19.0932 eV   64.94 nm  f=0.0000  <S**2>=0.000
       7 -> 16         0.69700

 Excited state symmetry could not be determined.
 Excited State  35:      Singlet-?Sym   19.1853 eV   64.62 nm  f=0.0635  <S**2>=0.000
       6 -> 16         0.61799
       7 -> 15         0.30018

 Excited state symmetry could not be determined.
 Excited State  36:      Singlet-?Sym   19.1880 eV   64.62 nm  f=0.0000  <S**2>=0.000
       5 -> 15         0.67790
       7 -> 17        -0.12232

 Excited state symmetry could not be determined.
 Excited State  37:      Singlet-?Sym   19.2783 eV   64.31 nm  f=0.0000  <S**2>=0.000
       5 -> 16         0.67827
       6 -> 17        -0.12874

 Excited state symmetry could not be determined.
 Excited State  38:      Singlet-?Sym   19.4401 eV   63.78 nm  f=0.0000  <S**2>=0.000
       5 -> 15         0.15146
       7 -> 10         0.20001
       7 -> 17         0.53935
       7 -> 18        -0.36660

 Excited state symmetry could not be determined.
 Excited State  39:      Singlet-?Sym   19.5784 eV   63.33 nm  f=0.0000  <S**2>=0.000
       5 -> 16         0.16322
       6 -> 10         0.19579
       6 -> 17         0.53691
       6 -> 18        -0.35112
       8 -> 21        -0.12190

 Excited state symmetry could not be determined.
 Excited State  40:      Singlet-?Sym   20.8065 eV   59.59 nm  f=0.0000  <S**2>=0.000
       6 -> 15        -0.13892
       8 -> 22         0.69044

 Excited state symmetry could not be determined.
 Excited State  41:      Singlet-?Sym   20.8194 eV   59.55 nm  f=0.0066  <S**2>=0.000
       5 -> 10        -0.10473
       5 -> 17        -0.37642
       5 -> 18         0.13860
       8 -> 23         0.55273

 Excited state symmetry could not be determined.
 Excited State  42:      Singlet-?Sym   21.0386 eV   58.93 nm  f=0.0000  <S**2>=0.000
       6 -> 18        -0.13823
       8 -> 21         0.68077

 Excited state symmetry could not be determined.
 Excited State  43:      Singlet-?Sym   21.9784 eV   56.41 nm  f=0.1716  <S**2>=0.000
       6 -> 20        -0.18107
       7 -> 19        -0.17686
       8 -> 24         0.65490

 Excited state symmetry could not be determined.
 Excited State  44:      Singlet-?Sym   22.0369 eV   56.26 nm  f=0.2134  <S**2>=0.000
       6 -> 19         0.17719
       7 -> 20        -0.20700
       8 -> 25         0.64753

 Excited State  45:      Singlet-SGU   22.2684 eV   55.68 nm  f=0.5627  <S**2>=0.000
       4 -> 11         0.38698
       4 -> 14        -0.16634
       5 -> 10         0.12128
       5 -> 17         0.40809
       8 -> 23         0.34517

 Excited state symmetry could not be determined.
 Excited State  46:      Singlet-?Sym   22.6172 eV   54.82 nm  f=0.0000  <S**2>=0.000
       8 -> 26         0.69619

 Excited state symmetry could not be determined.
 Excited State  47:      Singlet-?Sym   22.6328 eV   54.78 nm  f=0.0527  <S**2>=0.000
       7 -> 19         0.11755
       8 -> 27         0.67972

 Excited State  48:      Singlet-SGG   23.1406 eV   53.58 nm  f=0.0000  <S**2>=0.000
       4 -> 10         0.55268
       4 -> 17        -0.16860
       8 -> 28        -0.38329

 Excited state symmetry could not be determined.
 Excited State  49:      Singlet-?Sym   23.3460 eV   53.11 nm  f=0.0400  <S**2>=0.000
       6 -> 19        -0.45449
       7 -> 20         0.46811
       8 -> 25         0.26999

 Excited state symmetry could not be determined.
 Excited State  50:      Singlet-?Sym   23.3466 eV   53.11 nm  f=0.0531  <S**2>=0.000
       6 -> 20         0.44078
       7 -> 19         0.47653
       8 -> 24         0.25425
       8 -> 27        -0.11305

 Excited state symmetry could not be determined.
 Excited State  51:      Singlet-?Sym   23.4036 eV   52.98 nm  f=0.0000  <S**2>=0.000
       7 -> 17         0.36793
       7 -> 18         0.59317

 Excited state symmetry could not be determined.
 Excited State  52:      Singlet-?Sym   23.4881 eV   52.79 nm  f=0.0000  <S**2>=0.000
       6 -> 17         0.37001
       6 -> 18         0.58760

 Excited state symmetry could not be determined.
 Excited State  53:      Singlet-?Sym   23.5425 eV   52.66 nm  f=0.0000  <S**2>=0.000
       5 -> 19         0.70554

 Excited state symmetry could not be determined.
 Excited State  54:      Singlet-?Sym   23.5518 eV   52.64 nm  f=0.0000  <S**2>=0.000
       5 -> 20         0.70518

 Excited State  55:      Singlet-SGU   23.7569 eV   52.19 nm  f=0.1406  <S**2>=0.000
       4 -> 11         0.49533
       4 -> 14        -0.15080
       5 -> 17        -0.35546
       5 -> 18        -0.29465
       8 -> 23        -0.10557

 Excited state symmetry could not be determined.
 Excited State  56:      Singlet-?Sym   23.8023 eV   52.09 nm  f=0.0000  <S**2>=0.000
       4 -> 12         0.69514

 Excited state symmetry could not be determined.
 Excited State  57:      Singlet-?Sym   23.8732 eV   51.93 nm  f=0.0000  <S**2>=0.000
       4 -> 10         0.40005
       8 -> 28         0.56682

 Excited state symmetry could not be determined.
 Excited State  58:      Singlet-?Sym   24.0043 eV   51.65 nm  f=0.5632  <S**2>=0.000
       6 -> 20         0.51427
       7 -> 19        -0.47067

 Excited state symmetry could not be determined.
 Excited State  59:      Singlet-?Sym   24.0774 eV   51.49 nm  f=0.5962  <S**2>=0.000
       4 ->  9         0.10124
       6 -> 19         0.50079
       7 -> 20         0.47626

 Excited state symmetry could not be determined.
 Excited State  60:      Singlet-?Sym   24.1064 eV   51.43 nm  f=0.0000  <S**2>=0.000
       4 -> 13         0.69782

 Excited state symmetry could not be determined.
 Excited State  61:      Singlet-?Sym   25.1220 eV   49.35 nm  f=0.5479  <S**2>=0.000
       4 -> 14         0.47957
       5 -> 17         0.11214
       5 -> 18        -0.44128
       7 ->  9         0.10883
       8 -> 23         0.13644

 Excited state symmetry could not be determined.
 Excited State  62:      Singlet-?Sym   25.4897 eV   48.64 nm  f=0.1585  <S**2>=0.000
       4 -> 11         0.29407
       4 -> 14         0.44686
       5 -> 18         0.39486
       8 -> 23        -0.15464

 Excited state symmetry could not be determined.
 Excited State  63:      Singlet-?Sym   25.9233 eV   47.83 nm  f=0.0068  <S**2>=0.000
       4 -> 15         0.68914
       5 -> 22         0.11773

 Excited state symmetry could not be determined.
 Excited State  64:      Singlet-?Sym   26.0177 eV   47.65 nm  f=0.0052  <S**2>=0.000
       4 -> 16         0.69020
       5 -> 23         0.11198

 Excited State  65:      Singlet-SGG   27.4298 eV   45.20 nm  f=0.0000  <S**2>=0.000
       4 -> 10         0.12113
       4 -> 17         0.56177
       4 -> 18        -0.30968
       6 -> 23        -0.11003
       7 -> 22        -0.20218

 Excited state symmetry could not be determined.
 Excited State  66:      Singlet-?Sym   28.5322 eV   43.45 nm  f=0.0000  <S**2>=0.000
       6 -> 22         0.67647
       7 -> 23        -0.18192

 Excited state symmetry could not be determined.
 Excited State  67:      Singlet-?Sym   28.5664 eV   43.40 nm  f=0.0000  <S**2>=0.000
       3 ->  9         0.67991
       6 -> 25        -0.10881

 Excited state symmetry could not be determined.
 Excited State  68:      Singlet-?Sym   28.6101 eV   43.34 nm  f=0.0000  <S**2>=0.000
       4 -> 17         0.10280
       6 -> 23        -0.36146
       7 -> 22         0.58892

 Excited state symmetry could not be determined.
 Excited State  69:      Singlet-?Sym   28.6954 eV   43.21 nm  f=0.0000  <S**2>=0.000
       6 -> 22         0.18072
       7 -> 23         0.68262

 Excited state symmetry could not be determined.
 Excited State  70:      Singlet-?Sym   28.7458 eV   43.13 nm  f=0.0001  <S**2>=0.000
       5 -> 22        -0.38091
       7 -> 21         0.58707

 Excited state symmetry could not be determined.
 Excited State  71:      Singlet-?Sym   28.9338 eV   42.85 nm  f=0.0017  <S**2>=0.000
       5 -> 23        -0.33040
       6 -> 21         0.61201

 Excited state symmetry could not be determined.
 Excited State  72:      Singlet-?Sym   29.2250 eV   42.42 nm  f=0.0000  <S**2>=0.000
       4 -> 19         0.45467
       5 -> 25         0.53311

 Excited state symmetry could not be determined.
 Excited State  73:      Singlet-?Sym   29.2385 eV   42.40 nm  f=0.0004  <S**2>=0.000
       4 -> 20        -0.45192
       5 -> 24         0.53155

 Excited state symmetry could not be determined.
 Excited State  74:      Singlet-?Sym   29.2771 eV   42.35 nm  f=0.3110  <S**2>=0.000
       4 -> 15        -0.10458
       5 -> 22         0.57536
       7 -> 21         0.37938

 Excited state symmetry could not be determined.
 Excited State  75:      Singlet-?Sym   29.2914 eV   42.33 nm  f=0.0000  <S**2>=0.000
       5 -> 21         0.54219
       6 -> 23         0.39010
       7 -> 22         0.15945

 Excited state symmetry could not be determined.
 Excited State  76:      Singlet-?Sym   29.4355 eV   42.12 nm  f=0.0000  <S**2>=0.000
       4 -> 17         0.26757
       4 -> 18         0.12652
       5 -> 21        -0.40386
       6 -> 23         0.41326
       7 -> 22         0.26316

 Excited state symmetry could not be determined.
 Excited State  77:      Singlet-?Sym   29.4934 eV   42.04 nm  f=0.0000  <S**2>=0.000
       6 -> 25         0.42663
       7 -> 24         0.56171

 Excited state symmetry could not be determined.
 Excited State  78:      Singlet-?Sym   29.4956 eV   42.03 nm  f=0.0000  <S**2>=0.000
       6 -> 24        -0.44380
       7 -> 25         0.54872

 Excited state symmetry could not be determined.
 Excited State  79:      Singlet-?Sym   29.5042 eV   42.02 nm  f=0.2882  <S**2>=0.000
       4 -> 16        -0.10168
       5 -> 23         0.60709
       6 -> 21         0.32942

 Excited state symmetry could not be determined.
 Excited State  80:      Singlet-?Sym   29.7215 eV   41.72 nm  f=0.0000  <S**2>=0.000
       6 -> 24         0.54678
       7 -> 25         0.44386

 Excited state symmetry could not be determined.
 Excited State  81:      Singlet-?Sym   29.7729 eV   41.64 nm  f=0.0000  <S**2>=0.000
       3 ->  9         0.13991
       6 -> 25         0.54836
       7 -> 24        -0.41244

 Excited state symmetry could not be determined.
 Excited State  82:      Singlet-?Sym   30.2382 eV   41.00 nm  f=0.0000  <S**2>=0.000
       6 -> 26         0.66307
       8 -> 29        -0.19456

 Excited state symmetry could not be determined.
 Excited State  83:      Singlet-?Sym   30.3100 eV   40.91 nm  f=0.0000  <S**2>=0.000
       7 -> 27         0.69001

 Excited state symmetry could not be determined.
 Excited State  84:      Singlet-?Sym   30.3851 eV   40.80 nm  f=0.0000  <S**2>=0.000
       6 -> 27         0.69140

 Excited state symmetry could not be determined.
 Excited State  85:      Singlet-?Sym   30.3982 eV   40.79 nm  f=0.0110  <S**2>=0.000
       5 -> 27         0.28760
       6 -> 28        -0.11910
       7 -> 26         0.62356

 Excited state symmetry could not be determined.
 Excited State  86:      Singlet-?Sym   30.4936 eV   40.66 nm  f=0.0001  <S**2>=0.000
       4 -> 20         0.11325
       5 -> 24         0.21500
       5 -> 27         0.44785
       6 -> 28         0.43415
       7 -> 26        -0.14083
       8 -> 30        -0.11823

 Excited state symmetry could not be determined.
 Excited State  87:      Singlet-?Sym   30.6054 eV   40.51 nm  f=0.0000  <S**2>=0.000
       4 -> 22        -0.10213
       5 -> 26         0.68658

 Excited state symmetry could not be determined.
 Excited State  88:      Singlet-?Sym   30.6146 eV   40.50 nm  f=0.0000  <S**2>=0.000
       7 -> 28         0.69818

 Excited state symmetry could not be determined.
 Excited State  89:      Singlet-?Sym   30.8184 eV   40.23 nm  f=0.0000  <S**2>=0.000
       4 -> 19         0.53892
       5 -> 25        -0.44896

 Excited state symmetry could not be determined.
 Excited State  90:      Singlet-?Sym   30.8375 eV   40.21 nm  f=0.0000  <S**2>=0.000
       4 -> 20         0.52696
       5 -> 24         0.40931
       5 -> 27        -0.18482
       6 -> 28        -0.13749

 Excited state symmetry could not be determined.
 Excited State  91:      Singlet-?Sym   30.8533 eV   40.19 nm  f=0.0000  <S**2>=0.000
       4 -> 23        -0.10621
       5 -> 28         0.69101

 Excited State  92:      Singlet-SGG   30.8622 eV   40.17 nm  f=0.0000  <S**2>=0.000
       4 -> 17         0.23580
       4 -> 18         0.61933
       5 -> 21         0.11479
       6 -> 23        -0.15331
       7 -> 22        -0.12750

 Excited state symmetry could not be determined.
 Excited State  93:      Singlet-?Sym   31.6814 eV   39.13 nm  f=0.0033  <S**2>=0.000
       5 -> 27        -0.34068
       6 -> 28         0.50368
       7 -> 26         0.24696
       8 -> 30         0.20540

 Excited state symmetry could not be determined.
 Excited State  94:      Singlet-?Sym   32.8060 eV   37.79 nm  f=0.0000  <S**2>=0.000
       6 -> 26         0.19332
       8 -> 29         0.67633

 Excited state symmetry could not be determined.
 Excited State  95:      Singlet-?Sym   34.9909 eV   35.43 nm  f=0.0057  <S**2>=0.000
       3 -> 10         0.17423
       3 -> 17        -0.20147
       4 -> 21         0.19057
       5 -> 27         0.16959
       8 -> 30         0.57174

 Excited state symmetry could not be determined.
 Excited State  96:      Singlet-?Sym   35.4969 eV   34.93 nm  f=0.0000  <S**2>=0.000
       8 -> 31         0.69795

 Excited state symmetry could not be determined.
 Excited State  97:      Singlet-?Sym   35.6332 eV   34.79 nm  f=0.0000  <S**2>=0.000
       4 -> 22         0.69580
       5 -> 26         0.10417

 Excited state symmetry could not be determined.
 Excited State  98:      Singlet-?Sym   35.9195 eV   34.52 nm  f=0.0745  <S**2>=0.000
       4 -> 21         0.66246
       8 -> 30        -0.19942

 Excited state symmetry could not be determined.
 Excited State  99:      Singlet-?Sym   35.9198 eV   34.52 nm  f=0.0000  <S**2>=0.000
       4 -> 23         0.69103
       5 -> 28         0.10792

 Excited state symmetry could not be determined.
 Excited State 100:      Singlet-?Sym   36.5285 eV   33.94 nm  f=0.0000  <S**2>=0.000
       4 -> 24         0.70256

 Excited state symmetry could not be determined.
 Excited State 101:      Singlet-?Sym   36.5407 eV   33.93 nm  f=0.0000  <S**2>=0.000
       4 -> 25         0.70460

 Excited State 102:      Singlet-SGG   36.8548 eV   33.64 nm  f=0.0000  <S**2>=0.000
       3 -> 11         0.64435
       3 -> 14        -0.27910

 Excited state symmetry could not be determined.
 Excited State 103:      Singlet-?Sym   37.2575 eV   33.28 nm  f=0.0603  <S**2>=0.000
       4 -> 26         0.68033
       5 -> 29        -0.13986

 Excited state symmetry could not be determined.
 Excited State 104:      Singlet-?Sym   37.3859 eV   33.16 nm  f=0.0000  <S**2>=0.000
       4 -> 27         0.68886

 Excited state symmetry could not be determined.
 Excited State 105:      Singlet-?Sym   37.5537 eV   33.02 nm  f=0.0501  <S**2>=0.000
       4 -> 28         0.68208
       5 -> 30        -0.12308

 Excited state symmetry could not be determined.
 Excited State 106:      Singlet-?Sym   37.8269 eV   32.78 nm  f=0.0013  <S**2>=0.000
       3 -> 12         0.69833

 Excited State 107:      Singlet-SGU   37.8519 eV   32.76 nm  f=0.0135  <S**2>=0.000
       3 -> 10         0.67331
       8 -> 30        -0.14764

 Excited state symmetry could not be determined.
 Excited State 108:      Singlet-?Sym   38.1173 eV   32.53 nm  f=0.0025  <S**2>=0.000
       3 -> 13         0.69734

 Excited state symmetry could not be determined.
 Excited State 109:      Singlet-?Sym   39.6492 eV   31.27 nm  f=0.0000  <S**2>=0.000
       3 -> 11         0.28471
       3 -> 14         0.63476

 Excited state symmetry could not be determined.
 Excited State 110:      Singlet-?Sym   40.1264 eV   30.90 nm  f=0.0000  <S**2>=0.000
       6 -> 29         0.69471

 Excited state symmetry could not be determined.
 Excited State 111:      Singlet-?Sym   40.1275 eV   30.90 nm  f=0.0000  <S**2>=0.000
       3 -> 15         0.70048

 Excited state symmetry could not be determined.
 Excited State 112:      Singlet-?Sym   40.2191 eV   30.83 nm  f=0.0000  <S**2>=0.000
       3 -> 16         0.70185

 Unable to determine electronic state:  an orbital has unidentified symmetry.
 Alpha  occ. eigenvalues --  -19.18869 -19.18835  -1.46144  -0.93857  -0.69648
 Alpha  occ. eigenvalues --   -0.68730  -0.68589  -0.40535
 Alpha virt. eigenvalues --   -0.07474   0.10638   0.13766   0.15657   0.16672
 Alpha virt. eigenvalues --    0.20660   0.20919   0.21067   0.34372   0.42175
 Alpha virt. eigenvalues --    0.45307   0.45315   0.61940   0.63982   0.65046

 Mulliken charges:
               1
     1  O   -0.000000
     2  O   -0.000000
 Sum of Mulliken charges =  -0.00000

 Dipole moment (field-independent basis, Debye):
    X=             -0.0000    Y=              0.0000    Z=              0.0000  Tot=              0.0000
 Quadrupole moment (field-independent basis, Debye-Ang):
   XX=             -9.3549   YY=            -11.2740   ZZ=            -10.9336
   XY=              0.0000   XZ=              0.0000   YZ=              0.0000

 Normal termination of Gaussian 16 at Mon Mar 21 20:12:04 2022.
