 Gaussian 16, Revision C.01,
 Gaussian 16:  EM64L-G16RevC.01  3-Jul-2019

 ----------------------------------------------------------------------
 #P TD(Nstates=10000) lc-blyp/Gen SCF(maxcycles=100) Int(Grid=ultrafine
 )
 ----------------------------------------------------------------------

 ---------------------
 xGDB7_00001_tier4.com
 ---------------------
 Symbolic Z-matrix:
 Charge =  0 Multiplicity = 1

                         Standard orientation:
 ---------------------------------------------------------------------
 Center     Atomic      Atomic             Coordinates (Angstroms)
 Number     Number       Type             X           Y           Z
 ---------------------------------------------------------------------
      1          6           0        0.926251   -0.719055    0.000000
      2          6           0        0.000000    0.459276    0.000000
      3          8           0       -1.196998    0.387136    0.000000
      4          1           0        1.575965   -0.668678    0.877698
      5          1           0        1.575965   -0.668678   -0.877698
      6          1           0        0.366733   -1.652236    0.000000
      7          1           0        0.499813    1.451182    0.000000
 ---------------------------------------------------------------------

 SCF Done:  E(RLC-B+HF-LYP) =  -153.334122732     A.U. after   13 cycles

 Excitation energies and oscillator strengths:

 Excited State   1:      Singlet-A"     4.3541 eV  284.75 nm  f=0.0001  <S**2>=0.000
      12 -> 13         0.69657
 This state for optimization and/or second-order correction.
 Total Energy, E(TD-HF/TD-DFT) =  -153.174111112
 Copying the excited state density for this state as the 1-particle RhoCI density.

 Excited State   2:      Singlet-A'     7.8395 eV  158.15 nm  f=0.0169  <S**2>=0.000
      12 -> 14         0.61246
      12 -> 15         0.28830
      12 -> 17         0.12019

 Excited State   3:      Singlet-A'     8.8427 eV  140.21 nm  f=0.0883  <S**2>=0.000
      11 -> 13        -0.15930
      12 -> 14        -0.23324
      12 -> 15         0.57756
      12 -> 17        -0.19195
      12 -> 18        -0.13952

 Excited State   4:      Singlet-A"     9.2581 eV  133.92 nm  f=0.0001  <S**2>=0.000
       7 -> 13         0.19058
       9 -> 13        -0.29352
      10 -> 13         0.60207

 Excited State   5:      Singlet-A'     9.3127 eV  133.13 nm  f=0.1143  <S**2>=0.000
      11 -> 13        -0.41264
      12 -> 17         0.47036
      12 -> 18        -0.26005

 Excited State   6:      Singlet-A"     9.4956 eV  130.57 nm  f=0.0107  <S**2>=0.000
      12 -> 16         0.66329
      12 -> 20        -0.19118

 Excited State   7:      Singlet-A'     9.6789 eV  128.10 nm  f=0.2678  <S**2>=0.000
      11 -> 13         0.48559
      12 -> 14        -0.18874
      12 -> 15         0.16780
      12 -> 17         0.38557

 Excited State   8:      Singlet-A"     9.9319 eV  124.83 nm  f=0.0018  <S**2>=0.000
       7 -> 13         0.16731
       9 -> 13         0.61402
      10 -> 13         0.24842

 Excited State   9:      Singlet-A'    10.1989 eV  121.57 nm  f=0.0044  <S**2>=0.000
      11 -> 13        -0.17171
      12 -> 17         0.20504
      12 -> 18         0.48593
      12 -> 19         0.38521

 Excited State  10:      Singlet-A"    10.4934 eV  118.15 nm  f=0.0050  <S**2>=0.000
      12 -> 16         0.16070
      12 -> 20         0.64551
      12 -> 22         0.14293

 Excited State  11:      Singlet-A'    10.5431 eV  117.60 nm  f=0.0854  <S**2>=0.000
      12 -> 14         0.11458
      12 -> 15        -0.15125
      12 -> 18        -0.37064
      12 -> 19         0.54239

 Excited State  12:      Singlet-A"    10.7194 eV  115.66 nm  f=0.0149  <S**2>=0.000
      11 -> 14         0.67149

 Excited State  13:      Singlet-A'    11.1227 eV  111.47 nm  f=0.0038  <S**2>=0.000
      12 -> 21         0.65082
      12 -> 24        -0.16476

 Excited State  14:      Singlet-A'    11.3394 eV  109.34 nm  f=0.1271  <S**2>=0.000
       8 -> 13         0.13691
      10 -> 14         0.62909
      10 -> 15        -0.19152

 Excited State  15:      Singlet-A"    11.4614 eV  108.18 nm  f=0.0231  <S**2>=0.000
       7 -> 13         0.60707
      10 -> 13        -0.24350
      11 -> 15        -0.18545

 Excited State  16:      Singlet-A"    11.6321 eV  106.59 nm  f=0.0636  <S**2>=0.000
       7 -> 13         0.17603
       8 -> 14         0.21841
      11 -> 15         0.62198

 Excited State  17:      Singlet-A'    11.7986 eV  105.08 nm  f=0.0654  <S**2>=0.000
       8 -> 13         0.64988
      10 -> 14        -0.11846

 Excited State  18:      Singlet-A"    11.9833 eV  103.46 nm  f=0.0080  <S**2>=0.000
      12 -> 16        -0.13658
      12 -> 20        -0.12326
      12 -> 22         0.65224
      12 -> 27        -0.13122

 Excited State  19:      Singlet-A'    12.1571 eV  101.99 nm  f=0.0676  <S**2>=0.000
       8 -> 13        -0.12116
      10 -> 15        -0.10704
      12 -> 21         0.11856
      12 -> 23        -0.35459
      12 -> 24         0.45075
      12 -> 25        -0.28604

 Excited State  20:      Singlet-A"    12.3209 eV  100.63 nm  f=0.0989  <S**2>=0.000
       8 -> 14         0.26456
      11 -> 17         0.59154
      11 -> 18        -0.10526
      11 -> 19        -0.15206

 Excited State  21:      Singlet-A'    12.4173 eV   99.85 nm  f=0.0829  <S**2>=0.000
      10 -> 14         0.18064
      10 -> 15         0.56746
      10 -> 19        -0.12127
      10 -> 21         0.11480
      11 -> 16         0.16592
      12 -> 24         0.13976

 Excited State  22:      Singlet-A'    12.5098 eV   99.11 nm  f=0.0508  <S**2>=0.000
      10 -> 15        -0.18357
      11 -> 16         0.41733
      12 -> 23         0.41892
      12 -> 24         0.20014
      12 -> 25        -0.11970

 Excited State  23:      Singlet-A'    12.6989 eV   97.63 nm  f=0.0526  <S**2>=0.000
      11 -> 16         0.47611
      12 -> 23        -0.34717
      12 -> 24        -0.29930

 Excited State  24:      Singlet-A"    12.7778 eV   97.03 nm  f=0.0049  <S**2>=0.000
       8 -> 15        -0.18234
      11 -> 17         0.13493
      11 -> 18         0.61149
      11 -> 19         0.12358
      11 -> 23         0.10007

 Excited State  25:      Singlet-A'    13.0818 eV   94.78 nm  f=0.0180  <S**2>=0.000
       9 -> 14         0.11196
      10 -> 17        -0.11146
      11 -> 16         0.12442
      11 -> 20         0.20090
      12 -> 23        -0.11206
      12 -> 24         0.23368
      12 -> 25         0.53919

 Excited State  26:      Singlet-A'    13.1101 eV   94.57 nm  f=0.0093  <S**2>=0.000
       9 -> 14         0.58698
       9 -> 15         0.14696
       9 -> 17         0.13265
      10 -> 17        -0.12164
      10 -> 18         0.12248
      12 -> 25        -0.13517

 Excited State  27:      Singlet-A"    13.1242 eV   94.47 nm  f=0.0017  <S**2>=0.000
       8 -> 14        -0.13186
       8 -> 15        -0.17165
      10 -> 16         0.42818
      10 -> 20         0.30909
      11 -> 19        -0.32360
      11 -> 21         0.11179

 Excited State  28:      Singlet-A"    13.1517 eV   94.27 nm  f=0.0505  <S**2>=0.000
       8 -> 14         0.26246
       8 -> 15         0.17870
      10 -> 16         0.39793
      11 -> 14         0.10073
      11 -> 15        -0.10112
      11 -> 19         0.35376
      11 -> 21        -0.16754

 Excited State  29:      Singlet-A"    13.3811 eV   92.66 nm  f=0.0082  <S**2>=0.000
       8 -> 14         0.43797
       8 -> 17        -0.12710
       8 -> 18         0.13820
      10 -> 16        -0.11993
      11 -> 15        -0.12477
      11 -> 17        -0.27338
      11 -> 18         0.10514
      11 -> 19        -0.34077

 Excited State  30:      Singlet-A'    13.4259 eV   92.35 nm  f=0.0654  <S**2>=0.000
       7 -> 14        -0.14452
       8 -> 16        -0.16224
       9 -> 14        -0.12489
      10 -> 17        -0.23886
      10 -> 21         0.10276
      11 -> 20         0.51248
      12 -> 23         0.13429
      12 -> 25        -0.14239

 Excited State  31:      Singlet-A'    13.4565 eV   92.14 nm  f=0.0269  <S**2>=0.000
       9 -> 15         0.14097
      10 -> 17         0.47451
      10 -> 18         0.21349
      10 -> 19        -0.25310
      11 -> 20         0.24188
      11 -> 22         0.13290

 Excited State  32:      Singlet-A'    13.6023 eV   91.15 nm  f=0.0974  <S**2>=0.000
       7 -> 14        -0.14947
       9 -> 14        -0.14658
       9 -> 17         0.12898
      10 -> 18         0.49521
      10 -> 19         0.34568

 Excited State  33:      Singlet-A"    13.7118 eV   90.42 nm  f=0.0002  <S**2>=0.000
       8 -> 14         0.17569
       8 -> 15        -0.23701
       8 -> 17         0.25227
      10 -> 20        -0.19624
      10 -> 22        -0.13047
      11 -> 18        -0.10059
      11 -> 19         0.10185
      11 -> 21         0.46225

 Excited State  34:      Singlet-A"    13.7892 eV   89.91 nm  f=0.0329  <S**2>=0.000
      10 -> 20        -0.15326
      12 -> 26         0.64609

 Excited State  35:      Singlet-A'    13.9193 eV   89.07 nm  f=0.0166  <S**2>=0.000
       7 -> 14        -0.17476
       9 -> 15         0.48379
       9 -> 17        -0.14457
       9 -> 18        -0.15613
      10 -> 19        -0.17909
      10 -> 21         0.17910
      11 -> 20        -0.18958
      11 -> 22        -0.16154

 Excited State  36:      Singlet-A"    14.0167 eV   88.45 nm  f=0.0547  <S**2>=0.000
       8 -> 14         0.12540
      10 -> 16        -0.25113
      10 -> 20         0.44458
      10 -> 22         0.23997
      11 -> 19         0.20417
      11 -> 21         0.15567
      12 -> 26         0.14430

 Excited State  37:      Singlet-A'    14.1010 eV   87.93 nm  f=0.0610  <S**2>=0.000
       7 -> 14         0.29259
       7 -> 15         0.19553
       9 -> 15         0.31102
       9 -> 17        -0.28546
      10 -> 19         0.29533
      11 -> 22         0.15035

 Excited State  38:      Singlet-A"    14.2780 eV   86.84 nm  f=0.0009  <S**2>=0.000
       6 -> 13        -0.32457
       8 -> 15        -0.10856
       8 -> 18        -0.16176
       8 -> 19        -0.14985
      11 -> 21        -0.12983
      11 -> 23         0.13267
      12 -> 22         0.10776
      12 -> 27         0.47693

 Excited State  39:      Singlet-A'    14.4126 eV   86.02 nm  f=0.0863  <S**2>=0.000
       7 -> 14         0.18481
       7 -> 15        -0.19178
       7 -> 17         0.13180
       8 -> 16        -0.17666
       9 -> 15        -0.17488
       9 -> 17        -0.27396
      10 -> 18         0.17420
      10 -> 19         0.11357
      10 -> 21         0.30705
      11 -> 22        -0.24072
      12 -> 28         0.10086

 Excited State  40:      Singlet-A"    14.4386 eV   85.87 nm  f=0.0110  <S**2>=0.000
       6 -> 13         0.21533
       8 -> 15         0.22720
       8 -> 18         0.20631
       8 -> 19         0.11934
       9 -> 16        -0.19206
      11 -> 18         0.10638
      11 -> 21         0.18497
      11 -> 23        -0.17311
      12 -> 27         0.39789

 Excited State  41:      Singlet-A"    14.5548 eV   85.18 nm  f=0.0019  <S**2>=0.000
       8 -> 15         0.20879
       9 -> 16         0.52527
       9 -> 20        -0.17943
      10 -> 22        -0.27865

 Excited State  42:      Singlet-A'    14.6024 eV   84.91 nm  f=0.0147  <S**2>=0.000
       7 -> 14         0.32597
       7 -> 19        -0.14244
       8 -> 16        -0.16471
       9 -> 14        -0.13274
       9 -> 17         0.30118
       9 -> 18        -0.22847
      11 -> 22        -0.22203
      12 -> 28        -0.24077

 Excited State  43:      Singlet-A"    14.6699 eV   84.52 nm  f=0.0013  <S**2>=0.000
       6 -> 13        -0.26730
       8 -> 15         0.42188
       8 -> 19        -0.20471
       9 -> 16        -0.12502
      10 -> 22         0.11513
      11 -> 18         0.12240
      11 -> 19        -0.11989
      11 -> 21         0.19093
      11 -> 23         0.13438
      11 -> 24         0.13516
      12 -> 27        -0.13493

 Excited State  44:      Singlet-A'    14.7110 eV   84.28 nm  f=0.1829  <S**2>=0.000
       7 -> 14         0.33771
       7 -> 17        -0.10670
       7 -> 18         0.10228
       9 -> 19         0.12517
      10 -> 15        -0.10320
      10 -> 17        -0.19774
      10 -> 19        -0.24877
      12 -> 28         0.39889

 Excited State  45:      Singlet-A'    14.7565 eV   84.02 nm  f=0.0268  <S**2>=0.000
       7 -> 14        -0.12392
       7 -> 15         0.16104
       8 -> 16        -0.18122
       9 -> 17         0.14803
       9 -> 18         0.18997
      10 -> 17         0.18506
      10 -> 18        -0.13925
      10 -> 19         0.10012
      10 -> 21        -0.13784
      11 -> 22        -0.29859
      12 -> 28         0.35889

 Excited State  46:      Singlet-A"    14.8685 eV   83.39 nm  f=0.0009  <S**2>=0.000
       6 -> 13        -0.20147
       8 -> 14        -0.11802
       8 -> 15        -0.11271
       8 -> 17         0.17514
       8 -> 18         0.29658
      11 -> 18         0.12470
      11 -> 21        -0.20440
      11 -> 23        -0.30621
      11 -> 24         0.33650

 Excited State  47:      Singlet-A"    14.9952 eV   82.68 nm  f=0.0548  <S**2>=0.000
       6 -> 13         0.26279
       8 -> 18        -0.17067
       8 -> 21        -0.19262
      11 -> 15        -0.11451
      11 -> 21        -0.11376
      11 -> 23         0.16136
      11 -> 24         0.41275
      11 -> 25        -0.26108

 Excited State  48:      Singlet-A'    15.1482 eV   81.85 nm  f=0.1577  <S**2>=0.000
       7 -> 15         0.35299
       8 -> 16        -0.15772
       8 -> 20        -0.12273
       9 -> 18         0.38273
      10 -> 15        -0.10118
      10 -> 17        -0.10561
      10 -> 19        -0.10720
      10 -> 21         0.10886
      10 -> 23         0.13285
      10 -> 25        -0.14537
      11 -> 20        -0.10684
      12 -> 28        -0.19434

 Excited State  49:      Singlet-A"    15.1698 eV   81.73 nm  f=0.0106  <S**2>=0.000
       7 -> 16         0.30156
       7 -> 20         0.11029
       9 -> 16         0.30784
       9 -> 20         0.35615
      10 -> 16         0.10136
      10 -> 20        -0.13983
      10 -> 22         0.27810

 Excited State  50:      Singlet-A'    15.2321 eV   81.40 nm  f=0.0867  <S**2>=0.000
       9 -> 17         0.24161
       9 -> 19        -0.19289
      10 -> 18        -0.14147
      10 -> 21         0.36831
      10 -> 24         0.17442
      11 -> 22         0.27992
      12 -> 28         0.19979

 Excited State  51:      Singlet-A'    15.3503 eV   80.77 nm  f=0.0309  <S**2>=0.000
       7 -> 15        -0.27739
       7 -> 17         0.14851
       9 -> 15         0.11223
       9 -> 17         0.20567
       9 -> 18         0.26070
       9 -> 19         0.33832
       9 -> 21        -0.14352
      10 -> 25         0.12347
      12 -> 28        -0.11550
      12 -> 29         0.14578

 Excited State  52:      Singlet-A'    15.4018 eV   80.50 nm  f=0.1764  <S**2>=0.000
       7 -> 15         0.12944
       8 -> 16         0.36918
       8 -> 20         0.36245
       8 -> 22         0.12248
       9 -> 18         0.10211
      10 -> 21         0.19308
      11 -> 20         0.15269
      11 -> 22        -0.23104

 Excited State  53:      Singlet-A"    15.4019 eV   80.50 nm  f=0.1542  <S**2>=0.000
       6 -> 13         0.23242
       8 -> 17         0.24794
       8 -> 18         0.10399
       8 -> 19        -0.14151
       9 -> 16        -0.12520
       9 -> 20         0.24651
      10 -> 16        -0.10139
      10 -> 20         0.18858
      10 -> 22        -0.22859
      11 -> 21        -0.10020
      11 -> 23         0.12100
      11 -> 24        -0.11943
      11 -> 25         0.25798

 Excited State  54:      Singlet-A"    15.5845 eV   79.56 nm  f=0.0544  <S**2>=0.000
       6 -> 13        -0.10501
       8 -> 17        -0.30634
       9 -> 20         0.38818
      10 -> 22        -0.29157
      11 -> 23        -0.16832
      11 -> 24         0.17552

 Excited State  55:      Singlet-A'    15.6794 eV   79.07 nm  f=0.0115  <S**2>=0.000
       7 -> 15         0.20946
       7 -> 17        -0.13943
       9 -> 15        -0.11528
       9 -> 18        -0.19808
       9 -> 19         0.42577
       9 -> 21         0.13402
      10 -> 21         0.12045
      10 -> 24         0.32142

 Excited State  56:      Singlet-A"    15.7004 eV   78.97 nm  f=0.1012  <S**2>=0.000
       6 -> 13        -0.14907
       8 -> 18         0.26919
       8 -> 19         0.36609
       8 -> 21        -0.22266
      11 -> 23         0.38662

 Excited State  57:      Singlet-A'    15.7743 eV   78.60 nm  f=0.0372  <S**2>=0.000
       7 -> 18        -0.24066
       7 -> 19        -0.21499
       8 -> 16         0.20121
       8 -> 20        -0.10984
       9 -> 21         0.18846
      10 -> 23         0.16132
      10 -> 24         0.12539
      12 -> 29         0.39620

 Excited State  58:      Singlet-A"    15.8628 eV   78.16 nm  f=0.1586  <S**2>=0.000
       6 -> 13         0.12785
       8 -> 17        -0.34716
       8 -> 19        -0.15153
       8 -> 24        -0.13591
       9 -> 20        -0.11301
      10 -> 22         0.13076
      11 -> 23         0.13295
      11 -> 24         0.23450
      11 -> 25         0.38120

 Excited State  59:      Singlet-A'    15.8919 eV   78.02 nm  f=0.0226  <S**2>=0.000
       8 -> 16        -0.33388
       8 -> 20         0.41707
       8 -> 22         0.14159
      11 -> 22         0.20951
      11 -> 26        -0.15309
      12 -> 29         0.18178
      12 -> 31        -0.15736

 Excited State  60:      Singlet-A'    15.9956 eV   77.51 nm  f=0.1629  <S**2>=0.000
       7 -> 17        -0.13375
       7 -> 18         0.30034
       7 -> 19         0.18827
       8 -> 20        -0.16339
       9 -> 19        -0.13969
       9 -> 21        -0.10385
       9 -> 23         0.13892
      10 -> 23        -0.25859
      10 -> 25        -0.10568
      12 -> 29         0.31593
      12 -> 31        -0.16909

 Excited State  61:      Singlet-A'    16.1093 eV   76.96 nm  f=0.0284  <S**2>=0.000
       7 -> 15        -0.26611
       7 -> 17        -0.15933
       7 -> 19         0.11023
       9 -> 15         0.11731
       9 -> 18         0.16455
       9 -> 21         0.23481
      10 -> 19         0.10471
      10 -> 23        -0.12123
      10 -> 24         0.21004
      10 -> 25        -0.24675
      12 -> 31         0.29554

 Excited State  62:      Singlet-A'    16.1377 eV   76.83 nm  f=0.0005  <S**2>=0.000
       7 -> 17         0.31146
       9 -> 21        -0.27523
      10 -> 17        -0.10740
      10 -> 23        -0.15258
      10 -> 24         0.11718
      10 -> 25        -0.16607
      12 -> 31         0.30005
      12 -> 32         0.23546

 Excited State  63:      Singlet-A'    16.2327 eV   76.38 nm  f=0.1756  <S**2>=0.000
       7 -> 17        -0.18080
       7 -> 21         0.14202
      10 -> 21         0.18340
      10 -> 24        -0.26118
      10 -> 25         0.28924
      12 -> 29         0.13645
      12 -> 31         0.35225
      12 -> 32         0.20038

 Excited State  64:      Singlet-A"    16.2684 eV   76.21 nm  f=0.0240  <S**2>=0.000
       7 -> 16         0.52445
       9 -> 22        -0.28407
      10 -> 20         0.16675
      10 -> 22        -0.17203
      10 -> 27        -0.12057
      12 -> 30         0.11868

 Excited State  65:      Singlet-A"    16.3947 eV   75.62 nm  f=0.0003  <S**2>=0.000
       8 -> 18         0.26288
       8 -> 19        -0.27156
       8 -> 21         0.33200
       8 -> 23         0.18910
      11 -> 23         0.22149
      11 -> 25        -0.29116

 Excited State  66:      Singlet-A'    16.5508 eV   74.91 nm  f=0.0711  <S**2>=0.000
       7 -> 14        -0.10907
       7 -> 17         0.17543
       7 -> 18         0.23362
       7 -> 19        -0.22293
       8 -> 16         0.10526
       9 -> 18         0.11778
       9 -> 19        -0.10480
       9 -> 21         0.23566
       9 -> 23         0.11708
       9 -> 24        -0.14789
      10 -> 18         0.13182
      10 -> 19        -0.11363
      10 -> 23        -0.19994
      10 -> 24         0.18826
      10 -> 25         0.24195
      12 -> 32        -0.10439

 Excited State  67:      Singlet-A"    16.5901 eV   74.73 nm  f=0.1733  <S**2>=0.000
       7 -> 16        -0.10318
       7 -> 20        -0.20314
      12 -> 30         0.61059

 Excited State  68:      Singlet-A'    16.7407 eV   74.06 nm  f=0.0292  <S**2>=0.000
       7 -> 17         0.21033
       7 -> 18         0.11573
       7 -> 19         0.17731
       8 -> 22         0.24228
       9 -> 21         0.27941
      11 -> 26         0.14672
      11 -> 27        -0.25010
      12 -> 29        -0.11790
      12 -> 31        -0.11311
      12 -> 32         0.28513

 Excited State  69:      Singlet-A'    16.8055 eV   73.78 nm  f=0.1122  <S**2>=0.000
       7 -> 17        -0.15223
       7 -> 21        -0.11463
       8 -> 22         0.35010
       9 -> 21        -0.17635
      10 -> 24         0.20624
      10 -> 25         0.17584
      11 -> 27        -0.30194
      12 -> 32        -0.19085

 Excited State  70:      Singlet-A"    16.8368 eV   73.64 nm  f=0.0954  <S**2>=0.000
       7 -> 20         0.55022
       7 -> 22         0.11394
       9 -> 16        -0.11451
      10 -> 26        -0.13844
      11 -> 25        -0.12099
      12 -> 30         0.23858

 Excited State  71:      Singlet-A'    16.8528 eV   73.57 nm  f=0.0622  <S**2>=0.000
       6 -> 14         0.11635
       7 -> 17        -0.12940
       7 -> 18         0.15609
       7 -> 21        -0.10105
       8 -> 22        -0.17637
       9 -> 19        -0.13576
      10 -> 23         0.30278
      10 -> 24         0.20775

 The electronic state is 1-A'.
 Alpha  occ. eigenvalues --  -19.02598 -10.26070 -10.16976  -1.20940  -0.92293
 Alpha  occ. eigenvalues --   -0.73362  -0.63286  -0.59485  -0.58687  -0.53867
 Alpha  occ. eigenvalues --   -0.50706  -0.39556
 Alpha virt. eigenvalues --    0.06852   0.07649   0.10313   0.14454   0.14825
 Alpha virt. eigenvalues --    0.16859   0.17997   0.18252   0.18941   0.22343
 Alpha virt. eigenvalues --    0.24709   0.25502   0.27462   0.31001   0.32917

 Mulliken charges:
               1
     1  C    0.504183
     2  C    0.004081
     3  O   -0.171072
     4  H   -0.008127
     5  H   -0.008127
     6  H   -0.099261
     7  H   -0.221677
 Sum of Mulliken charges =   0.00000

 Dipole moment (field-independent basis, Debye):
    X=              3.0731    Y=             -0.2940    Z=             -0.0000  Tot=              3.0871
 Quadrupole moment (field-independent basis, Debye-Ang):
   XX=            -21.6632   YY=            -18.0335   ZZ=            -18.1503
   XY=              0.9250   XZ=             -0.0000   YZ=              0.0000

 1\1\GINC-HEL25\SP\RLC-BLYP TD-FC\Gen\C2H4O1\SABYASACHI\21-Mar-2022\0\\
 #P TD(Nstates=10000) lc-blyp/Gen SCF(maxcycles=100) Int(Grid=ultrafine
 )\\xGDB7_00001_tier4.com\\0,1\C,0,0.926252,-0.719055,0.\C,0,0.,0.45927
 6,0.\O,0,-1.196998,0.387135,0.\H,0,1.575966,-0.668677,0.877698\H,0,1.5
 75966,-0.668677,-0.877698\H,0,0.366734,-1.652236,0.\H,0,0.499812,1.451
 182,0.\\Version=EM64L-G16RevC.01\State=1-A'\HF=-153.3341227\RMSD=5.282
 e-09\PG=CS [SG(C2H2O1),X(H2)]\\@
 The archive entry for this job was punched.

 Normal termination of Gaussian 16 at Mon Mar 21 20:07:56 2022.
