 Gaussian 16, Revision C.01,
 Gaussian 16:  EM64L-G16RevC.01  3-Jul-2019

 ----------------------------------------------------------------------
 #P TD(Nstates=10000) lc-blyp/Gen SCF(maxcycles=100) Int(Grid=ultrafine
 )
 ----------------------------------------------------------------------

 ---------------------
 xGDB7_00001_tier4.com
 ---------------------
 Symbolic Z-matrix:
 Charge =  0 Multiplicity = 1

                         Standard orientation:
 ---------------------------------------------------------------------
 Center     Atomic      Atomic             Coordinates (Angstroms)
 Number     Number       Type             X           Y           Z
 ---------------------------------------------------------------------
      1          6           0        0.000000    0.000000   -0.524273
      2          8           0        0.000000    0.000000    0.670793
      3          1           0        0.000000    0.939221   -1.110351
      4          1           0       -0.000000   -0.939221   -1.110351
 ---------------------------------------------------------------------

 SCF Done:  E(RLC-B+HF-LYP) =  -114.156348886     A.U. after   12 cycles

 Excitation energies and oscillator strengths:

 Excited State   1:      Singlet-A2     3.9712 eV  312.21 nm  f=0.0000  <S**2>=0.000
       8 ->  9         0.69624
       8 -> 18        -0.10119
 This state for optimization and/or second-order correction.
 Total Energy, E(TD-HF/TD-DFT) =  -114.010408578
 Copying the excited state density for this state as the 1-particle RhoCI density.

 Excited State   2:      Singlet-B2     7.8760 eV  157.42 nm  f=0.0210  <S**2>=0.000
       8 -> 10         0.67811
       8 -> 12         0.12053
       8 -> 14         0.11466

 Excited State   3:      Singlet-B2     9.2429 eV  134.14 nm  f=0.0697  <S**2>=0.000
       8 -> 10        -0.14630
       8 -> 12         0.65418
       8 -> 14         0.19037

 Excited State   4:      Singlet-A1     9.3848 eV  132.11 nm  f=0.1409  <S**2>=0.000
       7 ->  9         0.11852
       8 -> 11         0.68760

 Excited State   5:      Singlet-B1     9.3933 eV  131.99 nm  f=0.0004  <S**2>=0.000
       6 ->  9         0.69318
       6 -> 18        -0.10456

 Excited State   6:      Singlet-A2     9.8100 eV  126.39 nm  f=0.0000  <S**2>=0.000
       8 -> 13         0.69556

 Excited State   7:      Singlet-A1     9.9070 eV  125.15 nm  f=0.0918  <S**2>=0.000
       7 ->  9         0.64666
       8 -> 11        -0.12119
       8 -> 16        -0.20977

 Excited State   8:      Singlet-A2    10.4558 eV  118.58 nm  f=0.0000  <S**2>=0.000
       5 ->  9         0.69263

 Excited State   9:      Singlet-B2    10.6171 eV  116.78 nm  f=0.0358  <S**2>=0.000
       8 -> 12        -0.20251
       8 -> 14         0.65330
       8 -> 15         0.10211

 Excited State  10:      Singlet-B2    11.2391 eV  110.32 nm  f=0.0372  <S**2>=0.000
       8 -> 15         0.68699

 Excited State  11:      Singlet-B1    11.7786 eV  105.26 nm  f=0.0647  <S**2>=0.000
       7 -> 10         0.67030
       7 -> 12         0.13508
       7 -> 14         0.13453

 Excited State  12:      Singlet-A1    12.2881 eV  100.90 nm  f=0.2421  <S**2>=0.000
       6 -> 10        -0.11170
       7 ->  9         0.18235
       7 -> 13        -0.15566
       8 -> 16         0.64266

 Excited State  13:      Singlet-B1    12.2906 eV  100.88 nm  f=0.0224  <S**2>=0.000
       8 -> 17         0.69064
       8 -> 24         0.12781

 Excited State  14:      Singlet-A2    13.1704 eV   94.14 nm  f=0.0000  <S**2>=0.000
       7 -> 11         0.69161
       7 -> 23        -0.11218

 Excited State  15:      Singlet-B1    13.2142 eV   93.83 nm  f=0.0426  <S**2>=0.000
       7 -> 10        -0.14935
       7 -> 12         0.66184
       7 -> 14         0.12597

 Excited State  16:      Singlet-A2    13.3430 eV   92.92 nm  f=0.0000  <S**2>=0.000
       5 -> 13        -0.10608
       8 -> 18         0.67936

 Excited State  17:      Singlet-A1    13.4493 eV   92.19 nm  f=0.0040  <S**2>=0.000
       6 -> 10         0.61299
       6 -> 12         0.19969
       6 -> 14         0.11570
       7 -> 13        -0.23522

 Excited State  18:      Singlet-A1    13.9565 eV   88.84 nm  f=0.0003  <S**2>=0.000
       6 -> 10         0.18754
       6 -> 14         0.10212
       7 ->  9         0.10537
       7 -> 13         0.62860
       8 -> 16         0.16355

 Excited State  19:      Singlet-B2    14.3015 eV   86.69 nm  f=0.2157  <S**2>=0.000
       5 -> 10         0.65656
       6 -> 11        -0.18954

 Excited State  20:      Singlet-A1    14.4524 eV   85.79 nm  f=0.2240  <S**2>=0.000
       6 -> 10        -0.21953
       6 -> 12         0.65387

 Excited State  21:      Singlet-B1    14.4747 eV   85.66 nm  f=0.0060  <S**2>=0.000
       4 ->  9         0.12349
       7 -> 10        -0.12389
       7 -> 14         0.59581
       7 -> 15         0.29751

 Excited State  22:      Singlet-B2    14.6321 eV   84.73 nm  f=0.0193  <S**2>=0.000
       5 -> 10         0.18400
       6 -> 11         0.66994

 Excited State  23:      Singlet-B1    14.8160 eV   83.68 nm  f=0.0048  <S**2>=0.000
       4 ->  9         0.35072
       7 -> 12         0.15672
       7 -> 14        -0.30445
       7 -> 15         0.49436

 Excited State  24:      Singlet-B1    14.9455 eV   82.96 nm  f=0.0250  <S**2>=0.000
       6 -> 13         0.68997

 Excited State  25:      Singlet-B2    15.0299 eV   82.49 nm  f=0.0145  <S**2>=0.000
       5 -> 12         0.22984
       5 -> 14         0.14047
       8 -> 19         0.61535
       8 -> 21         0.10768

 Excited State  26:      Singlet-A2    15.3014 eV   81.03 nm  f=0.0000  <S**2>=0.000
       7 -> 16         0.68874
       7 -> 27         0.11292

 Excited State  27:      Singlet-A1    15.3307 eV   80.87 nm  f=0.2146  <S**2>=0.000
       8 -> 20         0.68150

 Excited State  28:      Singlet-B2    15.8129 eV   78.41 nm  f=0.0399  <S**2>=0.000
       7 -> 17        -0.25965
       8 -> 19        -0.19479
       8 -> 21         0.58697
       8 -> 22        -0.11420

 Excited State  29:      Singlet-B1    15.8348 eV   78.30 nm  f=0.2717  <S**2>=0.000
       4 ->  9         0.56531
       5 -> 17        -0.10809
       7 -> 15        -0.36426
       8 -> 24        -0.12280

 Excited State  30:      Singlet-A1    15.9226 eV   77.87 nm  f=0.0195  <S**2>=0.000
       5 -> 11        -0.19851
       6 -> 10        -0.10365
       6 -> 14         0.63650

 Excited State  31:      Singlet-B2    16.0550 eV   77.22 nm  f=0.0056  <S**2>=0.000
       5 -> 12         0.53526
       5 -> 14         0.24369
       5 -> 15        -0.13217
       8 -> 19        -0.21417
       8 -> 21        -0.17767
       8 -> 22         0.16884

 Excited State  32:      Singlet-B2    16.2485 eV   76.31 nm  f=0.0827  <S**2>=0.000
       5 -> 15        -0.17510
       6 -> 16         0.13416
       7 -> 17         0.59398
       7 -> 24         0.11247
       8 -> 21         0.23728

 Excited State  33:      Singlet-A1    16.3770 eV   75.71 nm  f=0.0087  <S**2>=0.000
       5 -> 11         0.18952
       6 -> 15         0.65391
       6 -> 22        -0.10338

 Excited State  34:      Singlet-A1    16.4493 eV   75.37 nm  f=0.0098  <S**2>=0.000
       5 -> 11         0.58911
       5 -> 16         0.11511
       6 -> 14         0.16095
       6 -> 15        -0.19149
       7 -> 13        -0.10186
       7 -> 18         0.10866
       8 -> 23        -0.18507

 Excited State  35:      Singlet-A2    16.7064 eV   74.21 nm  f=0.0000  <S**2>=0.000
       5 -> 13         0.67133
       5 -> 18         0.12387
       8 -> 18         0.11135

 Excited State  36:      Singlet-B2    16.7418 eV   74.06 nm  f=0.1076  <S**2>=0.000
       5 -> 14        -0.17390
       5 -> 15        -0.16378
       6 -> 16        -0.33320
       7 -> 17        -0.10866
       8 -> 21         0.11150
       8 -> 22         0.52078

 Excited State  37:      Singlet-B2    16.8073 eV   73.77 nm  f=0.1309  <S**2>=0.000
       4 -> 11         0.11821
       5 -> 12        -0.10140
       6 -> 16         0.56943
       7 -> 17        -0.15721
       8 -> 22         0.28988

 Excited State  38:      Singlet-A1    17.2003 eV   72.08 nm  f=0.0978  <S**2>=0.000
       5 -> 11         0.14871
       8 -> 23         0.65176

 Excited State  39:      Singlet-B1    17.2266 eV   71.97 nm  f=0.2535  <S**2>=0.000
       4 ->  9         0.12087
       5 -> 17         0.11579
       8 -> 17        -0.11949
       8 -> 24         0.66603

 Excited State  40:      Singlet-A1    17.4895 eV   70.89 nm  f=0.0025  <S**2>=0.000
       4 -> 10        -0.11643
       5 -> 11        -0.15089
       5 -> 16         0.20472
       7 -> 18         0.62804

 Excited State  41:      Singlet-B2    17.5071 eV   70.82 nm  f=0.2304  <S**2>=0.000
       5 -> 12        -0.15242
       5 -> 14         0.43430
       5 -> 15         0.36568
       7 -> 17         0.10114
       8 -> 21         0.13922
       8 -> 22         0.25349
       8 -> 26         0.17838

 Excited State  42:      Singlet-A2    17.6820 eV   70.12 nm  f=0.0000  <S**2>=0.000
       6 -> 17         0.63148
       6 -> 24         0.14021
       8 -> 25        -0.26846

 Excited State  43:      Singlet-A2    17.7566 eV   69.82 nm  f=0.0000  <S**2>=0.000
       6 -> 17         0.25866
       8 -> 25         0.64239

 Excited State  44:      Singlet-B2    17.8726 eV   69.37 nm  f=0.0305  <S**2>=0.000
       5 -> 12        -0.11419
       5 -> 15        -0.29204
       8 -> 26         0.58258
       8 -> 28         0.15054

 Excited State  45:      Singlet-A1    18.1825 eV   68.19 nm  f=0.0001  <S**2>=0.000
       4 -> 10         0.57699
       5 -> 16         0.36716

 Excited State  46:      Singlet-B2    18.2871 eV   67.80 nm  f=0.0108  <S**2>=0.000
       5 -> 12         0.28248
       5 -> 14        -0.39848
       5 -> 15         0.41824
       8 -> 26         0.21328

 Excited State  47:      Singlet-B1    18.6310 eV   66.55 nm  f=0.1016  <S**2>=0.000
       4 -> 13         0.19941
       4 -> 18         0.10342
       5 -> 17         0.36622
       6 -> 18         0.53272

 Excited State  48:      Singlet-A1    18.6453 eV   66.50 nm  f=0.0560  <S**2>=0.000
       4 -> 10        -0.33477
       4 -> 12         0.12689
       5 -> 16         0.51259
       7 -> 18        -0.24888

 Excited State  49:      Singlet-B1    18.9137 eV   65.55 nm  f=0.0891  <S**2>=0.000
       5 -> 17         0.51198
       6 -> 18        -0.37974
       7 -> 19         0.21589
       7 -> 21         0.10387

 Excited State  50:      Singlet-B1    19.1060 eV   64.89 nm  f=0.0057  <S**2>=0.000
       5 -> 17        -0.20000
       6 -> 18         0.12753
       7 -> 19         0.63241

 Excited State  51:      Singlet-A2    19.1262 eV   64.82 nm  f=0.0000  <S**2>=0.000
       7 -> 20         0.69623

 Excited State  52:      Singlet-A1    19.5867 eV   63.30 nm  f=0.0852  <S**2>=0.000
       4 -> 12         0.48179
       4 -> 14         0.34312
       5 -> 16        -0.12605
       6 -> 19        -0.18769
       8 -> 27         0.23244

 Excited State  53:      Singlet-B1    19.6294 eV   63.16 nm  f=0.1011  <S**2>=0.000
       7 -> 19        -0.15732
       7 -> 21         0.64990
       7 -> 22        -0.13982

 Excited State  54:      Singlet-A2    19.7787 eV   62.69 nm  f=0.0000  <S**2>=0.000
       5 -> 13        -0.13142
       5 -> 18         0.67113

 Excited State  55:      Singlet-B2    19.8290 eV   62.53 nm  f=0.0025  <S**2>=0.000
       4 -> 11         0.63945
       4 -> 16         0.20386
       4 -> 23        -0.10920
       6 -> 16        -0.13096

 Excited State  56:      Singlet-A1    20.2239 eV   61.31 nm  f=0.0487  <S**2>=0.000
       4 -> 12        -0.23098
       4 -> 14        -0.20903
       6 -> 19        -0.29792
       6 -> 26         0.13575
       8 -> 27         0.50147

 Excited State  57:      Singlet-B2    20.5636 eV   60.29 nm  f=0.0274  <S**2>=0.000
       4 -> 16         0.16937
       6 -> 20         0.66847

 Excited State  58:      Singlet-B1    20.6429 eV   60.06 nm  f=0.0004  <S**2>=0.000
       4 -> 13         0.62255
       4 -> 18         0.12116
       5 -> 17        -0.11015
       6 -> 18        -0.17172
       7 -> 22         0.18314

 Excited State  59:      Singlet-A1    20.6932 eV   59.92 nm  f=0.0026  <S**2>=0.000
       4 -> 12        -0.21567
       4 -> 14         0.33524
       4 -> 15         0.51060
       5 -> 20         0.13471
       6 -> 19        -0.12911
       6 -> 22         0.14390

 Excited State  60:      Singlet-A2    20.8034 eV   59.60 nm  f=0.0000  <S**2>=0.000
       7 -> 11         0.11009
       7 -> 16         0.10848
       7 -> 23         0.68045

 Excited State  61:      Singlet-B1    20.9725 eV   59.12 nm  f=0.0867  <S**2>=0.000
       4 -> 13        -0.17827
       7 -> 21         0.11203
       7 -> 22         0.63329
       7 -> 26        -0.15549

 Excited State  62:      Singlet-B2    21.0074 eV   59.02 nm  f=0.0120  <S**2>=0.000
       7 -> 24         0.19508
       8 -> 26        -0.17324
       8 -> 28         0.53221
       8 -> 30         0.34932

 Excited State  63:      Singlet-A1    21.1269 eV   58.69 nm  f=0.0813  <S**2>=0.000
       4 -> 15         0.11066
       6 -> 19         0.52309
       7 -> 25        -0.32330
       8 -> 27         0.27652

 Excited State  64:      Singlet-B2    21.1789 eV   58.54 nm  f=0.0304  <S**2>=0.000
       7 -> 17        -0.12406
       7 -> 24         0.63775
       8 -> 28        -0.22103

 Excited State  65:      Singlet-A1    21.3069 eV   58.19 nm  f=0.0051  <S**2>=0.000
       4 -> 15         0.12454
       5 -> 20         0.10559
       6 -> 21         0.62512
       6 -> 22        -0.21569

 Excited State  66:      Singlet-B1    21.7692 eV   56.95 nm  f=0.0062  <S**2>=0.000
       7 -> 21         0.14420
       7 -> 22         0.10543
       7 -> 26         0.62526
       7 -> 28         0.19409

 Excited State  67:      Singlet-A1    21.7701 eV   56.95 nm  f=0.0002  <S**2>=0.000
       4 -> 15        -0.20610
       5 -> 20         0.56505
       8 -> 27        -0.10880
       8 -> 29        -0.30891

 Excited State  68:      Singlet-B2    21.7715 eV   56.95 nm  f=0.0693  <S**2>=0.000
       4 -> 16         0.18449
       5 -> 19         0.63417
       5 -> 21        -0.11832

 Excited State  69:      Singlet-B2    21.8643 eV   56.71 nm  f=0.0463  <S**2>=0.000
       4 -> 11        -0.16550
       4 -> 16         0.51722
       4 -> 20         0.10192
       5 -> 19        -0.15903
       5 -> 21         0.17420
       5 -> 22        -0.14068
       6 -> 20        -0.13415
       8 -> 28        -0.18316
       8 -> 30         0.21238

 Excited State  70:      Singlet-A1    21.8727 eV   56.68 nm  f=0.0144  <S**2>=0.000
       4 -> 12         0.18510
       4 -> 14        -0.21479
       4 -> 15         0.21863
       6 -> 19         0.16008
       6 -> 26         0.12524
       7 -> 25         0.49850
       8 -> 27         0.12809
       8 -> 29        -0.18218

 Excited State  71:      Singlet-A2    21.9849 eV   56.40 nm  f=0.0000  <S**2>=0.000
       4 -> 17         0.45577
       6 -> 24        -0.30454
       8 -> 31         0.42213

 Excited State  72:      Singlet-B2    22.0595 eV   56.20 nm  f=0.0178  <S**2>=0.000
       4 -> 16        -0.18444
       5 -> 21        -0.15175
       6 -> 23         0.23061
       8 -> 28        -0.27154
       8 -> 30         0.51881

 Excited State  73:      Singlet-A2    22.0947 eV   56.12 nm  f=0.0000  <S**2>=0.000
       4 -> 17        -0.33174
       6 -> 24         0.24552
       8 -> 31         0.55251

 Excited State  74:      Singlet-A1    22.2466 eV   55.73 nm  f=0.0040  <S**2>=0.000
       4 -> 12        -0.25967
       4 -> 14         0.36238
       4 -> 15        -0.18001
       6 -> 19         0.14895
       6 -> 22        -0.32196
       6 -> 26         0.11434
       7 -> 25         0.29499
       8 -> 27         0.13294

 Excited State  75:      Singlet-B2    22.2594 eV   55.70 nm  f=0.0046  <S**2>=0.000
       4 -> 16        -0.19198
       5 -> 19         0.15847
       5 -> 21         0.58530
       5 -> 22        -0.19948
       8 -> 32        -0.11574

 Excited State  76:      Singlet-A1    22.3544 eV   55.46 nm  f=0.0107  <S**2>=0.000
       4 -> 12        -0.12020
       4 -> 14         0.16015
       4 -> 15        -0.23985
       6 -> 21         0.26930
       6 -> 22         0.52094

 Excited State  77:      Singlet-B2    22.5518 eV   54.98 nm  f=0.0299  <S**2>=0.000
       4 -> 16         0.11212
       6 -> 23         0.61664
       8 -> 30        -0.13796
       8 -> 32         0.16537

 Excited State  78:      Singlet-A2    22.7679 eV   54.46 nm  f=0.0000  <S**2>=0.000
       4 -> 17         0.38994
       6 -> 17        -0.15777
       6 -> 24         0.55418

 Excited State  79:      Singlet-A1    22.7987 eV   54.38 nm  f=0.0836  <S**2>=0.000
       5 -> 20         0.33523
       6 -> 22         0.10897
       7 -> 25         0.13649
       8 -> 29         0.57448

 Excited State  80:      Singlet-B1    23.0856 eV   53.71 nm  f=0.0042  <S**2>=0.000
       4 -> 18        -0.18822
       5 -> 24         0.10996
       6 -> 25         0.66055

 Excited State  81:      Singlet-B2    23.4046 eV   52.97 nm  f=0.3321  <S**2>=0.000
       5 -> 21         0.22923
       5 -> 22         0.47843
       5 -> 26         0.11260
       6 -> 23        -0.10905
       8 -> 30         0.11992
       8 -> 32         0.36175

 Excited State  82:      Singlet-A2    23.4147 eV   52.95 nm  f=0.0000  <S**2>=0.000
       7 -> 16        -0.10162
       7 -> 27         0.68841

 Excited State  83:      Singlet-B1    23.5206 eV   52.71 nm  f=0.0005  <S**2>=0.000
       4 -> 13        -0.11188
       4 -> 18         0.58365
       5 -> 24        -0.26574
       6 -> 25         0.22553

 Excited State  84:      Singlet-B2    23.8729 eV   51.94 nm  f=0.0650  <S**2>=0.000
       5 -> 22        -0.40676
       8 -> 32         0.53975

 Excited State  85:      Singlet-B1    23.8804 eV   51.92 nm  f=0.1350  <S**2>=0.000
       4 -> 18         0.27367
       5 -> 24         0.59216
       8 -> 33        -0.20315

 Excited State  86:      Singlet-A1    23.9157 eV   51.84 nm  f=0.2090  <S**2>=0.000
       5 -> 23         0.61872
       6 -> 26        -0.18886
       6 -> 28        -0.13518
       7 -> 31        -0.11180

 Excited State  87:      Singlet-A2    24.3368 eV   50.95 nm  f=0.0000  <S**2>=0.000
       5 -> 25         0.67973
       8 -> 34         0.12593

 Excited State  88:      Singlet-A1    24.3982 eV   50.82 nm  f=0.3319  <S**2>=0.000
       4 -> 19        -0.10952
       4 -> 21         0.14610
       5 -> 23         0.23643
       6 -> 26         0.55220
       6 -> 28         0.16448
       8 -> 27        -0.15250

 Excited State  89:      Singlet-B2    24.6315 eV   50.34 nm  f=0.0424  <S**2>=0.000
       4 -> 20        -0.11499
       5 -> 22        -0.10108
       5 -> 26         0.51625
       5 -> 28         0.11216
       6 -> 27         0.40879

 Excited State  90:      Singlet-B1    24.7884 eV   50.02 nm  f=0.0003  <S**2>=0.000
       3 ->  9        -0.17950
       7 -> 26        -0.20805
       7 -> 28         0.56288
       7 -> 30         0.27112
       8 -> 33        -0.13677

 Excited State  91:      Singlet-B2    25.0216 eV   49.55 nm  f=0.1183  <S**2>=0.000
       4 -> 23        -0.11326
       5 -> 26        -0.37986
       5 -> 28        -0.11567
       6 -> 27         0.52094
       6 -> 29         0.10515

 Excited State  92:      Singlet-B1    25.0945 eV   49.41 nm  f=0.0360  <S**2>=0.000
       3 ->  9        -0.14970
       5 -> 24         0.21230
       7 -> 28         0.15750
       7 -> 30        -0.10034
       8 -> 33         0.61616

 Excited State  93:      Singlet-A2    25.4510 eV   48.71 nm  f=0.0000  <S**2>=0.000
       5 -> 25        -0.12421
       8 -> 34         0.68007

 Excited State  94:      Singlet-B2    25.5589 eV   48.51 nm  f=0.0179  <S**2>=0.000
       4 -> 20         0.65948
       6 -> 27         0.11056
       6 -> 29         0.15163

 Excited State  95:      Singlet-A1    25.5894 eV   48.45 nm  f=0.0167  <S**2>=0.000
       4 -> 19         0.62309
       4 -> 22        -0.10488
       5 -> 27         0.21925
       6 -> 28        -0.10279

 Excited State  96:      Singlet-B1    25.8228 eV   48.01 nm  f=0.1023  <S**2>=0.000
       3 ->  9        -0.17125
       6 -> 31         0.11263
       7 -> 28        -0.29371
       7 -> 30         0.55114
       7 -> 32         0.19492
       8 -> 33         0.12215

 Excited State  97:      Singlet-A2    25.9214 eV   47.83 nm  f=0.0000  <S**2>=0.000
       7 -> 29         0.69648

 Excited State  98:      Singlet-A1    25.9367 eV   47.80 nm  f=0.0826  <S**2>=0.000
       4 -> 21        -0.18081
       4 -> 22         0.14260
       6 -> 28        -0.36193
       6 -> 30        -0.24993
       7 -> 31         0.46927

 Excited State  99:      Singlet-A1    26.2443 eV   47.24 nm  f=0.0021  <S**2>=0.000
       4 -> 19        -0.10424
       4 -> 21         0.55112
       4 -> 22        -0.21818
       6 -> 26        -0.12336
       6 -> 32         0.11132
       7 -> 31         0.26275

 Excited State 100:      Singlet-B1    26.3122 eV   47.12 nm  f=0.0064  <S**2>=0.000
       3 ->  9         0.61270
       7 -> 28         0.15457
       7 -> 30         0.16850
       7 -> 32         0.16479
       8 -> 33         0.13075

 Excited State 101:      Singlet-A1    26.7862 eV   46.29 nm  f=0.0166  <S**2>=0.000
       4 -> 19        -0.11831
       4 -> 22         0.36281
       5 -> 27         0.49001
       6 -> 28        -0.22597
       6 -> 30         0.19052

 Excited State 102:      Singlet-A1    26.9291 eV   46.04 nm  f=0.0356  <S**2>=0.000
       4 -> 19         0.16302
       4 -> 21         0.10245
       4 -> 22         0.36444
       6 -> 26        -0.16745
       6 -> 28         0.40489
       6 -> 32        -0.17990
       7 -> 31         0.27290

 Excited State 103:      Singlet-B1    26.9627 eV   45.98 nm  f=0.0136  <S**2>=0.000
       6 -> 31        -0.46923
       7 -> 32         0.50193

 Excited State 104:      Singlet-A1    27.0614 eV   45.82 nm  f=0.0127  <S**2>=0.000
       4 -> 19        -0.12757
       4 -> 21        -0.29075
       4 -> 22        -0.30804
       5 -> 27         0.39762
       6 -> 26        -0.11237
       6 -> 28         0.23219

 The electronic state is 1-A1.
 Alpha  occ. eigenvalues --  -19.04301 -10.26692  -1.22139  -0.78788  -0.65421
 Alpha  occ. eigenvalues --   -0.60194  -0.55150  -0.40696
 Alpha virt. eigenvalues --    0.04650   0.07629   0.13899   0.14925   0.16096
 Alpha virt. eigenvalues --    0.18677   0.21874   0.21903   0.26660   0.30395
 Alpha virt. eigenvalues --    0.35961   0.36516   0.39003   0.42318   0.43804

 Mulliken charges:
               1
     1  C    0.562504
     2  O   -0.210379
     3  H   -0.176062
     4  H   -0.176062
 Sum of Mulliken charges =  -0.00000

 Dipole moment (field-independent basis, Debye):
    X=              0.0000    Y=             -0.0000    Z=             -2.6150  Tot=              2.6150
 Quadrupole moment (field-independent basis, Debye-Ang):
   XX=            -11.8070   YY=            -11.7105   ZZ=            -12.4258
   XY=             -0.0000   XZ=             -0.0000   YZ=              0.0000

 1\1\GINC-HEL11\SP\RLC-BLYP TD-FC\Gen\C1H2O1\SABYASACHI\21-Mar-2022\0\\
 #P TD(Nstates=10000) lc-blyp/Gen SCF(maxcycles=100) Int(Grid=ultrafine
 )\\xGDB7_00001_tier4.com\\0,1\C,0,0.,0.,-0.524273\O,0,0.,0.,0.670793\H
 ,0,0.,0.939221,-1.110351\H,0,0.,-0.939221,-1.110351\\Version=EM64L-G16
 RevC.01\State=1-A1\HF=-114.1563489\RMSD=9.730e-09\PG=C02V [C2(C1O1),SG
 V(H2)]\\@
 The archive entry for this job was punched.

 Normal termination of Gaussian 16 at Mon Mar 21 20:12:02 2022.
