 Gaussian 16, Revision C.01,
 Gaussian 16:  EM64L-G16RevC.01  3-Jul-2019

 ----------------------------------------------------------------------
 #P TD(Nstates=10000) lc-blyp/Gen SCF(maxcycles=100) Int(Grid=ultrafine
 )
 ----------------------------------------------------------------------

 ---------------------
 xGDB7_00001_tier4.com
 ---------------------
 Symbolic Z-matrix:
 Charge =  0 Multiplicity = 1

                         Standard orientation:
 ---------------------------------------------------------------------
 Center     Atomic      Atomic             Coordinates (Angstroms)
 Number     Number       Type             X           Y           Z
 ---------------------------------------------------------------------
      1          6           0       -0.000001    0.000006    0.000000
      2          1           0       -0.991926    0.448073    0.033817
      3          1           0        0.066172   -0.671147   -0.854975
      4          1           0        0.176250   -0.561167    0.916416
      5          1           0        0.749514    0.784204   -0.095260
 ---------------------------------------------------------------------

 SCF Done:  E(RLC-B+HF-LYP) =  -40.3427954156     A.U. after    9 cycles

 Excitation energies and oscillator strengths:

 Excited State   1:      Singlet-A     10.9401 eV  113.33 nm  f=0.1548  <S**2>=0.000
       5 ->  6         0.69464
 This state for optimization and/or second-order correction.
 Total Energy, E(TD-HF/TD-DFT) =  -39.9407545124
 Copying the excited state density for this state as the 1-particle RhoCI density.

 Excited State   2:      Singlet-A     10.9402 eV  113.33 nm  f=0.1548  <S**2>=0.000
       4 ->  6         0.69454

 Excited State   3:      Singlet-A     10.9403 eV  113.33 nm  f=0.1548  <S**2>=0.000
       3 ->  6         0.69456

 Excited State   4:      Singlet-A     13.3656 eV   92.76 nm  f=0.1131  <S**2>=0.000
       3 ->  7         0.16169
       4 ->  9         0.43052
       5 ->  7         0.12716
       5 ->  8         0.45905
       5 ->  9         0.15081

 Excited State   5:      Singlet-A     13.3656 eV   92.76 nm  f=0.1131  <S**2>=0.000
       3 ->  7         0.42792
       3 ->  8        -0.10733
       4 ->  9        -0.21981
       4 -> 13        -0.11199
       5 ->  7        -0.13191
       5 ->  9         0.43614

 Excited State   6:      Singlet-A     13.3657 eV   92.76 nm  f=0.1131  <S**2>=0.000
       3 ->  7         0.13096
       3 ->  8         0.45672
       4 ->  7        -0.44939
       4 ->  8         0.16504
       5 -> 14        -0.11081

 Excited State   7:      Singlet-A     13.3869 eV   92.62 nm  f=0.0000  <S**2>=0.000
       4 ->  9         0.38728
       4 -> 10         0.19960
       4 -> 11        -0.19047
       4 -> 20         0.10006
       5 ->  7        -0.16195
       5 ->  8        -0.35028
       5 ->  9         0.10118
       5 -> 12         0.27519

 Excited State   8:      Singlet-A     13.3870 eV   92.62 nm  f=0.0000  <S**2>=0.000
       3 ->  8         0.11010
       3 ->  9         0.38158
       3 -> 10         0.19702
       3 -> 11        -0.19169
       3 -> 20         0.10027
       5 ->  7         0.36435
       5 ->  8        -0.16499
       5 -> 10         0.19393
       5 -> 11         0.19606

 Excited State   9:      Singlet-A     13.3870 eV   92.62 nm  f=0.0000  <S**2>=0.000
       3 ->  7         0.13175
       3 ->  8         0.36040
       3 ->  9        -0.11628
       3 -> 12        -0.27578
       4 ->  7         0.37476
       4 ->  8        -0.13776
       4 -> 10         0.19107
       4 -> 11         0.20068

 Excited State  10:      Singlet-A     13.5439 eV   91.54 nm  f=0.0000  <S**2>=0.000
       3 ->  9         0.35779
       3 -> 10         0.19107
       3 -> 11        -0.19376
       4 ->  8         0.12037
       4 -> 12        -0.10554
       5 ->  7        -0.33756
       5 ->  8         0.11829
       5 ->  9        -0.15142
       5 -> 10        -0.26796
       5 -> 11        -0.11519

 Excited State  11:      Singlet-A     13.5439 eV   91.54 nm  f=0.0000  <S**2>=0.000
       3 ->  7         0.21977
       3 ->  9        -0.11841
       3 -> 11         0.19288
       4 ->  7         0.13217
       4 ->  8         0.40162
       4 -> 12        -0.31838
       5 ->  7         0.12202
       5 ->  9        -0.19017
       5 -> 11         0.16241

 Excited State  12:      Singlet-A     13.7562 eV   90.13 nm  f=0.0000  <S**2>=0.000
       3 -> 14        -0.11274
       4 ->  9        -0.25698
       4 -> 10         0.27659
       4 -> 11        -0.27648
       5 ->  8         0.23947
       5 -> 12         0.39075
       5 -> 13         0.17120

 Excited State  13:      Singlet-A     13.7563 eV   90.13 nm  f=0.0000  <S**2>=0.000
       3 ->  9        -0.25588
       3 -> 10         0.27954
       3 -> 11        -0.27228
       4 -> 14        -0.19783
       5 ->  7        -0.24834
       5 -> 10         0.27477
       5 -> 11         0.27986

 Excited State  14:      Singlet-A     13.7563 eV   90.13 nm  f=0.0000  <S**2>=0.000
       3 ->  8         0.24075
       3 -> 12         0.39074
       3 -> 13        -0.16982
       4 ->  7         0.24996
       4 -> 10        -0.27747
       4 -> 11        -0.27675

 Excited State  15:      Singlet-A     13.8204 eV   89.71 nm  f=0.0000  <S**2>=0.000
       3 ->  9         0.27164
       3 -> 10        -0.25952
       3 -> 11         0.26340
       4 -> 12         0.14294
       5 ->  7        -0.25583
       5 ->  9        -0.11473
       5 -> 10         0.36338
       5 -> 11         0.15621

 Excited State  16:      Singlet-A     13.8204 eV   89.71 nm  f=0.0000  <S**2>=0.000
       3 ->  7         0.16655
       3 -> 11        -0.26170
       4 ->  7         0.10030
       4 ->  8         0.30465
       4 -> 12         0.43224
       5 ->  9        -0.14434
       5 -> 11        -0.22024

 Excited State  17:      Singlet-A     13.9825 eV   88.67 nm  f=0.0000  <S**2>=0.000
       3 ->  7         0.19823
       3 -> 10         0.24275
       3 -> 11         0.24812
       4 ->  8        -0.19158
       4 -> 12         0.34646
       5 ->  9        -0.20397
       5 -> 10        -0.24805
       5 -> 11         0.24195

 Excited State  18:      Singlet-A     14.7244 eV   84.20 nm  f=0.0462  <S**2>=0.000
       3 -> 13        -0.13704
       3 -> 14        -0.30016
       4 -> 10        -0.27621
       4 -> 11         0.29272
       5 -> 12         0.40429
       5 -> 13        -0.16902

 Excited State  19:      Singlet-A     14.7244 eV   84.20 nm  f=0.0462  <S**2>=0.000
       3 -> 10        -0.34170
       3 -> 11        -0.22704
       4 -> 13         0.35552
       4 -> 14        -0.11925
       5 -> 10        -0.22201
       5 -> 11         0.33631

 Excited State  20:      Singlet-A     14.7245 eV   84.20 nm  f=0.0461  <S**2>=0.000
       3 -> 12         0.41062
       3 -> 13         0.18142
       4 -> 10         0.29849
       4 -> 11         0.27958
       5 -> 14         0.31955

 Excited State  21:      Singlet-A     14.8939 eV   83.24 nm  f=0.0000  <S**2>=0.000
       3 -> 13        -0.14936
       3 -> 14        -0.28544
       4 -> 11         0.10792
       5 -> 12        -0.11739
       5 -> 13         0.57142

 Excited State  22:      Singlet-A     14.8940 eV   83.24 nm  f=0.0000  <S**2>=0.000
       3 -> 13        -0.25166
       3 -> 14         0.13733
       4 -> 13         0.18229
       4 -> 14         0.52707
       5 -> 14         0.21871

 Excited State  23:      Singlet-A     14.8940 eV   83.24 nm  f=0.0000  <S**2>=0.000
       3 -> 12         0.10571
       3 -> 13         0.44637
       3 -> 14        -0.24099
       4 -> 13         0.11102
       4 -> 14         0.33964
       5 -> 14        -0.23824

 Excited State  24:      Singlet-A     15.2648 eV   81.22 nm  f=0.7466  <S**2>=0.000
       3 -> 12        -0.27194
       3 -> 13         0.26701
       4 -> 10        -0.19289
       4 -> 11        -0.18970
       5 -> 13         0.10743
       5 -> 14         0.48074

 Excited State  25:      Singlet-A     15.2648 eV   81.22 nm  f=0.7466  <S**2>=0.000
       3 -> 10         0.22396
       3 -> 11         0.14860
       4 -> 13         0.52448
       4 -> 14        -0.17665
       5 -> 10         0.14196
       5 -> 11        -0.21830

 Excited State  26:      Singlet-A     15.2649 eV   81.22 nm  f=0.7466  <S**2>=0.000
       3 -> 13         0.20969
       3 -> 14         0.44329
       4 -> 10        -0.18402
       4 -> 11         0.18487
       4 -> 13        -0.11365
       5 -> 12         0.26372
       5 -> 13         0.24764

 Excited State  27:      Singlet-A     15.3614 eV   80.71 nm  f=0.0000  <S**2>=0.000
       3 ->  7        -0.32447
       3 ->  8         0.11800
       3 -> 10         0.14511
       3 -> 11         0.14829
       4 ->  7         0.11467
       4 ->  8         0.31360
       4 -> 12         0.20702
       5 ->  9         0.33387
       5 -> 10        -0.14826
       5 -> 11         0.14458

 Excited State  28:      Singlet-A     18.3005 eV   67.75 nm  f=0.0838  <S**2>=0.000
       5 -> 15         0.69249

 Excited State  29:      Singlet-A     18.3006 eV   67.75 nm  f=0.0838  <S**2>=0.000
       4 -> 15         0.69200

 Excited State  30:      Singlet-A     18.3007 eV   67.75 nm  f=0.0838  <S**2>=0.000
       3 -> 15         0.69214

 Excited State  31:      Singlet-A     19.4791 eV   63.65 nm  f=0.1059  <S**2>=0.000
       5 -> 16         0.66998

 Excited State  32:      Singlet-A     19.4792 eV   63.65 nm  f=0.1059  <S**2>=0.000
       4 -> 16         0.66974

 Excited State  33:      Singlet-A     19.4792 eV   63.65 nm  f=0.1059  <S**2>=0.000
       3 -> 16         0.66981

 Excited State  34:      Singlet-A     19.7718 eV   62.71 nm  f=0.0000  <S**2>=0.000
       3 -> 17         0.44196
       4 -> 18        -0.17304
       5 -> 17        -0.12740
       5 -> 19         0.45842

 Excited State  35:      Singlet-A     19.7718 eV   62.71 nm  f=0.0000  <S**2>=0.000
       3 -> 17         0.19084
       3 -> 19         0.27049
       4 -> 18         0.52169
       5 -> 17         0.24968
       5 -> 19         0.12747

 Excited State  36:      Singlet-A     19.8110 eV   62.58 nm  f=0.0041  <S**2>=0.000
       4 -> 17         0.48246
       5 -> 18         0.48415

 Excited State  37:      Singlet-A     19.8111 eV   62.58 nm  f=0.0041  <S**2>=0.000
       3 -> 17        -0.48316
       5 -> 19         0.48448

 Excited State  38:      Singlet-A     19.8112 eV   62.58 nm  f=0.0041  <S**2>=0.000
       3 -> 18         0.48384
       4 -> 19         0.48554

 Excited State  39:      Singlet-A     19.9097 eV   62.27 nm  f=0.0000  <S**2>=0.000
       2 ->  6         0.65116
       3 -> 22        -0.12583
       4 -> 21        -0.12466
       5 -> 20         0.13556

 Excited State  40:      Singlet-A     19.9989 eV   62.00 nm  f=0.0000  <S**2>=0.000
       4 -> 17        -0.47928
       5 -> 18         0.48467

 Excited State  41:      Singlet-A     19.9990 eV   62.00 nm  f=0.0000  <S**2>=0.000
       3 -> 19         0.47960
       4 -> 17         0.10800
       5 -> 17        -0.47874

 Excited State  42:      Singlet-A     19.9991 eV   61.99 nm  f=0.0000  <S**2>=0.000
       3 -> 18         0.48292
       4 -> 19        -0.48056

 Excited State  43:      Singlet-A     20.1345 eV   61.58 nm  f=0.0000  <S**2>=0.000
       3 -> 19         0.40153
       4 -> 18        -0.40023
       5 -> 17         0.39883

 Excited State  44:      Singlet-A     20.2750 eV   61.15 nm  f=0.0000  <S**2>=0.000
       3 -> 20         0.42409
       3 -> 21         0.10812
       4 -> 18        -0.11927
       4 -> 21        -0.16716
       5 -> 20        -0.19207
       5 -> 21         0.10873
       5 -> 22        -0.41793

 Excited State  45:      Singlet-A     20.2750 eV   61.15 nm  f=0.0000  <S**2>=0.000
       3 -> 17         0.10126
       3 -> 20         0.12633
       3 -> 21         0.14714
       3 -> 22        -0.26080
       4 -> 20        -0.14697
       4 -> 21         0.44552
       4 -> 22         0.21404
       5 -> 19         0.10457
       5 -> 20         0.19758
       5 -> 21         0.16387
       5 -> 22        -0.10038

 Excited State  46:      Singlet-A     20.3073 eV   61.05 nm  f=0.0000  <S**2>=0.000
       4 -> 20         0.47204
       5 -> 21         0.43298
       5 -> 22         0.19023

 Excited State  47:      Singlet-A     20.3073 eV   61.05 nm  f=0.0000  <S**2>=0.000
       3 -> 20         0.47305
       5 -> 21        -0.18815
       5 -> 22         0.43606

 Excited State  48:      Singlet-A     20.3074 eV   61.05 nm  f=0.0000  <S**2>=0.000
       3 -> 21        -0.43423
       3 -> 22        -0.18694
       4 -> 21        -0.18492
       4 -> 22         0.43845

 Excited State  49:      Singlet-A     20.7682 eV   59.70 nm  f=0.1418  <S**2>=0.000
       3 -> 27        -0.10152
       4 -> 20         0.41358
       4 -> 21         0.15581
       5 -> 16         0.13661
       5 -> 20         0.26396
       5 -> 21        -0.35412
       5 -> 22        -0.19147

 Excited State  50:      Singlet-A     20.7683 eV   59.70 nm  f=0.1418  <S**2>=0.000
       3 -> 20         0.11779
       3 -> 21        -0.15547
       3 -> 22         0.41176
       4 -> 16         0.13872
       4 -> 20        -0.15545
       4 -> 26         0.11907
       5 -> 20         0.38477
       5 -> 21         0.24016

 Excited State  51:      Singlet-A     20.7684 eV   59.70 nm  f=0.1418  <S**2>=0.000
       3 -> 16         0.13751
       3 -> 20        -0.10944
       3 -> 21         0.41492
       3 -> 22         0.19042
       4 -> 21        -0.17701
       4 -> 22         0.43034
       5 -> 27        -0.11182

 Excited State  52:      Singlet-A     20.9538 eV   59.17 nm  f=0.0000  <S**2>=0.000
       2 ->  6        -0.20286
       3 -> 21         0.14049
       3 -> 22        -0.33249
       3 -> 25         0.14178
       4 -> 21        -0.32927
       4 -> 22        -0.14172
       4 -> 24        -0.14372
       5 -> 20         0.35775
       5 -> 23        -0.14146

 Excited State  53:      Singlet-A     21.5121 eV   57.63 nm  f=0.0000  <S**2>=0.000
       4 -> 23        -0.48728
       5 -> 24         0.48764

 Excited State  54:      Singlet-A     21.5122 eV   57.63 nm  f=0.0000  <S**2>=0.000
       3 -> 23         0.48192
       5 -> 25         0.48300

 Excited State  55:      Singlet-A     21.5123 eV   57.63 nm  f=0.0000  <S**2>=0.000
       3 -> 24         0.48804
       4 -> 25         0.48883

 Excited State  56:      Singlet-A     21.6015 eV   57.40 nm  f=0.0000  <S**2>=0.000
       3 -> 23        -0.44222
       4 -> 24        -0.17385
       5 -> 25         0.48081

 Excited State  57:      Singlet-A     21.6016 eV   57.40 nm  f=0.0000  <S**2>=0.000
       3 -> 23        -0.20227
       3 -> 25         0.26931
       4 -> 23         0.13468
       4 -> 24         0.52013
       5 -> 23        -0.24258
       5 -> 24         0.11207
       5 -> 25         0.10641

 Excited State  58:      Singlet-A     21.6949 eV   57.15 nm  f=0.0068  <S**2>=0.000
       2 ->  9        -0.11059
       2 -> 10        -0.11136
       2 -> 11         0.13729
       4 -> 23         0.43459
       4 -> 24        -0.14125
       5 -> 23         0.19237
       5 -> 24         0.42994

 Excited State  59:      Singlet-A     21.6950 eV   57.15 nm  f=0.0068  <S**2>=0.000
       2 ->  8        -0.10450
       2 -> 12         0.17673
       3 -> 25         0.46466
       4 -> 23        -0.10134
       5 -> 23         0.43644
       5 -> 24        -0.13856

 Excited State  60:      Singlet-A     21.6951 eV   57.15 nm  f=0.0068  <S**2>=0.000
       2 ->  7         0.10832
       2 -> 10         0.13772
       2 -> 11         0.11136
       3 -> 24        -0.45616
       4 -> 25         0.46251

 Excited State  61:      Singlet-A     22.5960 eV   54.87 nm  f=0.0065  <S**2>=0.000
       2 ->  8         0.26572
       2 ->  9         0.56278
       2 -> 10         0.12677
       2 -> 11        -0.11983
       3 -> 27        -0.10003

 Excited State  62:      Singlet-A     22.5960 eV   54.87 nm  f=0.0065  <S**2>=0.000
       2 ->  7         0.39510
       2 ->  8         0.41347
       2 ->  9        -0.26474
       2 -> 12        -0.16059
       4 -> 26         0.10600

 Excited State  63:      Singlet-A     22.5960 eV   54.87 nm  f=0.0065  <S**2>=0.000
       2 ->  7         0.48087
       2 ->  8        -0.39445
       2 ->  9         0.10162
       2 -> 10         0.12861
       2 -> 11         0.10806
       5 -> 27         0.10419

 Excited State  64:      Singlet-A     23.1363 eV   53.59 nm  f=0.0000  <S**2>=0.000
       2 ->  6        -0.16423
       2 -> 15        -0.12438
       3 -> 25        -0.36296
       4 -> 24         0.36790
       5 -> 20         0.10764
       5 -> 23         0.36205

 Excited State  65:      Singlet-A     23.1516 eV   53.55 nm  f=0.0366  <S**2>=0.000
       2 ->  7        -0.19461
       2 -> 10         0.54518
       2 -> 11         0.34807

 Excited State  66:      Singlet-A     23.1516 eV   53.55 nm  f=0.0366  <S**2>=0.000
       2 ->  8         0.18781
       2 -> 12         0.64410

 Excited State  67:      Singlet-A     23.1516 eV   53.55 nm  f=0.0366  <S**2>=0.000
       2 ->  9         0.19384
       2 -> 10        -0.34639
       2 -> 11         0.54303

 Excited State  68:      Singlet-A     23.1694 eV   53.51 nm  f=0.0000  <S**2>=0.000
       3 -> 26        -0.41391
       3 -> 27        -0.10227
       5 -> 26         0.54115

 Excited State  69:      Singlet-A     23.1694 eV   53.51 nm  f=0.0000  <S**2>=0.000
       3 -> 26        -0.37332
       3 -> 27         0.40450
       5 -> 26        -0.26692
       5 -> 27         0.33549

 Excited State  70:      Singlet-A     23.1694 eV   53.51 nm  f=0.0000  <S**2>=0.000
       4 -> 26         0.22559
       4 -> 27         0.65696

 Excited State  71:      Singlet-A     23.9285 eV   51.81 nm  f=0.0000  <S**2>=0.000
       2 -> 13         0.68868

 Excited State  72:      Singlet-A     23.9285 eV   51.81 nm  f=0.0000  <S**2>=0.000
       2 -> 14         0.68868

 Excited State  73:      Singlet-A     24.0392 eV   51.58 nm  f=0.3325  <S**2>=0.000
       2 ->  7        -0.13778
       3 -> 26         0.28495
       3 -> 27        -0.14982
       5 -> 27         0.57195

 Excited State  74:      Singlet-A     24.0393 eV   51.58 nm  f=0.3325  <S**2>=0.000
       3 -> 26         0.15799
       3 -> 27         0.27754
       4 -> 26         0.50349
       4 -> 27        -0.17524
       5 -> 26         0.23563

 Excited State  75:      Singlet-A     24.0393 eV   51.58 nm  f=0.3325  <S**2>=0.000
       2 ->  8         0.10671
       2 ->  9         0.10969
       3 -> 26         0.22790
       3 -> 27         0.43076
       4 -> 26        -0.37327
       4 -> 27         0.12292
       5 -> 26         0.22254

 Excited State  76:      Singlet-A     27.3855 eV   45.27 nm  f=0.0000  <S**2>=0.000
       2 -> 15         0.68937

 Excited State  77:      Singlet-A     28.7205 eV   43.17 nm  f=0.0000  <S**2>=0.000
       2 -> 16         0.69474

 Excited State  78:      Singlet-A     28.7432 eV   43.14 nm  f=0.0000  <S**2>=0.000
       2 -> 17         0.69990

 Excited State  79:      Singlet-A     28.7432 eV   43.14 nm  f=0.0000  <S**2>=0.000
       2 -> 18         0.69995

 Excited State  80:      Singlet-A     28.7432 eV   43.14 nm  f=0.0000  <S**2>=0.000
       2 -> 19         0.69990

 Excited State  81:      Singlet-A     29.3812 eV   42.20 nm  f=0.0000  <S**2>=0.000
       2 -> 20         0.69050

 Excited State  82:      Singlet-A     29.3813 eV   42.20 nm  f=0.0000  <S**2>=0.000
       2 -> 21         0.65270
       2 -> 22         0.22858

 Excited State  83:      Singlet-A     29.3813 eV   42.20 nm  f=0.0000  <S**2>=0.000
       2 -> 21        -0.22585
       2 -> 22         0.65563

 Excited State  84:      Singlet-A     30.5911 eV   40.53 nm  f=0.0068  <S**2>=0.000
       2 -> 23         0.69905

 Excited State  85:      Singlet-A     30.5911 eV   40.53 nm  f=0.0068  <S**2>=0.000
       2 -> 24         0.69904

 Excited State  86:      Singlet-A     30.5912 eV   40.53 nm  f=0.0068  <S**2>=0.000
       2 -> 25         0.69906

 Excited State  87:      Singlet-A     31.5064 eV   39.35 nm  f=0.0000  <S**2>=0.000
       4 -> 28         0.48102
       5 -> 29        -0.48018

 Excited State  88:      Singlet-A     31.5065 eV   39.35 nm  f=0.0000  <S**2>=0.000
       3 -> 28         0.48577
       5 -> 30         0.48306

 Excited State  89:      Singlet-A     31.5067 eV   39.35 nm  f=0.0000  <S**2>=0.000
       3 -> 29         0.46942
       3 -> 30         0.14429
       4 -> 29        -0.14178
       4 -> 30         0.46713

 Excited State  90:      Singlet-A     31.6529 eV   39.17 nm  f=0.0000  <S**2>=0.000
       2 -> 27         0.24093
       3 -> 28         0.43016
       4 -> 29         0.14795
       5 -> 28        -0.19671
       5 -> 29         0.13884
       5 -> 30        -0.39635

 Excited State  91:      Singlet-A     31.6530 eV   39.17 nm  f=0.0000  <S**2>=0.000
       2 -> 26        -0.24096
       3 -> 28        -0.13095
       3 -> 30         0.27827
       4 -> 29         0.48887
       4 -> 30         0.13209
       5 -> 28        -0.21622
       5 -> 30         0.16302

 Excited State  92:      Singlet-A     32.1132 eV   38.61 nm  f=0.0000  <S**2>=0.000
       3 -> 29         0.11838
       3 -> 30        -0.38730
       4 -> 29         0.38373
       4 -> 30         0.11989
       5 -> 28         0.40163

 Excited State  93:      Singlet-A     32.3970 eV   38.27 nm  f=0.0000  <S**2>=0.000
       2 -> 26         0.65707
       3 -> 30         0.10419
       4 -> 29         0.18261

 Excited State  94:      Singlet-A     32.3970 eV   38.27 nm  f=0.0000  <S**2>=0.000
       2 -> 27         0.65708
       3 -> 28        -0.16065
       5 -> 30         0.14784

 Excited State  95:      Singlet-A     32.7781 eV   37.83 nm  f=0.1455  <S**2>=0.000
       4 -> 28         0.47013
       5 -> 29         0.45819
       5 -> 30         0.12791
       5 -> 31        -0.12005

 Excited State  96:      Singlet-A     32.7782 eV   37.83 nm  f=0.1455  <S**2>=0.000
       3 -> 28         0.12212
       3 -> 29        -0.15885

 The electronic state is 1-A.
 Alpha  occ. eigenvalues --  -10.13745  -0.85315  -0.52515  -0.52514  -0.52514
 Alpha virt. eigenvalues --    0.08330   0.19443   0.19443   0.19443   0.22685
 Alpha virt. eigenvalues --    0.22685   0.22685   0.24343   0.24344   0.36653
 Alpha virt. eigenvalues --    0.41095   0.42386   0.42386   0.42386   0.45770

 Mulliken charges:
               1
     1  C    0.501144
     2  H   -0.125265
     3  H   -0.125296
     4  H   -0.125306
     5  H   -0.125277
 Sum of Mulliken charges =  -0.00000

 Dipole moment (field-independent basis, Debye):
    X=              0.0000    Y=             -0.0000    Z=              0.0000  Tot=              0.0000
 Quadrupole moment (field-independent basis, Debye-Ang):
   XX=             -8.5071   YY=             -8.5071   ZZ=             -8.5072
   XY=              0.0000   XZ=              0.0000   YZ=             -0.0000

 Normal termination of Gaussian 16 at Mon Mar 21 20:15:08 2022.
