 Gaussian 16, Revision C.01,
 Gaussian 16:  EM64L-G16RevC.01  3-Jul-2019

 ----------------------------------------------------------------------
 #P TD(Nstates=10000) lc-blyp/Gen SCF(maxcycles=100) Int(Grid=ultrafine
 )
 ----------------------------------------------------------------------

 ---------------------
 xGDB7_00001_tier4.com
 ---------------------
 Symbolic Z-matrix:
 Charge =  0 Multiplicity = 1

                         Standard orientation:
 ---------------------------------------------------------------------
 Center     Atomic      Atomic             Coordinates (Angstroms)
 Number     Number       Type             X           Y           Z
 ---------------------------------------------------------------------
      1          6           0        0.000284   -0.018657   -1.236532
      2          6           0       -0.000055    0.003295    0.218717
      3          6           0       -0.000323    0.021367    1.415619
      4          1           0        0.273656    0.958689   -1.636635
      5          1           0       -0.987794   -0.279414   -1.618263
      6          1           0        0.715256   -0.752703   -1.610700
      7          1           0       -0.000556    0.037402    2.478776
 ---------------------------------------------------------------------

 SCF Done:  E(RLC-B+HF-LYP) =  -116.195082954     A.U. after   13 cycles

 Excitation energies and oscillator strengths:

 Excited State   1:      Singlet-A      6.6166 eV  187.38 nm  f=0.0000  <S**2>=0.000
      10 -> 14        -0.30113
      10 -> 15         0.35617
      10 -> 18         0.12523
      11 -> 14         0.35619
      11 -> 15         0.30113
      11 -> 17         0.12524
 This state for optimization and/or second-order correction.
 Total Energy, E(TD-HF/TD-DFT) =  -115.951926014
 Copying the excited state density for this state as the 1-particle RhoCI density.

 Excited State   2:      Singlet-A      7.0277 eV  176.42 nm  f=0.0006  <S**2>=0.000
      10 -> 14        -0.17084
      10 -> 15         0.43760
      10 -> 18         0.10575
      11 -> 14        -0.43759
      11 -> 15        -0.17082
      11 -> 17        -0.10574

 Excited State   3:      Singlet-A      7.0277 eV  176.42 nm  f=0.0006  <S**2>=0.000
      10 -> 14         0.43759
      10 -> 15         0.17083
      10 -> 17         0.10574
      11 -> 14        -0.17082
      11 -> 15         0.43760
      11 -> 18         0.10574

 Excited State   4:      Singlet-A      7.9364 eV  156.22 nm  f=0.0303  <S**2>=0.000
      10 -> 12        -0.12206
      11 -> 12         0.64741
      11 -> 13         0.13368
      11 -> 16         0.18070

 Excited State   5:      Singlet-A      7.9365 eV  156.22 nm  f=0.0303  <S**2>=0.000
      10 -> 12         0.64741
      10 -> 13         0.13368
      10 -> 16         0.18070
      11 -> 12         0.12207

 Excited State   6:      Singlet-A      9.1027 eV  136.21 nm  f=0.0181  <S**2>=0.000
      11 -> 13         0.63460
      11 -> 16        -0.27209

 Excited State   7:      Singlet-A      9.1028 eV  136.21 nm  f=0.0181  <S**2>=0.000
      10 -> 13         0.63460
      10 -> 16        -0.27210

 Excited State   8:      Singlet-A      9.8426 eV  125.97 nm  f=0.0808  <S**2>=0.000
      11 -> 12        -0.20907
      11 -> 13         0.24345
      11 -> 16         0.58353
      11 -> 21         0.15735

 Excited State   9:      Singlet-A      9.8427 eV  125.97 nm  f=0.0808  <S**2>=0.000
      10 -> 12        -0.20907
      10 -> 13         0.24345
      10 -> 16         0.58353
      10 -> 21         0.15735

 Excited State  10:      Singlet-A     10.1551 eV  122.09 nm  f=1.1303  <S**2>=0.000
      10 -> 14        -0.36828
      10 -> 15        -0.31136
      11 -> 14        -0.31135
      11 -> 15         0.36828

 Excited State  11:      Singlet-A     11.0666 eV  112.04 nm  f=0.0000  <S**2>=0.000
      10 -> 18         0.34028
      10 -> 19        -0.26280
      10 -> 20        -0.15761
      11 -> 17         0.34038
      11 -> 19        -0.15767
      11 -> 20         0.26279

 Excited State  12:      Singlet-A     11.0921 eV  111.78 nm  f=0.0082  <S**2>=0.000
      10 -> 14         0.12641
      10 -> 17        -0.16118
      10 -> 18         0.39477
      10 -> 20        -0.15300
      11 -> 15         0.12639
      11 -> 17        -0.39470
      11 -> 18        -0.16122
      11 -> 19         0.15295

 Excited State  13:      Singlet-A     11.0921 eV  111.78 nm  f=0.0082  <S**2>=0.000
      10 -> 15        -0.12639
      10 -> 17         0.39473
      10 -> 18         0.16117
      10 -> 19        -0.15295
      11 -> 14         0.12640
      11 -> 17        -0.16122
      11 -> 18         0.39475
      11 -> 20        -0.15298

 Excited State  14:      Singlet-A     11.3794 eV  108.96 nm  f=0.0000  <S**2>=0.000
      10 -> 18        -0.27175
      10 -> 19        -0.30526
      10 -> 20        -0.18307
      10 -> 23         0.16164
      11 -> 17        -0.27173
      11 -> 19        -0.18317
      11 -> 20         0.30532
      11 -> 22         0.16166

 Excited State  15:      Singlet-A     11.3829 eV  108.92 nm  f=0.2261  <S**2>=0.000
      10 -> 17         0.33789
      10 -> 19        -0.16649
      10 -> 20         0.27757
      10 -> 25        -0.10087
      11 -> 18        -0.33783
      11 -> 19         0.27768
      11 -> 20         0.16656
      11 -> 26         0.10088

 Excited State  16:      Singlet-A     11.4642 eV  108.15 nm  f=0.0046  <S**2>=0.000
      10 -> 18         0.13280
      10 -> 19         0.17627
      10 -> 20         0.36920
      10 -> 21         0.17562
      10 -> 23        -0.14307
      11 -> 17        -0.13277
      11 -> 19        -0.36915
      11 -> 20         0.17622
      11 -> 21        -0.11765
      11 -> 22         0.14303

 Excited State  17:      Singlet-A     11.4642 eV  108.15 nm  f=0.0046  <S**2>=0.000
      10 -> 17         0.13275
      10 -> 19         0.36923
      10 -> 20        -0.17630
      10 -> 21        -0.11764
      10 -> 22        -0.14305
      11 -> 18         0.13279
      11 -> 19         0.17619
      11 -> 20         0.36914
      11 -> 21        -0.17559
      11 -> 23        -0.14305

 Excited State  18:      Singlet-A     11.6489 eV  106.43 nm  f=0.0083  <S**2>=0.000
      10 -> 17         0.32325
      10 -> 19         0.17891
      10 -> 20        -0.29861
      11 -> 18        -0.32322
      11 -> 19        -0.29901
      11 -> 20        -0.17958

 Excited State  19:      Singlet-A     11.6573 eV  106.36 nm  f=0.0109  <S**2>=0.000
       9 -> 16         0.10913
      10 -> 19         0.14660
      10 -> 21         0.15420
      11 -> 16        -0.13519
      11 -> 20         0.14585
      11 -> 21         0.59292

 Excited State  20:      Singlet-A     11.6573 eV  106.36 nm  f=0.0109  <S**2>=0.000
       8 -> 16         0.10912
      10 -> 16        -0.13518
      10 -> 20        -0.14660
      10 -> 21         0.59292
      11 -> 19         0.14587
      11 -> 21        -0.15419

 Excited State  21:      Singlet-A     12.2808 eV  100.96 nm  f=0.1142  <S**2>=0.000
       9 -> 12         0.62624
       9 -> 13        -0.21336
      11 -> 24         0.11006

 Excited State  22:      Singlet-A     12.2809 eV  100.96 nm  f=0.1142  <S**2>=0.000
       8 -> 12         0.62623
       8 -> 13        -0.21336
      10 -> 24         0.11007

 Excited State  23:      Singlet-A     12.3273 eV  100.58 nm  f=0.0000  <S**2>=0.000
      10 -> 18         0.12372
      10 -> 23         0.44236
      11 -> 17         0.12376
      11 -> 22         0.44253

 Excited State  24:      Singlet-A     12.4027 eV   99.97 nm  f=0.0238  <S**2>=0.000
      10 -> 17         0.11430
      10 -> 20        -0.11256
      10 -> 22         0.43268
      11 -> 18         0.11430
      11 -> 19         0.11256
      11 -> 23         0.43268

 Excited State  25:      Singlet-A     12.4028 eV   99.97 nm  f=0.0238  <S**2>=0.000
      10 -> 18         0.11432
      10 -> 19         0.11258
      10 -> 23         0.43277
      11 -> 17        -0.11428
      11 -> 20         0.11255
      11 -> 22        -0.43260

 Excited State  26:      Singlet-A     12.6650 eV   97.90 nm  f=0.0008  <S**2>=0.000
       7 -> 14         0.56204
       7 -> 15        -0.17357
      10 -> 24         0.13617
      11 -> 24         0.21273

 Excited State  27:      Singlet-A     12.6650 eV   97.90 nm  f=0.0008  <S**2>=0.000
       7 -> 14         0.17358
       7 -> 15         0.56204
      10 -> 24         0.21273
      11 -> 24        -0.13619

 Excited State  28:      Singlet-A     12.9408 eV   95.81 nm  f=0.0076  <S**2>=0.000
       6 -> 12         0.10139
       7 -> 12         0.61589
       7 -> 13        -0.13430
      10 -> 22         0.15596
      11 -> 23        -0.15596

 Excited State  29:      Singlet-A     13.0037 eV   95.35 nm  f=0.0000  <S**2>=0.000
       8 -> 14        -0.37595
       8 -> 15         0.26604
       9 -> 14         0.26621
       9 -> 15         0.37608

 Excited State  30:      Singlet-A     13.0834 eV   94.76 nm  f=0.0036  <S**2>=0.000
       7 -> 14        -0.17454
       7 -> 15         0.10374
       8 -> 15        -0.21047
       9 -> 14         0.21043
      10 -> 24         0.17198
      11 -> 24         0.49753
      11 -> 29        -0.10860
      11 -> 36         0.12056

 Excited State  31:      Singlet-A     13.0835 eV   94.76 nm  f=0.0036  <S**2>=0.000
       7 -> 14        -0.10373
       7 -> 15        -0.17461
       8 -> 14        -0.21049
       9 -> 15        -0.21038
      10 -> 24         0.49752
      10 -> 29        -0.10861
      10 -> 36         0.12056
      11 -> 24        -0.17197

 Excited State  32:      Singlet-A     13.3036 eV   93.20 nm  f=0.0342  <S**2>=0.000
       7 -> 15         0.18600
       8 -> 14        -0.25035
       8 -> 15         0.31498
       9 -> 14        -0.31492
       9 -> 15        -0.25024
      10 -> 24        -0.14123
      11 -> 24         0.19859

 Excited State  33:      Singlet-A     13.3036 eV   93.20 nm  f=0.0342  <S**2>=0.000
       7 -> 14        -0.18607
       8 -> 14         0.31493
       8 -> 15         0.25024
       9 -> 14        -0.25030
       9 -> 15         0.31496
      10 -> 24         0.19860
      11 -> 24         0.14122

 Excited State  34:      Singlet-A     13.3297 eV   93.01 nm  f=0.2955  <S**2>=0.000
       6 -> 13        -0.17873
       7 -> 12         0.26205
      10 -> 22        -0.39944
      11 -> 23         0.39945

 Excited State  35:      Singlet-A     13.8454 eV   89.55 nm  f=0.0026  <S**2>=0.000
       7 -> 13        -0.11776
       7 -> 16        -0.15272
       8 -> 14         0.25252
       8 -> 15         0.35681
       9 -> 14         0.35672
       9 -> 15        -0.25248

 Excited State  36:      Singlet-A     13.9987 eV   88.57 nm  f=0.0000  <S**2>=0.000
       8 -> 19         0.11224
       8 -> 20         0.11404
       9 -> 19         0.11405
       9 -> 20        -0.11225
      10 -> 25        -0.10475
      10 -> 26         0.42117
      10 -> 27         0.11594
      11 -> 25         0.42119
      11 -> 26         0.10476
      11 -> 28        -0.11596

 Excited State  37:      Singlet-A     14.0255 eV   88.40 nm  f=0.0018  <S**2>=0.000
       9 -> 12         0.10958
       9 -> 13         0.37138
       9 -> 16         0.51563
       9 -> 21        -0.17590
      11 -> 21        -0.10561

 Excited State  38:      Singlet-A     14.0256 eV   88.40 nm  f=0.0018  <S**2>=0.000
       8 -> 12         0.10958
       8 -> 13         0.37138
       8 -> 16         0.51562
       8 -> 21        -0.17591
      10 -> 21        -0.10560

 Excited State  39:      Singlet-A     14.1229 eV   87.79 nm  f=0.0376  <S**2>=0.000
      10 -> 25        -0.41452
      10 -> 26        -0.10310
      10 -> 28         0.11009
      11 -> 25        -0.10309
      11 -> 26         0.41453
      11 -> 27         0.11007

 Excited State  40:      Singlet-A     14.3139 eV   86.62 nm  f=0.1659  <S**2>=0.000
       6 -> 14         0.23069
       6 -> 15        -0.23179
      10 -> 26         0.38009
      11 -> 25        -0.38006

 Excited State  41:      Singlet-A     14.3139 eV   86.62 nm  f=0.1659  <S**2>=0.000
       6 -> 14         0.23179
       6 -> 15         0.23068
      10 -> 25         0.38008
      11 -> 26         0.38007

 Excited State  42:      Singlet-A     14.5261 eV   85.35 nm  f=0.0173  <S**2>=0.000
       6 -> 12        -0.25560
       6 -> 13        -0.13318
       7 -> 13         0.53781
       7 -> 16         0.16579
      10 -> 22         0.10858
      11 -> 23        -0.10858

 Excited State  43:      Singlet-A     14.8070 eV   83.73 nm  f=0.0738  <S**2>=0.000
       7 -> 17        -0.12814
       8 -> 18        -0.41447
       9 -> 17         0.41513
      10 -> 28        -0.11576
      11 -> 27         0.11595

 Excited State  44:      Singlet-A     14.8070 eV   83.73 nm  f=0.0738  <S**2>=0.000
       7 -> 18         0.12817
       8 -> 17         0.41477
       9 -> 18         0.41478
      10 -> 27         0.11592
      11 -> 28         0.11593

 Excited State  45:      Singlet-A     14.8667 eV   83.40 nm  f=0.0000  <S**2>=0.000
       8 -> 18         0.33378
       8 -> 19         0.12192
       8 -> 20         0.12388
       9 -> 17         0.33312
       9 -> 19         0.12384
       9 -> 20        -0.12188
      10 -> 26        -0.13525
      10 -> 27         0.24471
      10 -> 28         0.12335
      11 -> 25        -0.13513
      11 -> 27         0.12311
      11 -> 28        -0.24455

 Excited State  46:      Singlet-A     14.9017 eV   83.20 nm  f=0.2970  <S**2>=0.000
       6 -> 13         0.24592
       7 -> 16         0.56355
      10 -> 28        -0.11997
      11 -> 27        -0.11998

 Excited State  47:      Singlet-A     15.0216 eV   82.54 nm  f=0.0160  <S**2>=0.000
       8 -> 18         0.15364
       9 -> 17        -0.15461
      10 -> 27        -0.17239
      10 -> 28        -0.36891
      11 -> 27         0.36926
      11 -> 28        -0.17308

 Excited State  48:      Singlet-A     15.0217 eV   82.54 nm  f=0.0160  <S**2>=0.000
       8 -> 17        -0.15424
       9 -> 18        -0.15427
      10 -> 27         0.36896
      10 -> 28        -0.17275
      11 -> 27         0.17268
      11 -> 28         0.36906

 Excited State  49:      Singlet-A     15.0355 eV   82.46 nm  f=0.0000  <S**2>=0.000
       8 -> 18         0.34995
       9 -> 17         0.34948
      10 -> 26         0.10917
      10 -> 27        -0.23584
      10 -> 28        -0.11911
      11 -> 25         0.10897
      11 -> 27        -0.11813
      11 -> 28         0.23514

 Excited State  50:      Singlet-A     15.0972 eV   82.12 nm  f=0.0719  <S**2>=0.000
       6 -> 14        -0.21123
       6 -> 15         0.15568
       7 -> 18        -0.23517
       8 -> 17         0.15448
       9 -> 13        -0.14651
       9 -> 18         0.15454
       9 -> 21        -0.12687
      11 -> 29         0.36049
      11 -> 30         0.12066

 Excited State  51:      Singlet-A     15.0973 eV   82.12 nm  f=0.0719  <S**2>=0.000
       6 -> 14        -0.15571
       6 -> 15        -0.21134
       7 -> 17         0.23522
       8 -> 13        -0.14637
       8 -> 18        -0.15468
       8 -> 21        -0.12681
       9 -> 17         0.15444
      10 -> 29         0.36043
      10 -> 30         0.12066

 Excited State  52:      Singlet-A     15.2114 eV   81.51 nm  f=0.0871  <S**2>=0.000
       6 -> 14        -0.11622
       7 -> 18        -0.31275
       9 -> 12         0.16452
       9 -> 13         0.39872
       9 -> 16        -0.19375
       9 -> 21         0.21695
       9 -> 24         0.15316

 Excited State  53:      Singlet-A     15.2115 eV   81.51 nm  f=0.0871  <S**2>=0.000
       6 -> 15        -0.11615
       7 -> 17         0.31272
       8 -> 12         0.16452
       8 -> 13         0.39873
       8 -> 16        -0.19375
       8 -> 21         0.21699
       8 -> 24         0.15318

 Excited State  54:      Singlet-A     15.2379 eV   81.37 nm  f=0.0000  <S**2>=0.000
       8 -> 19         0.27849
       8 -> 20         0.28294
       9 -> 19         0.28293
       9 -> 20        -0.27844
      10 -> 27        -0.22421
      10 -> 28        -0.11290
      11 -> 27        -0.11302
      11 -> 28         0.22428

 Excited State  55:      Singlet-A     15.4034 eV   80.49 nm  f=0.0037  <S**2>=0.000
       8 -> 17         0.28921
       8 -> 19        -0.24611
       8 -> 20         0.24220
       9 -> 18        -0.28921
       9 -> 19         0.24230
       9 -> 20         0.24617

 Excited State  56:      Singlet-A     15.4447 eV   80.28 nm  f=0.0371  <S**2>=0.000
       7 -> 18         0.34608
       9 -> 13         0.24533
       9 -> 16        -0.18641
      10 -> 29         0.12864
      11 -> 24         0.11116
      11 -> 29         0.38756
      11 -> 30         0.13078

 Excited State  57:      Singlet-A     15.4447 eV   80.28 nm  f=0.0371  <S**2>=0.000
       7 -> 17        -0.34611
       8 -> 13         0.24540
       8 -> 16        -0.18645
      10 -> 24         0.11114
      10 -> 29         0.38750
      10 -> 30         0.13076
      11 -> 29        -0.12861

 Excited State  58:      Singlet-A     15.5789 eV   79.58 nm  f=0.0189  <S**2>=0.000
       6 -> 14         0.16717
       6 -> 18        -0.10462
       7 -> 18        -0.20973
       7 -> 20        -0.10068
       8 -> 19         0.28019
       8 -> 20        -0.21985
       9 -> 19         0.21982
       9 -> 20         0.28019
      10 -> 27        -0.11026
      11 -> 28        -0.11032
      11 -> 29         0.14958

 Excited State  59:      Singlet-A     15.5789 eV   79.58 nm  f=0.0189  <S**2>=0.000
       6 -> 15        -0.16716
       6 -> 17        -0.10460
       7 -> 17        -0.20965
       7 -> 19        -0.10072
       8 -> 19         0.21984
       8 -> 20         0.28024
       9 -> 19        -0.28013
       9 -> 20         0.21983
      10 -> 28        -0.11025
      10 -> 29        -0.14975
      11 -> 27         0.11024

 Excited State  60:      Singlet-A     15.7453 eV   78.74 nm  f=0.0767  <S**2>=0.000
       6 -> 12         0.26896
       6 -> 16         0.14287
       8 -> 17         0.30505
       8 -> 19         0.19357
       8 -> 20        -0.19048
       9 -> 18        -0.30500
       9 -> 19        -0.19046
       9 -> 20        -0.19348
      10 -> 28         0.11081
      11 -> 27         0.11079

 Excited State  61:      Singlet-A     15.8267 eV   78.34 nm  f=0.0042  <S**2>=0.000
       6 -> 12        -0.21453
       6 -> 16        -0.13598
       7 -> 13        -0.16465
       7 -> 16         0.19494
       7 -> 21         0.10414
      10 -> 25         0.12622
      10 -> 27        -0.16298
      10 -> 28         0.32354
      11 -> 26        -0.12621
      11 -> 27         0.32354
      11 -> 28         0.16298

 Excited State  62:      Singlet-A     16.0158 eV   77.41 nm  f=0.0003  <S**2>=0.000
       6 -> 12         0.42736
       6 -> 16         0.17337
       7 -> 13         0.24880
       8 -> 17        -0.19956
       8 -> 19        -0.10287
       8 -> 20         0.10082
       9 -> 18         0.19919
       9 -> 19         0.10093
       9 -> 20         0.10212
      10 -> 28         0.12957
      11 -> 27         0.12938

 Excited State  63:      Singlet-A     16.0175 eV   77.41 nm  f=0.0374  <S**2>=0.000
       6 -> 15        -0.13208
       6 -> 19         0.12636
       7 -> 17         0.13074
       7 -> 19         0.58040
       7 -> 20        -0.23064

 Excited State  64:      Singlet-A     16.0176 eV   77.41 nm  f=0.0375  <S**2>=0.000
       6 -> 14         0.13217
       6 -> 20         0.12636
       7 -> 18         0.13067
       7 -> 19         0.23063
       7 -> 20         0.58040

 Excited State  65:      Singlet-A     16.1583 eV   76.73 nm  f=0.6046  <S**2>=0.000
       6 -> 14         0.29176
       6 -> 15        -0.23435
       6 -> 18        -0.13131
       7 -> 18        -0.23976
       8 -> 19        -0.24109
       9 -> 13         0.12659
       9 -> 16        -0.16829
       9 -> 20        -0.24107
      10 -> 26        -0.10025
      11 -> 25         0.10024
      11 -> 29         0.17949
      11 -> 34         0.10450

 Excited State  66:      Singlet-A     16.1583 eV   76.73 nm  f=0.6047  <S**2>=0.000
       6 -> 14         0.23435
       6 -> 15         0.29179
       6 -> 17         0.13131
       7 -> 17         0.23973
       8 -> 13         0.12656
       8 -> 16        -0.16825
       8 -> 20         0.24109
       9 -> 19        -0.24107
      10 -> 25        -0.10025
      10 -> 29         0.17955
      10 -> 34         0.10450
      11 -> 26        -0.10025

 Excited State  67:      Singlet-A     16.5037 eV   75.13 nm  f=0.0023  <S**2>=0.000
       6 -> 13         0.34157
       6 -> 16        -0.33951
       7 -> 12         0.12801
       7 -> 13         0.21159
       7 -> 16        -0.18427
       7 -> 21         0.23998
      10 -> 32        -0.11559
      10 -> 33        -0.11659
      11 -> 32        -0.11670
      11 -> 33         0.11550

 Excited State  68:      Singlet-A     16.5289 eV   75.01 nm  f=0.0362  <S**2>=0.000
       9 -> 13        -0.13955
       9 -> 16         0.26668
       9 -> 21         0.39646
       9 -> 24         0.27669
      10 -> 33         0.19433
      11 -> 29         0.15759
      11 -> 32        -0.19430

 Excited State  69:      Singlet-A     16.5290 eV   75.01 nm  f=0.0361  <S**2>=0.000
       8 -> 13        -0.13956
       8 -> 16         0.26669
       8 -> 21         0.39643
       8 -> 24         0.27668
      10 -> 29         0.15756
      10 -> 32         0.19438
      11 -> 33         0.19439

 Excited State  70:      Singlet-A     16.6499 eV   74.47 nm  f=0.1889  <S**2>=0.000
       6 -> 15        -0.10584

 The electronic state is 1-A.
 Alpha  occ. eigenvalues --  -10.17611 -10.16133 -10.14548  -0.94582  -0.85762
 Alpha  occ. eigenvalues --   -0.66730  -0.59314  -0.57235  -0.57235  -0.39672
 Alpha  occ. eigenvalues --   -0.39672
 Alpha virt. eigenvalues --    0.07695   0.10888   0.13365   0.13365   0.13937
 Alpha virt. eigenvalues --    0.19000   0.19000   0.21296   0.21297   0.22660
 Alpha virt. eigenvalues --    0.26627   0.26627   0.30018   0.34261   0.34261

 Mulliken charges:
               1
     1  C    0.568420
     2  C    0.844971
     3  C   -0.863794
     4  H   -0.105626
     5  H   -0.105633
     6  H   -0.105636
     7  H   -0.232702
 Sum of Mulliken charges =  -0.00000

 Dipole moment (field-independent basis, Debye):
    X=              0.0002    Y=             -0.0119    Z=             -0.7852  Tot=              0.7853
 Quadrupole moment (field-independent basis, Debye-Ang):
   XX=            -19.7266   YY=            -19.7252   ZZ=            -14.3227
   XY=             -0.0000   XZ=             -0.0012   YZ=              0.0815

 Normal termination of Gaussian 16 at Mon Mar 21 20:17:22 2022.
