 Gaussian 16, Revision C.01,
 Gaussian 16:  EM64L-G16RevC.01  3-Jul-2019

 ----------------------------------------------------------------------
 #P TD(Nstates=10000) lc-blyp/Gen SCF(maxcycles=100) Int(Grid=ultrafine
 )
 ----------------------------------------------------------------------

 ---------------------
 xGDB7_00001_tier4.com
 ---------------------
 Symbolic Z-matrix:
 Charge =  0 Multiplicity = 1

                         Standard orientation:
 ---------------------------------------------------------------------
 Center     Atomic      Atomic             Coordinates (Angstroms)
 Number     Number       Type             X           Y           Z
 ---------------------------------------------------------------------
      1          6           0       -0.049078    0.702042   -0.000000
      2          7           0       -0.049078   -0.754243    0.000000
      3          1           0        0.946109    1.166603   -0.000000
      4          1           0       -0.587574    1.062597    0.877770
      5          1           0       -0.587574    1.062597   -0.877770
      6          1           0        0.433525   -1.112175    0.812504
      7          1           0        0.433525   -1.112175   -0.812504
 ---------------------------------------------------------------------

 SCF Done:  E(RLC-B+HF-LYP) =  -95.5237283552     A.U. after   13 cycles

 Excitation energies and oscillator strengths:

 Excited State   1:      Singlet-A'     6.6401 eV  186.72 nm  f=0.0105  <S**2>=0.000
       9 -> 10         0.62295
       9 -> 11         0.31013
 This state for optimization and/or second-order correction.
 Total Energy, E(TD-HF/TD-DFT) =  -95.2797091421
 Copying the excited state density for this state as the 1-particle RhoCI density.

 Excited State   2:      Singlet-A'     8.1422 eV  152.27 nm  f=0.0414  <S**2>=0.000
       9 -> 10        -0.29855
       9 -> 11         0.61312
       9 -> 15         0.10250

 Excited State   3:      Singlet-A"     8.4026 eV  147.55 nm  f=0.0072  <S**2>=0.000
       9 -> 12         0.67715
       9 -> 17        -0.11244

 Excited State   4:      Singlet-A'     9.3569 eV  132.51 nm  f=0.0762  <S**2>=0.000
       9 -> 13         0.66199
       9 -> 15        -0.18410

 Excited State   5:      Singlet-A"     9.7366 eV  127.34 nm  f=0.0003  <S**2>=0.000
       9 -> 14         0.66781
       9 -> 17        -0.15021
       9 -> 27        -0.10357

 Excited State   6:      Singlet-A'    10.1290 eV  122.41 nm  f=0.0184  <S**2>=0.000
       9 -> 13         0.16810
       9 -> 15         0.64050
       9 -> 18         0.13141

 Excited State   7:      Singlet-A"    10.2326 eV  121.17 nm  f=0.0205  <S**2>=0.000
       8 -> 10         0.68066

 Excited State   8:      Singlet-A'    10.2786 eV  120.62 nm  f=0.0216  <S**2>=0.000
       9 -> 16         0.64464
       9 -> 18        -0.15365
       9 -> 20        -0.14597

 Excited State   9:      Singlet-A"    10.9719 eV  113.00 nm  f=0.0019  <S**2>=0.000
       9 -> 12         0.14007
       9 -> 14         0.13216
       9 -> 17         0.64171
       9 -> 19         0.10976

 Excited State  10:      Singlet-A"    11.3320 eV  109.41 nm  f=0.1072  <S**2>=0.000
       5 -> 10         0.12273
       8 -> 11         0.66256
       8 -> 15        -0.11467

 Excited State  11:      Singlet-A'    11.3636 eV  109.11 nm  f=0.0714  <S**2>=0.000
       7 -> 10         0.58263
       9 -> 16         0.13687
       9 -> 18         0.17144
       9 -> 20         0.23573

 Excited State  12:      Singlet-A'    11.8026 eV  105.05 nm  f=0.0195  <S**2>=0.000
       6 -> 10         0.13100
       7 -> 10        -0.33774
       9 -> 15        -0.11330
       9 -> 16         0.13361
       9 -> 18         0.20477
       9 -> 20         0.46811
       9 -> 22        -0.12528

 Excited State  13:      Singlet-A"    11.9095 eV  104.11 nm  f=0.0089  <S**2>=0.000
       9 -> 17        -0.10844
       9 -> 19         0.66693

 Excited State  14:      Singlet-A'    11.9858 eV  103.44 nm  f=0.0334  <S**2>=0.000
       6 -> 10        -0.20815
       8 -> 12        -0.20384
       9 -> 13        -0.10880
       9 -> 18         0.53030
       9 -> 20        -0.23901

 Excited State  15:      Singlet-A'    12.3408 eV  100.47 nm  f=0.2333  <S**2>=0.000
       6 -> 10         0.17473
       7 -> 11        -0.30341
       8 -> 12         0.51780
       8 -> 14         0.13885
       9 -> 18         0.15409
       9 -> 20        -0.16561

 Excited State  16:      Singlet-A'    12.4793 eV   99.35 nm  f=0.0444  <S**2>=0.000
       6 -> 10         0.41872
       7 -> 11        -0.35326
       8 -> 12        -0.39097

 Excited State  17:      Singlet-A"    12.5285 eV   98.96 nm  f=0.0471  <S**2>=0.000
       8 -> 13         0.67743

 Excited State  18:      Singlet-A'    12.8349 eV   96.60 nm  f=0.0368  <S**2>=0.000
       6 -> 10         0.39982
       7 -> 11         0.45697
       8 -> 14         0.18678
       9 -> 22         0.15620

 Excited State  19:      Singlet-A'    13.1082 eV   94.58 nm  f=0.0494  <S**2>=0.000
       6 -> 10        -0.16342
       8 -> 14         0.53460
       8 -> 17        -0.14727
       9 -> 18        -0.16176
       9 -> 20         0.15128
       9 -> 22         0.26714

 Excited State  20:      Singlet-A"    13.2203 eV   93.78 nm  f=0.0209  <S**2>=0.000
       5 -> 10        -0.11823
       5 -> 11        -0.11439
       7 -> 12         0.50102
       8 -> 15        -0.29236
       8 -> 16         0.10632
       9 -> 21         0.27100

 Excited State  21:      Singlet-A"    13.3156 eV   93.11 nm  f=0.0400  <S**2>=0.000
       5 -> 10         0.23711
       5 -> 11         0.22904
       7 -> 12         0.11740
       8 -> 15         0.17620
       8 -> 16         0.53330
       8 -> 18        -0.14963

 Excited State  22:      Singlet-A'    13.3748 eV   92.70 nm  f=0.2806  <S**2>=0.000
       6 -> 11         0.14189
       8 -> 14        -0.28412
       8 -> 17         0.12534
       9 -> 20         0.14277
       9 -> 22         0.53970
       9 -> 25         0.11626

 Excited State  23:      Singlet-A"    13.4176 eV   92.40 nm  f=0.0030  <S**2>=0.000
       7 -> 12         0.38814
       7 -> 14         0.15325
       8 -> 15         0.43179
       8 -> 16        -0.29793

 Excited State  24:      Singlet-A"    13.6449 eV   90.87 nm  f=0.1860  <S**2>=0.000
       7 -> 12        -0.19667
       8 -> 15         0.22819
       9 -> 17         0.10237
       9 -> 21         0.60074

 Excited State  25:      Singlet-A'    13.6465 eV   90.85 nm  f=0.0560  <S**2>=0.000
       6 -> 10        -0.10969
       6 -> 11         0.57036
       7 -> 13         0.20064
       7 -> 15        -0.17109
       9 -> 22        -0.10956
       9 -> 23        -0.17015

 Excited State  26:      Singlet-A'    13.8680 eV   89.40 nm  f=0.0220  <S**2>=0.000
       6 -> 11        -0.24714
       7 -> 13         0.59724
       7 -> 16         0.10951
       8 -> 17        -0.11739

 Excited State  27:      Singlet-A"    14.0056 eV   88.53 nm  f=0.0174  <S**2>=0.000
       6 -> 12         0.24955
       7 -> 14         0.60237
       8 -> 15        -0.16862
       9 -> 21         0.10729

 Excited State  28:      Singlet-A'    14.0896 eV   88.00 nm  f=0.2678  <S**2>=0.000
       7 -> 13         0.15959
       7 -> 16        -0.11177
       9 -> 20        -0.10534
       9 -> 23         0.62409

 Excited State  29:      Singlet-A"    14.2060 eV   87.28 nm  f=0.0581  <S**2>=0.000
       5 -> 10         0.53807
       6 -> 12        -0.19021
       8 -> 11        -0.14742
       8 -> 15        -0.20986
       8 -> 16        -0.22921
       9 -> 21         0.10726

 Excited State  30:      Singlet-A'    14.4129 eV   86.02 nm  f=0.0164  <S**2>=0.000
       5 -> 12        -0.14432
       6 -> 13        -0.35432
       7 -> 15        -0.24866
       8 -> 17         0.46445
       9 -> 22        -0.10623
       9 -> 24        -0.11214

 Excited State  31:      Singlet-A"    14.4419 eV   85.85 nm  f=0.1133  <S**2>=0.000
       5 -> 10         0.17911
       6 -> 12         0.57288
       7 -> 14        -0.21708
       7 -> 17         0.15945
       8 -> 20         0.10657

 Excited State  32:      Singlet-A'    14.8268 eV   83.62 nm  f=0.0448  <S**2>=0.000
       6 -> 13        -0.15005
       7 -> 15         0.11654
       7 -> 16         0.27308
       9 -> 24         0.49408
       9 -> 25        -0.14520
       9 -> 32         0.13784
       9 -> 33         0.11599

 Excited State  33:      Singlet-A'    14.8943 eV   83.24 nm  f=0.1784  <S**2>=0.000
       6 -> 11        -0.10154
       6 -> 13         0.46103
       7 -> 15        -0.40852
       8 -> 17         0.15335
       9 -> 24         0.10190

 Excited State  34:      Singlet-A"    14.9369 eV   83.01 nm  f=0.0017  <S**2>=0.000
       5 -> 13         0.19005
       6 -> 14         0.33273
       8 -> 16         0.11173
       8 -> 18         0.53310

 Excited State  35:      Singlet-A'    14.9844 eV   82.74 nm  f=0.0247  <S**2>=0.000
       6 -> 16        -0.10493
       7 -> 13        -0.14646
       7 -> 15        -0.15998
       7 -> 16         0.52534
       7 -> 18        -0.10600
       8 -> 17        -0.22467
       9 -> 23         0.10514
       9 -> 24        -0.20446

 Excited State  36:      Singlet-A"    15.0482 eV   82.39 nm  f=0.0012  <S**2>=0.000
       5 -> 11        -0.16813
       6 -> 14         0.48015
       6 -> 27        -0.10013
       8 -> 18        -0.29840
       8 -> 20        -0.24968
       9 -> 26         0.10656

 Excited State  37:      Singlet-A'    15.1813 eV   81.67 nm  f=0.1063  <S**2>=0.000
       5 -> 12         0.11889
       6 -> 11         0.10439
       6 -> 13         0.19655
       7 -> 13         0.11308
       7 -> 15         0.30663
       7 -> 16         0.17148
       8 -> 17         0.27112
       8 -> 19        -0.19595
       9 -> 24        -0.29541
       9 -> 25        -0.19139

 Excited State  38:      Singlet-A"    15.3115 eV   80.97 nm  f=0.2090  <S**2>=0.000
       5 -> 10        -0.12585
       5 -> 11         0.32872
       6 -> 12        -0.12957
       6 -> 14         0.26945
       7 -> 14         0.11562
       7 -> 17         0.21105
       8 -> 18        -0.14758
       8 -> 20         0.34948
       8 -> 22        -0.12361

 Excited State  39:      Singlet-A'    15.5261 eV   79.86 nm  f=0.0070  <S**2>=0.000
       5 -> 12         0.13006
       6 -> 13         0.13773
       6 -> 16        -0.10945
       7 -> 15         0.12566
       7 -> 16         0.14106
       8 -> 17         0.15409
       9 -> 22        -0.12635
       9 -> 24         0.12883
       9 -> 25         0.51970
       9 -> 30         0.14335
       9 -> 32        -0.10412

 Excited State  40:      Singlet-A'    15.6873 eV   79.03 nm  f=0.2437  <S**2>=0.000
       6 -> 15         0.12102
       7 -> 15         0.10097
       7 -> 20        -0.11431
       8 -> 17         0.12619
       8 -> 19         0.59714
       9 -> 25        -0.13392

 Excited State  41:      Singlet-A"    15.6941 eV   79.00 nm  f=0.0001  <S**2>=0.000
       5 -> 10         0.15992
       5 -> 11        -0.36973
       6 -> 12        -0.10071
       7 -> 17         0.49187
       8 -> 15         0.12371
       9 -> 26        -0.10265

 Excited State  42:      Singlet-A"    15.7927 eV   78.51 nm  f=0.1641  <S**2>=0.000
       5 -> 10         0.13640
       5 -> 11        -0.29142
       7 -> 17        -0.25105
       8 -> 20         0.36294
       9 -> 26         0.29364
       9 -> 28         0.20789

 Excited State  43:      Singlet-A'    15.8578 eV   78.18 nm  f=0.0652  <S**2>=0.000
       5 -> 12        -0.20479
       6 -> 15         0.52805
       7 -> 18        -0.20647
       7 -> 20        -0.15738
       8 -> 19        -0.15616
       9 -> 25         0.14577

 Excited State  44:      Singlet-A"    15.9217 eV   77.87 nm  f=0.0218  <S**2>=0.000
       6 -> 14        -0.18179
       6 -> 17        -0.13145
       7 -> 17         0.26766
       7 -> 19        -0.13230
       8 -> 20        -0.19793
       9 -> 26         0.48765
       9 -> 28         0.19216

 Excited State  45:      Singlet-A'    16.0147 eV   77.42 nm  f=0.1477  <S**2>=0.000
       5 -> 12        -0.33859
       6 -> 15        -0.20294
       6 -> 16         0.49276
       9 -> 30         0.14870

 Excited State  46:      Singlet-A"    16.2020 eV   76.52 nm  f=0.0133  <S**2>=0.000
       6 -> 17         0.14143
       7 -> 19        -0.20704
       9 -> 26        -0.29919
       9 -> 28         0.47641
       9 -> 31         0.25016

 Excited State  47:      Singlet-A'    16.2505 eV   76.30 nm  f=0.0611  <S**2>=0.000
       6 -> 15         0.21083
       7 -> 16         0.12904
       7 -> 18         0.60418

 Excited State  48:      Singlet-A"    16.3915 eV   75.64 nm  f=0.0150  <S**2>=0.000
       5 -> 13         0.40043
       5 -> 15        -0.21998
       6 -> 17         0.11722
       7 -> 19        -0.29186
       8 -> 18        -0.12745
       8 -> 22        -0.18603
       8 -> 23         0.24150
       9 -> 28        -0.13242
       9 -> 31        -0.12648

 Excited State  49:      Singlet-A'    16.4294 eV   75.47 nm  f=0.0139  <S**2>=0.000
       5 -> 12         0.32515
       5 -> 14        -0.25039
       6 -> 16         0.32477
       7 -> 15        -0.12616
       7 -> 20        -0.20326
       8 -> 21        -0.14207
       9 -> 30        -0.24560

 Excited State  50:      Singlet-A'    16.5624 eV   74.86 nm  f=0.0003  <S**2>=0.000
       5 -> 12         0.23325
       6 -> 15         0.14924
       6 -> 16         0.16029
       6 -> 18         0.21735
       7 -> 20         0.28256
       9 -> 24        -0.11245
       9 -> 29         0.39153
       9 -> 30         0.13345

 Excited State  51:      Singlet-A"    16.5806 eV   74.78 nm  f=0.0175  <S**2>=0.000
       5 -> 13        -0.23135
       6 -> 17         0.48045
       7 -> 19        -0.17290
       8 -> 23        -0.12445
       9 -> 26         0.18308
       9 -> 27        -0.27471

 Excited State  52:      Singlet-A"    16.6921 eV   74.28 nm  f=0.0004  <S**2>=0.000
       5 -> 13        -0.15257
       6 -> 17         0.14640
       6 -> 19         0.10987
       7 -> 19        -0.15884
       8 -> 22        -0.16756
       9 -> 27         0.56845
       9 -> 31        -0.10205

 Excited State  53:      Singlet-A'    16.7814 eV   73.88 nm  f=0.1554  <S**2>=0.000
       5 -> 12         0.11887
       6 -> 18        -0.13897
       7 -> 15        -0.11010
       7 -> 20        -0.34167
       9 -> 24        -0.11735
       9 -> 29         0.15342
       9 -> 30         0.44946

 Excited State  54:      Singlet-A"    16.8055 eV   73.78 nm  f=0.0193  <S**2>=0.000
       5 -> 13         0.27028
       5 -> 18         0.10915
       6 -> 17         0.35372
       7 -> 19         0.30865
       8 -> 22         0.28825
       9 -> 27         0.19623

 Excited State  55:      Singlet-A'    16.8710 eV   73.49 nm  f=0.1422  <S**2>=0.000
       5 -> 12         0.22646
       5 -> 14         0.37671
       5 -> 17        -0.15537
       6 -> 16         0.13541
       6 -> 18        -0.11622
       6 -> 20        -0.13031
       8 -> 21         0.32776
       9 -> 29        -0.25038

 Excited State  56:      Singlet-A"    16.9811 eV   73.01 nm  f=0.1753  <S**2>=0.000
       5 -> 16        -0.19996
       7 -> 19        -0.36564
       8 -> 20         0.20313
       8 -> 22         0.42073
       9 -> 31        -0.16652

 Excited State  57:      Singlet-A'    16.9903 eV   72.97 nm  f=0.1475  <S**2>=0.000
       5 -> 12        -0.10078
       5 -> 14         0.17973
       6 -> 15        -0.11425
       7 -> 20        -0.28188
       8 -> 21         0.12503
       9 -> 29         0.41649
       9 -> 30        -0.30229
       9 -> 33        -0.10360

 Excited State  58:      Singlet-A"    17.2750 eV   71.77 nm  f=0.0089  <S**2>=0.000
       5 -> 13        -0.29125
       5 -> 15        -0.25367
       5 -> 16        -0.20006
       8 -> 18         0.15338
       8 -> 23         0.46705
       8 -> 25        -0.10087

 Excited State  59:      Singlet-A'    17.3062 eV   71.64 nm  f=0.0090  <S**2>=0.000
       5 -> 14        -0.18375
       5 -> 17        -0.10094
       6 -> 18         0.50155
       7 -> 20        -0.18318
       7 -> 23        -0.12442
       8 -> 21         0.25444
       9 -> 29        -0.13560

 Excited State  60:      Singlet-A"    17.5101 eV   70.81 nm  f=0.0000  <S**2>=0.000
       5 -> 15         0.37492
       5 -> 16         0.20395
       5 -> 18         0.11905
       6 -> 19        -0.32885
       8 -> 23         0.24588
       9 -> 28         0.12891
       9 -> 31        -0.26504

 Excited State  61:      Singlet-A'    17.5296 eV   70.73 nm  f=0.0555  <S**2>=0.000
       5 -> 14        -0.36840
       6 -> 18        -0.22590
       6 -> 20         0.10194
       7 -> 20         0.13411
       7 -> 22         0.12453
       8 -> 21         0.44270
       9 -> 32        -0.10584

 Excited State  62:      Singlet-A'    17.6252 eV   70.34 nm  f=0.0802  <S**2>=0.000
       5 -> 14         0.10619
       6 -> 16         0.13175
       6 -> 20         0.54024
       7 -> 20        -0.13769
       7 -> 22        -0.20015
       9 -> 33        -0.15983

 Excited State  63:      Singlet-A"    17.6402 eV   70.28 nm  f=0.0698  <S**2>=0.000
       5 -> 13        -0.10636
       5 -> 15         0.18261
       5 -> 16         0.27570
       6 -> 19         0.39044
       8 -> 22         0.10810
       8 -> 23         0.23997
       8 -> 25         0.13058
       9 -> 28        -0.15647
       9 -> 31         0.22627

 Excited State  64:      Singlet-A'    17.7676 eV   69.78 nm  f=0.0644  <S**2>=0.000
       6 -> 18        -0.16229
       6 -> 20         0.11735
       8 -> 21         0.10272
       9 -> 25         0.19585
       9 -> 30        -0.17490
       9 -> 32         0.45634
       9 -> 33         0.31590

 Excited State  65:      Singlet-A"    17.9216 eV   69.18 nm  f=0.0701  <S**2>=0.000
       5 -> 15        -0.28654
       5 -> 16         0.38896
       5 -> 18        -0.17082
       7 -> 19         0.11398
       8 -> 20         0.11162
       8 -> 22         0.24051
       9 -> 28         0.19489
       9 -> 31        -0.25234

 Excited State  66:      Singlet-A"    18.0127 eV   68.83 nm  f=0.0213  <S**2>=0.000
       5 -> 15         0.10788
       5 -> 16        -0.22633
       6 -> 19         0.39389
       7 -> 21        -0.16347
       8 -> 22        -0.10613
       9 -> 27        -0.12868
       9 -> 28         0.19092
       9 -> 31        -0.38368

 Excited State  67:      Singlet-A"    18.0862 eV   68.55 nm  f=0.0404  <S**2>=0.000
       5 -> 15         0.11765
       8 -> 24         0.65806

 Excited State  68:      Singlet-A'    18.3047 eV   67.73 nm  f=0.1561  <S**2>=0.000
       4 -> 10        -0.10628
       5 -> 17        -0.28758
       6 -> 20         0.14030
       6 -> 22        -0.15183
       7 -> 22         0.49211
       8 -> 21        -0.15623
       9 -> 34        -0.16135

 Excited State  69:      Singlet-A"    18.3923 eV   67.41 nm  f=0.0409  <S**2>=0.000
       5 -> 15         0.16146
       5 -> 18        -0.14044
       6 -> 19         0.16061
       6 -> 21        -0.12135
       7 -> 21         0.57474
       8 -> 25        -0.15531

 Excited State  70:      Singlet-A'    18.5087 eV   66.99 nm  f=0.0182  <S**2>=0.000
       5 -> 14        -0.10518
       5 -> 17        -0.39383
       5 -> 19        -0.17717
       7 -> 23         0.43694
       8 -> 21        -0.13178
       9 -> 33         0.10381
       9 -> 34         0.10815

 Excited State  71:      Singlet-A'    18.5985 eV   66.66 nm  f=0.0235  <S**2>=0.000
       5 -> 17         0.31794
       6 -> 18         0.14647
       7 -> 22         0.17858
       7 -> 23         0.34746
       9 -> 32        -0.19629
       9 -> 33         0.27631
       9 -> 34        -0.19291

 Excited State  72:      Singlet-A"    18.6418 eV   66.51 nm  f=0.0092  <S**2>=0.000
       5 -> 15        -0.14406
       5 -> 18         0.21283
       7 -> 21         0.26761
       8 -> 22        -0.17284
       8 -> 25         0.51389

 Excited State  73:      Singlet-A'    18.6642 eV   66.43 nm  f=0.0098  <S**2>=0.000
       5 -> 17        -0.15459
       6 -> 22         0.10118
       6 -> 23         0.11898
       7 -> 22        -0.10392
       7 -> 23        -0.29547
       7 -> 24        -0.11650
       9 -> 32        -0.34285
       9 -> 33         0.41400

 Excited State  74:      Singlet-A"    18.8667 eV   65.72 nm  f=0.0173  <S**2>=0.000
       5 -> 13        -0.10140
       5 -> 16         0.18367
       5 -> 18         0.46657
       5 -> 20         0.23380
       5 -> 22        -0.11439
       7 -> 21         0.10402
       8 -> 23        -0.15873
       8 -> 25        -0.28910

 Excited State  75:      Singlet-A'    18.9842 eV   65.31 nm  f=0.0133  <S**2>=0.000
       4 -> 10        -0.12095
       5 -> 19         0.25099
       6 -> 20         0.10815
       6 -> 22        -0.16558
       8 -> 26         0.22394
       9 -> 34         0.52420

 Excited State  76:      Singlet-A"    19.0424 eV   65.11 nm  f=0.0182  <S**2>=0.000
       5 -> 18        -0.29946
       5 -> 20         0.52869
       5 -> 22        -0.15292
       5 -> 25        -0.10129

 Excited State  77:      Singlet-A'    19.0962 eV   64.93 nm  f=0.0284  <S**2>=0.000
       4 -> 10         0.18037
       5 -> 17        -0.13352
       5 -> 19         0.15002
       8 -> 26         0.57997
       9 -> 34        -0.21380

 Excited State  78:      Singlet-A'    19.1281 eV   64.82 nm  f=0.0045  <S**2>=0.000
       4 -> 10         0.59146
       7 -> 22         0.15588
       7 -> 24         0.18931
       7 -> 25        -0.10475
       9 -> 34         0.10591

 Excited State  79:      Singlet-A'    19.2215 eV   64.50 nm  f=0.0260  <S**2>=0.000
       4 -> 10        -0.14793
       5 -> 19        -0.33368
       6 -> 20         0.11650
       6 -> 22         0.24738

 The electronic state is 1-A'.
 Alpha  occ. eigenvalues --  -14.22873 -10.16903  -1.03473  -0.81210  -0.63443
 Alpha  occ. eigenvalues --   -0.58030  -0.54103  -0.49694  -0.36891
 Alpha virt. eigenvalues --    0.08312   0.12252   0.15756   0.17702   0.19438
 Alpha virt. eigenvalues --    0.21020   0.22123   0.23169   0.26762   0.29085
 Alpha virt. eigenvalues --    0.29149   0.33500   0.34003   0.35533   0.38427

 Mulliken charges:
               1
     1  C    0.780815
     2  N   -0.205134
     3  H   -0.113714
     4  H   -0.199033
     5  H   -0.199033
     6  H   -0.031951
     7  H   -0.031951
 Sum of Mulliken charges =  -0.00000

 Dipole moment (field-independent basis, Debye):
    X=              1.3405    Y=              0.4130    Z=             -0.0000  Tot=              1.4027
 Quadrupole moment (field-independent basis, Debye-Ang):
   XX=            -15.1979   YY=            -14.5601   ZZ=            -12.8128
   XY=             -2.1599   XZ=              0.0000   YZ=              0.0000

 1\1\GINC-HEL25\SP\RLC-BLYP TD-FC\Gen\C1H5N1\SABYASACHI\21-Mar-2022\0\\
 #P TD(Nstates=10000) lc-blyp/Gen SCF(maxcycles=100) Int(Grid=ultrafine
 )\\xGDB7_00001_tier4.com\\0,1\C,0,-0.049078,0.702042,0.\N,0,-0.049078,
 -0.754243,0.\H,0,0.946109,1.166603,0.\H,0,-0.587574,1.062597,0.87777\H
 ,0,-0.587574,1.062597,-0.87777\H,0,0.433525,-1.112175,0.812504\H,0,0.4
 33525,-1.112175,-0.812504\\Version=EM64L-G16RevC.01\State=1-A'\HF=-95.
 5237284\RMSD=3.667e-09\PG=CS [SG(C1H1N1),X(H4)]\\@
 The archive entry for this job was punched.

 Normal termination of Gaussian 16 at Mon Mar 21 20:07:07 2022.
