 Gaussian 16, Revision C.01,
 Gaussian 16:  EM64L-G16RevC.01  3-Jul-2019

 ----------------------------------------------------------------------
 #P TD(Nstates=10000) lc-blyp/Gen SCF(maxcycles=100) Int(Grid=ultrafine
 )
 ----------------------------------------------------------------------

 ---------------------
 xGDB7_00001_tier4.com
 ---------------------
 Symbolic Z-matrix:
 Charge =  0 Multiplicity = 1

                         Standard orientation:
 ---------------------------------------------------------------------
 Center     Atomic      Atomic             Coordinates (Angstroms)
 Number     Number       Type             X           Y           Z
 ---------------------------------------------------------------------
      1          9           0       -1.139724   -0.269725    0.000000
      2          6           0        0.000000    0.430281    0.000000
      3          6           0        1.180852   -0.148760    0.000000
      4          1           0       -0.180450    1.498331    0.000000
      5          1           0        1.283634   -1.225170    0.000000
      6          1           0        2.069222    0.465238    0.000000
 ---------------------------------------------------------------------

 SCF Done:  E(RLC-B+HF-LYP) =  -177.304463843     A.U. after   13 cycles

 Excitation energies and oscillator strengths:

 Excited State   1:      Singlet-A'     7.7888 eV  159.18 nm  f=0.3486  <S**2>=0.000
      12 -> 14         0.69827
 This state for optimization and/or second-order correction.
 Total Energy, E(TD-HF/TD-DFT) =  -177.018229567
 Copying the excited state density for this state as the 1-particle RhoCI density.

 Excited State   2:      Singlet-A"     7.8681 eV  157.58 nm  f=0.0476  <S**2>=0.000
      12 -> 13         0.67313
      12 -> 21         0.10495

 Excited State   3:      Singlet-A"     8.6184 eV  143.86 nm  f=0.0096  <S**2>=0.000
      12 -> 13        -0.13626
      12 -> 15         0.61090
      12 -> 17        -0.24606
      12 -> 21         0.11375

 Excited State   4:      Singlet-A"     9.1611 eV  135.34 nm  f=0.0001  <S**2>=0.000
      11 -> 14         0.65776
      12 -> 16         0.17129

 Excited State   5:      Singlet-A"     9.2957 eV  133.38 nm  f=0.0040  <S**2>=0.000
      11 -> 14        -0.18891
      12 -> 15         0.22903
      12 -> 16         0.53177
      12 -> 17         0.23768
      12 -> 20         0.12942
      12 -> 21        -0.14993

 Excited State   6:      Singlet-A"     9.8056 eV  126.44 nm  f=0.0017  <S**2>=0.000
      10 -> 14         0.17455
      12 -> 15         0.21399
      12 -> 16        -0.30263
      12 -> 17         0.52333
      12 -> 18        -0.14478

 Excited State   7:      Singlet-A"    10.0866 eV  122.92 nm  f=0.0012  <S**2>=0.000
      10 -> 14         0.67040
      12 -> 16         0.11255
      12 -> 17        -0.13854

 Excited State   8:      Singlet-A"    10.7009 eV  115.86 nm  f=0.0162  <S**2>=0.000
      12 -> 16        -0.12181
      12 -> 17         0.11956
      12 -> 18         0.63356
      12 -> 21         0.17527
      12 -> 23        -0.10800

 Excited State   9:      Singlet-A'    10.8484 eV  114.29 nm  f=0.0008  <S**2>=0.000
      11 -> 13        -0.38510
      11 -> 15        -0.19972
      12 -> 19         0.51267

 Excited State  10:      Singlet-A'    10.9598 eV  113.13 nm  f=0.0110  <S**2>=0.000
      11 -> 13         0.42541
      11 -> 15         0.22435
      11 -> 16        -0.12701
      12 -> 19         0.45474

 Excited State  11:      Singlet-A"    11.2050 eV  110.65 nm  f=0.1101  <S**2>=0.000
       8 -> 14         0.12429
      12 -> 18        -0.12866
      12 -> 20         0.56430
      12 -> 21         0.36050

 Excited State  12:      Singlet-A'    11.7351 eV  105.65 nm  f=0.0689  <S**2>=0.000
      10 -> 13         0.52310
      10 -> 15        -0.21487
      11 -> 13        -0.23423
      11 -> 15         0.23795
      11 -> 16        -0.15641

 Excited State  13:      Singlet-A'    11.9060 eV  104.14 nm  f=0.0300  <S**2>=0.000
      11 -> 16        -0.22496
      12 -> 22         0.62934
      12 -> 24        -0.11064

 Excited State  14:      Singlet-A"    11.9198 eV  104.01 nm  f=0.0202  <S**2>=0.000
      12 -> 16         0.19224
      12 -> 17         0.18968
      12 -> 18        -0.12659
      12 -> 20        -0.33110
      12 -> 21         0.47690
      12 -> 23         0.10741

 Excited State  15:      Singlet-A'    12.2046 eV  101.59 nm  f=0.2652  <S**2>=0.000
      10 -> 13        -0.16942
      11 -> 13        -0.12075
      11 -> 15         0.48716
      11 -> 16         0.36891
      12 -> 22         0.14283

 Excited State  16:      Singlet-A"    12.4033 eV   99.96 nm  f=0.0412  <S**2>=0.000
       8 -> 14         0.64928
      11 -> 14         0.11542
      12 -> 20        -0.13260
      12 -> 23        -0.13510

 Excited State  17:      Singlet-A'    12.4349 eV   99.71 nm  f=0.1480  <S**2>=0.000
      10 -> 13         0.27606
      10 -> 15        -0.25058
      11 -> 13         0.25713
      11 -> 15        -0.16087
      11 -> 16         0.31802
      11 -> 17         0.26895
      11 -> 21        -0.10391
      12 -> 22         0.15887

 Excited State  18:      Singlet-A"    12.6405 eV   98.08 nm  f=0.0018  <S**2>=0.000
       8 -> 14         0.14452
      12 -> 18         0.10685
      12 -> 21        -0.11171
      12 -> 23         0.64561

 Excited State  19:      Singlet-A'    12.8437 eV   96.53 nm  f=0.1327  <S**2>=0.000
      10 -> 13         0.25529
      10 -> 15         0.54848
      10 -> 20        -0.10088
      11 -> 16         0.14808
      11 -> 18        -0.11767
      11 -> 20         0.11746

 Excited State  20:      Singlet-A'    12.9507 eV   95.74 nm  f=0.0296  <S**2>=0.000
       9 -> 14         0.66007
      12 -> 24         0.10426

 Excited State  21:      Singlet-A'    13.3767 eV   92.69 nm  f=0.0151  <S**2>=0.000
       9 -> 14        -0.10892
      10 -> 13         0.12510
      10 -> 15         0.10337
      10 -> 16        -0.16635
      10 -> 17         0.23033
      11 -> 15        -0.10354
      11 -> 16         0.11703
      11 -> 17        -0.18528
      12 -> 24         0.49489
      12 -> 26        -0.16941

 Excited State  22:      Singlet-A'    13.4059 eV   92.48 nm  f=0.0892  <S**2>=0.000
       8 -> 13         0.20866
      10 -> 16        -0.11069
      10 -> 17         0.13525
      11 -> 15         0.14668
      11 -> 16        -0.25515
      11 -> 17         0.45919
      11 -> 20         0.13949
      11 -> 21        -0.12948
      11 -> 27         0.12994
      12 -> 24         0.13998

 Excited State  23:      Singlet-A"    13.4939 eV   91.88 nm  f=0.0083  <S**2>=0.000
      10 -> 19         0.13731
      11 -> 19         0.67042

 Excited State  24:      Singlet-A"    13.6561 eV   90.79 nm  f=0.0559  <S**2>=0.000
       9 -> 13         0.52781
       9 -> 15         0.28784
       9 -> 16        -0.24097
       9 -> 21         0.11175
      12 -> 25        -0.10168

 Excited State  25:      Singlet-A'    13.7006 eV   90.50 nm  f=0.1506  <S**2>=0.000
      10 -> 16         0.40820
      10 -> 17         0.38674
      10 -> 18         0.15769
      10 -> 20         0.11093
      11 -> 18        -0.25795
      11 -> 20        -0.10356

 Excited State  26:      Singlet-A"    13.8550 eV   89.49 nm  f=0.0418  <S**2>=0.000
       7 -> 14        -0.34837
      12 -> 25         0.45757
      12 -> 27        -0.32556

 Excited State  27:      Singlet-A"    13.8959 eV   89.22 nm  f=0.0034  <S**2>=0.000
       7 -> 14         0.58512
      12 -> 25         0.26459
      12 -> 27        -0.22215

 Excited State  28:      Singlet-A'    13.9643 eV   88.79 nm  f=0.0440  <S**2>=0.000
      10 -> 16        -0.17381
      10 -> 17         0.33738
      11 -> 17        -0.18724
      11 -> 18         0.12472
      11 -> 20         0.38390
      12 -> 24        -0.29741

 Excited State  29:      Singlet-A'    14.1165 eV   87.83 nm  f=0.0761  <S**2>=0.000
       8 -> 15        -0.18093
       8 -> 16        -0.11097
      10 -> 15         0.12103
      10 -> 16         0.25418
      11 -> 18         0.54871

 Excited State  30:      Singlet-A"    14.1799 eV   87.44 nm  f=0.0143  <S**2>=0.000
       9 -> 17         0.11818
      12 -> 21         0.15474
      12 -> 25         0.40885
      12 -> 27         0.46776
      12 -> 28         0.13879

 Excited State  31:      Singlet-A'    14.3596 eV   86.34 nm  f=0.0544  <S**2>=0.000
       8 -> 13        -0.10280
       8 -> 15         0.14060
      10 -> 16         0.13992
      10 -> 17        -0.19208
      10 -> 20         0.20840
      11 -> 17        -0.12309
      11 -> 20         0.37303
      11 -> 21        -0.17645
      12 -> 24         0.23705
      12 -> 26         0.27097

 Excited State  32:      Singlet-A'    14.5562 eV   85.18 nm  f=0.0264  <S**2>=0.000
       8 -> 13        -0.35771
      10 -> 16        -0.22715
      10 -> 17         0.19227
      10 -> 20        -0.11130
      11 -> 17         0.11681
      12 -> 26         0.43096

 Excited State  33:      Singlet-A'    14.7185 eV   84.24 nm  f=0.0291  <S**2>=0.000
       8 -> 13         0.44487
      10 -> 16        -0.12501
      10 -> 18         0.18101
      11 -> 16         0.14797
      11 -> 20        -0.16332
      12 -> 26         0.35298

 Excited State  34:      Singlet-A"    14.7569 eV   84.02 nm  f=0.0075  <S**2>=0.000
      10 -> 19         0.50195
      10 -> 22         0.16661
      10 -> 24         0.10208
      11 -> 22        -0.40570

 Excited State  35:      Singlet-A'    14.7600 eV   84.00 nm  f=0.1378  <S**2>=0.000
       8 -> 13         0.19550
      10 -> 16         0.13639
      10 -> 18        -0.24137
      11 -> 17         0.14020
      11 -> 20         0.16731
      11 -> 21         0.49490
      12 -> 24         0.11529
      12 -> 26         0.14169

 Excited State  36:      Singlet-A'    14.9587 eV   82.88 nm  f=0.1492  <S**2>=0.000
      10 -> 17        -0.12497
      10 -> 18         0.49480
      10 -> 21         0.13207
      11 -> 20         0.17232
      11 -> 21         0.21312
      12 -> 24         0.10059
      12 -> 26        -0.13753

 Excited State  37:      Singlet-A"    15.0754 eV   82.24 nm  f=0.0056  <S**2>=0.000
       9 -> 13        -0.13756
       9 -> 15         0.49846
       9 -> 16         0.35036
       9 -> 17        -0.20191
       9 -> 18        -0.18131

 Excited State  38:      Singlet-A"    15.1833 eV   81.66 nm  f=0.0000  <S**2>=0.000
       9 -> 13        -0.19206
       9 -> 16        -0.21822
       9 -> 17        -0.18174
      10 -> 19         0.31509
      10 -> 24         0.12466
      11 -> 22         0.42482
      11 -> 24        -0.11313
      11 -> 26         0.11276

 Excited State  39:      Singlet-A'    15.2315 eV   81.40 nm  f=0.0524  <S**2>=0.000
       7 -> 13        -0.19847
       7 -> 15        -0.12456
       8 -> 15         0.18701
      10 -> 20         0.45387
      10 -> 21         0.27789
      11 -> 20        -0.12742
      11 -> 21         0.16754

 Excited State  40:      Singlet-A"    15.2520 eV   81.29 nm  f=0.0002  <S**2>=0.000
       9 -> 13         0.29240
       9 -> 16         0.35982
       9 -> 17         0.26068
       9 -> 27         0.11454
      10 -> 19         0.16047
      11 -> 22         0.30389
      12 -> 27        -0.10423

 Excited State  41:      Singlet-A'    15.3316 eV   80.87 nm  f=0.0907  <S**2>=0.000
       8 -> 15         0.52630
       8 -> 17        -0.21597
      10 -> 20        -0.21949
      11 -> 18         0.13422

 Excited State  42:      Singlet-A'    15.7253 eV   78.84 nm  f=0.0414  <S**2>=0.000
       8 -> 15         0.10311
       8 -> 16         0.13747
       8 -> 18         0.18970
       9 -> 19         0.21952
      10 -> 21        -0.12630
      10 -> 23         0.10103
      11 -> 23         0.54891

 Excited State  43:      Singlet-A"    15.7268 eV   78.84 nm  f=0.0001  <S**2>=0.000
      10 -> 22        -0.11268
      12 -> 27        -0.17889
      12 -> 28         0.52644
      12 -> 29         0.31291

 Excited State  44:      Singlet-A"    15.7679 eV   78.63 nm  f=0.1192  <S**2>=0.000
       8 -> 19        -0.11093
      10 -> 19        -0.13419
      10 -> 22         0.59659
      10 -> 24        -0.13633
      12 -> 28         0.14970

 Excited State  45:      Singlet-A'    15.9544 eV   77.71 nm  f=0.1065  <S**2>=0.000
       7 -> 13         0.26167
       7 -> 15         0.10681
       8 -> 15         0.17450
       8 -> 16         0.26433
       8 -> 17         0.33855
       8 -> 20         0.10463
       8 -> 21        -0.10293
       9 -> 19         0.10661
      10 -> 20         0.11411
      10 -> 21         0.12396
      11 -> 23        -0.14716
      11 -> 27         0.12264

 Excited State  46:      Singlet-A'    16.0105 eV   77.44 nm  f=0.0266  <S**2>=0.000
       7 -> 13         0.43830
       7 -> 15         0.12393
       8 -> 15        -0.11919
       8 -> 17        -0.34546
       8 -> 18         0.10357
      10 -> 18        -0.10766
      10 -> 20         0.16072
      10 -> 21         0.11328
      11 -> 27        -0.10577

 Excited State  47:      Singlet-A'    16.0586 eV   77.21 nm  f=0.0323  <S**2>=0.000
       6 -> 13         0.12518
       7 -> 13        -0.14620
       7 -> 16         0.15202
       8 -> 16         0.46960
       8 -> 17        -0.16869
       9 -> 19        -0.24228
      10 -> 18         0.16134
      10 -> 21        -0.17016

 Excited State  48:      Singlet-A"    16.2267 eV   76.41 nm  f=0.0013  <S**2>=0.000
       6 -> 14        -0.25632
       9 -> 13        -0.11133
       9 -> 15         0.24603
       9 -> 16        -0.24355
       9 -> 17         0.28705
       9 -> 18         0.13552
       9 -> 20         0.28677
       9 -> 21        -0.12465
       9 -> 27         0.14375
      12 -> 28        -0.17273
      12 -> 29         0.11720

 Excited State  49:      Singlet-A'    16.3583 eV   75.79 nm  f=0.0380  <S**2>=0.000
       7 -> 16         0.20312
       9 -> 19         0.26545
      10 -> 20         0.10864
      10 -> 21        -0.17773
      10 -> 23        -0.11138
      11 -> 23        -0.17189
      12 -> 32         0.48439

 Excited State  50:      Singlet-A'    16.3748 eV   75.72 nm  f=0.0415  <S**2>=0.000
       7 -> 13        -0.20029
       8 -> 16         0.14750
       8 -> 17        -0.12767
       9 -> 19         0.43168
      10 -> 16         0.11236
      10 -> 20        -0.10798
      10 -> 21         0.27196
      11 -> 21        -0.11748
      11 -> 23        -0.14765
      12 -> 32        -0.14213

 Excited State  51:      Singlet-A"    16.4697 eV   75.28 nm  f=0.0888  <S**2>=0.000
       6 -> 14         0.20838
       9 -> 20        -0.14479
      12 -> 28        -0.30207
      12 -> 29         0.51810
      12 -> 30         0.16025

 Excited State  52:      Singlet-A"    16.4860 eV   75.21 nm  f=0.0013  <S**2>=0.000
       6 -> 14         0.15020
       8 -> 19        -0.26210
       8 -> 24        -0.11276
       9 -> 17         0.11935
      10 -> 19         0.15743
      10 -> 24        -0.10308
      11 -> 24         0.37709
      11 -> 26        -0.13727
      12 -> 29        -0.16296
      12 -> 30         0.27671

 Excited State  53:      Singlet-A"    16.5611 eV   74.86 nm  f=0.0122  <S**2>=0.000
       6 -> 14         0.24052
       8 -> 19         0.19949
      10 -> 19        -0.10693
      10 -> 24         0.10134
      11 -> 24        -0.27480
      11 -> 26         0.11863
      12 -> 29        -0.21439
      12 -> 30         0.40180

 Excited State  54:      Singlet-A'    16.6154 eV   74.62 nm  f=0.0437  <S**2>=0.000
       7 -> 16        -0.18235
       8 -> 16         0.12863
       8 -> 20         0.10613
       9 -> 19        -0.20878
      10 -> 20        -0.12389
      10 -> 21         0.30436
      11 -> 25        -0.10562
      12 -> 32         0.44692

 Excited State  55:      Singlet-A'    16.7031 eV   74.23 nm  f=0.1953  <S**2>=0.000
       7 -> 13        -0.17236
       7 -> 15         0.30950
       7 -> 17        -0.18779
       7 -> 18        -0.18199
       8 -> 17        -0.15553
      10 -> 21        -0.12579
      10 -> 23         0.39540
      11 -> 25        -0.12015

 Excited State  56:      Singlet-A"    16.7853 eV   73.86 nm  f=0.0823  <S**2>=0.000
       6 -> 14         0.38999
       9 -> 15         0.14748
       9 -> 17         0.24555
       9 -> 20        -0.11112
      12 -> 30        -0.35774
      12 -> 31         0.24260
      12 -> 33         0.10698

 Excited State  57:      Singlet-A'    16.9447 eV   73.17 nm  f=0.1779  <S**2>=0.000
       7 -> 15        -0.15790
       7 -> 16        -0.15946
       7 -> 20        -0.12902
       8 -> 18         0.28046
       8 -> 20        -0.22247
      10 -> 18         0.11734
      10 -> 23         0.29593
      11 -> 23        -0.11622
      11 -> 25         0.26038
      11 -> 27        -0.18761

 Excited State  58:      Singlet-A"    16.9719 eV   73.05 nm  f=0.0039  <S**2>=0.000
       7 -> 19         0.20030
       8 -> 19        -0.19324
      10 -> 19        -0.10852
      10 -> 24         0.52465
      10 -> 26        -0.20797
      11 -> 24         0.14784

 Excited State  59:      Singlet-A"    17.0064 eV   72.90 nm  f=0.0204  <S**2>=0.000
       6 -> 14        -0.11051
       9 -> 15         0.10939
       9 -> 16         0.11596
       9 -> 18         0.36425
       9 -> 20        -0.11088
       9 -> 21         0.26763
       9 -> 23         0.17904
      10 -> 24         0.14633
      12 -> 30         0.20145
      12 -> 31         0.29919

 Excited State  60:      Singlet-A'    17.0635 eV   72.66 nm  f=0.1169  <S**2>=0.000
       7 -> 15         0.24923
       7 -> 16         0.38739
       8 -> 17         0.13937
       8 -> 20        -0.14858
       9 -> 19        -0.15539
      10 -> 16         0.13462
      10 -> 21         0.23260
      10 -> 23         0.16125
      11 -> 25         0.14224

 Excited State  61:      Singlet-A"    17.1599 eV   72.25 nm  f=0.1719  <S**2>=0.000
       6 -> 14         0.25786
       9 -> 17        -0.16586
       9 -> 18         0.37371
       9 -> 20         0.34931
       9 -> 23         0.15746
      12 -> 31        -0.24945

 Excited State  62:      Singlet-A'    17.2011 eV   72.08 nm  f=0.0055  <S**2>=0.000
       7 -> 15        -0.18516
       7 -> 16         0.22833
       7 -> 17         0.12919
       8 -> 18         0.28803
       8 -> 20         0.18631
       8 -> 21         0.20838
      10 -> 23         0.18250
      11 -> 23        -0.15411
      11 -> 25        -0.24732
      11 -> 27         0.15435

 Excited State  63:      Singlet-A"    17.2305 eV   71.96 nm  f=0.0138  <S**2>=0.000
       9 -> 15        -0.13581
       9 -> 17        -0.18006
       9 -> 20         0.29703
       9 -> 21        -0.21921
      12 -> 30         0.10641
      12 -> 31         0.47750
      12 -> 33        -0.14908

 Excited State  64:      Singlet-A'    17.3143 eV   71.61 nm  f=0.0022  <S**2>=0.000
       7 -> 13        -0.13881
       7 -> 15         0.34436
       8 -> 17         0.12085
       8 -> 18         0.32825
       8 -> 20         0.13890
       8 -> 21         0.14208
      10 -> 23        -0.25002
      11 -> 23        -0.12170
      11 -> 27        -0.20707

 Excited State  65:      Singlet-A"    17.4124 eV   71.20 nm  f=0.0107  <S**2>=0.000
       8 -> 22         0.35654
      11 -> 24         0.20968
      11 -> 26         0.52475

 Excited State  66:      Singlet-A"    17.4862 eV   70.90 nm  f=0.0238  <S**2>=0.000
       6 -> 19        -0.11872
       7 -> 19         0.12701
       8 -> 19         0.53304
      11 -> 22         0.11406
      11 -> 24         0.35313
      11 -> 26        -0.12051

 Excited State  67:      Singlet-A"    17.5284 eV   70.73 nm  f=0.0026  <S**2>=0.000
       9 -> 15        -0.10277
       9 -> 18        -0.21497
       9 -> 20         0.27726
       9 -> 21         0.42481
      12 -> 33         0.36551

 Excited State  68:      Singlet-A'    17.5310 eV   70.72 nm  f=0.0179  <S**2>=0.000
       6 -> 13         0.12732
       6 -> 15         0.13132
       7 -> 15         0.10903
       8 -> 18         0.20059
       8 -> 20        -0.31868
      10 -> 23        -0.13354
      10 -> 25         0.10377
      11 -> 17        -0.12573
      11 -> 27         0.40545
      11 -> 30         0.11120

 Excited State  69:      Singlet-A'    17.8669 eV   69.39 nm  f=0.0383  <S**2>=0.000
       6 -> 13        -0.25969
       6 -> 15        -0.11528
       8 -> 20         0.16478
       8 -> 21         0.15077
      10 -> 20         0.12088
      10 -> 25        -0.23543
      11 -> 25         0.42201
      11 -> 27         0.18188

 Excited State  70:      Singlet-A'    17.9166 eV   69.20 nm  f=0.0005  <S**2>=0.000
       6 -> 13        -0.19306
       6 -> 15        -0.10564
       7 -> 15        -0.10283
       7 -> 20         0.20855
      10 -> 25         0.52094
      11 -> 25         0.14620

 Excited State  71:      Singlet-A"    17.9764 eV   68.97 nm  f=0.0956  <S**2>=0.000
       6 -> 14        -0.13068
       9 -> 17        -0.13548
       9 -> 18         0.13285
       9 -> 20        -0.14754
       9 -> 21        -0.28824
      12 -> 33         0.52862

 Excited State  72:      Singlet-A'    18.0836 eV   68.56 nm  f=0.0107  <S**2>=0.000
       6 -> 13        -0.25994
       7 -> 15         0.12376
       7 -> 16        -0.15831
       7 -> 17         0.31807
       8 -> 16         0.10215
       8 -> 20        -0.20390
       8 -> 21        -0.13902
       9 -> 22        -0.11539
      10 -> 27        -0.18132
      11 -> 25        -0.19980
      12 -> 34         0.21552

 Excited State  73:      Singlet-A'    18.1943 eV   68.14 nm  f=0.0021  <S**2>=0.000

 The electronic state is 1-A'.
 Alpha  occ. eigenvalues --  -24.55027 -10.25008 -10.16262  -1.36635  -0.93819
 Alpha  occ. eigenvalues --   -0.76367  -0.68680  -0.63486  -0.62036  -0.55007
 Alpha  occ. eigenvalues --   -0.51780  -0.39946
 Alpha virt. eigenvalues --    0.08439   0.09365   0.10378   0.15414   0.17230
 Alpha virt. eigenvalues --    0.18651   0.19173   0.21646   0.23983   0.24617
 Alpha virt. eigenvalues --    0.25431   0.29790   0.31348   0.33030   0.34840

 Mulliken charges:
               1
     1  F   -0.355329
     2  C    0.639276
     3  C    0.262663
     4  H   -0.220406
     5  H   -0.215775
     6  H   -0.110430
 Sum of Mulliken charges =  -0.00000

 Dipole moment (field-independent basis, Debye):
    X=              1.3065    Y=              0.8325    Z=              0.0000  Tot=              1.5492
 Quadrupole moment (field-independent basis, Debye-Ang):
   XX=            -17.9750   YY=            -15.7857   ZZ=            -19.1832
   XY=             -0.9469   XZ=              0.0000   YZ=              0.0000

 1\1\GINC-HEL10\SP\RLC-BLYP TD-FC\Gen\C2H3F1\SABYASACHI\21-Mar-2022\0\\
 #P TD(Nstates=10000) lc-blyp/Gen SCF(maxcycles=100) Int(Grid=ultrafine
 )\\xGDB7_00001_tier4.com\\0,1\F,0,-1.139724,-0.269725,0.\C,0,0.,0.4302
 81,0.\C,0,1.180852,-0.14876,0.\H,0,-0.18045,1.498331,0.\H,0,1.283634,-
 1.22517,0.\H,0,2.069222,0.465238,0.\\Version=EM64L-G16RevC.01\State=1-
 A'\HF=-177.3044638\RMSD=9.483e-09\PG=CS [SG(C2H3F1)]\\@
 The archive entry for this job was punched.

 Normal termination of Gaussian 16 at Mon Mar 21 20:19:52 2022.
