 Gaussian 16, Revision C.01,
 Gaussian 16:  EM64L-G16RevC.01  3-Jul-2019

 ----------------------------------------------------------------------
 #P TD(Nstates=10000) lc-blyp/Gen SCF(maxcycles=100) Int(Grid=ultrafine
 )
 ----------------------------------------------------------------------

 ---------------------
 xGDB7_00001_tier4.com
 ---------------------
 Symbolic Z-matrix:
 Charge =  0 Multiplicity = 1

                         Standard orientation:
 ---------------------------------------------------------------------
 Center     Atomic      Atomic             Coordinates (Angstroms)
 Number     Number       Type             X           Y           Z
 ---------------------------------------------------------------------
      1          6           0        0.000000    1.163894   -0.193136
      2          8           0       -0.000000   -0.000000    0.585449
      3          6           0       -0.000000   -1.163894   -0.193136
      4          1           0        0.000000    2.015478    0.485827
      5          1           0       -0.890390    1.219204   -0.834404
      6          1           0        0.890390    1.219204   -0.834404
      7          1           0       -0.000000   -2.015478    0.485827
      8          1           0        0.890390   -1.219204   -0.834404
      9          1           0       -0.890390   -1.219204   -0.834404
 ---------------------------------------------------------------------

 SCF Done:  E(RLC-B+HF-LYP) =  -154.520267379     A.U. after   12 cycles

 Excitation energies and oscillator strengths:

 Excited State   1:      Singlet-B1     7.6190 eV  162.73 nm  f=0.0233  <S**2>=0.000
      13 -> 14         0.62166
      13 -> 16        -0.19446
      13 -> 18        -0.24731
 This state for optimization and/or second-order correction.
 Total Energy, E(TD-HF/TD-DFT) =  -154.240272972
 Copying the excited state density for this state as the 1-particle RhoCI density.

 Excited State   2:      Singlet-B1     8.7007 eV  142.50 nm  f=0.0512  <S**2>=0.000
      13 -> 14         0.28793
      13 -> 16         0.55454
      13 -> 18         0.27414

 Excited State   3:      Singlet-A2     8.8476 eV  140.13 nm  f=0.0000  <S**2>=0.000
      10 -> 14         0.12373
      13 -> 15         0.68141

 Excited State   4:      Singlet-A1     9.2616 eV  133.87 nm  f=0.0547  <S**2>=0.000
      13 -> 17         0.69155

 Excited State   5:      Singlet-B1     9.3517 eV  132.58 nm  f=0.0259  <S**2>=0.000
      13 -> 14         0.11553
      13 -> 16        -0.35677
      13 -> 18         0.57207

 Excited State   6:      Singlet-A1     9.3550 eV  132.53 nm  f=0.0115  <S**2>=0.000
      12 -> 14         0.59268
      12 -> 16        -0.27594
      12 -> 18        -0.19628

 Excited State   7:      Singlet-A2    10.0792 eV  123.01 nm  f=0.0000  <S**2>=0.000
      10 -> 16        -0.11574
      13 -> 19         0.66482
      13 -> 28        -0.10545

 Excited State   8:      Singlet-B2    10.2614 eV  120.83 nm  f=0.0067  <S**2>=0.000
      11 -> 14         0.38651
      12 -> 15         0.55897

 Excited State   9:      Singlet-B1    10.2735 eV  120.68 nm  f=0.0008  <S**2>=0.000
      13 -> 21         0.65637
      13 -> 23         0.19354

 Excited State  10:      Singlet-A1    10.3097 eV  120.26 nm  f=0.0674  <S**2>=0.000
      11 -> 15         0.14542
      12 -> 14         0.30054
      12 -> 16         0.50616
      12 -> 18         0.24098
      13 -> 20         0.19510

 Excited State  11:      Singlet-A1    10.6121 eV  116.83 nm  f=0.0866  <S**2>=0.000
      11 -> 15        -0.10059
      12 -> 14        -0.10164
      12 -> 16        -0.12999
      13 -> 20         0.65945

 Excited State  12:      Singlet-B1    10.9884 eV  112.83 nm  f=0.0601  <S**2>=0.000
      12 -> 17         0.69012

 Excited State  13:      Singlet-A1    11.0705 eV  111.99 nm  f=0.0045  <S**2>=0.000
      11 -> 15         0.13629
      12 -> 16        -0.33312
      12 -> 18         0.57914

 Excited State  14:      Singlet-B2    11.1367 eV  111.33 nm  f=0.0005  <S**2>=0.000
      11 -> 14         0.33660
      11 -> 16        -0.20887
      11 -> 18        -0.25994
      12 -> 15        -0.31652
      12 -> 19         0.15484
      13 -> 22        -0.31618
      13 -> 25         0.10362

 Excited State  15:      Singlet-B2    11.2011 eV  110.69 nm  f=0.1728  <S**2>=0.000
      11 -> 14         0.23386
      11 -> 18        -0.19708
      12 -> 15        -0.10833
      13 -> 22         0.57048
      13 -> 25        -0.14900

 Excited State  16:      Singlet-A2    11.2211 eV  110.49 nm  f=0.0000  <S**2>=0.000
      10 -> 14         0.53962
      10 -> 18        -0.28753
      13 -> 24         0.22505

 Excited State  17:      Singlet-B2    11.5522 eV  107.32 nm  f=0.0017  <S**2>=0.000
       8 -> 15         0.10095
      11 -> 14        -0.32678
      11 -> 16        -0.25106
      12 -> 15         0.14361
      12 -> 19         0.51262

 Excited State  18:      Singlet-B1    11.5827 eV  107.04 nm  f=0.0011  <S**2>=0.000
      13 -> 21        -0.20447
      13 -> 23         0.64279

 Excited State  19:      Singlet-A2    11.8125 eV  104.96 nm  f=0.0000  <S**2>=0.000
      10 -> 14        -0.31596
      10 -> 18        -0.12228
      13 -> 24         0.56363
      13 -> 27         0.13565

 Excited State  20:      Singlet-B2    11.9388 eV  103.85 nm  f=0.0000  <S**2>=0.000
      10 -> 20        -0.11125
      13 -> 22         0.19047
      13 -> 25         0.65012

 Excited State  21:      Singlet-B1    12.0183 eV  103.16 nm  f=0.0367  <S**2>=0.000
      12 -> 20         0.68176

 Excited State  22:      Singlet-A1    12.0378 eV  103.00 nm  f=0.0142  <S**2>=0.000
       8 -> 14        -0.20345
      11 -> 15         0.58262
      12 -> 14        -0.17660
      12 -> 18        -0.13918
      12 -> 21         0.16843
      13 -> 26        -0.10736

 Excited State  23:      Singlet-B2    12.2451 eV  101.25 nm  f=0.3650  <S**2>=0.000
       8 -> 15        -0.11035
      11 -> 14         0.20388
      11 -> 16         0.16225
      11 -> 18         0.46161
      12 -> 15        -0.18066
      12 -> 19         0.34854
      12 -> 24        -0.13370

 Excited State  24:      Singlet-A1    12.2795 eV  100.97 nm  f=0.1157  <S**2>=0.000
      11 -> 15        -0.12752
      12 -> 16        -0.10530
      12 -> 21         0.63635
      12 -> 23         0.16247

 Excited State  25:      Singlet-A2    12.3695 eV  100.23 nm  f=0.0000  <S**2>=0.000
      11 -> 17         0.50547
      12 -> 22        -0.41270

 Excited State  26:      Singlet-B1    12.3871 eV  100.09 nm  f=0.1358  <S**2>=0.000
       7 -> 14        -0.23085
      10 -> 15         0.62400

 Excited State  27:      Singlet-A2    12.3958 eV  100.02 nm  f=0.0000  <S**2>=0.000
      10 -> 16        -0.16766
      10 -> 21         0.10304
      13 -> 15         0.10494
      13 -> 19        -0.10972
      13 -> 24        -0.23352
      13 -> 27         0.51395
      13 -> 28        -0.20713
      13 -> 33         0.10364
      13 -> 44        -0.12608

 Excited State  28:      Singlet-A2    12.6390 eV   98.10 nm  f=0.0000  <S**2>=0.000
       7 -> 15        -0.10888
      10 -> 14         0.11873
      10 -> 16         0.42868
      10 -> 18         0.34739
      10 -> 21         0.12209
      10 -> 23         0.13175
      11 -> 17        -0.12503
      13 -> 24         0.12667
      13 -> 27         0.23978

 Excited State  29:      Singlet-B2    12.8434 eV   96.54 nm  f=0.0769  <S**2>=0.000
       8 -> 19         0.11723
      10 -> 17        -0.15143
      11 -> 16         0.53494
      11 -> 18        -0.28108
      12 -> 19         0.18328
      12 -> 24         0.17119

 Excited State  30:      Singlet-A1    12.8881 eV   96.20 nm  f=0.0295  <S**2>=0.000
      10 -> 22         0.12854
      11 -> 15         0.12824
      11 -> 19        -0.16175
      12 -> 21        -0.11816
      12 -> 23         0.27646
      13 -> 26         0.56064

 Excited State  31:      Singlet-A2    13.0499 eV   95.01 nm  f=0.0000  <S**2>=0.000
      10 -> 21        -0.22178
      11 -> 17        -0.22988
      11 -> 20        -0.29938
      12 -> 22        -0.17718
      12 -> 25         0.43883
      13 -> 28        -0.18796

 Excited State  32:      Singlet-A2    13.2529 eV   93.55 nm  f=0.0000  <S**2>=0.000
      10 -> 16         0.21059
      10 -> 21        -0.10409
      11 -> 17         0.32512
      11 -> 20        -0.22995
      12 -> 22         0.46505
      13 -> 28        -0.12129

 Excited State  33:      Singlet-B2    13.3465 eV   92.90 nm  f=0.0028  <S**2>=0.000
      10 -> 17         0.61123
      10 -> 20        -0.16853
      11 -> 16         0.16011
      11 -> 21         0.12931
      13 -> 22         0.10764

 Excited State  34:      Singlet-A1    13.3609 eV   92.80 nm  f=0.1216  <S**2>=0.000
       8 -> 14        -0.15455
       8 -> 16         0.21050
       8 -> 18         0.17081
      11 -> 19         0.44637
      11 -> 24         0.13770
      12 -> 23        -0.22766
      13 -> 26         0.28385

 Excited State  35:      Singlet-A2    13.4489 eV   92.19 nm  f=0.0000  <S**2>=0.000
      10 -> 14        -0.13911
      10 -> 16         0.35185
      10 -> 18        -0.31744
      10 -> 21        -0.16040
      11 -> 20         0.17727
      12 -> 22        -0.17228
      12 -> 25        -0.17056
      13 -> 24        -0.12617
      13 -> 27        -0.10700
      13 -> 28        -0.23333

 Excited State  36:      Singlet-B2    13.5843 eV   91.27 nm  f=0.0004  <S**2>=0.000
      11 -> 21         0.52732
      12 -> 24         0.29796
      12 -> 27         0.24539

 Excited State  37:      Singlet-A2    13.6078 eV   91.11 nm  f=0.0000  <S**2>=0.000
       7 -> 15        -0.11145
      10 -> 16        -0.15536
      10 -> 18         0.34680
      10 -> 21        -0.26318
      11 -> 20         0.13932
      12 -> 25        -0.19441
      13 -> 24         0.10189
      13 -> 27        -0.18983
      13 -> 28        -0.32702

 Excited State  38:      Singlet-B1    13.7526 eV   90.15 nm  f=0.0323  <S**2>=0.000
       7 -> 14        -0.28492
       7 -> 16         0.24537
       7 -> 18         0.19259
       7 -> 23         0.12386
      10 -> 19         0.44123
      10 -> 28        -0.11610
      11 -> 22        -0.13385
      12 -> 26        -0.10892

 Excited State  39:      Singlet-B2    13.7695 eV   90.04 nm  f=0.0122  <S**2>=0.000
       9 -> 14         0.15155
       9 -> 18        -0.11839
      11 -> 18         0.17800
      11 -> 21        -0.27977
      12 -> 24         0.54545
      12 -> 27        -0.11607

 Excited State  40:      Singlet-A1    13.8197 eV   89.72 nm  f=0.0212  <S**2>=0.000
       8 -> 14        -0.15116
       8 -> 16         0.10492
      11 -> 19         0.26113
      12 -> 21        -0.10531
      12 -> 23         0.54045
      13 -> 26        -0.19663

 Excited State  41:      Singlet-B1    13.8395 eV   89.59 nm  f=0.0130  <S**2>=0.000
       8 -> 17         0.20905
      10 -> 19         0.12652
      11 -> 22         0.50662
      12 -> 26         0.35390

 Excited State  42:      Singlet-B2    14.0444 eV   88.28 nm  f=0.0873  <S**2>=0.000
       9 -> 14         0.54296
       9 -> 16        -0.10666
       9 -> 18        -0.12082
      10 -> 20         0.19325
      11 -> 23        -0.13266
      12 -> 24        -0.10371
      12 -> 27         0.21341
      12 -> 28        -0.12706

 Excited State  43:      Singlet-A2    14.0818 eV   88.05 nm  f=0.0000  <S**2>=0.000
       8 -> 25         0.11542
      10 -> 21         0.10394
      11 -> 17         0.11203
      11 -> 20         0.47393
      12 -> 25         0.44142

 Excited State  44:      Singlet-A1    14.1426 eV   87.67 nm  f=0.0030  <S**2>=0.000
       8 -> 14         0.38314
       8 -> 18        -0.32808
      10 -> 22        -0.11804
      11 -> 15         0.10451
      11 -> 19         0.32560
      11 -> 24        -0.22771

 Excited State  45:      Singlet-B1    14.1501 eV   87.62 nm  f=0.0006  <S**2>=0.000
      10 -> 19         0.15514
      13 -> 18         0.11847
      13 -> 29        -0.17484
      13 -> 31         0.51223
      13 -> 32         0.17400
      13 -> 34         0.25003
      13 -> 43        -0.10342

 Excited State  46:      Singlet-B1    14.2947 eV   86.73 nm  f=0.0941  <S**2>=0.000
       7 -> 14         0.41880
       7 -> 16         0.10199
       7 -> 18        -0.27480
      10 -> 15         0.19716
      10 -> 19         0.32584
      10 -> 24        -0.13690
      11 -> 25         0.14581

 Excited State  47:      Singlet-A2    14.3245 eV   86.55 nm  f=0.0000  <S**2>=0.000
       7 -> 15        -0.11371
      10 -> 21         0.49361
      10 -> 23         0.11395
      11 -> 20        -0.17292
      13 -> 27        -0.26155
      13 -> 28        -0.26641
      13 -> 33         0.11917

 Excited State  48:      Singlet-B2    14.3386 eV   86.47 nm  f=0.0151  <S**2>=0.000
       9 -> 14        -0.33877
      10 -> 17         0.18351
      10 -> 20         0.34913
      11 -> 21        -0.21468
      11 -> 23        -0.14036
      12 -> 27         0.28965
      12 -> 28        -0.14994

 Excited State  49:      Singlet-B2    14.5264 eV   85.35 nm  f=0.2165  <S**2>=0.000
      10 -> 17         0.10044
      10 -> 20         0.48060
      11 -> 21         0.14002
      11 -> 23         0.15798
      12 -> 27        -0.35815
      12 -> 28         0.11128

 Excited State  50:      Singlet-B1    14.5647 eV   85.13 nm  f=0.0000  <S**2>=0.000
       7 -> 14         0.18789
       8 -> 20        -0.16021
      11 -> 22         0.16666
      11 -> 25        -0.34442
      12 -> 26        -0.21117
      13 -> 29         0.42501
      13 -> 31         0.12191

 Excited State  51:      Singlet-B1    14.7350 eV   84.14 nm  f=0.2031  <S**2>=0.000
       7 -> 14        -0.12017
       8 -> 20         0.11646
      11 -> 22        -0.17241
      11 -> 25         0.23345
      12 -> 26         0.29176
      13 -> 29         0.50170

 Excited State  52:      Singlet-A1    14.7987 eV   83.78 nm  f=0.0358  <S**2>=0.000
       8 -> 14         0.40398
       8 -> 18         0.18419
       9 -> 15        -0.27650
      10 -> 22         0.19400
      11 -> 15         0.16173
      11 -> 24         0.32417

 Excited State  53:      Singlet-B1    15.0096 eV   82.60 nm  f=0.0024  <S**2>=0.000
       7 -> 14         0.21260
       7 -> 18         0.17240
       8 -> 17        -0.14163
       8 -> 20        -0.10735
      10 -> 24         0.20605
      11 -> 22        -0.20657
      11 -> 25        -0.25349
      12 -> 26         0.42473

 Excited State  54:      Singlet-A1    15.0369 eV   82.45 nm  f=0.0261  <S**2>=0.000
       7 -> 17         0.19286
       7 -> 20        -0.11717
       9 -> 15         0.39468
      10 -> 22         0.40104
      10 -> 25        -0.17778
      11 -> 27        -0.10080
      13 -> 30        -0.14390

 Excited State  55:      Singlet-B2    15.0588 eV   82.33 nm  f=0.5199  <S**2>=0.000
       8 -> 15         0.15516
       8 -> 19         0.10018
       9 -> 14         0.15195
       9 -> 16         0.48485
       9 -> 18         0.27971
      10 -> 20         0.12577
      11 -> 23         0.23120
      12 -> 27         0.14408

 Excited State  56:      Singlet-A1    15.2034 eV   81.55 nm  f=0.0172  <S**2>=0.000
       7 -> 17         0.12473
       8 -> 14        -0.19866
       8 -> 16        -0.17232
       9 -> 15        -0.22291
      10 -> 22         0.29914
      11 -> 19         0.17364
      13 -> 30         0.41981

 Excited State  57:      Singlet-A1    15.2785 eV   81.15 nm  f=0.1574  <S**2>=0.000
       8 -> 14         0.15057
       8 -> 21        -0.10003
       9 -> 15         0.34358
      10 -> 22        -0.14120
      10 -> 25         0.11016
      11 -> 24         0.17913
      11 -> 27         0.14763
      12 -> 23         0.10468
      12 -> 31         0.12652
      13 -> 30         0.43169

 Excited State  58:      Singlet-B2    15.2907 eV   81.08 nm  f=0.0000  <S**2>=0.000
       8 -> 15         0.23934
       9 -> 16        -0.28881
       9 -> 18        -0.10247
      11 -> 21        -0.16058
      11 -> 23         0.44805
      12 -> 27         0.23628

 Excited State  59:      Singlet-B1    15.2958 eV   81.06 nm  f=0.2485  <S**2>=0.000
       7 -> 14         0.20092
       7 -> 16         0.21573
       7 -> 18         0.27682
       7 -> 21         0.10993
       8 -> 17         0.15802
      10 -> 19        -0.11792
      10 -> 24         0.26318
      11 -> 25         0.30365
      12 -> 26        -0.15179
      13 -> 31         0.17665

 Excited State  60:      Singlet-A2    15.3711 eV   80.66 nm  f=0.0000  <S**2>=0.000
       7 -> 15        -0.23582
       7 -> 19         0.13390
       9 -> 17        -0.16836
      10 -> 16        -0.11089
      10 -> 21        -0.12930
      10 -> 23         0.27682
      13 -> 28         0.26942
      13 -> 33         0.40871

 Excited State  61:      Singlet-B2    15.4206 eV   80.40 nm  f=0.0173  <S**2>=0.000
       8 -> 15         0.47335
       9 -> 18        -0.16887
      11 -> 23        -0.30247
      12 -> 27         0.10639
      12 -> 28         0.22183
      12 -> 33        -0.11538

 Excited State  62:      Singlet-A2    15.5099 eV   79.94 nm  f=0.0000  <S**2>=0.000
       7 -> 15         0.58138
      10 -> 14         0.16181
      10 -> 23         0.26779
      13 -> 33         0.14037

 Excited State  63:      Singlet-A2    15.5696 eV   79.63 nm  f=0.0000  <S**2>=0.000
       9 -> 17         0.63286
       9 -> 20        -0.17035
      13 -> 33         0.10652

 Excited State  64:      Singlet-A1    15.5720 eV   79.62 nm  f=0.1198  <S**2>=0.000
       7 -> 17        -0.10733
       8 -> 16         0.36673
       8 -> 21         0.19184
      10 -> 25        -0.13715
      11 -> 19        -0.10484
      11 -> 27        -0.36262
      12 -> 31        -0.15666
      12 -> 34        -0.12469
      13 -> 30         0.23056

 Excited State  65:      Singlet-B1    15.5916 eV   79.52 nm  f=0.0001  <S**2>=0.000
       7 -> 14         0.10487
       7 -> 16         0.13706
       7 -> 18         0.10977
       7 -> 21        -0.11098
      10 -> 27         0.19695
      13 -> 31        -0.16060
      13 -> 32         0.56819
      13 -> 37        -0.12211

 Excited State  66:      Singlet-B1    15.7461 eV   78.74 nm  f=0.1074  <S**2>=0.000
       7 -> 16         0.39127
       7 -> 21         0.17762
       7 -> 23         0.10007
      10 -> 19        -0.20723
      10 -> 24        -0.23384
      10 -> 27        -0.14044
      13 -> 31        -0.14440
      13 -> 34         0.30453
      13 -> 37         0.20206

 Excited State  67:      Singlet-B2    15.7822 eV   78.56 nm  f=0.0253  <S**2>=0.000
       8 -> 15         0.24004
       9 -> 16        -0.28414
       9 -> 18         0.45845
       9 -> 21        -0.16015
      10 -> 26        -0.11259
      11 -> 23        -0.10079
      12 -> 24         0.10034
      12 -> 28        -0.14775

 Excited State  68:      Singlet-A1    15.7866 eV   78.54 nm  f=0.2051  <S**2>=0.000
       7 -> 17         0.17880
       7 -> 20         0.19625
       9 -> 15         0.13404
      10 -> 25         0.40926
      11 -> 24         0.21192
      11 -> 27        -0.22045
      11 -> 28         0.10381
      12 -> 31        -0.15321
      12 -> 32        -0.10523
      12 -> 34        -0.11592
      13 -> 30        -0.17467

 Excited State  69:      Singlet-A1    15.8587 eV   78.18 nm  f=0.0032  <S**2>=0.000
       7 -> 17         0.44798
       7 -> 20        -0.14478
       8 -> 16         0.26847
       9 -> 15        -0.15516
      10 -> 22        -0.16088
      12 -> 29        -0.14082
      12 -> 31         0.16734
      12 -> 34         0.11526
      13 -> 35        -0.11086
      13 -> 39        -0.18300

 Excited State  70:      Singlet-A2    15.8994 eV   77.98 nm  f=0.0000  <S**2>=0.000
       8 -> 22        -0.25174
      10 -> 23        -0.12729
      11 -> 26         0.59430
      12 -> 22        -0.10338
      13 -> 33         0.10651

 Excited State  71:      Singlet-B2    15.9319 eV   77.82 nm  f=0.1875  <S**2>=0.000
       8 -> 15        -0.23842
       9 -> 16        -0.14541
       9 -> 18         0.26143
      12 -> 27         0.15590
      12 -> 28         0.48116
      12 -> 33        -0.10388

 Excited State  72:      Singlet-A1    15.9346 eV   77.81 nm  f=0.0077  <S**2>=0.000
       7 -> 20         0.16815
       8 -> 16         0.35085
       8 -> 21        -0.13327
      10 -> 22         0.26361
      10 -> 25         0.26097
      11 -> 24        -0.30107
      11 -> 27         0.17229

 Excited State  73:      Singlet-B1    15.9365 eV   77.80 nm  f=0.0662  <S**2>=0.000
       7 -> 16        -0.15322
       8 -> 17         0.44576
      10 -> 24         0.13965
      10 -> 27         0.13675
      11 -> 22        -0.18327
      13 -> 31        -0.19754
      13 -> 34         0.34595

 Excited State  74:      Singlet-A1    16.0385 eV   77.30 nm  f=0.0033  <S**2>=0.000
       7 -> 17        -0.31517
       8 -> 16         0.11550
       8 -> 18        -0.19399
      11 -> 24         0.21537
      11 -> 27        -0.11844
      12 -> 18         0.10324
      12 -> 29        -0.25213
      12 -> 31         0.31769
      12 -> 34         0.12129
      13 -> 39         0.10011

 Excited State  75:      Singlet-B1    16.0401 eV   77.30 nm  f=0.0721  <S**2>=0.000
       7 -> 16         0.18579
       7 -> 18        -0.13041
       8 -> 17         0.40304
      10 -> 24        -0.11894
      11 -> 22        -0.18744
      11 -> 25        -0.11831
      13 -> 31         0.15507
      13 -> 34        -0.36040

 Excited State  76:      Singlet-A2    16.0592 eV   77.20 nm  f=0.0000  <S**2>=0.000
       7 -> 15        -0.12951
       7 -> 19         0.13541
       7 -> 24        -0.10335
      10 -> 16        -0.13849
      10 -> 21        -0.10340
      10 -> 23         0.41587
      11 -> 26         0.16794
      13 -> 28        -0.14968
      13 -> 33        -0.39250

 Excited State  77:      Singlet-B1    16.2471 eV   76.31 nm  f=0.1931  <S**2>=0.000

 The electronic state is 1-A1.
 Alpha  occ. eigenvalues --  -19.01931 -10.19710 -10.19707  -1.19215  -0.88424
 Alpha  occ. eigenvalues --   -0.78874  -0.62382  -0.62147  -0.62133  -0.53092
 Alpha  occ. eigenvalues --   -0.51045  -0.45275  -0.39024
 Alpha virt. eigenvalues --    0.07830   0.10434   0.13381   0.13952   0.15594
 Alpha virt. eigenvalues --    0.17005   0.19348   0.19531   0.20422   0.23364
 Alpha virt. eigenvalues --    0.24205   0.24784   0.26910   0.27144   0.33513

 Mulliken charges:
               1
     1  C    0.744320
     2  O   -0.715582
     3  C    0.744320
     4  H   -0.248574
     5  H   -0.068977
     6  H   -0.068977
     7  H   -0.248574
     8  H   -0.068977
     9  H   -0.068977
 Sum of Mulliken charges =   0.00000

 Dipole moment (field-independent basis, Debye):
    X=              0.0000    Y=              0.0000    Z=             -1.4665  Tot=              1.4665
 Quadrupole moment (field-independent basis, Debye-Ang):
   XX=            -20.4432   YY=            -17.5445   ZZ=            -21.6744
   XY=             -0.0000   XZ=              0.0000   YZ=              0.0000

 1\1\GINC-HEL24\SP\RLC-BLYP TD-FC\Gen\C2H6O1\SABYASACHI\21-Mar-2022\0\\
 #P TD(Nstates=10000) lc-blyp/Gen SCF(maxcycles=100) Int(Grid=ultrafine
 )\\xGDB7_00001_tier4.com\\0,1\C,0,0.,1.163894,-0.193136\O,0,0.,0.,0.58
 5449\C,0,0.,-1.163894,-0.193136\H,0,0.,2.015478,0.485827\H,0,-0.89039,
 1.219204,-0.834404\H,0,0.89039,1.219204,-0.834404\H,0,0.,-2.015478,0.4
 85827\H,0,0.89039,-1.219204,-0.834404\H,0,-0.89039,-1.219204,-0.834404
 \\Version=EM64L-G16RevC.01\State=1-A1\HF=-154.5202674\RMSD=4.723e-09\P
 G=C02V [C2(O1),SGV(C2H2),X(H4)]\\@

 Normal termination of Gaussian 16 at Mon Mar 21 20:16:21 2022.
