 Gaussian 16, Revision C.01,
 Gaussian 16:  EM64L-G16RevC.01  3-Jul-2019

 -------------------------------------------------------------------
 #P TD(Nstates=10000) m11/Gen SCF(maxcycles=100) Int(Grid=ultrafine)
 -------------------------------------------------------------------

 ---------------------
 xGDB7_00001_tier4.com
 ---------------------
 Symbolic Z-matrix:
 Charge =  0 Multiplicity = 1

                         Standard orientation:
 ---------------------------------------------------------------------
 Center     Atomic      Atomic             Coordinates (Angstroms)
 Number     Number       Type             X           Y           Z
 ---------------------------------------------------------------------
      1          6           0        0.000000    0.865978    0.000000
      2          6           0        0.749967   -0.432983    0.000000
      3          6           0       -0.749954   -0.432999    0.000000
      4          1           0       -0.000033    1.451806   -0.909176
      5          1           0       -0.000033    1.451806    0.909176
      6          1           0        1.257295   -0.725894    0.909177
      7          1           0        1.257295   -0.725894   -0.909177
      8          1           0       -1.257302   -0.725899    0.909179
      9          1           0       -1.257302   -0.725899   -0.909179
 ---------------------------------------------------------------------

 SCF Done:  E(RM11) =  -117.725964994     A.U. after   12 cycles

 Excitation energies and oscillator strengths:

 Excited State   1:      Singlet-A'     7.9057 eV  156.83 nm  f=0.0004  <S**2>=0.000
      12 -> 13         0.67392
      12 -> 17         0.12483
 This state for optimization and/or second-order correction.
 Total Energy, E(TD-HF/TD-DFT) =  -117.435436133
 Copying the excited state density for this state as the 1-particle RhoCI density.

 Excited State   2:      Singlet-A'     7.9059 eV  156.83 nm  f=0.0004  <S**2>=0.000
      11 -> 13         0.67390
      11 -> 17         0.12483

 Excited State   3:      Singlet-A'     8.5576 eV  144.88 nm  f=0.0000  <S**2>=0.000
      11 -> 14         0.37415
      11 -> 15         0.32224
      12 -> 14        -0.32310
      12 -> 15         0.37452

 Excited State   4:      Singlet-A'     8.6636 eV  143.11 nm  f=0.0756  <S**2>=0.000
      11 -> 13        -0.10131
      11 -> 14         0.46454
      11 -> 15         0.11555
      12 -> 14         0.11521
      12 -> 15        -0.46406

 Excited State   5:      Singlet-A'     8.6637 eV  143.11 nm  f=0.0756  <S**2>=0.000
      11 -> 14        -0.11414
      11 -> 15         0.46345
      12 -> 13         0.10125
      12 -> 14         0.46514
      12 -> 15         0.11664

 Excited State   6:      Singlet-A'     8.6981 eV  142.54 nm  f=0.0000  <S**2>=0.000
      11 -> 14        -0.31878
      11 -> 15         0.37087
      12 -> 14        -0.36807
      12 -> 15        -0.31816

 Excited State   7:      Singlet-A"     9.0163 eV  137.51 nm  f=0.0000  <S**2>=0.000
      12 -> 16         0.68651
      12 -> 33        -0.10896

 Excited State   8:      Singlet-A"     9.0165 eV  137.51 nm  f=0.0000  <S**2>=0.000
      11 -> 16         0.68651
      11 -> 33        -0.10896

 Excited State   9:      Singlet-A"     9.7542 eV  127.11 nm  f=0.0000  <S**2>=0.000
       9 -> 14        -0.18898
      10 -> 13         0.62099
      10 -> 15        -0.18899

 Excited State  10:      Singlet-A"     9.7543 eV  127.11 nm  f=0.0000  <S**2>=0.000
       9 -> 13         0.62098
       9 -> 15         0.18899
      10 -> 14        -0.18902

 Excited State  11:      Singlet-A'    10.1684 eV  121.93 nm  f=0.0043  <S**2>=0.000
      12 -> 13        -0.14694
      12 -> 17         0.66964

 Excited State  12:      Singlet-A'    10.1686 eV  121.93 nm  f=0.0043  <S**2>=0.000
      11 -> 13        -0.14694
      11 -> 17         0.66964

 Excited State  13:      Singlet-A"    10.3825 eV  119.42 nm  f=0.1528  <S**2>=0.000
       9 -> 14        -0.42497
       9 -> 15        -0.24046
      10 -> 14        -0.24050
      10 -> 15         0.42499

 Excited State  14:      Singlet-A"    10.6392 eV  116.54 nm  f=0.0000  <S**2>=0.000
       9 -> 14        -0.23637
       9 -> 15         0.41761
       9 -> 21         0.10635
      10 -> 14         0.41817
      10 -> 15         0.23657
      10 -> 22         0.10639

 Excited State  15:      Singlet-A"    10.7110 eV  115.75 nm  f=0.0000  <S**2>=0.000
       9 -> 13         0.11192
       9 -> 14         0.33456
       9 -> 15        -0.28381
      10 -> 13         0.24316
      10 -> 14         0.28330
      10 -> 15         0.33429
      10 -> 17         0.14857

 Excited State  16:      Singlet-A"    10.7110 eV  115.75 nm  f=0.0000  <S**2>=0.000
       9 -> 13        -0.24319
       9 -> 14         0.28350
       9 -> 15         0.33457
       9 -> 17        -0.14856
      10 -> 13         0.11190
      10 -> 14        -0.33426
      10 -> 15         0.28361

 Excited State  17:      Singlet-A'    10.9555 eV  113.17 nm  f=0.3278  <S**2>=0.000
       9 -> 16        -0.10549
      10 -> 16        -0.23774
      11 -> 20        -0.13362
      12 -> 20         0.59431

 Excited State  18:      Singlet-A'    10.9556 eV  113.17 nm  f=0.3278  <S**2>=0.000
       9 -> 16         0.23775
      10 -> 16        -0.10550
      11 -> 20         0.59430
      12 -> 20         0.13362

 Excited State  19:      Singlet-A"    11.0774 eV  111.93 nm  f=0.0000  <S**2>=0.000
      11 -> 18        -0.47717
      11 -> 19         0.12009
      12 -> 18         0.12035
      12 -> 19         0.47752

 Excited State  20:      Singlet-A"    11.2501 eV  110.21 nm  f=0.0000  <S**2>=0.000
      11 -> 18         0.43316
      11 -> 19        -0.22611
      12 -> 18         0.22647
      12 -> 19         0.43262

 Excited State  21:      Singlet-A"    11.2501 eV  110.21 nm  f=0.0000  <S**2>=0.000
      11 -> 18        -0.22611
      11 -> 19        -0.43233
      12 -> 18         0.43345
      12 -> 19        -0.22647

 Excited State  22:      Singlet-A'    11.3082 eV  109.64 nm  f=0.0368  <S**2>=0.000
      10 -> 16         0.61630
      12 -> 20         0.26438

 Excited State  23:      Singlet-A'    11.3083 eV  109.64 nm  f=0.0368  <S**2>=0.000
       9 -> 16         0.61629
      11 -> 20        -0.26440

 Excited State  24:      Singlet-A"    11.3522 eV  109.22 nm  f=0.0202  <S**2>=0.000
      11 -> 18         0.11777
      11 -> 19         0.46803
      12 -> 18         0.46675
      12 -> 19        -0.11766

 Excited State  25:      Singlet-A'    11.8611 eV  104.53 nm  f=0.0000  <S**2>=0.000
      11 -> 21         0.28958
      11 -> 22         0.32985
      11 -> 23         0.18170
      11 -> 24        -0.10225
      12 -> 21         0.33592
      12 -> 22        -0.29095
      12 -> 23         0.10463
      12 -> 24         0.18322

 Excited State  26:      Singlet-A'    11.8760 eV  104.40 nm  f=0.0328  <S**2>=0.000
      11 -> 21         0.41382
      11 -> 22        -0.11138
      11 -> 23         0.16219
      11 -> 24         0.11119
      12 -> 21         0.11132
      12 -> 22         0.41411
      12 -> 23         0.11119
      12 -> 24        -0.16238

 Excited State  27:      Singlet-A'    11.8760 eV  104.40 nm  f=0.0328  <S**2>=0.000
      11 -> 21         0.11359
      11 -> 22         0.41624
      11 -> 23         0.11256
      11 -> 24        -0.16298
      12 -> 21        -0.41168
      12 -> 22         0.10912
      12 -> 23        -0.16158
      12 -> 24        -0.10983

 Excited State  28:      Singlet-A"    12.0428 eV  102.95 nm  f=0.0000  <S**2>=0.000
       9 -> 17        -0.16915
       9 -> 20         0.18570
      10 -> 13        -0.13423
      10 -> 17         0.54728
      11 -> 25         0.23025
      12 -> 25        -0.12473

 Excited State  29:      Singlet-A"    12.0428 eV  102.95 nm  f=0.0000  <S**2>=0.000
       9 -> 13        -0.13421
       9 -> 17         0.54721
      10 -> 17         0.16920
      10 -> 20        -0.18577
      11 -> 25         0.12470
      12 -> 25         0.23038

 Excited State  30:      Singlet-A'    12.0986 eV  102.48 nm  f=0.0000  <S**2>=0.000
       7 -> 16        -0.11469
       9 -> 18        -0.17330
      10 -> 19        -0.17331
      11 -> 21         0.30957
      11 -> 22        -0.27009
      11 -> 24         0.13816
      12 -> 21        -0.26969
      12 -> 22        -0.30946
      12 -> 23        -0.13794

 Excited State  31:      Singlet-A"    12.2214 eV  101.45 nm  f=0.0000  <S**2>=0.000
       9 -> 17         0.12520
       9 -> 20         0.25258
      10 -> 20         0.58613
      10 -> 34         0.10782
      12 -> 25         0.13924

 Excited State  32:      Singlet-A"    12.2215 eV  101.45 nm  f=0.0000  <S**2>=0.000
       9 -> 20         0.58617
       9 -> 34         0.10782
      10 -> 17        -0.12516
      10 -> 20        -0.25259
      11 -> 25        -0.13915

 Excited State  33:      Singlet-A'    12.3512 eV  100.38 nm  f=0.0000  <S**2>=0.000
      11 -> 21        -0.14293
      11 -> 22        -0.16397
      11 -> 23         0.37841
      11 -> 24        -0.21454
      12 -> 21        -0.16401
      12 -> 22         0.14306
      12 -> 23         0.21466
      12 -> 24         0.37865

 Excited State  34:      Singlet-A"    12.4455 eV   99.62 nm  f=0.0000  <S**2>=0.000
       9 -> 17        -0.28662
      12 -> 25         0.61879

 Excited State  35:      Singlet-A"    12.4457 eV   99.62 nm  f=0.0000  <S**2>=0.000
      10 -> 17        -0.28646
      11 -> 25         0.61889

 Excited State  36:      Singlet-A'    12.6359 eV   98.12 nm  f=0.0431  <S**2>=0.000
      11 -> 22         0.18061
      11 -> 23        -0.30221
      11 -> 24         0.31663
      12 -> 21        -0.18108
      12 -> 23         0.31858
      12 -> 24         0.30084

 Excited State  37:      Singlet-A'    12.6360 eV   98.12 nm  f=0.0431  <S**2>=0.000
      11 -> 21         0.17923
      11 -> 23        -0.31494
      11 -> 24        -0.29670
      12 -> 22         0.18246
      12 -> 23        -0.30628
      12 -> 24         0.32022

 Excited State  38:      Singlet-A'    12.6442 eV   98.06 nm  f=0.0000  <S**2>=0.000
       8 -> 13         0.21531
       8 -> 17         0.10476
      11 -> 21        -0.12797
      11 -> 22         0.11132
      11 -> 23         0.21277
      11 -> 24         0.37432
      12 -> 21         0.10823
      12 -> 22         0.12381
      12 -> 23        -0.36484
      12 -> 24         0.20628

 Excited State  39:      Singlet-A'    12.9139 eV   96.01 nm  f=0.0000  <S**2>=0.000
       8 -> 13         0.61102
       9 -> 18        -0.16566
      10 -> 19        -0.16565
      11 -> 24        -0.13876
      12 -> 23         0.13863

 Excited State  40:      Singlet-A"    12.9245 eV   95.93 nm  f=0.0000  <S**2>=0.000
      11 -> 26        -0.28871
      11 -> 27         0.38979
      12 -> 26         0.39140
      12 -> 27         0.28975

 Excited State  41:      Singlet-A"    12.9245 eV   95.93 nm  f=0.0000  <S**2>=0.000
      11 -> 26        -0.39023
      11 -> 27        -0.28864
      12 -> 26        -0.28986
      12 -> 27         0.39096

 Excited State  42:      Singlet-A"    12.9557 eV   95.70 nm  f=0.0758  <S**2>=0.000
      11 -> 26        -0.23875
      11 -> 27         0.40303
      12 -> 26        -0.40099
      12 -> 27        -0.23813

 Excited State  43:      Singlet-A"    13.0083 eV   95.31 nm  f=0.0000  <S**2>=0.000
      11 -> 26         0.41881
      11 -> 27         0.24843
      12 -> 26        -0.24774
      12 -> 27         0.41775

 Excited State  44:      Singlet-A'    13.3016 eV   93.21 nm  f=0.1363  <S**2>=0.000
       9 -> 18        -0.11868
       9 -> 19         0.11296
      10 -> 18         0.11304
      10 -> 19         0.11868
      12 -> 28         0.62074

 Excited State  45:      Singlet-A'    13.3018 eV   93.21 nm  f=0.1363  <S**2>=0.000
       9 -> 18         0.11308
       9 -> 19         0.11868
      10 -> 18         0.11884
      10 -> 19        -0.11305
      11 -> 28         0.62069

 Excited State  46:      Singlet-A'    13.4621 eV   92.10 nm  f=0.0000  <S**2>=0.000
       9 -> 19        -0.45912
       9 -> 27         0.17020
      10 -> 18         0.46034
      10 -> 26         0.17020

 Excited State  47:      Singlet-A'    13.4841 eV   91.95 nm  f=0.2643  <S**2>=0.000
       8 -> 14         0.66767

 Excited State  48:      Singlet-A'    13.4841 eV   91.95 nm  f=0.2643  <S**2>=0.000
       8 -> 15         0.66760

 Excited State  49:      Singlet-A'    13.5193 eV   91.71 nm  f=0.0025  <S**2>=0.000
       9 -> 19         0.43497
       9 -> 25         0.10095
      10 -> 18         0.43372
      11 -> 28        -0.15094
      12 -> 28        -0.16310

 Excited State  50:      Singlet-A'    13.5193 eV   91.71 nm  f=0.0026  <S**2>=0.000
       9 -> 18        -0.43428
      10 -> 19         0.43430
      10 -> 25        -0.10098
      11 -> 28         0.16327
      12 -> 28        -0.15091

 Excited State  51:      Singlet-A"    13.6500 eV   90.83 nm  f=0.0000  <S**2>=0.000
       7 -> 20         0.10123
       9 -> 15        -0.10867
       9 -> 21         0.37378
       9 -> 22        -0.21335
       9 -> 23         0.11722
       9 -> 24         0.13527
      10 -> 14        -0.10862
      10 -> 21         0.21502
      10 -> 22         0.37326
      10 -> 23         0.13584
      10 -> 24        -0.11684

 Excited State  52:      Singlet-A"    13.6799 eV   90.63 nm  f=0.0000  <S**2>=0.000
       7 -> 14        -0.25813
       9 -> 21         0.34294
       9 -> 22        -0.19616
       9 -> 23         0.10707
       9 -> 24         0.12378
       9 -> 28         0.10440
      10 -> 21        -0.19600
      10 -> 22        -0.34253
      10 -> 23        -0.12364
      10 -> 24         0.10699
      10 -> 28         0.10452

 Excited State  53:      Singlet-A"    13.6800 eV   90.63 nm  f=0.0000  <S**2>=0.000
       7 -> 15        -0.25814
       9 -> 21         0.19526
       9 -> 22         0.34314
       9 -> 23         0.12344
       9 -> 24        -0.10731
       9 -> 28         0.10452
      10 -> 21         0.34232
      10 -> 22        -0.19689
      10 -> 23         0.10671
      10 -> 24         0.12396
      10 -> 28        -0.10443

 Excited State  54:      Singlet-A"    14.0066 eV   88.52 nm  f=0.0237  <S**2>=0.000
       8 -> 16         0.64363
       9 -> 23         0.11960
       9 -> 24        -0.10326
      10 -> 23        -0.10326
      10 -> 24        -0.11961

 Excited State  55:      Singlet-A'    14.0109 eV   88.49 nm  f=0.0000  <S**2>=0.000
       8 -> 13         0.19857
       8 -> 17         0.16597
       9 -> 18         0.41752
      10 -> 19         0.41750
      11 -> 21         0.12850
      11 -> 22        -0.11204
      12 -> 21        -0.11204
      12 -> 22        -0.12848

 Excited State  56:      Singlet-A"    14.0791 eV   88.06 nm  f=0.3025  <S**2>=0.000
       7 -> 13         0.68000

 Excited State  57:      Singlet-A"    14.2169 eV   87.21 nm  f=0.0046  <S**2>=0.000
       9 -> 21         0.23135
       9 -> 22         0.40348
       9 -> 23         0.11356
      10 -> 21        -0.40342
      10 -> 22         0.23135
      10 -> 24        -0.11353

 Excited State  58:      Singlet-A'    14.4268 eV   85.94 nm  f=0.0000  <S**2>=0.000
       8 -> 20         0.32700
       9 -> 27         0.12931
      10 -> 26         0.12931
      11 -> 30        -0.18512
      11 -> 31         0.34402
      12 -> 30         0.34428
      12 -> 31         0.18512

 Excited State  59:      Singlet-A"    14.6337 eV   84.73 nm  f=0.0000  <S**2>=0.000
       7 -> 15         0.10088
       9 -> 21        -0.11350
       9 -> 22         0.19378
       9 -> 24         0.40505
      10 -> 17         0.10223
      10 -> 21         0.19371
      10 -> 22         0.11364
      10 -> 23        -0.40504

 Excited State  60:      Singlet-A"    14.6337 eV   84.73 nm  f=0.0000  <S**2>=0.000
       7 -> 14        -0.10091
       9 -> 17         0.10222
       9 -> 21        -0.19364
       9 -> 22        -0.11346
       9 -> 23         0.40469
      10 -> 21        -0.11366
      10 -> 22         0.19386
      10 -> 24         0.40538

 Excited State  61:      Singlet-A'    14.6416 eV   84.68 nm  f=0.1390  <S**2>=0.000
       9 -> 25         0.14831
      10 -> 25         0.57071
      11 -> 31        -0.21369
      12 -> 30         0.21358

 Excited State  62:      Singlet-A'    14.6417 eV   84.68 nm  f=0.1391  <S**2>=0.000
       9 -> 25         0.57074
      10 -> 25        -0.14833
      11 -> 30         0.21364
      12 -> 31         0.21366

 Excited State  63:      Singlet-A"    14.6703 eV   84.51 nm  f=1.1141  <S**2>=0.000
       8 -> 16        -0.22105
       9 -> 22        -0.13639
       9 -> 23         0.31735
       9 -> 24        -0.27351
      10 -> 21         0.13621
      10 -> 23        -0.27372
      10 -> 24        -0.31648

 Excited State  64:      Singlet-A'    14.7088 eV   84.29 nm  f=0.0000  <S**2>=0.000
       8 -> 20        -0.18754
       9 -> 19         0.17173
       9 -> 26        -0.14283
       9 -> 27         0.40528
      10 -> 18        -0.17173
      10 -> 26         0.40534
      10 -> 27         0.14289

 Excited State  65:      Singlet-A"    14.7887 eV   83.84 nm  f=0.0000  <S**2>=0.000
       7 -> 14         0.61098
       9 -> 21         0.12414
       9 -> 23         0.13917
      10 -> 22        -0.12412
      10 -> 24         0.13921

 Excited State  66:      Singlet-A"    14.7888 eV   83.84 nm  f=0.0000  <S**2>=0.000
       7 -> 15         0.61097
       9 -> 22         0.12418
       9 -> 24        -0.13907
      10 -> 21         0.12411
      10 -> 23         0.13927

 Excited State  67:      Singlet-A"    14.8368 eV   83.57 nm  f=0.0000  <S**2>=0.000
       9 -> 21        -0.16652
       9 -> 23         0.29256
       9 -> 24         0.33897
      10 -> 22        -0.16640
      10 -> 23         0.33868
      10 -> 24        -0.29250

 Excited State  68:      Singlet-A'    14.9839 eV   82.75 nm  f=0.6126  <S**2>=0.000
       9 -> 26         0.41040
       9 -> 27         0.19934
      10 -> 26        -0.19944
      10 -> 27         0.41048

 Excited State  69:      Singlet-A'    14.9839 eV   82.74 nm  f=0.6126  <S**2>=0.000
       9 -> 26        -0.19944
       9 -> 27         0.41046
      10 -> 26        -0.41040
      10 -> 27        -0.19941

 Excited State  70:      Singlet-A'    15.0119 eV   82.59 nm  f=0.0000  <S**2>=0.000
       7 -> 16         0.27882
       8 -> 13        -0.13314
       8 -> 17         0.55282
      11 -> 30         0.13394
      12 -> 31        -0.13391

 Excited State  71:      Singlet-A'    15.1711 eV   81.72 nm  f=0.0769  <S**2>=0.000
       9 -> 25        -0.20014
      11 -> 30         0.26811
      11 -> 34        -0.11120
      12 -> 31         0.26787
      12 -> 32         0.47645

 Excited State  72:      Singlet-A'    15.1712 eV   81.72 nm  f=0.0770  <S**2>=0.000
      10 -> 25        -0.20036
      11 -> 31        -0.26689
      11 -> 32         0.47601
      12 -> 30         0.26955
      12 -> 34         0.11131

 Excited State  73:      Singlet-A"    15.1756 eV   81.70 nm  f=0.0000  <S**2>=0.000
       9 -> 28        -0.18693
      10 -> 28         0.62341

 Excited State  74:      Singlet-A"    15.1757 eV   81.70 nm  f=0.0000  <S**2>=0.000
       9 -> 28         0.62341
      10 -> 28         0.18693

 Excited State  75:      Singlet-A'    15.1789 eV   81.68 nm  f=0.0000  <S**2>=0.000
       8 -> 17         0.26298
       9 -> 26        -0.13608
      10 -> 27         0.13575
      11 -> 30        -0.37075
      11 -> 31        -0.20124
      12 -> 30        -0.19818
      12 -> 31         0.37182

 Excited State  76:      Singlet-A'    15.2354 eV   81.38 nm  f=0.0000  <S**2>=0.000
       8 -> 20         0.56930
       8 -> 34         0.11437
      11 -> 30         0.11628
      11 -> 31        -0.21631
      12 -> 30        -0.21613
      12 -> 31        -0.11633

 Excited State  77:      Singlet-A'    15.3179 eV   80.94 nm  f=0.1325  <S**2>=0.000
       9 -> 25         0.23284
       9 -> 27        -0.10160
      10 -> 26         0.10158
      11 -> 30        -0.23934
      11 -> 34         0.12914
      12 -> 31        -0.23940
      12 -> 32         0.47420

 Excited State  78:      Singlet-A'    15.3180 eV   80.94 nm  f=0.1324  <S**2>=0.000
       9 -> 26         0.10164
      10 -> 25         0.23278
      10 -> 27         0.10115
      11 -> 31         0.23939
      11 -> 32         0.47465
      12 -> 30        -0.23888
      12 -> 34        -0.12907

 Excited State  79:      Singlet-A'    15.3961 eV   80.53 nm  f=0.0000  <S**2>=0.000
       7 -> 16         0.11647
       9 -> 26         0.42962
       9 -> 27         0.15148
      10 -> 26         0.15135
      10 -> 27        -0.42956
      11 -> 30        -0.13560
      12 -> 31         0.13582

 Excited State  80:      Singlet-A'    15.7581 eV   78.68 nm  f=0.0000  <S**2>=0.000
       7 -> 16         0.60346
       8 -> 17        -0.23964
       9 -> 26        -0.10068
      10 -> 27         0.10067

 Excited State  81:      Singlet-A"    15.8836 eV   78.06 nm  f=0.0000  <S**2>=0.000
       5 -> 16         0.11309
       8 -> 18         0.38451
      12 -> 33         0.53908

 Excited State  82:      Singlet-A"    15.8838 eV   78.06 nm  f=0.0000  <S**2>=0.000
       6 -> 16         0.11315
       8 -> 19         0.38472
      11 -> 33         0.53887

 Excited State  83:      Singlet-A"    15.9745 eV   77.61 nm  f=0.0000  <S**2>=0.000
       7 -> 20         0.62524
       7 -> 34         0.14963
       9 -> 30         0.11778
      10 -> 31         0.11777

 Excited State  84:      Singlet-A'    16.0122 eV   77.43 nm  f=0.0003  <S**2>=0.000
       6 -> 13        -0.18198
       8 -> 21        -0.17240
       8 -> 22         0.18757
       8 -> 24        -0.12779
      12 -> 34         0.54617

 Excited State  85:      Singlet-A'    16.0123 eV   77.43 nm  f=0.0003  <S**2>=0.000
       5 -> 13         0.18198
       8 -> 21        -0.18762
       8 -> 22        -0.17240
       8 -> 23        -0.12779
      11 -> 34         0.54615

 Excited State  86:      Singlet-A"    16.0292 eV   77.35 nm  f=0.0000  <S**2>=0.000
       8 -> 18         0.44720

 The electronic state is 1-A'.
 Alpha  occ. eigenvalues --  -10.43506 -10.43465 -10.43465  -0.98310  -0.71900
 Alpha  occ. eigenvalues --   -0.71900  -0.61794  -0.57652  -0.46894  -0.46894
 Alpha  occ. eigenvalues --   -0.39949  -0.39948
 Alpha virt. eigenvalues --    0.05738   0.07322   0.07323   0.12619   0.15585
 Alpha virt. eigenvalues --    0.18180   0.18180   0.20909   0.22358   0.22358
 Alpha virt. eigenvalues --    0.24377   0.24377   0.25548   0.25763   0.25763

 Mulliken charges:
               1
     1  C    0.287616
     2  C    0.287713
     3  C    0.287639
     4  H   -0.143818
     5  H   -0.143818
     6  H   -0.143834
     7  H   -0.143834
     8  H   -0.143832
     9  H   -0.143832
 Sum of Mulliken charges =  -0.00000

 Dipole moment (field-independent basis, Debye):
    X=             -0.0000    Y=              0.0001    Z=              0.0000  Tot=              0.0001
 Quadrupole moment (field-independent basis, Debye-Ang):
   XX=            -20.6416   YY=            -20.6414   ZZ=            -18.4360
   XY=             -0.0001   XZ=             -0.0000   YZ=              0.0000

 Normal termination of Gaussian 16 at Mon Mar 21 20:06:04 2022.
