 Gaussian 16, Revision C.01,
 Gaussian 16:  EM64L-G16RevC.01  3-Jul-2019

 -------------------------------------------------------------------
 #P TD(Nstates=10000) m11/Gen SCF(maxcycles=100) Int(Grid=ultrafine)
 -------------------------------------------------------------------

 ---------------------
 xGDB7_00001_tier4.com
 ---------------------
 Symbolic Z-matrix:
 Charge =  0 Multiplicity = 1

                         Standard orientation:
 ---------------------------------------------------------------------
 Center     Atomic      Atomic             Coordinates (Angstroms)
 Number     Number       Type             X           Y           Z
 ---------------------------------------------------------------------
      1          6           0       -1.240791   -0.237624   -0.027525
      2          6           0        0.048946    0.559205    0.053709
      3          7           0        1.202342   -0.317606   -0.116703
      4          1           0       -2.109817    0.415828    0.064703
      5          1           0       -1.292929   -0.976209    0.776809
      6          1           0       -1.300329   -0.769884   -0.977746
      7          1           0        0.066306    1.122818    0.997967
      8          1           0        0.069957    1.296574   -0.752592
      9          1           0        1.236408   -1.003082    0.627159
     10          1           0        2.065080    0.207710   -0.076483
 ---------------------------------------------------------------------

 SCF Done:  E(RM11) =  -134.988883489     A.U. after   14 cycles

 Excitation energies and oscillator strengths:

 Excited State   1:      Singlet-A      6.3033 eV  196.70 nm  f=0.0091  <S**2>=0.000
      13 -> 14         0.58528
      13 -> 15        -0.25106
      13 -> 16         0.27012
 This state for optimization and/or second-order correction.
 Total Energy, E(TD-HF/TD-DFT) =  -134.757243074
 Copying the excited state density for this state as the 1-particle RhoCI density.

 Excited State   2:      Singlet-A      7.4227 eV  167.03 nm  f=0.0070  <S**2>=0.000
      13 -> 15         0.50506
      13 -> 16         0.33036
      13 -> 17        -0.26741
      13 -> 18        -0.13017
      13 -> 19         0.11649

 Excited State   3:      Singlet-A      7.5968 eV  163.21 nm  f=0.0258  <S**2>=0.000
      13 -> 14        -0.34537
      13 -> 15        -0.22004
      13 -> 16         0.52901
      13 -> 17         0.10838
      13 -> 18         0.12785

 Excited State   4:      Singlet-A      8.4181 eV  147.28 nm  f=0.0639  <S**2>=0.000
      13 -> 15         0.29949
      13 -> 17         0.59773

 Excited State   5:      Singlet-A      8.8745 eV  139.71 nm  f=0.0420  <S**2>=0.000
      13 -> 15         0.15168
      13 -> 18         0.61410
      13 -> 19        -0.13377
      13 -> 22        -0.14735

 Excited State   6:      Singlet-A      9.2926 eV  133.42 nm  f=0.0043  <S**2>=0.000
      12 -> 14         0.19464
      13 -> 19         0.43755
      13 -> 20        -0.38623
      13 -> 21        -0.23032
      13 -> 23         0.10935

 Excited State   7:      Singlet-A      9.3353 eV  132.81 nm  f=0.0025  <S**2>=0.000
      12 -> 14         0.64470
      13 -> 19        -0.20054

 Excited State   8:      Singlet-A      9.6101 eV  129.02 nm  f=0.0004  <S**2>=0.000
      11 -> 14         0.16825
      13 -> 19         0.34862
      13 -> 20         0.42115
      13 -> 23        -0.26014
      13 -> 24        -0.15318

 Excited State   9:      Singlet-A      9.8058 eV  126.44 nm  f=0.0086  <S**2>=0.000
      11 -> 14         0.58086
      12 -> 15        -0.19659
      13 -> 20        -0.12788
      13 -> 21         0.23329

 Excited State  10:      Singlet-A      9.9079 eV  125.14 nm  f=0.0454  <S**2>=0.000
      10 -> 14         0.56013
      10 -> 15         0.17334
      11 -> 14         0.14672
      13 -> 21        -0.27190
      13 -> 25        -0.10159

 Excited State  11:      Singlet-A     10.0904 eV  122.87 nm  f=0.0291  <S**2>=0.000
      10 -> 14         0.31826
      10 -> 15         0.10499
      11 -> 14        -0.17764
      12 -> 15         0.10783
      13 -> 19         0.22063
      13 -> 21         0.45140
      13 -> 23        -0.10934
      13 -> 25         0.16532

 Excited State  12:      Singlet-A     10.1207 eV  122.51 nm  f=0.0596  <S**2>=0.000
       9 -> 14        -0.16256
      11 -> 14         0.20694
      12 -> 15         0.62336

 Excited State  13:      Singlet-A     10.5212 eV  117.84 nm  f=0.0041  <S**2>=0.000
      13 -> 18         0.20192
      13 -> 20         0.13739
      13 -> 21         0.12295
      13 -> 22         0.26704
      13 -> 23         0.46510
      13 -> 24        -0.15571
      13 -> 26         0.11701

 Excited State  14:      Singlet-A     10.5836 eV  117.15 nm  f=0.0232  <S**2>=0.000
      10 -> 15        -0.18955
      11 -> 15        -0.25016
      12 -> 16         0.24366
      13 -> 22         0.42576
      13 -> 23        -0.20306
      13 -> 24         0.16203
      13 -> 25         0.16368

 Excited State  15:      Singlet-A     10.6874 eV  116.01 nm  f=0.0672  <S**2>=0.000
      11 -> 15         0.54076
      12 -> 16        -0.17376
      13 -> 21        -0.11357
      13 -> 22         0.26519

 Excited State  16:      Singlet-A     10.7074 eV  115.79 nm  f=0.0802  <S**2>=0.000
      10 -> 15         0.17476
      11 -> 15         0.21851
      12 -> 16         0.54259
      12 -> 17        -0.12577
      13 -> 23         0.17564

 Excited State  17:      Singlet-A     10.8271 eV  114.51 nm  f=0.0661  <S**2>=0.000
      10 -> 14        -0.13821
      10 -> 15         0.47883
      11 -> 15        -0.10127
      11 -> 16        -0.13697
      12 -> 16        -0.14304
      13 -> 20         0.14512
      13 -> 22         0.13487
      13 -> 24         0.28679
      13 -> 26        -0.11091

 Excited State  18:      Singlet-A     10.8767 eV  113.99 nm  f=0.0228  <S**2>=0.000
      10 -> 14         0.10098
      10 -> 15        -0.30058
      13 -> 20         0.20585
      13 -> 22        -0.22647
      13 -> 23         0.21120
      13 -> 24         0.35613
      13 -> 26        -0.16776
      13 -> 27         0.11100
      13 -> 29        -0.11209
      13 -> 30         0.10638

 Excited State  19:      Singlet-A     11.0800 eV  111.90 nm  f=0.0317  <S**2>=0.000
      11 -> 15         0.12917
      11 -> 16         0.22870
      11 -> 17        -0.10830
      12 -> 17         0.14893
      13 -> 19         0.12338
      13 -> 24         0.31950
      13 -> 25        -0.28236
      13 -> 26         0.34180
      13 -> 29         0.16227

 Excited State  20:      Singlet-A     11.1829 eV  110.87 nm  f=0.0306  <S**2>=0.000
      11 -> 16         0.52849
      12 -> 16        -0.11342
      12 -> 17         0.21079
      13 -> 20         0.10954
      13 -> 25         0.15646
      13 -> 26        -0.22272

 Excited State  21:      Singlet-A     11.2211 eV  110.49 nm  f=0.0170  <S**2>=0.000
      10 -> 16        -0.14637
      11 -> 16        -0.18614
      11 -> 17         0.16748
      12 -> 16         0.11833
      12 -> 17         0.55209
      12 -> 18        -0.19891

 Excited State  22:      Singlet-A     11.3810 eV  108.94 nm  f=0.0329  <S**2>=0.000
       9 -> 14        -0.10088
      10 -> 16         0.55511
      10 -> 17        -0.20132
      11 -> 17         0.14088
      12 -> 18        -0.19592

 Excited State  23:      Singlet-A     11.5361 eV  107.48 nm  f=0.0327  <S**2>=0.000
       9 -> 15        -0.12619
      10 -> 16         0.12985
      10 -> 17        -0.10701
      12 -> 17         0.15676
      12 -> 18         0.56268
      12 -> 19         0.17013
      12 -> 20        -0.12030

 Excited State  24:      Singlet-A     11.6897 eV  106.06 nm  f=0.0252  <S**2>=0.000
       9 -> 14         0.35265
      10 -> 17        -0.34029
      11 -> 16        -0.12387
      11 -> 17        -0.32186
      12 -> 19        -0.11303
      13 -> 26        -0.11148
      13 -> 27        -0.15030

 Excited State  25:      Singlet-A     11.8216 eV  104.88 nm  f=0.0957  <S**2>=0.000
       9 -> 14         0.33217
      10 -> 17        -0.16646
      11 -> 17         0.46579
      12 -> 15         0.10124
      12 -> 17        -0.11328

 Excited State  26:      Singlet-A     11.8609 eV  104.53 nm  f=0.0084  <S**2>=0.000
      11 -> 17        -0.12285
      11 -> 18         0.29309
      13 -> 24        -0.12348
      13 -> 27         0.52936
      13 -> 30         0.12340

 Excited State  27:      Singlet-A     11.9151 eV  104.06 nm  f=0.0509  <S**2>=0.000
       9 -> 14         0.16067
      10 -> 17         0.20633
      11 -> 18         0.10892
      12 -> 19        -0.22441
      13 -> 22        -0.15855
      13 -> 25         0.41187
      13 -> 26         0.25122
      13 -> 27        -0.13571

 Excited State  28:      Singlet-A     11.9538 eV  103.72 nm  f=0.0458  <S**2>=0.000
       9 -> 14         0.22735
      10 -> 16         0.18221
      10 -> 17         0.33454
      10 -> 18        -0.11958
      11 -> 18         0.21974
      11 -> 19         0.11589
      12 -> 19         0.15340
      13 -> 25        -0.22529
      13 -> 26        -0.17360
      13 -> 27        -0.14480

 Excited State  29:      Singlet-A     12.0386 eV  102.99 nm  f=0.0053  <S**2>=0.000
       9 -> 14        -0.21218
      10 -> 16        -0.12110
      10 -> 17        -0.24181
      10 -> 18         0.11443
      11 -> 16         0.10137
      11 -> 17         0.12190
      11 -> 18         0.39669
      11 -> 19         0.14410
      13 -> 27        -0.19474
      13 -> 28        -0.20755
      13 -> 29        -0.11016

 Excited State  30:      Singlet-A     12.0660 eV  102.75 nm  f=0.0044  <S**2>=0.000
       9 -> 14         0.12068
       9 -> 15         0.26464
      10 -> 18         0.31876
      12 -> 19         0.38993
      12 -> 20         0.15368
      13 -> 25         0.13440
      13 -> 28         0.10896

 Excited State  31:      Singlet-A     12.1922 eV  101.69 nm  f=0.0893  <S**2>=0.000
      10 -> 16        -0.11897
      10 -> 18        -0.26077
      11 -> 19         0.12837
      12 -> 18        -0.13282
      12 -> 19         0.34014
      12 -> 20        -0.27495
      13 -> 26         0.17273
      13 -> 28        -0.11741
      13 -> 29        -0.11866

 Excited State  32:      Singlet-A     12.2894 eV  100.89 nm  f=0.0704  <S**2>=0.000
       9 -> 16         0.23037
      10 -> 18        -0.27263
      12 -> 20         0.40324
      12 -> 21         0.28708

 Excited State  33:      Singlet-A     12.3189 eV  100.65 nm  f=0.0724  <S**2>=0.000
      10 -> 18        -0.22425
      11 -> 18         0.12647
      11 -> 19         0.13630
      13 -> 25         0.13180
      13 -> 26        -0.19371
      13 -> 28         0.16898
      13 -> 29         0.47214

 Excited State  34:      Singlet-A     12.4159 eV   99.86 nm  f=0.0329  <S**2>=0.000
       9 -> 15        -0.10231
      10 -> 18         0.23620
      11 -> 18        -0.20931
      11 -> 19         0.38832
      11 -> 20        -0.18034
      11 -> 24         0.11715
      12 -> 21         0.19420
      13 -> 28        -0.22046
      13 -> 29         0.12943

 Excited State  35:      Singlet-A     12.5288 eV   98.96 nm  f=0.0965  <S**2>=0.000
       8 -> 14        -0.12537
       9 -> 15        -0.10875
       9 -> 16        -0.14632
      10 -> 18         0.10394
      10 -> 19        -0.19032
      11 -> 18         0.18885
      11 -> 19        -0.11333
      11 -> 20         0.13226
      12 -> 21         0.44915
      12 -> 22        -0.16585
      12 -> 24        -0.11755
      13 -> 28         0.12106

 Excited State  36:      Singlet-A     12.5456 eV   98.83 nm  f=0.0954  <S**2>=0.000
       9 -> 15        -0.10507
      10 -> 19         0.40008
      10 -> 20        -0.12674
      10 -> 22        -0.12958
      11 -> 19         0.22030
      12 -> 22        -0.11299
      13 -> 28         0.35180
      13 -> 29        -0.15916

 Excited State  37:      Singlet-A     12.6572 eV   97.96 nm  f=0.0153  <S**2>=0.000
       8 -> 14        -0.11887
       9 -> 15         0.31482
      10 -> 19        -0.25714
      10 -> 21         0.10778
      11 -> 19         0.12099
      11 -> 20        -0.28926
      11 -> 21        -0.11148
      12 -> 19        -0.12263
      13 -> 28         0.18109
      13 -> 29        -0.17104
      13 -> 31        -0.12602

 Excited State  38:      Singlet-A     12.7268 eV   97.42 nm  f=0.0404  <S**2>=0.000
       9 -> 15        -0.22844
      10 -> 19        -0.20264
      10 -> 20         0.33403
      11 -> 19         0.23170
      11 -> 20         0.16203
      12 -> 20         0.19773
      12 -> 21        -0.18852
      12 -> 22         0.11205
      13 -> 28         0.14300

 Excited State  39:      Singlet-A     12.8106 eV   96.78 nm  f=0.0314  <S**2>=0.000
       8 -> 14        -0.16305
       9 -> 15         0.18398
      10 -> 18        -0.13068
      10 -> 20        -0.15894
      10 -> 21         0.15494
      11 -> 19         0.20454
      11 -> 20         0.38308
      11 -> 21         0.22219
      12 -> 20         0.10672

 Excited State  40:      Singlet-A     12.8798 eV   96.26 nm  f=0.1657  <S**2>=0.000
       7 -> 14        -0.12347
       8 -> 16         0.10101
       9 -> 16         0.37009
      10 -> 19        -0.18416
      10 -> 20        -0.30120
      10 -> 21        -0.12827
      11 -> 20         0.12108
      11 -> 21        -0.18815
      12 -> 20        -0.12355

 Excited State  41:      Singlet-A     12.9345 eV   95.86 nm  f=0.0633  <S**2>=0.000
       9 -> 17         0.16426
      11 -> 21         0.31352
      11 -> 24        -0.10182
      12 -> 20        -0.10033
      12 -> 21         0.16717
      12 -> 22         0.41640
      13 -> 28         0.12264

 Excited State  42:      Singlet-A     12.9953 eV   95.41 nm  f=0.0688  <S**2>=0.000
       8 -> 14         0.29253
       9 -> 15        -0.17170
       9 -> 16         0.11858
       9 -> 17        -0.18627
      10 -> 19        -0.19204
      10 -> 21         0.31899
      10 -> 24        -0.10848
      11 -> 21         0.22187
      12 -> 22        -0.14503
      12 -> 23         0.11069

 Excited State  43:      Singlet-A     13.0335 eV   95.13 nm  f=0.0897  <S**2>=0.000
       8 -> 14         0.47918
       9 -> 15         0.14300
      10 -> 21        -0.21665
      11 -> 19         0.16181
      11 -> 20         0.16330
      11 -> 21        -0.12036
      13 -> 29        -0.10533

 Excited State  44:      Singlet-A     13.0672 eV   94.88 nm  f=0.0311  <S**2>=0.000
       8 -> 14         0.10514
       9 -> 16        -0.18305
       9 -> 17         0.17161
      10 -> 21         0.30496
      10 -> 22        -0.19595
      10 -> 24        -0.14442
      11 -> 21        -0.22191
      11 -> 22         0.15878
      12 -> 22         0.24353
      13 -> 28        -0.11463

 Excited State  45:      Singlet-A     13.0907 eV   94.71 nm  f=0.1973  <S**2>=0.000
       7 -> 14         0.10772
       9 -> 15        -0.21877
       9 -> 16        -0.22610
       9 -> 17        -0.13526
       9 -> 18        -0.12257
      10 -> 20        -0.26680
      11 -> 20        -0.16234
      12 -> 20         0.14647
      12 -> 22         0.17764
      12 -> 23         0.27504
      12 -> 24        -0.14531

 Excited State  46:      Singlet-A     13.2578 eV   93.52 nm  f=0.0141  <S**2>=0.000
       9 -> 15         0.11742
       9 -> 16         0.16886
       9 -> 17        -0.18518
       9 -> 18        -0.10706
      10 -> 19         0.12716
      10 -> 20         0.22248
      11 -> 20         0.11469
      11 -> 22         0.18740
      12 -> 20        -0.22170
      12 -> 23         0.34588
      12 -> 24        -0.12080

 Excited State  47:      Singlet-A     13.3726 eV   92.71 nm  f=0.0054  <S**2>=0.000
      10 -> 20        -0.11497
      11 -> 21        -0.12069
      12 -> 22        -0.10050
      12 -> 23         0.17043
      12 -> 24         0.29750
      12 -> 25        -0.11260
      13 -> 27        -0.16130
      13 -> 30         0.38590

 Excited State  48:      Singlet-A     13.4356 eV   92.28 nm  f=0.0360  <S**2>=0.000
       9 -> 17        -0.12817
      10 -> 21         0.14067
      10 -> 22         0.33424
      11 -> 22         0.36934
      12 -> 22         0.16256
      12 -> 23        -0.20955

 Excited State  49:      Singlet-A     13.5248 eV   91.67 nm  f=0.1475  <S**2>=0.000
      10 -> 21         0.10546
      10 -> 24        -0.10077
      11 -> 21        -0.19302
      12 -> 24         0.10673
      13 -> 28         0.19067
      13 -> 30        -0.17986
      13 -> 31         0.48411

 Excited State  50:      Singlet-A     13.5791 eV   91.30 nm  f=0.0301  <S**2>=0.000
       7 -> 14        -0.10126
       8 -> 15         0.10464
       8 -> 16        -0.11614
      10 -> 22        -0.16941
      10 -> 23        -0.10819
      12 -> 23        -0.10799
      12 -> 24        -0.28540
      12 -> 25         0.11138
      13 -> 27        -0.13626
      13 -> 30         0.34708
      13 -> 31         0.19003

 Excited State  51:      Singlet-A     13.6478 eV   90.85 nm  f=0.0369  <S**2>=0.000
       7 -> 14         0.37120
       7 -> 15        -0.14398
       7 -> 16         0.11422
       8 -> 15         0.13516
       9 -> 16         0.17185
      10 -> 21        -0.10158
      10 -> 22        -0.24988
      10 -> 24         0.12985
      11 -> 22         0.14198
      11 -> 23         0.10328
      12 -> 24         0.14008

 Excited State  52:      Singlet-A     13.6771 eV   90.65 nm  f=0.0607  <S**2>=0.000
       7 -> 14        -0.18540
       8 -> 15        -0.10728
       9 -> 17         0.13432
       9 -> 18         0.12104
      10 -> 21        -0.11797
      10 -> 22        -0.10513
      10 -> 24        -0.20603
      11 -> 22         0.28968
      11 -> 23         0.28188
      11 -> 24        -0.10818
      12 -> 22        -0.11581
      12 -> 23         0.14792

 Excited State  53:      Singlet-A     13.8011 eV   89.84 nm  f=0.1003  <S**2>=0.000
       7 -> 14        -0.28776
       8 -> 15         0.36153
      10 -> 24         0.27339
      10 -> 27        -0.10072
      11 -> 22         0.13151
      11 -> 24        -0.11442
      12 -> 24         0.13308
      13 -> 30        -0.10876

 Excited State  54:      Singlet-A     13.8577 eV   89.47 nm  f=0.0141  <S**2>=0.000
       7 -> 14        -0.11394
       8 -> 15        -0.19436
       8 -> 16        -0.10827
       9 -> 18        -0.24671
      10 -> 24         0.14343
      11 -> 23         0.29867
      11 -> 24         0.28331
      12 -> 24         0.11475
      12 -> 26         0.10480
      13 -> 32        -0.10872
      13 -> 34         0.11641

 Excited State  55:      Singlet-A     13.9015 eV   89.19 nm  f=0.0138  <S**2>=0.000
       8 -> 15         0.18534
       8 -> 16         0.13332
       9 -> 17         0.32925
      10 -> 22         0.13966
      10 -> 23         0.18115
      11 -> 24         0.31821
      12 -> 26         0.12660
      13 -> 30         0.10046
      13 -> 34        -0.10279

 Excited State  56:      Singlet-A     13.9751 eV   88.72 nm  f=0.0901  <S**2>=0.000
       9 -> 17        -0.11605
       9 -> 18        -0.13643
       9 -> 19        -0.18513
       9 -> 20         0.17704
      10 -> 24        -0.20769
      12 -> 23        -0.14168
      12 -> 25        -0.20942
      12 -> 26         0.31647
      13 -> 32         0.23535

 Excited State  57:      Singlet-A     14.0079 eV   88.51 nm  f=0.0149  <S**2>=0.000
       8 -> 16         0.30076
       9 -> 17        -0.10013
      11 -> 22        -0.16606
      11 -> 23         0.16689
      11 -> 24         0.16171
      12 -> 26        -0.16736
      13 -> 32         0.39436

 Excited State  58:      Singlet-A     14.0140 eV   88.47 nm  f=0.0126  <S**2>=0.000
       8 -> 15         0.26903
       8 -> 16        -0.10490
       9 -> 17        -0.21998
      10 -> 17        -0.10786
      10 -> 18        -0.10472
      10 -> 21        -0.13817
      10 -> 23         0.13018
      10 -> 24        -0.20680
      11 -> 24         0.10073
      12 -> 24         0.14671
      12 -> 25         0.10241
      12 -> 26        -0.19374
      12 -> 27         0.13908
      13 -> 32        -0.16960

 Excited State  59:      Singlet-A     14.0942 eV   87.97 nm  f=0.0261  <S**2>=0.000
       8 -> 15         0.16200
       9 -> 17         0.20853
       9 -> 18        -0.16878
      10 -> 22         0.12224
      11 -> 23         0.10171
      11 -> 24        -0.21276
      11 -> 26         0.12927
      12 -> 25         0.18321
      12 -> 27         0.17999
      13 -> 31        -0.10469
      13 -> 33        -0.12548
      13 -> 34         0.26640

 Excited State  60:      Singlet-A     14.1694 eV   87.50 nm  f=0.0169  <S**2>=0.000
       8 -> 15         0.12829
       8 -> 16         0.16639
       9 -> 18         0.32026
      10 -> 20         0.10300
      12 -> 22         0.14292
      12 -> 26         0.21292
      12 -> 27        -0.11698
      13 -> 31        -0.10515
      13 -> 32        -0.17536
      13 -> 34         0.23577
      13 -> 41        -0.11174

 Excited State  61:      Singlet-A     14.2200 eV   87.19 nm  f=0.0246  <S**2>=0.000
       8 -> 16         0.15875
      10 -> 22        -0.11685
      10 -> 23         0.11518
      11 -> 21         0.10271
      11 -> 22         0.15596
      11 -> 23        -0.32700
      12 -> 23         0.10334
      12 -> 26        -0.14278
      13 -> 34         0.35404

 Excited State  62:      Singlet-A     14.2488 eV   87.01 nm  f=0.1013  <S**2>=0.000
       8 -> 15        -0.14577
       8 -> 16         0.13221
       9 -> 18         0.10600
       9 -> 19        -0.11005
       9 -> 20         0.10586

 The electronic state is 1-A.
 Alpha  occ. eigenvalues --  -14.59197 -10.45704 -10.42310  -1.01097  -0.85916
 Alpha  occ. eigenvalues --   -0.72625  -0.60930  -0.58230  -0.53887  -0.47510
 Alpha  occ. eigenvalues --   -0.47128  -0.45126  -0.34762
 Alpha virt. eigenvalues --    0.05769   0.07887   0.10458   0.13411   0.15156
 Alpha virt. eigenvalues --    0.16718   0.17767   0.18670   0.20572   0.22231
 Alpha virt. eigenvalues --    0.22831   0.25142   0.25521   0.26320   0.29953

 Mulliken charges:
               1
     1  C    0.221669
     2  C   -0.026839
     3  N   -0.129577
     4  H    0.027958
     5  H   -0.007498
     6  H    0.046414
     7  H   -0.072849
     8  H   -0.090566
     9  H    0.036834
    10  H   -0.005547
 Sum of Mulliken charges =  -0.00000

 Dipole moment (field-independent basis, Debye):
    X=              0.1124    Y=              0.6558    Z=              1.1677  Tot=              1.3439
 Quadrupole moment (field-independent basis, Debye-Ang):
   XX=            -19.5026   YY=            -20.7825   ZZ=            -21.4989
   XY=              0.7920   XZ=              1.6526   YZ=             -1.7249

 Normal termination of Gaussian 16 at Mon Mar 21 20:13:22 2022.
