 Gaussian 16, Revision C.01,
 Gaussian 16:  EM64L-G16RevC.01  3-Jul-2019

 -------------------------------------------------------------------
 #P TD(Nstates=10000) m11/Gen SCF(maxcycles=100) Int(Grid=ultrafine)
 -------------------------------------------------------------------

 ---------------------
 xGDB7_00001_tier4.com
 ---------------------
 Symbolic Z-matrix:
 Charge =  0 Multiplicity = 1

                         Standard orientation:
 ---------------------------------------------------------------------
 Center     Atomic      Atomic             Coordinates (Angstroms)
 Number     Number       Type             X           Y           Z
 ---------------------------------------------------------------------
      1          9           0        0.000000    1.098813   -0.289120
      2          6           0       -0.000000   -0.000000    0.499944
      3          9           0       -0.000000   -1.098813   -0.289120
      4          1           0       -0.911346    0.000000    1.102246
      5          1           0        0.911346   -0.000000    1.102246
 ---------------------------------------------------------------------

 SCF Done:  E(RM11) =  -238.742604049     A.U. after   12 cycles

 Excitation energies and oscillator strengths:

 Excited State   1:      Singlet-B1     9.2939 eV  133.40 nm  f=0.0200  <S**2>=0.000
      13 -> 14         0.68443
 This state for optimization and/or second-order correction.
 Total Energy, E(TD-HF/TD-DFT) =  -238.401058073
 Copying the excited state density for this state as the 1-particle RhoCI density.

 Excited State   2:      Singlet-A2    10.1494 eV  122.16 nm  f=0.0000  <S**2>=0.000
      10 -> 14        -0.10935
      13 -> 15         0.58927
      13 -> 19        -0.28348
      13 -> 23         0.20763

 Excited State   3:      Singlet-B1    10.7766 eV  115.05 nm  f=0.0177  <S**2>=0.000
      13 -> 17         0.60593
      13 -> 20        -0.27028
      13 -> 21        -0.13848
      13 -> 25        -0.12723

 Excited State   4:      Singlet-A1    11.0295 eV  112.41 nm  f=0.0584  <S**2>=0.000
      13 -> 16         0.68894

 Excited State   5:      Singlet-B2    11.2449 eV  110.26 nm  f=0.0207  <S**2>=0.000
      11 -> 15        -0.19466
      12 -> 14         0.64653
      12 -> 17         0.13739

 Excited State   6:      Singlet-A1    11.4284 eV  108.49 nm  f=0.0061  <S**2>=0.000
      11 -> 14         0.65104
      12 -> 15        -0.20907

 Excited State   7:      Singlet-A2    11.8952 eV  104.23 nm  f=0.0000  <S**2>=0.000
      10 -> 14         0.56942
      10 -> 17         0.13005
      13 -> 15        -0.10145
      13 -> 19        -0.27390
      13 -> 23         0.20739
      13 -> 29        -0.10556

 Excited State   8:      Singlet-B1    12.0046 eV  103.28 nm  f=0.0803  <S**2>=0.000
      13 -> 14         0.10002
      13 -> 17         0.32529
      13 -> 20         0.52053
      13 -> 21         0.23975
      13 -> 25         0.16822

 Excited State   9:      Singlet-A1    12.3617 eV  100.30 nm  f=0.0250  <S**2>=0.000
      11 -> 14         0.20806
      11 -> 17        -0.19316
      12 -> 15         0.53428
      12 -> 19        -0.16525
      12 -> 23         0.22350
      13 -> 22         0.14629

 Excited State  10:      Singlet-A2    12.4814 eV   99.33 nm  f=0.0000  <S**2>=0.000
      10 -> 14         0.35376
      10 -> 17        -0.10698
      10 -> 21        -0.10693
      13 -> 15         0.33661
      13 -> 19         0.45122
      13 -> 23        -0.14268

 Excited State  11:      Singlet-B2    12.4835 eV   99.32 nm  f=0.0295  <S**2>=0.000
      11 -> 15         0.45735
      11 -> 19        -0.10589
      11 -> 23         0.14065
      12 -> 14         0.24974
      12 -> 17        -0.40243

 Excited State  12:      Singlet-B1    12.5151 eV   99.07 nm  f=0.0519  <S**2>=0.000
      10 -> 15        -0.41968
      10 -> 19         0.13742
      11 -> 16        -0.13812
      13 -> 20        -0.18325
      13 -> 21         0.46517

 Excited State  13:      Singlet-B2    12.7451 eV   97.28 nm  f=0.0092  <S**2>=0.000
      10 -> 16        -0.25469
      12 -> 17        -0.12170
      13 -> 18         0.62244

 Excited State  14:      Singlet-A2    12.7763 eV   97.04 nm  f=0.0000  <S**2>=0.000
      11 -> 18        -0.14301
      12 -> 16         0.67018

 Excited State  15:      Singlet-B1    12.8780 eV   96.28 nm  f=0.0324  <S**2>=0.000
      10 -> 15        -0.13613
      11 -> 16         0.66074
      12 -> 18        -0.12926

 Excited State  16:      Singlet-A1    12.9759 eV   95.55 nm  f=0.1446  <S**2>=0.000
      11 -> 17         0.57561
      11 -> 20        -0.22303
      11 -> 21        -0.11459
      11 -> 25        -0.14289
      12 -> 15         0.13624
      12 -> 19        -0.16535
      13 -> 22         0.15198

 Excited State  17:      Singlet-A2    13.0268 eV   95.18 nm  f=0.0000  <S**2>=0.000
      10 -> 17         0.46772
      10 -> 20        -0.10853
      10 -> 21        -0.13913
      10 -> 25        -0.14050
      12 -> 16        -0.12416
      13 -> 15         0.11727
      13 -> 19        -0.15023
      13 -> 23        -0.38564
      13 -> 29         0.11588

 Excited State  18:      Singlet-B2    13.0957 eV   94.68 nm  f=0.0510  <S**2>=0.000
      11 -> 15         0.37907
      11 -> 19        -0.16273
      12 -> 17         0.52037
      13 -> 18         0.15366

 Excited State  19:      Singlet-B1    13.3974 eV   92.54 nm  f=0.0049  <S**2>=0.000
      10 -> 15         0.41635
      10 -> 19        -0.19502
      10 -> 23         0.19688
      13 -> 20        -0.21586
      13 -> 21         0.42241

 Excited State  20:      Singlet-A1    13.5767 eV   91.32 nm  f=0.0538  <S**2>=0.000
      11 -> 20         0.19621
      12 -> 15        -0.14261
      12 -> 23        -0.10397
      13 -> 22         0.63078

 Excited State  21:      Singlet-B2    13.7391 eV   90.24 nm  f=0.0023  <S**2>=0.000
      10 -> 16         0.17212
      11 -> 15        -0.16779
      11 -> 19        -0.19146
      11 -> 23         0.13278
      12 -> 20         0.51176
      12 -> 21         0.19309
      12 -> 25         0.22138

 Excited State  22:      Singlet-A1    13.7923 eV   89.89 nm  f=0.0013  <S**2>=0.000
      11 -> 17        -0.13567
      11 -> 20        -0.27552
      11 -> 21        -0.28377
      11 -> 25        -0.15652
      12 -> 15         0.17714
      12 -> 19         0.42043
      12 -> 23        -0.19233
      12 -> 29         0.12104

 Excited State  23:      Singlet-B2    13.8311 eV   89.64 nm  f=0.0338  <S**2>=0.000
      10 -> 16         0.61961
      12 -> 20        -0.10428
      13 -> 18         0.26267

 Excited State  24:      Singlet-A2    13.9251 eV   89.04 nm  f=0.0000  <S**2>=0.000
      10 -> 14        -0.13951
      10 -> 17         0.38266
      10 -> 20        -0.17052
      13 -> 19         0.30760
      13 -> 23         0.42165
      13 -> 29        -0.11599

 Excited State  25:      Singlet-B1    14.2688 eV   86.89 nm  f=0.0000  <S**2>=0.000
       7 -> 14        -0.16548
      10 -> 15        -0.10370
      10 -> 19        -0.12407
      10 -> 23         0.19666
      12 -> 18         0.25472
      13 -> 20        -0.20310
      13 -> 24        -0.15137
      13 -> 25         0.45111
      13 -> 28        -0.14745
      13 -> 32        -0.10929

 Excited State  26:      Singlet-A2    14.4234 eV   85.96 nm  f=0.0000  <S**2>=0.000
      10 -> 17         0.24078
      10 -> 20         0.54488
      10 -> 25         0.22165
      11 -> 18        -0.18559
      13 -> 19         0.11619

 Excited State  27:      Singlet-B2    14.4801 eV   85.62 nm  f=0.1379  <S**2>=0.000
      11 -> 19         0.41564
      11 -> 23        -0.20449
      12 -> 20         0.35806
      12 -> 21        -0.32963

 Excited State  28:      Singlet-B1    14.5276 eV   85.34 nm  f=0.0659  <S**2>=0.000
       8 -> 16        -0.12276
      11 -> 22        -0.32720
      12 -> 18         0.53532
      13 -> 25        -0.18289

 Excited State  29:      Singlet-A1    14.5743 eV   85.07 nm  f=0.0152  <S**2>=0.000
      11 -> 14         0.10085
      11 -> 17         0.27830
      11 -> 20         0.36735
      11 -> 21         0.21026
      11 -> 24        -0.10149
      12 -> 15         0.22219
      12 -> 19         0.33389
      12 -> 23        -0.12022

 Excited State  30:      Singlet-A2    14.6203 eV   84.80 nm  f=0.0000  <S**2>=0.000
      10 -> 17         0.11643
      10 -> 20         0.15040
      10 -> 21         0.13942
      11 -> 18         0.49952
      12 -> 16         0.12637
      12 -> 22        -0.38226

 Excited State  31:      Singlet-B1    14.7300 eV   84.17 nm  f=0.0276  <S**2>=0.000
       7 -> 17         0.13302
      10 -> 15         0.23160
      10 -> 19         0.48263
      10 -> 23        -0.11227
      13 -> 24        -0.36270
      13 -> 25         0.14290

 Excited State  32:      Singlet-B2    14.9141 eV   83.13 nm  f=0.0128  <S**2>=0.000
       8 -> 15        -0.10447
       9 -> 14         0.54029
       9 -> 20        -0.10455
      10 -> 22        -0.13429
      11 -> 23        -0.12691
      12 -> 21         0.31456

 Excited State  33:      Singlet-B2    15.0732 eV   82.25 nm  f=0.0275  <S**2>=0.000
       9 -> 14        -0.36624
      10 -> 22        -0.10474
      11 -> 15         0.21409
      11 -> 19         0.29193
      12 -> 21         0.42061

 Excited State  34:      Singlet-A2    15.1189 eV   82.01 nm  f=0.0000  <S**2>=0.000
      11 -> 18         0.40762
      12 -> 22         0.52675

 Excited State  35:      Singlet-A1    15.1490 eV   81.84 nm  f=0.0000  <S**2>=0.000
       8 -> 14        -0.19915
       9 -> 15         0.17587
      10 -> 18         0.12605
      11 -> 20        -0.31787
      11 -> 21         0.51921

 Excited State  36:      Singlet-A2    15.2067 eV   81.53 nm  f=0.0000  <S**2>=0.000
       7 -> 15         0.22674
      10 -> 21         0.59037
      12 -> 22         0.17550
      13 -> 29         0.14222

 Excited State  37:      Singlet-B1    15.2460 eV   81.32 nm  f=0.0299  <S**2>=0.000
       7 -> 14        -0.20033
      11 -> 16         0.10291
      11 -> 22         0.53643
      12 -> 18         0.28447
      13 -> 25        -0.16405

 Excited State  38:      Singlet-A1    15.2611 eV   81.24 nm  f=0.0427  <S**2>=0.000
       8 -> 14         0.50478
      10 -> 18         0.32272
      12 -> 19         0.22686
      12 -> 23         0.20325

 Excited State  39:      Singlet-B1    15.4571 eV   80.21 nm  f=0.1337  <S**2>=0.000
       7 -> 14         0.60778
      11 -> 22         0.22545
      12 -> 18         0.12672
      13 -> 25         0.12722

 Excited State  40:      Singlet-A1    15.5849 eV   79.55 nm  f=0.0016  <S**2>=0.000
       8 -> 14         0.38226
       8 -> 17         0.12855
       8 -> 21        -0.11000
       9 -> 15         0.10212
      10 -> 18        -0.27838
      11 -> 17        -0.10158
      11 -> 21         0.15301
      11 -> 25        -0.10338
      12 -> 15         0.13076
      12 -> 19        -0.14385
      12 -> 23        -0.33982

 Excited State  41:      Singlet-B2    15.6097 eV   79.43 nm  f=0.0630  <S**2>=0.000
       9 -> 17         0.19515
      11 -> 19         0.30333
      11 -> 23         0.50370
      11 -> 29        -0.14314
      12 -> 20        -0.12361
      12 -> 25         0.10477

 Excited State  42:      Singlet-B1    15.7313 eV   78.81 nm  f=0.0802  <S**2>=0.000
       7 -> 14        -0.14127
      10 -> 15         0.12815
      10 -> 19         0.24053
      10 -> 23        -0.12239
      13 -> 24         0.54433
      13 -> 25         0.24916

 Excited State  43:      Singlet-A1    15.9013 eV   77.97 nm  f=0.0034  <S**2>=0.000
       9 -> 19        -0.12054
      10 -> 18         0.51568
      11 -> 20         0.11512
      12 -> 15         0.10105
      12 -> 19        -0.19687
      12 -> 23        -0.31373

 Excited State  44:      Singlet-B2    15.9606 eV   77.68 nm  f=0.0235  <S**2>=0.000
      10 -> 22         0.59301
      10 -> 30         0.10282
      12 -> 20         0.10518
      12 -> 25        -0.16009
      13 -> 26         0.17769

 Excited State  45:      Singlet-A1    16.1616 eV   76.72 nm  f=0.1123  <S**2>=0.000
       7 -> 16        -0.10174
       9 -> 15         0.55761
       9 -> 19        -0.19224
       9 -> 23         0.13783
      11 -> 21        -0.19455
      13 -> 27        -0.13002

 Excited State  46:      Singlet-B1    16.1960 eV   76.55 nm  f=0.0096  <S**2>=0.000
       7 -> 17         0.14775
      10 -> 19         0.28182
      10 -> 23         0.51965
      10 -> 29        -0.11714
      13 -> 25        -0.16920
      13 -> 28        -0.15884

 Excited State  47:      Singlet-B2    16.2893 eV   76.11 nm  f=0.0553  <S**2>=0.000
       8 -> 15         0.51569
       8 -> 19        -0.23752
       8 -> 23         0.21909
       9 -> 17        -0.14481
      12 -> 21         0.15323
      13 -> 26         0.21078

 Excited State  48:      Singlet-A2    16.3253 eV   75.95 nm  f=0.0000  <S**2>=0.000
       7 -> 15         0.48996
       7 -> 19        -0.29314
       7 -> 23         0.25232
       7 -> 29        -0.10278
       9 -> 16        -0.14384
      10 -> 20         0.10522
      10 -> 21        -0.20549

 Excited State  49:      Singlet-B2    16.5237 eV   75.03 nm  f=0.0302  <S**2>=0.000
       9 -> 14        -0.13374
       9 -> 17         0.56558
       9 -> 20        -0.13984
       9 -> 21        -0.11968
       9 -> 25        -0.11184
      11 -> 19        -0.10768
      11 -> 23        -0.18648
      12 -> 25         0.10168
      13 -> 26         0.13170

 Excited State  50:      Singlet-A2    16.5520 eV   74.91 nm  f=0.0000  <S**2>=0.000
       7 -> 15         0.10760
       9 -> 16         0.66683
      11 -> 18        -0.12621

 Excited State  51:      Singlet-B2    16.6174 eV   74.61 nm  f=0.2029  <S**2>=0.000
       8 -> 15        -0.20497
       8 -> 19         0.11119
      10 -> 22        -0.11443
      12 -> 24        -0.11532
      12 -> 25         0.11684
      13 -> 26         0.60226

 Excited State  52:      Singlet-B1    16.6752 eV   74.35 nm  f=0.0209  <S**2>=0.000
       7 -> 17         0.14531
       8 -> 16         0.63130
      12 -> 18         0.10534
      13 -> 28         0.14277

 Excited State  53:      Singlet-A1    16.6854 eV   74.31 nm  f=0.0799  <S**2>=0.000
       8 -> 17         0.35733
       8 -> 20        -0.21001
      11 -> 20         0.16621
      11 -> 24         0.14142
      11 -> 25        -0.35715
      12 -> 23         0.24881
      13 -> 27        -0.13667

 Excited State  54:      Singlet-A1    16.7663 eV   73.95 nm  f=0.0055  <S**2>=0.000
       7 -> 16         0.13776
       8 -> 17         0.46093
       8 -> 20        -0.11523
      11 -> 20        -0.13643
      11 -> 24        -0.15606
      11 -> 25         0.29043
      11 -> 28        -0.11606
      13 -> 27         0.23136

 Excited State  55:      Singlet-B1    16.8535 eV   73.57 nm  f=0.0127  <S**2>=0.000
       7 -> 17         0.34674
       8 -> 16        -0.22890
      13 -> 28         0.50859

 Excited State  56:      Singlet-A2    16.8990 eV   73.37 nm  f=0.0000  <S**2>=0.000
      10 -> 20         0.15864
      10 -> 21        -0.11885
      10 -> 25        -0.10446
      13 -> 23         0.23403
      13 -> 29         0.59753

 Excited State  57:      Singlet-A1    17.0252 eV   72.82 nm  f=0.0743  <S**2>=0.000
       7 -> 16        -0.23912
       9 -> 15         0.13588
      11 -> 24         0.12665
      11 -> 25        -0.12956
      13 -> 27         0.59246

 Excited State  58:      Singlet-B2    17.0687 eV   72.64 nm  f=0.0317  <S**2>=0.000
       9 -> 17         0.16250
       9 -> 20         0.26170
       9 -> 25         0.12488
      10 -> 22        -0.14057
      11 -> 23         0.19186
      12 -> 20         0.17126
      12 -> 24         0.37743
      12 -> 25        -0.32385
      12 -> 28         0.10016
      13 -> 26         0.10953

 Excited State  59:      Singlet-B1    17.2007 eV   72.08 nm  f=0.0311  <S**2>=0.000
       7 -> 17         0.46274
       7 -> 20        -0.22196
       7 -> 25        -0.11608
      10 -> 19        -0.13306
      10 -> 23        -0.24631
      13 -> 25        -0.14351
      13 -> 28        -0.31893

 Excited State  60:      Singlet-A1    17.2236 eV   71.98 nm  f=0.0025  <S**2>=0.000
       7 -> 16         0.59125
       8 -> 17        -0.12181
       9 -> 15         0.14942
      11 -> 20         0.10599
      11 -> 24         0.11704
      11 -> 25        -0.12139
      13 -> 27         0.11338

 Excited State  61:      Singlet-A2    17.2762 eV   71.77 nm  f=0.0000  <S**2>=0.000
       7 -> 15         0.10693
      10 -> 20        -0.26325
      10 -> 24        -0.25568
      10 -> 25         0.48524
      10 -> 28        -0.18941
      10 -> 32        -0.10856
      13 -> 29         0.17313

 Excited State  62:      Singlet-B2    17.4371 eV   71.10 nm  f=0.0183  <S**2>=0.000
       8 -> 15        -0.16581
       9 -> 17        -0.17496
       9 -> 20        -0.19781
      11 -> 19         0.10801
      12 -> 24         0.53297
      12 -> 25         0.23049
      12 -> 28        -0.13063

 Excited State  63:      Singlet-A1    17.5493 eV   70.65 nm  f=0.0228  <S**2>=0.000
       8 -> 17         0.12444
       8 -> 20         0.14297
      11 -> 24         0.57197
      11 -> 25         0.20934
      11 -> 28        -0.10008
      13 -> 30         0.14587

 Excited State  64:      Singlet-A1    17.9095 eV   69.23 nm  f=0.0116  <S**2>=0.000
       8 -> 20         0.18714
      11 -> 24        -0.20244
      11 -> 25        -0.12942
      13 -> 30         0.56455

 Excited State  65:      Singlet-A2    17.9470 eV   69.08 nm  f=0.0000  <S**2>=0.000
       7 -> 15         0.24026
       7 -> 19         0.20056
      10 -> 24         0.57533
      10 -> 25         0.14873

 Excited State  66:      Singlet-A1    17.9617 eV   69.03 nm  f=0.0327  <S**2>=0.000
       7 -> 16         0.10638
       8 -> 17         0.21607
       8 -> 20         0.49211
       8 -> 21         0.11690
       8 -> 25         0.10414
       9 -> 23        -0.11340
      11 -> 25        -0.17273
      13 -> 30        -0.26102

 Excited State  67:      Singlet-B2    18.0212 eV   68.80 nm  f=0.0636  <S**2>=0.000
       9 -> 14         0.11766
       9 -> 17         0.14767
       9 -> 20         0.36945
       9 -> 21         0.38759
      10 -> 22         0.13054
      11 -> 23        -0.15268
      11 -> 29        -0.20883
      12 -> 25         0.19095

 Excited State  68:      Singlet-B1    18.0666 eV   68.63 nm  f=0.0570  <S**2>=0.000
       7 -> 17         0.27812
       7 -> 20         0.52870
       7 -> 21         0.15644
       7 -> 24        -0.11053
       7 -> 25         0.16158
       9 -> 18        -0.10497
      13 -> 28        -0.10888

 Excited State  69:      Singlet-B1    18.2498 eV   67.94 nm  f=0.0036  <S**2>=0.000
       6 -> 16        -0.12073
       8 -> 22        -0.16324
       9 -> 18         0.63903
      11 -> 27        -0.15200

 Excited State  70:      Singlet-B2    18.3263 eV   67.65 nm  f=0.0912  <S**2>=0.000
       8 -> 15         0.21222
       8 -> 19         0.33325
       8 -> 23        -0.24073
       9 -> 20         0.22890
       9 -> 21        -0.26131
      12 -> 25         0.29438
      12 -> 28         0.12901

 Excited State  71:      Singlet-A2    18.3960 eV   67.40 nm  f=0.0000  <S**2>=0.000
       8 -> 18        -0.34737
       9 -> 22        -0.13064
      11 -> 26         0.53722
      12 -> 27        -0.23373

 Excited State  72:      Singlet-A1    18.4598 eV   67.16 nm  f=0.0449  <S**2>=0.000
       7 -> 22        -0.13058
       8 -> 21         0.25684
       9 -> 15         0.19911
       9 -> 19         0.46764
      11 -> 24        -0.11486
      12 -> 29         0.24901
      13 -> 31        -0.11636

 Excited State  73:      Singlet-A2    18.4894 eV   67.06 nm  f=0.0000  <S**2>=0.000
       8 -> 18        -0.35457
       9 -> 22         0.49166
      10 -> 25         0.13863
      11 -> 26        -0.16608
      12 -> 27        -0.15946

 Excited State  74:      Singlet-B1    18.5077 eV   66.99 nm  f=0.0253  <S**2>=0.000
       7 -> 20        -0.11798
       8 -> 22         0.32483
      11 -> 27        -0.12627
      12 -> 26         0.56392

 Excited State  75:      Singlet-B2    18.5096 eV   66.98 nm  f=0.0567  <S**2>=0.000
       8 -> 15         0.21305
       8 -> 19         0.27140
       9 -> 20        -0.28622
       9 -> 21         0.44989
      12 -> 28         0.13497

 Excited State  76:      Singlet-A2    18.6093 eV   66.62 nm  f=0.0000  <S**2>=0.000
       7 -> 15         0.30059
       7 -> 19         0.38794
       7 -> 23        -0.24218
       7 -> 29         0.10532
       8 -> 18        -0.15147
      10 -> 24        -0.22073
      10 -> 25        -0.22450
      11 -> 26        -0.13873

 Excited State  77:      Singlet-A1    18.6927 eV   66.33 nm  f=0.0584  <S**2>=0.000
       7 -> 22         0.16628
       8 -> 21         0.37910
       9 -> 15        -0.11318
       9 -> 19        -0.22383
       9 -> 23         0.14773
      12 -> 23         0.13500
      12 -> 29         0.30747
      13 -> 30         0.18682
      13 -> 31         0.17720

 Excited State  78:      Singlet-B1    18.8113 eV   65.91 nm  f=0.0315  <S**2>=0.000
       7 -> 20        -0.10837
       7 -> 21         0.46629
       8 -> 22         0.13751
      10 -> 29        -0.20270
      11 -> 27        -0.23986
      12 -> 26        -0.29361
      13 -> 32         0.16952

 Excited State  79:      Singlet-A2    18.8879 eV   65.64 nm  f=0.0000  <S**2>=0.000
       8 -> 18         0.12656
       9 -> 22         0.38382
      11 -> 26         0.35064
      12 -> 27         0.39629
      12 -> 30         0.11848

 Excited State  80:      Singlet-B2    18.8971 eV   65.61 nm  f=0.0331  <S**2>=0.000

 The electronic state is 1-A1.
 Alpha  occ. eigenvalues --  -25.07222 -25.07220 -10.61170  -1.38806  -1.31945
 Alpha  occ. eigenvalues --   -0.84606  -0.69657  -0.69031  -0.68293  -0.57219
 Alpha  occ. eigenvalues --   -0.55009  -0.54671  -0.47451
 Alpha virt. eigenvalues --    0.04146   0.10091   0.10483   0.10680   0.16307
 Alpha virt. eigenvalues --    0.17082   0.17184   0.17439   0.19871   0.23705
 Alpha virt. eigenvalues --    0.27785   0.31095   0.32345   0.33935   0.35503

 Mulliken charges:
               1
     1  F   -0.366453
     2  C    0.877419
     3  F   -0.366453
     4  H   -0.072257
     5  H   -0.072257
 Sum of Mulliken charges =   0.00000

 Dipole moment (field-independent basis, Debye):
    X=              0.0000    Y=              0.0000    Z=              2.0885  Tot=              2.0885
 Quadrupole moment (field-independent basis, Debye-Ang):
   XX=            -15.3732   YY=            -19.4793   ZZ=            -15.4372
   XY=             -0.0000   XZ=              0.0000   YZ=              0.0000

 Normal termination of Gaussian 16 at Mon Mar 21 20:05:31 2022.
