 Gaussian 16, Revision C.01,
 Gaussian 16:  EM64L-G16RevC.01  3-Jul-2019

 -------------------------------------------------------------------
 #P TD(Nstates=10000) m11/Gen SCF(maxcycles=100) Int(Grid=ultrafine)
 -------------------------------------------------------------------

 ---------------------
 xGDB7_00001_tier4.com
 ---------------------
 Symbolic Z-matrix:
 Charge =  0 Multiplicity = 1

                         Standard orientation:
 ---------------------------------------------------------------------
 Center     Atomic      Atomic             Coordinates (Angstroms)
 Number     Number       Type             X           Y           Z
 ---------------------------------------------------------------------
      1          8           0       -1.023805   -0.438791    0.000000
      2          6           0       -0.000000    0.418952    0.000000
      3          8           0        1.152985    0.109982   -0.000000
      4          1           0       -0.656943   -1.333011    0.000000
      5          1           0       -0.376498    1.449770    0.000000
 ---------------------------------------------------------------------

 SCF Done:  E(RM11) =  -189.554599084     A.U. after   15 cycles

 Excitation energies and oscillator strengths:

 Excited State   1:      Singlet-A"     5.6382 eV  219.90 nm  f=0.0007  <S**2>=0.000
      12 -> 15         0.69611
 This state for optimization and/or second-order correction.
 Total Energy, E(TD-HF/TD-DFT) =  -189.347397773
 Copying the excited state density for this state as the 1-particle RhoCI density.

 Excited State   2:      Singlet-A'     8.0612 eV  153.80 nm  f=0.0142  <S**2>=0.000
      11 -> 15        -0.25449
      12 -> 13         0.61882
      12 -> 16        -0.13339

 Excited State   3:      Singlet-A'     8.6141 eV  143.93 nm  f=0.0948  <S**2>=0.000
      11 -> 15         0.32010
      12 -> 13         0.15165
      12 -> 14         0.57164
      12 -> 16        -0.11856
      12 -> 19        -0.11951

 Excited State   4:      Singlet-A"     8.6631 eV  143.12 nm  f=0.0021  <S**2>=0.000
      11 -> 13         0.63405
      11 -> 14        -0.22092

 Excited State   5:      Singlet-A'     8.9210 eV  138.98 nm  f=0.1642  <S**2>=0.000
      11 -> 15         0.53413
      12 -> 13         0.17773
      12 -> 14        -0.37367
      12 -> 16        -0.10496

 Excited State   6:      Singlet-A"     9.2578 eV  133.92 nm  f=0.0000  <S**2>=0.000
      10 -> 15         0.68883

 Excited State   7:      Singlet-A"     9.5362 eV  130.01 nm  f=0.0085  <S**2>=0.000
      11 -> 14         0.29137
      12 -> 17         0.60395
      12 -> 20         0.17132

 Excited State   8:      Singlet-A"     9.6583 eV  128.37 nm  f=0.0000  <S**2>=0.000
      11 -> 13         0.22389
      11 -> 14         0.58267
      12 -> 17        -0.29371

 Excited State   9:      Singlet-A'     9.7936 eV  126.60 nm  f=0.0640  <S**2>=0.000
      12 -> 13         0.15160
      12 -> 16         0.59241
      12 -> 18        -0.30281

 Excited State  10:      Singlet-A"    10.6392 eV  116.53 nm  f=0.0266  <S**2>=0.000
       9 -> 13         0.13663
      11 -> 16         0.66035
      12 -> 20        -0.11513

 Excited State  11:      Singlet-A'    10.7458 eV  115.38 nm  f=0.0213  <S**2>=0.000
      10 -> 13         0.38646
      10 -> 14        -0.12201
      11 -> 17        -0.33289
      12 -> 13        -0.12522
      12 -> 16        -0.17257
      12 -> 18        -0.30173
      12 -> 19         0.19945

 Excited State  12:      Singlet-A'    10.8291 eV  114.49 nm  f=0.0169  <S**2>=0.000
      10 -> 13         0.15212
      11 -> 17         0.45657
      12 -> 16        -0.13501
      12 -> 18        -0.36522
      12 -> 19        -0.26005

 Excited State  13:      Singlet-A'    10.8686 eV  114.08 nm  f=0.0512  <S**2>=0.000
      10 -> 13         0.37111
      11 -> 17         0.23489
      12 -> 18         0.33455
      12 -> 21         0.35615
      12 -> 22        -0.14091

 Excited State  14:      Singlet-A'    11.0683 eV  112.02 nm  f=0.0061  <S**2>=0.000
      10 -> 14         0.13060
      11 -> 17         0.30939
      12 -> 19         0.55663
      12 -> 21        -0.15124
      12 -> 22         0.10035

 Excited State  15:      Singlet-A'    11.1411 eV  111.29 nm  f=0.0189  <S**2>=0.000
      10 -> 13        -0.31817
      12 -> 16        -0.14219
      12 -> 18        -0.21282
      12 -> 19         0.12184
      12 -> 21         0.47931
      12 -> 22        -0.18553
      12 -> 24         0.10814

 Excited State  16:      Singlet-A"    11.1726 eV  110.97 nm  f=0.0124  <S**2>=0.000
      11 -> 16         0.11297
      12 -> 17        -0.19669
      12 -> 20         0.64302

 Excited State  17:      Singlet-A"    11.4327 eV  108.45 nm  f=0.0001  <S**2>=0.000
       9 -> 16         0.10585
      11 -> 13         0.10335
      11 -> 18         0.41666
      11 -> 19        -0.40285
      11 -> 21        -0.22143
      11 -> 22         0.20190
      11 -> 30        -0.10040

 Excited State  18:      Singlet-A"    11.6668 eV  106.27 nm  f=0.0011  <S**2>=0.000
       9 -> 14         0.17497
      11 -> 18         0.36613
      11 -> 19         0.51635
      11 -> 21        -0.14520
      12 -> 20         0.13710

 Excited State  19:      Singlet-A'    11.6884 eV  106.07 nm  f=0.0893  <S**2>=0.000
       9 -> 15         0.19372
      10 -> 13         0.14286
      10 -> 14         0.61458
      12 -> 19        -0.12297

 Excited State  20:      Singlet-A"    11.7697 eV  105.34 nm  f=0.0059  <S**2>=0.000
       8 -> 15         0.57519
      10 -> 15        -0.10280
      11 -> 18         0.25663
      11 -> 21         0.24598

 Excited State  21:      Singlet-A"    11.9813 eV  103.48 nm  f=0.0015  <S**2>=0.000
       7 -> 15        -0.17690
       8 -> 15        -0.34109
      11 -> 18         0.24214
      11 -> 21         0.46953
      11 -> 22        -0.14551

 Excited State  22:      Singlet-A'    12.0404 eV  102.97 nm  f=0.0567  <S**2>=0.000
       9 -> 15         0.58163
      10 -> 13        -0.10834
      10 -> 14        -0.17331
      11 -> 20         0.15006
      12 -> 21        -0.12106
      12 -> 22        -0.19249

 Excited State  23:      Singlet-A'    12.3234 eV  100.61 nm  f=0.0708  <S**2>=0.000
       9 -> 15         0.22006
      10 -> 14        -0.13799
      11 -> 20        -0.14343
      12 -> 21         0.20502
      12 -> 22         0.57458

 Excited State  24:      Singlet-A"    12.3874 eV  100.09 nm  f=0.0104  <S**2>=0.000
       7 -> 15         0.65302
      11 -> 21         0.16335
      12 -> 23         0.11658

 Excited State  25:      Singlet-A'    12.4663 eV   99.46 nm  f=0.0001  <S**2>=0.000
       8 -> 13         0.17921
      10 -> 16        -0.33542
      11 -> 20         0.55297
      12 -> 22         0.13086

 Excited State  26:      Singlet-A"    12.4767 eV   99.37 nm  f=0.0251  <S**2>=0.000
       9 -> 13         0.53552
       9 -> 14        -0.14914
       9 -> 19         0.11287
      10 -> 17        -0.23566
      11 -> 16        -0.10148
      11 -> 18         0.13570
      11 -> 21        -0.14991
      11 -> 22        -0.14113

 Excited State  27:      Singlet-A"    12.5721 eV   98.62 nm  f=0.0053  <S**2>=0.000
       9 -> 13         0.14789
      10 -> 17         0.60450
      11 -> 21        -0.12288
      11 -> 22        -0.10542
      12 -> 23         0.19808

 Excited State  28:      Singlet-A"    12.9684 eV   95.60 nm  f=0.0059  <S**2>=0.000
       9 -> 13         0.27017
      11 -> 21         0.17545
      11 -> 22         0.52170
      12 -> 23         0.23431

 Excited State  29:      Singlet-A'    13.0000 eV   95.37 nm  f=0.0155  <S**2>=0.000
       8 -> 13        -0.34151
       9 -> 15        -0.12759
      10 -> 16         0.39123
      10 -> 21         0.15790
      11 -> 20         0.32158
      12 -> 19         0.10103
      12 -> 22         0.12339

 Excited State  30:      Singlet-A"    13.0569 eV   94.96 nm  f=0.0067  <S**2>=0.000
       9 -> 13        -0.18202
       9 -> 14        -0.11633
      10 -> 17        -0.21736
      11 -> 22        -0.13412
      12 -> 23         0.58341
      12 -> 31        -0.10785

 Excited State  31:      Singlet-A'    13.1626 eV   94.19 nm  f=0.0463  <S**2>=0.000
      10 -> 19         0.12404
      12 -> 16         0.13559
      12 -> 18         0.10378
      12 -> 24         0.61448
      12 -> 25        -0.14749

 Excited State  32:      Singlet-A"    13.2919 eV   93.28 nm  f=0.0062  <S**2>=0.000
       9 -> 13         0.12458
       9 -> 14         0.61921
      11 -> 19        -0.14164
      11 -> 22        -0.19504
      12 -> 23         0.10408

 Excited State  33:      Singlet-A'    13.4363 eV   92.28 nm  f=0.0109  <S**2>=0.000
       8 -> 13         0.32478
       8 -> 14        -0.32763
      10 -> 16         0.25159
      10 -> 19         0.38418

 Excited State  34:      Singlet-A'    13.6510 eV   90.82 nm  f=0.0792  <S**2>=0.000
       8 -> 13        -0.28988
       8 -> 14        -0.15443
       8 -> 16         0.15562
      10 -> 16        -0.21580
      10 -> 18        -0.24683
      10 -> 19         0.38781
      11 -> 23        -0.17515
      12 -> 24        -0.12374

 Excited State  35:      Singlet-A'    13.8892 eV   89.27 nm  f=0.1517  <S**2>=0.000
       8 -> 13        -0.28637
       8 -> 14        -0.18863
      10 -> 16        -0.14439
      10 -> 18         0.41218
      10 -> 21        -0.26503
      10 -> 22         0.11422
      11 -> 23         0.21757

 Excited State  36:      Singlet-A'    14.0228 eV   88.42 nm  f=0.0021  <S**2>=0.000
       7 -> 13        -0.26457
       8 -> 14         0.10141
      10 -> 18        -0.16926
      11 -> 23         0.55784

 Excited State  37:      Singlet-A"    14.0235 eV   88.41 nm  f=0.0451  <S**2>=0.000
       9 -> 16         0.21484
       9 -> 18         0.10756
      10 -> 20        -0.17986
      11 -> 24         0.56262
      11 -> 25        -0.12250

 Excited State  38:      Singlet-A"    14.0985 eV   87.94 nm  f=0.0133  <S**2>=0.000
       8 -> 17         0.32324
      10 -> 20         0.57259
      11 -> 24         0.16244

 Excited State  39:      Singlet-A'    14.2287 eV   87.14 nm  f=0.0098  <S**2>=0.000
       8 -> 16        -0.10006
       9 -> 17        -0.25684
      10 -> 16        -0.11695
      10 -> 18         0.24596
      10 -> 21         0.21459
      10 -> 22        -0.10016
      11 -> 20        -0.11622
      12 -> 25         0.47349

 Excited State  40:      Singlet-A'    14.2885 eV   86.77 nm  f=0.0609  <S**2>=0.000
       7 -> 13        -0.10111
       8 -> 14         0.48562
      10 -> 18         0.17720
      10 -> 19         0.31508
      10 -> 21        -0.19556
      10 -> 22        -0.13044

 Excited State  41:      Singlet-A'    14.3197 eV   86.58 nm  f=0.0414  <S**2>=0.000
       7 -> 13        -0.24773
       8 -> 16        -0.10422
      10 -> 16        -0.13215
      10 -> 18         0.22359
      10 -> 21         0.41420
      10 -> 22        -0.10286
      12 -> 25        -0.32364
      12 -> 27         0.13666

 Excited State  42:      Singlet-A'    14.4953 eV   85.53 nm  f=0.0584  <S**2>=0.000
       7 -> 13         0.41036
       7 -> 14        -0.14013
       8 -> 14         0.15288
       9 -> 17        -0.28799
      10 -> 19         0.10602
      10 -> 21         0.16332
      11 -> 23         0.18490
      12 -> 24        -0.14266
      12 -> 25        -0.24498

 Excited State  43:      Singlet-A"    14.6223 eV   84.79 nm  f=0.0020  <S**2>=0.000
       9 -> 16         0.60880
       9 -> 24        -0.10745
      11 -> 18        -0.13505
      11 -> 24        -0.25126

 Excited State  44:      Singlet-A'    14.7253 eV   84.20 nm  f=0.0625  <S**2>=0.000
       7 -> 13         0.13528
       7 -> 14        -0.30468
       9 -> 17         0.47997
      10 -> 16        -0.12035
      10 -> 21         0.22196
      12 -> 25         0.17032
      12 -> 27        -0.10712

 Excited State  45:      Singlet-A'    15.0247 eV   82.52 nm  f=0.0499  <S**2>=0.000
       7 -> 13         0.26377
       7 -> 14         0.56739
       9 -> 17         0.24462

 Excited State  46:      Singlet-A"    15.0322 eV   82.48 nm  f=0.0527  <S**2>=0.000
       9 -> 16         0.10024
       9 -> 18        -0.17606
       9 -> 21         0.18189
       9 -> 22        -0.14901
      11 -> 25         0.56239
      12 -> 26        -0.16850

 Excited State  47:      Singlet-A'    15.0793 eV   82.22 nm  f=0.1221  <S**2>=0.000
       7 -> 13        -0.16892
       8 -> 14         0.11791
       8 -> 16         0.16459
       8 -> 19         0.17022
       9 -> 17        -0.11684
      10 -> 18         0.12652
      10 -> 19         0.11910
      10 -> 21         0.12667
      10 -> 22         0.42951
      11 -> 23        -0.10286
      12 -> 27        -0.26345
      12 -> 28        -0.10181

 Excited State  48:      Singlet-A"    15.1062 eV   82.08 nm  f=0.0238  <S**2>=0.000
      10 -> 23         0.18141
      11 -> 25         0.13045
      12 -> 26         0.64570

 Excited State  49:      Singlet-A'    15.1890 eV   81.63 nm  f=0.0556  <S**2>=0.000
       8 -> 19         0.17909
      10 -> 19         0.10944
      10 -> 22         0.32055
      12 -> 25         0.11178
      12 -> 27         0.49053

 Excited State  50:      Singlet-A"    15.2402 eV   81.35 nm  f=0.0006  <S**2>=0.000
       8 -> 17         0.15752
       9 -> 18        -0.15801
       9 -> 19         0.48017
       9 -> 21         0.17077
       9 -> 22        -0.13009
      10 -> 20        -0.11005
      11 -> 24        -0.16103
      11 -> 25        -0.15015
      11 -> 27        -0.15558
      11 -> 28        -0.16180

 Excited State  51:      Singlet-A"    15.3082 eV   80.99 nm  f=0.0026  <S**2>=0.000
       8 -> 17         0.56612
       9 -> 19        -0.19086
      10 -> 20        -0.32853

 Excited State  52:      Singlet-A"    15.4847 eV   80.07 nm  f=0.0120  <S**2>=0.000
       8 -> 17         0.12464
       9 -> 18         0.47484
       9 -> 19         0.22400
       9 -> 21        -0.24454
      11 -> 25         0.27073
      11 -> 27        -0.16315

 Excited State  53:      Singlet-A'    15.5023 eV   79.98 nm  f=0.0024  <S**2>=0.000
       8 -> 16         0.56137
       8 -> 21         0.13789
       8 -> 22        -0.10595
      10 -> 18         0.18678
      10 -> 22        -0.14916
      12 -> 27         0.14582

 Excited State  54:      Singlet-A"    15.6192 eV   79.38 nm  f=0.0085  <S**2>=0.000
       9 -> 19         0.32144
       9 -> 22        -0.11448
      11 -> 21         0.12770
      11 -> 24         0.10726
      11 -> 27         0.39160
      11 -> 28         0.26275
      11 -> 29         0.10834
      11 -> 30        -0.10566
      11 -> 32        -0.21423
      11 -> 33         0.10835

 Excited State  55:      Singlet-A'    15.8178 eV   78.38 nm  f=0.0082  <S**2>=0.000
       9 -> 20         0.30957
      12 -> 27        -0.20666
      12 -> 28         0.47905
      12 -> 30        -0.19233
      12 -> 32        -0.14351
      12 -> 35         0.12228

 Excited State  56:      Singlet-A"    15.8234 eV   78.35 nm  f=0.0033  <S**2>=0.000
       7 -> 17         0.45539
       9 -> 18         0.15094
       9 -> 21         0.16031
      10 -> 23        -0.42152
      12 -> 26         0.13899

 Excited State  57:      Singlet-A"    15.8680 eV   78.13 nm  f=0.1031  <S**2>=0.000
       6 -> 15         0.14220
       9 -> 16        -0.10551
       9 -> 18         0.34331
       9 -> 21         0.47070
      10 -> 23         0.21571
      11 -> 27         0.16351

 Excited State  58:      Singlet-A'    16.0571 eV   77.21 nm  f=0.0110  <S**2>=0.000
       8 -> 21        -0.14538
       9 -> 20         0.57158
      11 -> 26         0.11441
      12 -> 28        -0.22033
      12 -> 30         0.19758

 Excited State  59:      Singlet-A"    16.1351 eV   76.84 nm  f=0.0319  <S**2>=0.000
       7 -> 17         0.50127
      10 -> 23         0.44221
      12 -> 26        -0.11252

 Excited State  60:      Singlet-A'    16.1401 eV   76.82 nm  f=0.0164  <S**2>=0.000
       7 -> 16        -0.11157
       8 -> 16        -0.10461
       8 -> 18         0.30904
       8 -> 19         0.25567
      10 -> 22        -0.10418
      10 -> 24        -0.30994
      11 -> 26         0.36611

 Excited State  61:      Singlet-A'    16.1767 eV   76.64 nm  f=0.0294  <S**2>=0.000
       7 -> 16         0.10668
       8 -> 18        -0.19869
       8 -> 19        -0.29515
       9 -> 20        -0.15295
      11 -> 26         0.53286

 Excited State  62:      Singlet-A'    16.2456 eV   76.32 nm  f=0.0152  <S**2>=0.000
       7 -> 16         0.34164
       7 -> 19         0.11790
       8 -> 18         0.27251
       8 -> 19        -0.31442
      10 -> 22         0.10828
      10 -> 24        -0.32451
      11 -> 26        -0.13358

 Excited State  63:      Singlet-A'    16.3875 eV   75.66 nm  f=0.0444  <S**2>=0.000
       7 -> 16         0.47038
       7 -> 18         0.11442
       8 -> 18        -0.18175
       8 -> 19         0.32970
       8 -> 21         0.17151
      10 -> 22        -0.15151

 Excited State  64:      Singlet-A'    16.4625 eV   75.31 nm  f=0.0512  <S**2>=0.000
       7 -> 16        -0.14941
       7 -> 18        -0.10799
       8 -> 16        -0.10700
       8 -> 21         0.44618
       8 -> 22        -0.13584
      10 -> 25        -0.15951
      12 -> 29        -0.22496
      12 -> 30         0.27054

 Excited State  65:      Singlet-A'    16.5278 eV   75.02 nm  f=0.0849  <S**2>=0.000
       7 -> 16         0.15191
       7 -> 18         0.13039
       7 -> 21        -0.17899
       8 -> 18         0.38248
      10 -> 16         0.10634
      10 -> 24         0.32557
      12 -> 28         0.16577
      12 -> 30         0.16796

 Excited State  66:      Singlet-A"    16.5618 eV   74.86 nm  f=0.0137  <S**2>=0.000
       8 -> 20         0.29588
       9 -> 18        -0.12494
       9 -> 19         0.11251
       9 -> 22         0.40621
      11 -> 27         0.18792
      11 -> 28        -0.26820
      11 -> 29        -0.10091
      11 -> 32        -0.10279
      12 -> 31         0.11239

 Excited State  67:      Singlet-A"    16.6409 eV   74.51 nm  f=0.0087  <S**2>=0.000
       8 -> 20         0.58958
       9 -> 22        -0.24805
      11 -> 28         0.12089

 Excited State  68:      Singlet-A'    16.6500 eV   74.46 nm  f=0.0133  <S**2>=0.000
       8 -> 18         0.16015
       8 -> 21         0.26851
      10 -> 24         0.14597
      12 -> 27        -0.13937
      12 -> 28        -0.22542
      12 -> 29         0.47093
      12 -> 30        -0.11644

 Excited State  69:      Singlet-A"    16.8655 eV   73.51 nm  f=0.0041  <S**2>=0.000
       6 -> 15        -0.26285
       8 -> 20        -0.13882
       9 -> 22        -0.26992
      11 -> 27         0.13206
      11 -> 28        -0.23120
      12 -> 31         0.45785

 Excited State  70:      Singlet-A'    16.9074 eV   73.33 nm  f=0.0163  <S**2>=0.000
       8 -> 18        -0.13325
      10 -> 24        -0.20280
      12 -> 28         0.20620
      12 -> 29         0.38834
      12 -> 30         0.38898
      12 -> 32         0.14448

 Excited State  71:      Singlet-A"    16.9805 eV   73.02 nm  f=0.0506  <S**2>=0.000
       6 -> 15        -0.11348
       9 -> 22         0.23584
       9 -> 24         0.14185
      11 -> 27        -0.18329
      11 -> 28         0.40372
      11 -> 30         0.10738
      12 -> 31         0.38058

 Excited State  72:      Singlet-A'    17.0591 eV   72.68 nm  f=0.0555  <S**2>=0.000
       7 -> 18         0.16976
       7 -> 19        -0.25519
       7 -> 21        -0.23104
       7 -> 22         0.15149
       8 -> 16        -0.10520
       8 -> 18        -0.13326
       8 -> 19        -0.11171
       8 -> 21         0.24254
       8 -> 22         0.13555
      10 -> 25         0.34007

 Excited State  73:      Singlet-A'    17.2167 eV   72.01 nm  f=0.0091  <S**2>=0.000
       7 -> 18        -0.12417
       7 -> 19         0.45559
      10 -> 24         0.14508
      10 -> 25         0.41779

 Excited State  74:      Singlet-A"    17.2399 eV   71.92 nm  f=0.0127  <S**2>=0.000
       6 -> 15         0.26934
       9 -> 21        -0.20498
       9 -> 24         0.18489
      11 -> 27         0.25465
      11 -> 30         0.39355
      11 -> 32         0.20372
      12 -> 31         0.12641

 Excited State  75:      Singlet-A'    17.3430 eV   71.49 nm  f=0.0074  <S**2>=0.000
       7 -> 16         0.11772
       7 -> 18        -0.30462
       7 -> 19        -0.34337
       7 -> 21         0.38384
       8 -> 22         0.18286
      10 -> 25         0.11925
      12 -> 32         0.10051

 Excited State  76:      Singlet-A"    17.4069 eV   71.23 nm  f=0.1445  <S**2>=0.000
       6 -> 15         0.45699
       8 -> 23         0.11023
       9 -> 21        -0.13803
      11 -> 27        -0.10944
      11 -> 30        -0.31786
      11 -> 32        -0.17189
      12 -> 31         0.23666

 Excited State  77:      Singlet-A'    17.4825 eV   70.92 nm  f=0.0068  <S**2>=0.000
       7 -> 16        -0.10821
       7 -> 18         0.37170
       7 -> 19         0.10617
       7 -> 21         0.18694
       8 -> 22         0.29121
       9 -> 23        -0.18726
      10 -> 25        -0.21478
      12 -> 30        -0.13979
      12 -> 32         0.21204

 Excited State  78:      Singlet-A'    17.5943 eV   70.47 nm  f=0.0229  <S**2>=0.000
       6 -> 13         0.11222
       7 -> 18         0.23872
       7 -> 21         0.23900
       9 -> 23         0.47957
      10 -> 24         0.12967
      10 -> 25         0.10860
      11 -> 31         0.20202

 Excited State  79:      Singlet-A'    17.6614 eV   70.20 nm  f=0.0405  <S**2>=0.000
       7 -> 16        -0.10873
       7 -> 18         0.28651
       7 -> 19        -0.10920

 The electronic state is 1-A'.
 Alpha  occ. eigenvalues --  -19.53152 -19.47755 -10.59537  -1.26377  -1.16403
 Alpha  occ. eigenvalues --   -0.80959  -0.66247  -0.62378  -0.59654  -0.53855
 Alpha  occ. eigenvalues --   -0.46280  -0.42169
 Alpha virt. eigenvalues --    0.03649   0.05690   0.07241   0.09659   0.10150
 Alpha virt. eigenvalues --    0.13018   0.13425   0.14693   0.17718   0.19252
 Alpha virt. eigenvalues --    0.24859   0.25654   0.28300   0.31098   0.33114

 Mulliken charges:
               1
     1  O   -0.216633
     2  C    0.309980
     3  O   -0.208221
     4  H    0.215047
     5  H   -0.100172
 Sum of Mulliken charges =  -0.00000

 Dipole moment (field-independent basis, Debye):
    X=             -1.5922    Y=             -0.2600    Z=             -0.0000  Tot=              1.6132
 Quadrupole moment (field-independent basis, Debye-Ang):
   XX=            -22.5441   YY=            -12.7988   ZZ=            -17.1946
   XY=             -0.0589   XZ=              0.0000   YZ=             -0.0000

 Normal termination of Gaussian 16 at Mon Mar 21 20:06:19 2022.
