 Gaussian 16, Revision C.01,
 Gaussian 16:  EM64L-G16RevC.01  3-Jul-2019

 -------------------------------------------------------------------
 #P TD(Nstates=10000) m11/Gen SCF(maxcycles=100) Int(Grid=ultrafine)
 -------------------------------------------------------------------

 ---------------------
 xGDB7_00001_tier4.com
 ---------------------
 Symbolic Z-matrix:
 Charge =  0 Multiplicity = 1

                         Standard orientation:
 ---------------------------------------------------------------------
 Center     Atomic      Atomic             Coordinates (Angstroms)
 Number     Number       Type             X           Y           Z
 ---------------------------------------------------------------------
      1          8           0       -1.028621   -0.395177   -0.000000
      2          7           0       -0.000000    0.526228   -0.000000
      3          6           0        1.132746   -0.030907    0.000000
      4          1           0       -1.816572    0.151791   -0.000000
      5          1           0        1.994262    0.623439    0.000000
      6          1           0        1.254802   -1.111965    0.000000
 ---------------------------------------------------------------------

 SCF Done:  E(RM11) =  -169.612862769     A.U. after   15 cycles

 Excitation energies and oscillator strengths:

 Excited State   1:      Singlet-A"     5.7373 eV  216.10 nm  f=0.0012  <S**2>=0.000
      11 -> 15         0.69089
 This state for optimization and/or second-order correction.
 Total Energy, E(TD-HF/TD-DFT) =  -169.402021718
 Copying the excited state density for this state as the 1-particle RhoCI density.

 Excited State   2:      Singlet-A"     7.0547 eV  175.75 nm  f=0.0013  <S**2>=0.000
      12 -> 13         0.64007
      12 -> 14        -0.22689

 Excited State   3:      Singlet-A'     7.0858 eV  174.98 nm  f=0.1816  <S**2>=0.000
      12 -> 15         0.68520

 Excited State   4:      Singlet-A'     7.5518 eV  164.18 nm  f=0.0149  <S**2>=0.000
      11 -> 13         0.63796
      11 -> 14        -0.23092
      11 -> 16        -0.10063

 Excited State   5:      Singlet-A"     7.9033 eV  156.88 nm  f=0.0168  <S**2>=0.000
      12 -> 13         0.23889
      12 -> 14         0.63562
      12 -> 18         0.11242

 Excited State   6:      Singlet-A'     8.5283 eV  145.38 nm  f=0.0159  <S**2>=0.000
      11 -> 13         0.24077
      11 -> 14         0.64227

 Excited State   7:      Singlet-A"     8.8563 eV  140.00 nm  f=0.0001  <S**2>=0.000
      12 -> 16        -0.24972
      12 -> 18         0.46369
      12 -> 20        -0.26465
      12 -> 21         0.22256
      12 -> 25        -0.25667

 Excited State   8:      Singlet-A"     8.9859 eV  137.98 nm  f=0.0085  <S**2>=0.000
      12 -> 14        -0.10915
      12 -> 16         0.63205
      12 -> 18         0.23227

 Excited State   9:      Singlet-A'     9.4145 eV  131.70 nm  f=0.0806  <S**2>=0.000
      11 -> 16        -0.25725
      11 -> 18         0.34103
      11 -> 20        -0.18792
      11 -> 21         0.20266
      11 -> 25        -0.22162
      12 -> 17         0.39490

 Excited State  10:      Singlet-A"     9.5370 eV  130.00 nm  f=0.0001  <S**2>=0.000
       8 -> 15         0.14246
      10 -> 15         0.66817

 Excited State  11:      Singlet-A'     9.6899 eV  127.95 nm  f=0.0400  <S**2>=0.000
      11 -> 16         0.41539
      11 -> 18        -0.12893
      12 -> 17         0.52003

 Excited State  12:      Singlet-A"    10.0206 eV  123.73 nm  f=0.0358  <S**2>=0.000
      11 -> 17         0.67828

 Excited State  13:      Singlet-A"    10.1009 eV  122.75 nm  f=0.0046  <S**2>=0.000
      12 -> 18         0.35727
      12 -> 19        -0.31840
      12 -> 20         0.43765
      12 -> 21        -0.12796
      12 -> 25         0.13284

 Excited State  14:      Singlet-A'    10.2260 eV  121.24 nm  f=0.1885  <S**2>=0.000
      11 -> 16         0.44881
      11 -> 18         0.34840
      11 -> 19         0.13550
      11 -> 20        -0.21685
      11 -> 25        -0.13059
      12 -> 17        -0.22961

 Excited State  15:      Singlet-A"    10.4610 eV  118.52 nm  f=0.0003  <S**2>=0.000
      12 -> 18         0.21681
      12 -> 19         0.58769
      12 -> 20         0.20670
      12 -> 21        -0.13192

 Excited State  16:      Singlet-A'    10.8131 eV  114.66 nm  f=0.0056  <S**2>=0.000
       9 -> 15         0.14168
      11 -> 18         0.41253
      11 -> 20         0.50164
      11 -> 21        -0.10401
      11 -> 25         0.12022

 Excited State  17:      Singlet-A"    10.8904 eV  113.85 nm  f=0.0073  <S**2>=0.000
       8 -> 15         0.23171
      12 -> 18        -0.11696
      12 -> 20         0.30937
      12 -> 21         0.50414
      12 -> 24         0.13566

 Excited State  18:      Singlet-A'    11.0251 eV  112.46 nm  f=0.0490  <S**2>=0.000
       9 -> 15        -0.25080
      11 -> 16        -0.15046
      11 -> 19         0.59080
      11 -> 21        -0.11545

 Excited State  19:      Singlet-A'    11.1325 eV  111.37 nm  f=0.0443  <S**2>=0.000
       9 -> 15         0.59295
      11 -> 19         0.27061

 Excited State  20:      Singlet-A"    11.2415 eV  110.29 nm  f=0.0110  <S**2>=0.000
       8 -> 15         0.54219
       9 -> 13         0.27640
       9 -> 14        -0.14774
      10 -> 15        -0.10695
      12 -> 21        -0.14390

 Excited State  21:      Singlet-A"    11.3673 eV  109.07 nm  f=0.0018  <S**2>=0.000
       8 -> 15        -0.29610
       9 -> 13         0.50910
       9 -> 14        -0.23304
      12 -> 20         0.15678
      12 -> 21         0.13502

 Excited State  22:      Singlet-A'    11.5510 eV  107.34 nm  f=0.1364  <S**2>=0.000
       8 -> 14         0.10237
      10 -> 13         0.62318
      10 -> 14         0.19335

 Excited State  23:      Singlet-A'    11.6508 eV  106.42 nm  f=0.0480  <S**2>=0.000
      11 -> 18        -0.15943
      11 -> 20         0.29287
      11 -> 21         0.56270

 Excited State  24:      Singlet-A'    11.9062 eV  104.13 nm  f=0.0763  <S**2>=0.000
       7 -> 13        -0.11172
       8 -> 13         0.22439
      10 -> 13        -0.11679
      10 -> 14         0.59207
      12 -> 23        -0.13596

 Excited State  25:      Singlet-A"    12.3093 eV  100.72 nm  f=0.0082  <S**2>=0.000
       9 -> 14        -0.18803
       9 -> 18        -0.24668
       9 -> 20         0.15327
       9 -> 21        -0.12216
       9 -> 25         0.13027
      12 -> 18         0.10459
      12 -> 20        -0.14699
      12 -> 21         0.21665
      12 -> 25         0.47089

 Excited State  26:      Singlet-A'    12.4827 eV   99.32 nm  f=0.0766  <S**2>=0.000
       8 -> 13         0.16040
      12 -> 22         0.57405
      12 -> 23         0.31923

 Excited State  27:      Singlet-A"    12.5640 eV   98.68 nm  f=0.0531  <S**2>=0.000
       9 -> 13         0.32728
       9 -> 14         0.45662
      12 -> 24         0.28388
      12 -> 25         0.17102

 Excited State  28:      Singlet-A'    12.6687 eV   97.87 nm  f=0.1690  <S**2>=0.000
       8 -> 13         0.41596
       8 -> 14        -0.12101
      10 -> 13         0.17234
      10 -> 14        -0.18786
      10 -> 16        -0.13827
      10 -> 18        -0.19108
      10 -> 20         0.11238
      12 -> 23        -0.33180

 Excited State  29:      Singlet-A"    12.7254 eV   97.43 nm  f=0.0259  <S**2>=0.000
       7 -> 15        -0.13578
       9 -> 14        -0.32409
       9 -> 20         0.10512
      12 -> 21        -0.19160
      12 -> 24         0.52813
      12 -> 25        -0.11051

 Excited State  30:      Singlet-A'    12.8392 eV   96.57 nm  f=0.0473  <S**2>=0.000
       8 -> 13         0.30388
       8 -> 14        -0.21145
      10 -> 18         0.20471
      12 -> 22        -0.31263
      12 -> 23         0.40102

 Excited State  31:      Singlet-A"    12.8553 eV   96.45 nm  f=0.0206  <S**2>=0.000
       7 -> 15         0.16693
      11 -> 22         0.62483
      11 -> 23         0.15361
      11 -> 31         0.12787

 Excited State  32:      Singlet-A"    13.0322 eV   95.14 nm  f=0.0275  <S**2>=0.000
       7 -> 15         0.24208
      10 -> 17        -0.16284
      11 -> 22        -0.22717
      11 -> 23         0.56693

 Excited State  33:      Singlet-A"    13.0873 eV   94.74 nm  f=0.0112  <S**2>=0.000
       7 -> 15         0.57170
       8 -> 15        -0.11603
      11 -> 23        -0.28940

 Excited State  34:      Singlet-A'    13.0950 eV   94.68 nm  f=0.0268  <S**2>=0.000
      10 -> 18        -0.16985
      10 -> 19         0.12122
      10 -> 21        -0.10848
      11 -> 18        -0.10250
      11 -> 20         0.11286
      11 -> 21        -0.19988
      11 -> 24         0.48952
      11 -> 25        -0.25358
      12 -> 23         0.13406

 Excited State  35:      Singlet-A'    13.3102 eV   93.15 nm  f=0.0295  <S**2>=0.000
       8 -> 13         0.15801
      10 -> 14        -0.10465
      10 -> 16         0.26312
      10 -> 18         0.19693
      10 -> 20        -0.13338
      11 -> 24         0.36925
      11 -> 25         0.32807
      12 -> 23        -0.15554

 Excited State  36:      Singlet-A"    13.3340 eV   92.98 nm  f=0.0147  <S**2>=0.000
       9 -> 16         0.50303
       9 -> 18        -0.20396
       9 -> 20         0.15474
       9 -> 21        -0.16717
       9 -> 25         0.18343
      10 -> 17        -0.12839
      12 -> 24        -0.15407
      12 -> 25        -0.20007

 Excited State  37:      Singlet-A'    13.4039 eV   92.50 nm  f=0.0064  <S**2>=0.000
       8 -> 14        -0.10684
       8 -> 16        -0.10416
       9 -> 17        -0.10490
      10 -> 16         0.49819
      10 -> 18         0.13562
      11 -> 20         0.11063
      11 -> 24        -0.16416
      11 -> 25        -0.30860

 Excited State  38:      Singlet-A"    13.5630 eV   91.41 nm  f=0.0001  <S**2>=0.000
       9 -> 14        -0.17474
       9 -> 16         0.40024
       9 -> 18         0.31833
       9 -> 20        -0.18733
       9 -> 21         0.11937
       9 -> 25        -0.18477
       9 -> 26        -0.10338
      12 -> 25         0.19170
      12 -> 26         0.21210

 Excited State  39:      Singlet-A'    13.6298 eV   90.97 nm  f=0.0101  <S**2>=0.000
       8 -> 13         0.20880
       8 -> 14         0.32487
       9 -> 17        -0.10965
      10 -> 16         0.27594
      10 -> 18        -0.28635
      10 -> 19         0.19319
      10 -> 21        -0.12316
      11 -> 21         0.11763
      11 -> 25         0.14186
      11 -> 26         0.14702
      12 -> 23         0.13003

 Excited State  40:      Singlet-A"    13.6973 eV   90.52 nm  f=0.0025  <S**2>=0.000
       9 -> 16        -0.19476
      10 -> 17        -0.26608
      11 -> 23        -0.11478
      12 -> 25        -0.11662
      12 -> 26         0.56325

 Excited State  41:      Singlet-A'    13.7640 eV   90.08 nm  f=0.0149  <S**2>=0.000
       8 -> 13         0.18573
       8 -> 14         0.41939
       9 -> 17         0.18621
      10 -> 18         0.27177
      10 -> 21         0.11305
      11 -> 25        -0.23462
      11 -> 26         0.16155

 Excited State  42:      Singlet-A"    13.7821 eV   89.96 nm  f=0.0020  <S**2>=0.000
       8 -> 17        -0.11280
      10 -> 17         0.56878
      11 -> 23         0.14807
      12 -> 26         0.29419

 Excited State  43:      Singlet-A'    14.0431 eV   88.29 nm  f=0.0377  <S**2>=0.000
       8 -> 14        -0.23142
       9 -> 17         0.49013
      10 -> 19         0.13507
      11 -> 26         0.29640

 Excited State  44:      Singlet-A'    14.1860 eV   87.40 nm  f=0.0081  <S**2>=0.000
       8 -> 14        -0.13440
       8 -> 16        -0.10268
       9 -> 17        -0.30647
      10 -> 19        -0.18682
      11 -> 24         0.12218
      11 -> 26         0.47639
      12 -> 27         0.17307

 Excited State  45:      Singlet-A'    14.3181 eV   86.59 nm  f=0.0688  <S**2>=0.000
      10 -> 19         0.10760
      10 -> 20        -0.11575
      11 -> 26        -0.18685
      12 -> 27         0.61117

 Excited State  46:      Singlet-A'    14.6435 eV   84.67 nm  f=0.0168  <S**2>=0.000
       7 -> 13         0.15038
       8 -> 18         0.18201
       8 -> 21         0.15271
       9 -> 17         0.12086
      10 -> 14         0.12381
      10 -> 19        -0.34376
      10 -> 20         0.37905
      10 -> 24        -0.12511
      12 -> 27         0.17174

 Excited State  47:      Singlet-A"    14.6652 eV   84.54 nm  f=0.0536  <S**2>=0.000
       6 -> 15        -0.12646
       9 -> 13        -0.12401
       9 -> 18         0.43050
       9 -> 19        -0.25849
       9 -> 20         0.31316
       9 -> 21        -0.22848
      12 -> 30         0.11723

 Excited State  48:      Singlet-A'    14.6958 eV   84.37 nm  f=0.2340  <S**2>=0.000
       7 -> 13         0.12402
       8 -> 19         0.11597
       9 -> 17        -0.11131
      10 -> 18         0.26651
      10 -> 19         0.43358
      10 -> 20         0.35780
      12 -> 22         0.10785

 Excited State  49:      Singlet-A"    14.7500 eV   84.06 nm  f=0.0000  <S**2>=0.000
       8 -> 17         0.12736
      10 -> 23        -0.13077
      11 -> 27         0.65268
      11 -> 31        -0.10905

 Excited State  50:      Singlet-A'    14.8408 eV   83.54 nm  f=0.0007  <S**2>=0.000
       7 -> 13        -0.32733
       8 -> 16         0.54494
      10 -> 16         0.13414
      10 -> 20         0.12434

 Excited State  51:      Singlet-A"    14.9728 eV   82.81 nm  f=0.0035  <S**2>=0.000
       8 -> 17         0.32450
       9 -> 18         0.11707
      12 -> 28         0.49263
      12 -> 29         0.10948
      12 -> 30        -0.20582
      12 -> 32         0.10060

 Excited State  52:      Singlet-A'    15.0174 eV   82.56 nm  f=0.2496  <S**2>=0.000
       7 -> 13        -0.37478
       8 -> 16        -0.20084
       8 -> 18         0.40062
       8 -> 20        -0.12549
       8 -> 21         0.12382
       8 -> 25        -0.11416
      10 -> 19         0.11186
      10 -> 20        -0.11601
      12 -> 27         0.10630

 Excited State  53:      Singlet-A"    15.0457 eV   82.41 nm  f=0.0000  <S**2>=0.000
       6 -> 15        -0.10593
       8 -> 17         0.55124
      10 -> 17         0.10531
      11 -> 27        -0.17398
      12 -> 28        -0.29639

 Excited State  54:      Singlet-A'    15.0660 eV   82.29 nm  f=0.0756  <S**2>=0.000
       7 -> 13        -0.24581
       8 -> 16        -0.20401
       8 -> 18        -0.12364
       8 -> 20         0.22104
       8 -> 25         0.10114
       9 -> 17         0.12055
      10 -> 18        -0.12774
      10 -> 20         0.27053
      10 -> 21         0.33658
      10 -> 25        -0.12545

 Excited State  55:      Singlet-A'    15.2331 eV   81.39 nm  f=0.0484  <S**2>=0.000
       7 -> 13         0.24780
       8 -> 16         0.18307
       8 -> 18         0.29418
      10 -> 18        -0.15156
      10 -> 20        -0.10356
      10 -> 21         0.34734
      11 -> 28         0.30889

 Excited State  56:      Singlet-A"    15.2447 eV   81.33 nm  f=0.0003  <S**2>=0.000
       8 -> 17         0.11161
       9 -> 18         0.13529
       9 -> 19         0.47425
       9 -> 20        -0.12259
       9 -> 21        -0.32289
       9 -> 24        -0.11801
      12 -> 30         0.24436

 Excited State  57:      Singlet-A"    15.4121 eV   80.45 nm  f=0.0181  <S**2>=0.000
       6 -> 15        -0.22037
       9 -> 18         0.13957
       9 -> 19         0.39306
       9 -> 20         0.27601
       9 -> 21         0.17992
       9 -> 24         0.10479
      12 -> 30        -0.29556

 Excited State  58:      Singlet-A'    15.5431 eV   79.77 nm  f=0.0886  <S**2>=0.000
       7 -> 14         0.60377
      10 -> 18        -0.10823
      11 -> 28        -0.14391

 Excited State  59:      Singlet-A"    15.6401 eV   79.27 nm  f=0.1263  <S**2>=0.000
       9 -> 20         0.30280
       9 -> 21         0.30822
      12 -> 28         0.19975
      12 -> 30         0.46448

 Excited State  60:      Singlet-A'    15.7403 eV   78.77 nm  f=0.0642  <S**2>=0.000
       7 -> 13        -0.10604
       7 -> 14         0.15272
       8 -> 18        -0.15742
      10 -> 21        -0.19069
      11 -> 28         0.51251
      11 -> 30        -0.14870
      12 -> 31         0.19535

 Excited State  61:      Singlet-A"    15.8896 eV   78.03 nm  f=0.0028  <S**2>=0.000
       6 -> 15         0.39540
       9 -> 20         0.17720
      10 -> 22        -0.22024
      11 -> 31         0.20641
      12 -> 29        -0.28295
      12 -> 30        -0.13202
      12 -> 32        -0.25148

 Excited State  62:      Singlet-A'    15.9127 eV   77.92 nm  f=0.0114  <S**2>=0.000
       7 -> 14         0.13607
       8 -> 18         0.22259
       8 -> 19        -0.26484
       8 -> 20         0.36656
      10 -> 21        -0.23134
      11 -> 28         0.10109
      12 -> 31        -0.26806

 Excited State  63:      Singlet-A"    15.9541 eV   77.71 nm  f=0.0040  <S**2>=0.000
       6 -> 15         0.23412
       9 -> 25         0.13767
      10 -> 22        -0.20742
      11 -> 31         0.18021
      12 -> 28        -0.20669
      12 -> 29         0.46174
      12 -> 32         0.22361

 Excited State  64:      Singlet-A'    16.0880 eV   77.07 nm  f=0.0636  <S**2>=0.000
       7 -> 18         0.22962
       8 -> 18         0.18269
       8 -> 20         0.19167
       8 -> 21        -0.12637
      10 -> 21        -0.14232
      10 -> 25        -0.10127
      12 -> 31         0.48173

 Excited State  65:      Singlet-A"    16.2153 eV   76.46 nm  f=0.1936  <S**2>=0.000
       6 -> 15        -0.29223
       9 -> 20        -0.14579
      10 -> 22        -0.17019
      11 -> 31         0.46453
      12 -> 28         0.12827
      12 -> 29        -0.14812
      12 -> 32         0.16411

 Excited State  66:      Singlet-A'    16.2416 eV   76.34 nm  f=0.0811  <S**2>=0.000
       7 -> 18        -0.13900
       8 -> 19        -0.11196
       8 -> 20         0.10811
      10 -> 25         0.14277
      11 -> 26         0.10748
      11 -> 28         0.11507
      11 -> 29        -0.18678
      11 -> 30         0.49518
      12 -> 31         0.23925

 Excited State  67:      Singlet-A"    16.2633 eV   76.24 nm  f=0.0277  <S**2>=0.000
       8 -> 22         0.11865
      10 -> 22         0.41312
      10 -> 23        -0.10489
      11 -> 22        -0.10621
      11 -> 31         0.34147
      12 -> 29         0.19539
      12 -> 32        -0.29970

 Excited State  68:      Singlet-A'    16.2922 eV   76.10 nm  f=0.1215  <S**2>=0.000
       6 -> 13        -0.10123
       7 -> 18         0.14649
       8 -> 19         0.44840
      10 -> 21        -0.12428
      10 -> 25        -0.10422
      11 -> 28         0.14594
      11 -> 30         0.31754
      12 -> 31        -0.16526

 Excited State  69:      Singlet-A"    16.4247 eV   75.49 nm  f=0.0001  <S**2>=0.000
       6 -> 15        -0.14652
       7 -> 17         0.22775
      10 -> 23         0.40579
      10 -> 27        -0.12335
      11 -> 31        -0.14045
      12 -> 29         0.16763
      12 -> 32        -0.30380
      12 -> 33        -0.21995

 Excited State  70:      Singlet-A"    16.4570 eV   75.34 nm  f=0.0076  <S**2>=0.000
       7 -> 17         0.23991
      10 -> 22         0.31524
      10 -> 23         0.34808
      12 -> 29        -0.11817
      12 -> 32         0.24602
      12 -> 33         0.25930

 Excited State  71:      Singlet-A'    16.4804 eV   75.23 nm  f=0.1006  <S**2>=0.000
       6 -> 13         0.10990
       7 -> 18        -0.13057
       7 -> 19         0.13309
       8 -> 19         0.33851
       8 -> 20         0.35486
       8 -> 21         0.17354
      10 -> 24        -0.17600
      11 -> 29        -0.13416
      11 -> 30        -0.17436

 Excited State  72:      Singlet-A'    16.6806 eV   74.33 nm  f=0.0094  <S**2>=0.000
       7 -> 16         0.48220
       7 -> 18        -0.13883
       7 -> 21        -0.12393
      11 -> 28        -0.10397
      11 -> 29         0.28907
      11 -> 32         0.24400

 Excited State  73:      Singlet-A'    16.7156 eV   74.17 nm  f=0.0498  <S**2>=0.000
       7 -> 16         0.30391
       7 -> 18         0.28427
       8 -> 18        -0.10382
       8 -> 21         0.32028
       9 -> 23         0.16268
      11 -> 29        -0.31572

 Excited State  74:      Singlet-A'    16.7746 eV   73.91 nm  f=0.1081  <S**2>=0.000
       7 -> 16        -0.26838
       8 -> 21         0.31710
       9 -> 23         0.17755
      11 -> 29         0.35172
      11 -> 30         0.14337
      11 -> 32         0.13592
      12 -> 35         0.14180

 Excited State  75:      Singlet-A"    16.8596 eV   73.54 nm  f=0.2082  <S**2>=0.000
       6 -> 15        -0.16083
       9 -> 21         0.12985
       9 -> 24        -0.15424
       9 -> 25         0.12090
      10 -> 22        -0.13909
      12 -> 29         0.10696
      12 -> 32        -0.20690
      12 -> 33         0.52037

 Excited State  76:      Singlet-A'    16.9113 eV   73.31 nm  f=0.0156  <S**2>=0.000
       6 -> 14         0.10108
       7 -> 16        -0.11279
       7 -> 20        -0.11693
       8 -> 20        -0.10186
       8 -> 21        -0.13936
       9 -> 22         0.14130
       9 -> 23         0.38031
      10 -> 24        -0.18092
      11 -> 29        -0.18908
      11 -> 32         0.35964

 Excited State  77:      Singlet-A'    17.0183 eV   72.85 nm  f=0.0876  <S**2>=0.000
       6 -> 13         0.12247
       6 -> 14        -0.15205
       7 -> 19        -0.11695
       9 -> 22        -0.16078
       9 -> 23        -0.25330
      10 -> 24         0.21093
      11 -> 29        -0.20495
      11 -> 32         0.42357
      11 -> 33         0.12578

 Excited State  78:      Singlet-A"    17.1202 eV   72.42 nm  f=0.0002  <S**2>=0.000
       7 -> 17         0.43518
       9 -> 24        -0.20459

 The electronic state is 1-A'.
 Alpha  occ. eigenvalues --  -19.50993 -14.68136 -10.47886  -1.23202  -0.99939
 Alpha  occ. eigenvalues --   -0.74105  -0.66288  -0.59757  -0.55159  -0.53988
 Alpha  occ. eigenvalues --   -0.40323  -0.38693
 Alpha virt. eigenvalues --    0.04494   0.06155   0.06956   0.11166   0.13777
 Alpha virt. eigenvalues --    0.14457   0.18069   0.19483   0.20982   0.25872
 Alpha virt. eigenvalues --    0.26193   0.26572   0.28312   0.31260   0.31991

 Mulliken charges:
               1
     1  O   -0.364994
     2  N   -0.014268
     3  C    0.205230
     4  H    0.241394
     5  H   -0.066985
     6  H   -0.000376
 Sum of Mulliken charges =  -0.00000

 Dipole moment (field-independent basis, Debye):
    X=              0.3806    Y=             -0.1414    Z=              0.0000  Tot=              0.4060
 Quadrupole moment (field-independent basis, Debye-Ang):
   XX=            -11.8102   YY=            -19.5268   ZZ=            -19.1818
   XY=             -1.6485   XZ=              0.0000   YZ=              0.0000

 Normal termination of Gaussian 16 at Mon Mar 21 20:18:55 2022.
