 Gaussian 16, Revision C.01,
 Gaussian 16:  EM64L-G16RevC.01  3-Jul-2019

 -------------------------------------------------------------------
 #P TD(Nstates=10000) m11/Gen SCF(maxcycles=100) Int(Grid=ultrafine)
 -------------------------------------------------------------------

 ---------------------
 xGDB7_00001_tier4.com
 ---------------------
 Symbolic Z-matrix:
 Charge =  0 Multiplicity = 1

                         Standard orientation:
 ---------------------------------------------------------------------
 Center     Atomic      Atomic             Coordinates (Angstroms)
 Number     Number       Type             X           Y           Z
 ---------------------------------------------------------------------
      1          6           0        0.000000    1.163894   -0.193136
      2          8           0       -0.000000   -0.000000    0.585449
      3          6           0       -0.000000   -1.163894   -0.193136
      4          1           0        0.000000    2.015478    0.485827
      5          1           0       -0.890390    1.219204   -0.834404
      6          1           0        0.890390    1.219204   -0.834404
      7          1           0       -0.000000   -2.015478    0.485827
      8          1           0        0.890390   -1.219204   -0.834404
      9          1           0       -0.890390   -1.219204   -0.834404
 ---------------------------------------------------------------------

 SCF Done:  E(RM11) =  -154.826381981     A.U. after   14 cycles

 Excitation energies and oscillator strengths:

 Excited State   1:      Singlet-B1     7.1222 eV  174.08 nm  f=0.0183  <S**2>=0.000
      13 -> 14         0.66341
      13 -> 16        -0.11067
      13 -> 19        -0.18721
 This state for optimization and/or second-order correction.
 Total Energy, E(TD-HF/TD-DFT) =  -154.564644568
 Copying the excited state density for this state as the 1-particle RhoCI density.

 Excited State   2:      Singlet-A2     8.0238 eV  154.52 nm  f=0.0000  <S**2>=0.000
      13 -> 15         0.69099

 Excited State   3:      Singlet-B1     8.2628 eV  150.05 nm  f=0.0361  <S**2>=0.000
      13 -> 14         0.18962
      13 -> 16         0.57891
      13 -> 19         0.31269

 Excited State   4:      Singlet-A1     8.6530 eV  143.28 nm  f=0.0358  <S**2>=0.000
      13 -> 17         0.69279

 Excited State   5:      Singlet-B1     8.7209 eV  142.17 nm  f=0.0206  <S**2>=0.000
      13 -> 14         0.10417
      13 -> 16        -0.36619
      13 -> 19         0.56721

 Excited State   6:      Singlet-A1     8.8293 eV  140.42 nm  f=0.0065  <S**2>=0.000
      12 -> 14         0.65221
      12 -> 16        -0.11187
      12 -> 19        -0.16546

 Excited State   7:      Singlet-A2     9.3052 eV  133.24 nm  f=0.0000  <S**2>=0.000
      13 -> 18         0.67884

 Excited State   8:      Singlet-B2     9.5279 eV  130.13 nm  f=0.0030  <S**2>=0.000
      11 -> 14         0.29368
      12 -> 15         0.62504

 Excited State   9:      Singlet-A1     9.9047 eV  125.18 nm  f=0.0438  <S**2>=0.000
      12 -> 14         0.16522
      12 -> 16         0.51639
      12 -> 19         0.34560
      12 -> 23         0.10833
      13 -> 20         0.17346

 Excited State  10:      Singlet-B1     9.9713 eV  124.34 nm  f=0.0051  <S**2>=0.000
      12 -> 17         0.14627
      13 -> 21         0.56963
      13 -> 23         0.35612

 Excited State  11:      Singlet-B1    10.2607 eV  120.83 nm  f=0.0416  <S**2>=0.000
      12 -> 17         0.67688
      13 -> 21        -0.16025

 Excited State  12:      Singlet-A1    10.2652 eV  120.78 nm  f=0.1056  <S**2>=0.000
      11 -> 15        -0.11797
      12 -> 16        -0.10879
      12 -> 19        -0.10132
      13 -> 20         0.65130
      13 -> 26         0.10589

 Excited State  13:      Singlet-B2    10.4388 eV  118.77 nm  f=0.0266  <S**2>=0.000
      11 -> 14         0.57085
      11 -> 19        -0.18650
      12 -> 15        -0.29206
      13 -> 22        -0.15633

 Excited State  14:      Singlet-A1    10.5942 eV  117.03 nm  f=0.0073  <S**2>=0.000
      11 -> 15         0.10839
      12 -> 16        -0.41776
      12 -> 19         0.53258

 Excited State  15:      Singlet-A2    10.6466 eV  116.45 nm  f=0.0000  <S**2>=0.000
      10 -> 14         0.61880
      10 -> 19        -0.20324
      13 -> 24         0.12054

 Excited State  16:      Singlet-B2    10.6923 eV  115.96 nm  f=0.1073  <S**2>=0.000
      11 -> 14         0.17560
      12 -> 18        -0.15234
      13 -> 22         0.62627
      13 -> 25        -0.13336

 Excited State  17:      Singlet-B1    10.7767 eV  115.05 nm  f=0.0025  <S**2>=0.000
      13 -> 19        -0.11633
      13 -> 21        -0.35949
      13 -> 23         0.55791

 Excited State  18:      Singlet-B2    10.8835 eV  113.92 nm  f=0.0590  <S**2>=0.000
      11 -> 16        -0.23791
      11 -> 19        -0.17073
      12 -> 18         0.58320
      13 -> 22         0.17056

 Excited State  19:      Singlet-A1    11.1814 eV  110.88 nm  f=0.0148  <S**2>=0.000
       8 -> 14        -0.16089
      11 -> 15         0.63403
      12 -> 14        -0.14745
      12 -> 19        -0.13062

 Excited State  20:      Singlet-A2    11.2359 eV  110.35 nm  f=0.0000  <S**2>=0.000
      10 -> 14        -0.18983
      10 -> 19        -0.16547
      13 -> 24         0.60578
      13 -> 27         0.18915
      13 -> 41        -0.10855

 Excited State  21:      Singlet-B2    11.5126 eV  107.69 nm  f=0.0053  <S**2>=0.000
      10 -> 20        -0.10225
      13 -> 22         0.15988
      13 -> 25         0.66613

 Excited State  22:      Singlet-B1    11.5357 eV  107.48 nm  f=0.0704  <S**2>=0.000
       7 -> 14        -0.19035
      10 -> 15         0.64745
      12 -> 20         0.10546

 Excited State  23:      Singlet-A2    11.5955 eV  106.92 nm  f=0.0000  <S**2>=0.000
      10 -> 14        -0.10865
      10 -> 16        -0.13605
      11 -> 17         0.37897
      12 -> 22        -0.14910
      13 -> 24        -0.18305
      13 -> 27         0.37987
      13 -> 28         0.20671
      13 -> 33         0.14556

 Excited State  24:      Singlet-B1    11.6109 eV  106.78 nm  f=0.0802  <S**2>=0.000
      12 -> 20         0.67095

 Excited State  25:      Singlet-A2    11.6472 eV  106.45 nm  f=0.0000  <S**2>=0.000
      11 -> 17         0.47215
      12 -> 22        -0.26891
      13 -> 24         0.17848
      13 -> 27        -0.26817
      13 -> 28        -0.16900
      13 -> 33        -0.13095

 Excited State  26:      Singlet-B2    11.7305 eV  105.69 nm  f=0.1551  <S**2>=0.000
      11 -> 14         0.13044
      11 -> 16         0.26745
      11 -> 19         0.50624
      12 -> 18         0.29836
      12 -> 24        -0.11098

 Excited State  27:      Singlet-A1    11.9113 eV  104.09 nm  f=0.0938  <S**2>=0.000
      12 -> 16        -0.10087
      12 -> 21         0.60144
      12 -> 23         0.30888

 Excited State  28:      Singlet-B2    12.0384 eV  102.99 nm  f=0.0776  <S**2>=0.000
      10 -> 17        -0.11149
      11 -> 16         0.56980
      11 -> 19        -0.31290
      12 -> 18         0.11453
      12 -> 24         0.10225

 Excited State  29:      Singlet-A2    12.1704 eV  101.87 nm  f=0.0000  <S**2>=0.000
      10 -> 16         0.44421
      10 -> 19         0.36403
      10 -> 23         0.15669
      12 -> 22        -0.17751
      13 -> 27         0.23956

 Excited State  30:      Singlet-A1    12.2681 eV  101.06 nm  f=0.0123  <S**2>=0.000
      11 -> 18         0.13948
      12 -> 21         0.21620
      12 -> 23        -0.20671
      13 -> 26         0.58751

 Excited State  31:      Singlet-A2    12.3642 eV  100.28 nm  f=0.0000  <S**2>=0.000
      10 -> 16         0.20868
      11 -> 17         0.30060
      11 -> 20         0.12630
      12 -> 22         0.51455
      12 -> 25        -0.21080

 Excited State  32:      Singlet-A2    12.4955 eV   99.22 nm  f=0.0000  <S**2>=0.000
      10 -> 14        -0.17309
      10 -> 16         0.40188
      10 -> 19        -0.36864
      10 -> 21        -0.16723
      11 -> 20        -0.15819
      12 -> 25         0.12605
      13 -> 24        -0.12167
      13 -> 27        -0.14330
      13 -> 28         0.16346

 Excited State  33:      Singlet-B2    12.5013 eV   99.18 nm  f=0.0004  <S**2>=0.000
      10 -> 17         0.64871
      10 -> 20        -0.11936
      11 -> 16         0.14123

 Excited State  34:      Singlet-A2    12.7365 eV   97.35 nm  f=0.0000  <S**2>=0.000
      10 -> 16        -0.12956
      10 -> 19         0.26386
      10 -> 21        -0.15317
      11 -> 20        -0.29824
      12 -> 22         0.25383
      12 -> 25         0.33375
      13 -> 24         0.11051
      13 -> 28         0.20065

 Excited State  35:      Singlet-A1    12.7966 eV   96.89 nm  f=0.1090  <S**2>=0.000
       8 -> 19         0.10472
      11 -> 18         0.56432
      12 -> 23        -0.17085
      13 -> 26        -0.23937

 Excited State  36:      Singlet-A2    12.9589 eV   95.67 nm  f=0.0000  <S**2>=0.000
      10 -> 19         0.12615
      10 -> 21        -0.14755
      11 -> 20         0.29890
      12 -> 22        -0.10571
      12 -> 25        -0.23490
      13 -> 27        -0.30826
      13 -> 28         0.37376
      13 -> 33         0.14613

 Excited State  37:      Singlet-B1    13.0139 eV   95.27 nm  f=0.0015  <S**2>=0.000
       7 -> 14        -0.17688
       7 -> 16         0.19001
       7 -> 19         0.10678
       7 -> 23         0.11601
      10 -> 18         0.57591
      11 -> 22        -0.11022

 Excited State  38:      Singlet-A1    13.0438 eV   95.05 nm  f=0.0093  <S**2>=0.000
       8 -> 14        -0.10345
       9 -> 15        -0.13111
      11 -> 18         0.27366
      12 -> 21        -0.23085
      12 -> 23         0.51758
      13 -> 26         0.19719

 Excited State  39:      Singlet-B2    13.0675 eV   94.88 nm  f=0.0395  <S**2>=0.000
      11 -> 19         0.12012
      11 -> 21         0.22744
      11 -> 23         0.18818
      12 -> 24         0.57649
      12 -> 27         0.15703

 Excited State  40:      Singlet-B2    13.1695 eV   94.14 nm  f=0.0118  <S**2>=0.000
       9 -> 14         0.44633
      11 -> 21        -0.38957
      11 -> 23        -0.12330
      12 -> 24         0.27580
      12 -> 27        -0.13815

 Excited State  41:      Singlet-B1    13.1753 eV   94.10 nm  f=0.0084  <S**2>=0.000
      11 -> 22        -0.20375
      12 -> 26         0.14549
      13 -> 19         0.10741
      13 -> 29        -0.23435
      13 -> 30         0.52152
      13 -> 34         0.17829
      13 -> 44        -0.10249

 Excited State  42:      Singlet-B2    13.2424 eV   93.63 nm  f=0.0869  <S**2>=0.000
       8 -> 15        -0.13194
       9 -> 14         0.44885
      10 -> 20         0.11710
      11 -> 21         0.33783
      12 -> 24        -0.14373
      12 -> 27         0.27797
      12 -> 28         0.11522

 Excited State  43:      Singlet-B1    13.2992 eV   93.23 nm  f=0.0076  <S**2>=0.000
       8 -> 17         0.16770
      10 -> 18         0.18339
      11 -> 22         0.47532
      12 -> 26        -0.32309
      13 -> 29        -0.16676
      13 -> 30         0.18946

 Excited State  44:      Singlet-A1    13.3912 eV   92.59 nm  f=0.0196  <S**2>=0.000
       8 -> 14         0.59473
       8 -> 19        -0.23087
      11 -> 15         0.15500
      11 -> 18         0.14193

 Excited State  45:      Singlet-B1    13.4590 eV   92.12 nm  f=0.1030  <S**2>=0.000
       7 -> 14         0.59454
       7 -> 19        -0.19058
      10 -> 15         0.17615
      10 -> 18         0.15686
      11 -> 22        -0.13838

 Excited State  46:      Singlet-A2    13.4602 eV   92.11 nm  f=0.0000  <S**2>=0.000
      11 -> 20         0.45810
      12 -> 25         0.48845

 Excited State  47:      Singlet-B2    13.6349 eV   90.93 nm  f=0.0771  <S**2>=0.000
       9 -> 14        -0.21401
      10 -> 17         0.14354
      10 -> 20         0.34406
      11 -> 21        -0.25584
      11 -> 23        -0.22484
      12 -> 27         0.28845
      12 -> 28         0.20435
      12 -> 33         0.12006

 Excited State  48:      Singlet-A2    13.7428 eV   90.22 nm  f=0.0000  <S**2>=0.000
       7 -> 15        -0.11256
      10 -> 21         0.54717
      10 -> 23         0.21912
      11 -> 20        -0.14966
      13 -> 27        -0.20089
      13 -> 28         0.15359
      13 -> 33         0.10487

 Excited State  49:      Singlet-B1    13.7991 eV   89.85 nm  f=0.0617  <S**2>=0.000
      11 -> 22         0.16091
      11 -> 25        -0.20684
      12 -> 26         0.16901
      13 -> 29         0.54377
      13 -> 30         0.22133
      13 -> 34         0.12608

 Excited State  50:      Singlet-B2    13.8226 eV   89.70 nm  f=0.2421  <S**2>=0.000
       8 -> 15         0.17802
      10 -> 17         0.10410
      10 -> 20         0.50608
      11 -> 23         0.27104
      12 -> 27        -0.23208

 Excited State  51:      Singlet-A1    14.0037 eV   88.54 nm  f=0.0279  <S**2>=0.000
       8 -> 14        -0.13918
       8 -> 19        -0.29089
       9 -> 15         0.43542
      10 -> 22        -0.16485
      11 -> 24        -0.33972

 Excited State  52:      Singlet-B1    14.0190 eV   88.44 nm  f=0.0792  <S**2>=0.000
      11 -> 22         0.23359
      11 -> 25        -0.22089
      12 -> 26         0.47730
      13 -> 29        -0.29936
      13 -> 30        -0.12917

 Excited State  53:      Singlet-A1    14.1614 eV   87.55 nm  f=0.0081  <S**2>=0.000
       7 -> 17         0.14607
       8 -> 14         0.16560
       8 -> 19         0.12209
       9 -> 15         0.45555
      10 -> 22         0.34536
      10 -> 25        -0.11915
      11 -> 24         0.17910

 Excited State  54:      Singlet-B2    14.1763 eV   87.46 nm  f=0.0936  <S**2>=0.000
       8 -> 15         0.36754
       9 -> 14         0.10457
       9 -> 16         0.12358
      10 -> 20        -0.11376
      11 -> 21        -0.20458
      11 -> 23         0.31330
      12 -> 27         0.35543

 Excited State  55:      Singlet-A2    14.2183 eV   87.20 nm  f=0.0000  <S**2>=0.000
       7 -> 15         0.29490
       7 -> 18         0.10268
      10 -> 21        -0.14128
      10 -> 23         0.30915
      13 -> 28        -0.19605
      13 -> 33         0.43522

 Excited State  56:      Singlet-A2    14.2814 eV   86.82 nm  f=0.0000  <S**2>=0.000
       7 -> 15         0.56880
      10 -> 19         0.10335
      13 -> 28         0.25533
      13 -> 33        -0.22187

 Excited State  57:      Singlet-B1    14.3632 eV   86.32 nm  f=0.0028  <S**2>=0.000
       7 -> 14         0.16044
       7 -> 16         0.10303
       7 -> 19         0.32691
       8 -> 17        -0.18051
       8 -> 20        -0.10865
      10 -> 24         0.27420
      11 -> 22        -0.10882
      11 -> 25        -0.31184
      12 -> 26        -0.25237

 Excited State  58:      Singlet-B2    14.3999 eV   86.10 nm  f=0.0433  <S**2>=0.000
       8 -> 15         0.49133
       8 -> 18        -0.11164
      11 -> 21         0.18217
      11 -> 23        -0.38181
      12 -> 33        -0.10189

 Excited State  59:      Singlet-A1    14.4448 eV   85.83 nm  f=0.0125  <S**2>=0.000
       7 -> 17         0.12941
       8 -> 14        -0.16907
       8 -> 16        -0.30695
       8 -> 19        -0.17032
       9 -> 15        -0.12114
       9 -> 18        -0.11125
      10 -> 22         0.36642
      11 -> 18         0.17271
      11 -> 27        -0.13010
      13 -> 31         0.26008

 Excited State  60:      Singlet-B2    14.5056 eV   85.47 nm  f=0.1781  <S**2>=0.000
       9 -> 16         0.61570
       9 -> 19         0.19940
      10 -> 20         0.16584

 Excited State  61:      Singlet-A2    14.6048 eV   84.89 nm  f=0.0000  <S**2>=0.000
       9 -> 17         0.65163
      10 -> 21        -0.14559
      10 -> 23         0.10043

 Excited State  62:      Singlet-B1    14.6383 eV   84.70 nm  f=0.0064  <S**2>=0.000
       7 -> 16        -0.32676
       7 -> 19        -0.20388
       8 -> 17        -0.14052
      10 -> 18         0.18531
      11 -> 25        -0.14310
      12 -> 26        -0.12321
      13 -> 30        -0.18025
      13 -> 32        -0.25841
      13 -> 34         0.34453

 Excited State  63:      Singlet-A1    14.6512 eV   84.62 nm  f=0.1300  <S**2>=0.000
       9 -> 15         0.12070
      10 -> 22        -0.19413
      11 -> 24         0.13816
      11 -> 27         0.17962
      13 -> 31         0.57599

 Excited State  64:      Singlet-B1    14.7056 eV   84.31 nm  f=0.1835  <S**2>=0.000
       7 -> 16        -0.11152
       7 -> 19        -0.17149
       7 -> 21        -0.11776
       8 -> 17        -0.21203
      10 -> 24        -0.20713
      10 -> 27         0.10720
      11 -> 25        -0.30755
      13 -> 32         0.43498
      13 -> 34        -0.11994

 Excited State  65:      Singlet-A2    14.8401 eV   83.55 nm  f=0.0000  <S**2>=0.000
       7 -> 15        -0.10681
       7 -> 18         0.16645
       7 -> 24        -0.10471
       9 -> 17        -0.14642
      10 -> 16        -0.14348
      10 -> 21        -0.19481
      10 -> 23         0.44355
      13 -> 28         0.16633
      13 -> 33        -0.31885

 Excited State  66:      Singlet-B1    14.8487 eV   83.50 nm  f=0.1174  <S**2>=0.000
       7 -> 16         0.48541
       7 -> 19        -0.13890
       8 -> 17        -0.23994
      10 -> 18        -0.16174
      10 -> 24        -0.19455
      13 -> 30        -0.12541
      13 -> 34         0.21136
      13 -> 35         0.12334

 Excited State  67:      Singlet-A1    14.8695 eV   83.38 nm  f=0.1133  <S**2>=0.000
       7 -> 17         0.13786
       8 -> 16        -0.31966
      10 -> 22        -0.14439
      11 -> 27         0.25338
      12 -> 29        -0.16678
      12 -> 30         0.34273
      12 -> 34         0.11568
      13 -> 31        -0.22776

 Excited State  68:      Singlet-B1    14.9089 eV   83.16 nm  f=0.0593  <S**2>=0.000
       7 -> 19         0.16441
       8 -> 17         0.13643
      13 -> 30        -0.12585
      13 -> 32         0.37923
      13 -> 34         0.46564

 Excited State  69:      Singlet-A1    14.9322 eV   83.03 nm  f=0.0522  <S**2>=0.000
       7 -> 17        -0.28920
       8 -> 16         0.28752
       9 -> 15        -0.11424
      10 -> 22         0.20368
      10 -> 25        -0.17869
      11 -> 24        -0.20648
      12 -> 29        -0.13673
      12 -> 30         0.32484
      12 -> 34         0.12553

 Excited State  70:      Singlet-B2    14.9691 eV   82.83 nm  f=0.0229  <S**2>=0.000
       8 -> 15         0.13264
       9 -> 16        -0.11990
       9 -> 19         0.36671
      12 -> 27        -0.22609
      12 -> 28         0.41528
      12 -> 33         0.13949
      12 -> 39        -0.10357

 Excited State  71:      Singlet-B1    15.0039 eV   82.63 nm  f=0.0736  <S**2>=0.000
       7 -> 16         0.12089
       7 -> 19        -0.12061
       8 -> 17         0.51561
      10 -> 24        -0.10459
      11 -> 22        -0.25547
      11 -> 25        -0.26314

 Excited State  72:      Singlet-B2    15.0799 eV   82.22 nm  f=0.2944  <S**2>=0.000
       9 -> 16        -0.20709
       9 -> 19         0.47705
      11 -> 23        -0.10081
      12 -> 27         0.13749
      12 -> 28        -0.34006

 Excited State  73:      Singlet-A1    15.1011 eV   82.10 nm  f=0.0551  <S**2>=0.000
       7 -> 17         0.47084
       8 -> 16         0.37829
       9 -> 18        -0.16991
      11 -> 27        -0.12501
      12 -> 29        -0.14040
      12 -> 30         0.11001

 Excited State  74:      Singlet-A2    15.1670 eV   81.75 nm  f=0.0000  <S**2>=0.000
       8 -> 22         0.22827
      11 -> 26         0.63283

 Excited State  75:      Singlet-A1    15.2481 eV   81.31 nm  f=0.0146  <S**2>=0.000
       7 -> 17        -0.27953
       8 -> 19        -0.23628
      11 -> 24         0.44477
      11 -> 27        -0.22441
      12 -> 29        -0.15571
      12 -> 30         0.10210

 Excited State  76:      Singlet-A1    15.3036 eV   81.02 nm  f=0.0531  <S**2>=0.000
       7 -> 20         0.22422
       8 -> 16         0.13558
       8 -> 21        -0.14785
       9 -> 18        -0.17164
      10 -> 22         0.20402
      10 -> 25         0.46963
      11 -> 27         0.19355
      12 -> 29         0.12026
      13 -> 38         0.11009

 Excited State  77:      Singlet-B1    15.3998 eV   80.51 nm  f=0.0952  <S**2>=0.000
       7 -> 16        -0.19981
       7 -> 19         0.14902
       7 -> 21         0.14447
       7 -> 23         0.15637
      10 -> 24        -0.27011
      13 -> 35         0.52278

 Excited State  78:      Singlet-A1    15.4930 eV   80.03 nm  f=0.0000  <S**2>=0.000
       8 -> 19        -0.17627
       9 -> 18        -0.19164
      10 -> 25        -0.14931
      11 -> 24         0.10843
      12 -> 29         0.54541
      12 -> 30         0.16019
      12 -> 34         0.13607
      13 -> 38        -0.10271

 Excited State  79:      Singlet-B1    15.5542 eV   79.71 nm  f=0.0007  <S**2>=0.000
       7 -> 16         0.10708
       7 -> 19        -0.22560
       7 -> 23        -0.12687
      10 -> 24         0.42207
      10 -> 27        -0.11569
      10 -> 28        -0.10451
      13 -> 32         0.22150
      13 -> 35         0.33195

 Excited State  80:      Singlet-B2    15.6179 eV   79.39 nm  f=0.2576  <S**2>=0.000
       7 -> 22         0.24096
       8 -> 18        -0.14962
      10 -> 26         0.56202
      13 -> 37        -0.20077

 Excited State  81:      Singlet-A1    15.6436 eV   79.26 nm  f=0.0977  <S**2>=0.000
       8 -> 16         0.15921
       8 -> 19        -0.31808
       9 -> 18         0.34996
      10 -> 22         0.13192
      11 -> 27         0.28960
      12 -> 30        -0.14603
      13 -> 38        -0.22919

 Excited State  82:      Singlet-A1    15.6973 eV   78.98 nm  f=0.0322  <S**2>=0.000
       8 -> 19         0.12417
       9 -> 18         0.43472
      10 -> 25         0.21208
      11 -> 24        -0.10080
      11 -> 27        -0.24717
      12 -> 29         0.21275
      12 -> 30         0.20950
      12 -> 32        -0.11293
      13 -> 36        -0.19600

 Excited State  83:      Singlet-B1    15.7163 eV   78.89 nm  f=0.1970  <S**2>=0.000

 The electronic state is 1-A1.
 Alpha  occ. eigenvalues --  -19.46335 -10.47973 -10.47971  -1.16658  -0.85840
 Alpha  occ. eigenvalues --   -0.75977  -0.59889  -0.59746  -0.59729  -0.50828
 Alpha  occ. eigenvalues --   -0.48775  -0.43329  -0.37232
 Alpha virt. eigenvalues --    0.05024   0.07123   0.10725   0.10987   0.13629
 Alpha virt. eigenvalues --    0.14679   0.17904   0.18340   0.18363   0.20849
 Alpha virt. eigenvalues --    0.22096   0.23328   0.24699   0.25144   0.30759

 Mulliken charges:
               1
     1  C    0.417874
     2  O   -0.707674
     3  C    0.417874
     4  H   -0.094025
     5  H    0.014994
     6  H    0.014994
     7  H   -0.094025
     8  H    0.014994
     9  H    0.014994
 Sum of Mulliken charges =  -0.00000

 Dipole moment (field-independent basis, Debye):
    X=              0.0000    Y=             -0.0000    Z=             -1.4101  Tot=              1.4101
 Quadrupole moment (field-independent basis, Debye-Ang):
   XX=            -20.2375   YY=            -17.3170   ZZ=            -21.4411
   XY=              0.0000   XZ=             -0.0000   YZ=              0.0000

 Normal termination of Gaussian 16 at Mon Mar 21 04:08:48 2022.
