 Gaussian 16, Revision C.01,
 Gaussian 16:  EM64L-G16RevC.01  3-Jul-2019

 -------------------------------------------------------------------
 #P TD(Nstates=10000) m11/Gen SCF(maxcycles=100) Int(Grid=ultrafine)
 -------------------------------------------------------------------

 ---------------------
 xGDB7_00001_tier4.com
 ---------------------
 Symbolic Z-matrix:
 Charge =  0 Multiplicity = 1

                         Standard orientation:
 ---------------------------------------------------------------------
 Center     Atomic      Atomic             Coordinates (Angstroms)
 Number     Number       Type             X           Y           Z
 ---------------------------------------------------------------------
      1          6           0        0.000000    0.000000    0.761397
      2          6           0       -0.000000   -0.000000   -0.761397
      3          1           0        0.000000    1.017110    1.157248
      4          1           0        0.880843   -0.508555    1.157248
      5          1           0       -0.880843   -0.508555    1.157248
      6          1           0        0.880843    0.508555   -1.157248
      7          1           0       -0.880843    0.508555   -1.157248
      8          1           0       -0.000000   -1.017110   -1.157248
 ---------------------------------------------------------------------

 SCF Done:  E(RM11) =  -79.7018344811     A.U. after   11 cycles

 Excitation energies and oscillator strengths:

 Excited State   1:      Singlet-EG     9.0873 eV  136.44 nm  f=0.0000  <S**2>=0.000
       9 -> 10         0.69056
 This state for optimization and/or second-order correction.
 Total Energy, E(TD-HF/TD-DFT) =  -79.3678817554
 Copying the excited state density for this state as the 1-particle RhoCI density.

 Excited State   2:      Singlet-EG     9.0873 eV  136.44 nm  f=0.0000  <S**2>=0.000
       8 -> 10         0.69056

 Excited State   3:      Singlet-A1G    9.7937 eV  126.60 nm  f=0.0000  <S**2>=0.000
       7 -> 10         0.69345

 Excited State   4:      Singlet-EU    10.0478 eV  123.39 nm  f=0.1049  <S**2>=0.000
       5 -> 10         0.14896
       9 -> 11         0.67936

 Excited State   5:      Singlet-EU    10.0478 eV  123.39 nm  f=0.1049  <S**2>=0.000
       6 -> 10         0.14896
       8 -> 11         0.67936

 Excited State   6:      Singlet-A2U   10.8529 eV  114.24 nm  f=0.1854  <S**2>=0.000
       7 -> 11         0.69715

 Excited State   7:      Singlet-EG    11.2025 eV  110.68 nm  f=0.0000  <S**2>=0.000
       8 -> 12        -0.48738
       9 -> 13         0.48742

 Excited State   8:      Singlet-EG    11.2922 eV  109.80 nm  f=0.0996  <S**2>=0.000
       5 -> 10         0.10306
       8 -> 12         0.48168
       9 -> 13         0.48164

 Excited State   9:      Singlet-EG    11.2922 eV  109.80 nm  f=0.0996  <S**2>=0.000
       6 -> 10         0.10307
       8 -> 13        -0.48165
       9 -> 12         0.48167

 Excited State  10:      Singlet-EU    11.5271 eV  107.56 nm  f=0.0000  <S**2>=0.000
       8 -> 15        -0.47973
       9 -> 14         0.47979

 Excited State  11:      Singlet-EG    11.6481 eV  106.44 nm  f=0.3346  <S**2>=0.000
       8 -> 13         0.48755
       9 -> 12         0.48754

 Excited State  12:      Singlet-EU    11.7552 eV  105.47 nm  f=0.0000  <S**2>=0.000
       8 -> 15         0.48635
       9 -> 14         0.48629

 Excited State  13:      Singlet-EU    11.7552 eV  105.47 nm  f=0.0000  <S**2>=0.000
       8 -> 14         0.48634
       9 -> 15        -0.48631

 Excited State  14:      Singlet-EU    11.8658 eV  104.49 nm  f=0.0178  <S**2>=0.000
       6 -> 10         0.24775
       7 -> 13         0.63840
       7 -> 31        -0.10286

 Excited State  15:      Singlet-EU    11.8658 eV  104.49 nm  f=0.0178  <S**2>=0.000
       5 -> 10         0.24779
       7 -> 12         0.63839
       7 -> 30        -0.10285

 Excited State  16:      Singlet-EU    11.8662 eV  104.49 nm  f=0.0000  <S**2>=0.000
       8 -> 14         0.46714
       8 -> 16        -0.14670
       9 -> 15         0.46717
       9 -> 17        -0.14670

 Excited State  17:      Singlet-EU    12.0281 eV  103.08 nm  f=0.1008  <S**2>=0.000
       5 -> 10         0.60898
       7 -> 12        -0.26348
       9 -> 11        -0.12569

 Excited State  18:      Singlet-EU    12.0281 eV  103.08 nm  f=0.1008  <S**2>=0.000
       6 -> 10         0.60899
       7 -> 13        -0.26344
       8 -> 11        -0.12569

 Excited State  19:      Singlet-EG    12.1504 eV  102.04 nm  f=0.0000  <S**2>=0.000
       7 -> 14         0.68658
       7 -> 28        -0.12083

 Excited State  20:      Singlet-EG    12.1504 eV  102.04 nm  f=0.0000  <S**2>=0.000
       7 -> 15         0.68658
       7 -> 29        -0.12083

 Excited State  21:      Singlet-EG    12.2830 eV  100.94 nm  f=0.0000  <S**2>=0.000
       6 -> 11         0.43317
       8 -> 18         0.53146

 Excited State  22:      Singlet-EG    12.2830 eV  100.94 nm  f=0.0000  <S**2>=0.000
       5 -> 11         0.43317
       9 -> 18         0.53145

 Excited State  23:      Singlet-EU    12.6882 eV   97.72 nm  f=0.0000  <S**2>=0.000
       5 -> 13        -0.21790
       6 -> 12         0.21790
       8 -> 17         0.43711
       9 -> 16        -0.43711

 Excited State  24:      Singlet-EU    12.8993 eV   96.12 nm  f=0.0000  <S**2>=0.000
       5 -> 13         0.18869
       6 -> 12         0.18868
       8 -> 17         0.42841
       9 -> 16         0.42841
       9 -> 18        -0.18705

 Excited State  25:      Singlet-EU    12.8993 eV   96.12 nm  f=0.0000  <S**2>=0.000
       5 -> 12         0.18868
       6 -> 13        -0.18868
       8 -> 16        -0.42840
       8 -> 18        -0.18705
       9 -> 17         0.42841

 Excited State  26:      Singlet-EG    13.2774 eV   93.38 nm  f=0.0000  <S**2>=0.000
       6 -> 11         0.53424
       8 -> 10        -0.11079
       8 -> 16         0.11148
       8 -> 18        -0.39418
       9 -> 17        -0.11151

 Excited State  27:      Singlet-EG    13.2774 eV   93.38 nm  f=0.0000  <S**2>=0.000
       5 -> 11         0.53424
       8 -> 17        -0.11149
       9 -> 10        -0.11079
       9 -> 16        -0.11149
       9 -> 18        -0.39419

 Excited State  28:      Singlet-A1G   13.3148 eV   93.12 nm  f=0.0000  <S**2>=0.000
       7 -> 18         0.56101
       8 -> 16         0.27176
       9 -> 17         0.27173

 Excited State  29:      Singlet-EG    13.3192 eV   93.09 nm  f=0.0000  <S**2>=0.000
       5 -> 14        -0.21156
       6 -> 15         0.21155
       8 -> 19        -0.43227
       9 -> 20         0.43228

 Excited State  30:      Singlet-EU    13.4775 eV   91.99 nm  f=0.0027  <S**2>=0.000
       5 -> 10        -0.14419
       5 -> 18        -0.13966
       8 -> 19         0.23817
       9 -> 20         0.23815
       9 -> 21         0.53892
       9 -> 24         0.10030

 Excited State  31:      Singlet-EU    13.4775 eV   91.99 nm  f=0.0027  <S**2>=0.000
       6 -> 10        -0.14419
       6 -> 18        -0.13965
       8 -> 20        -0.23816
       8 -> 21         0.53892
       8 -> 24         0.10030
       9 -> 19         0.23817

 Excited State  32:      Singlet-EG    13.6932 eV   90.54 nm  f=0.0000  <S**2>=0.000
       7 -> 16         0.68956

 Excited State  33:      Singlet-EG    13.6932 eV   90.54 nm  f=0.0000  <S**2>=0.000
       7 -> 17         0.68956

 Excited State  34:      Singlet-EG    13.8074 eV   89.80 nm  f=0.1852  <S**2>=0.000
       5 -> 15        -0.17842
       6 -> 14        -0.17841
       7 -> 21         0.14569
       8 -> 20         0.44756
       9 -> 19         0.44757

 Excited State  35:      Singlet-EU    13.8675 eV   89.41 nm  f=0.1972  <S**2>=0.000
       7 -> 19         0.41891
       7 -> 23        -0.11219
       8 -> 19         0.30399
       9 -> 20         0.30398
       9 -> 21        -0.27458

 Excited State  36:      Singlet-EU    13.8675 eV   89.41 nm  f=0.1972  <S**2>=0.000
       7 -> 20         0.41891
       7 -> 22        -0.11219
       8 -> 20        -0.30399
       8 -> 21        -0.27459
       9 -> 19         0.30397

 Excited State  37:      Singlet-EU    13.9659 eV   88.78 nm  f=0.0000  <S**2>=0.000
       5 -> 12        -0.18382
       6 -> 13        -0.18381
       7 -> 18        -0.31124
       8 -> 14         0.13825
       8 -> 16         0.37647
       9 -> 15         0.13826
       9 -> 17         0.37647

 Excited State  38:      Singlet-EU    14.2523 eV   86.99 nm  f=0.0000  <S**2>=0.000
       5 -> 13         0.43617
       6 -> 12        -0.43616
       8 -> 17         0.21277
       9 -> 16        -0.21278

 Excited State  39:      Singlet-A2U   14.3369 eV   86.48 nm  f=0.0000  <S**2>=0.000
       5 -> 15         0.33296
       6 -> 14         0.33357
       7 -> 21         0.39664
       8 -> 22        -0.18244
       9 -> 23        -0.18165

 Excited State  40:      Singlet-EU    14.3387 eV   86.47 nm  f=0.0078  <S**2>=0.000
       5 -> 15        -0.15116
       5 -> 17         0.10638
       6 -> 14         0.14980
       6 -> 16        -0.10605
       7 -> 20         0.45382
       8 -> 20         0.21616
       8 -> 21         0.18497
       8 -> 22        -0.19286
       9 -> 19        -0.21640
       9 -> 23         0.19360

 Excited State  41:      Singlet-EU    14.3387 eV   86.47 nm  f=0.0078  <S**2>=0.000
       5 -> 14        -0.15048
       5 -> 16         0.10622
       6 -> 15        -0.15048
       6 -> 17         0.10622
       7 -> 19         0.45382
       8 -> 19        -0.21629
       8 -> 23         0.19322
       9 -> 20        -0.21629
       9 -> 21         0.18497
       9 -> 22         0.19323

 Excited State  42:      Singlet-EU    14.3693 eV   86.28 nm  f=0.0000  <S**2>=0.000
       5 -> 13         0.44808
       6 -> 12         0.44809
       8 -> 17        -0.19740
       9 -> 16        -0.19739

 Excited State  43:      Singlet-EU    14.3693 eV   86.28 nm  f=0.0000  <S**2>=0.000
       5 -> 12        -0.44808
       6 -> 13         0.44809
       8 -> 16        -0.19740
       9 -> 17         0.19740

 Excited State  44:      Singlet-EG    14.5400 eV   85.27 nm  f=0.0000  <S**2>=0.000
       5 -> 14         0.34886
       5 -> 16        -0.12323
       6 -> 15        -0.34884
       6 -> 17         0.12323
       8 -> 19        -0.17424
       8 -> 23         0.27627
       9 -> 20         0.17424
       9 -> 22        -0.27628

 Excited State  45:      Singlet-EG    14.7740 eV   83.92 nm  f=0.6187  <S**2>=0.000
       5 -> 15        -0.42330
       6 -> 14         0.42331
       7 -> 20        -0.26827
       8 -> 21        -0.16976

 Excited State  46:      Singlet-EG    14.7740 eV   83.92 nm  f=0.6187  <S**2>=0.000
       5 -> 14         0.42328
       6 -> 15         0.42332
       7 -> 19         0.26828
       9 -> 21         0.16977

 Excited State  47:      Singlet-EG    14.9446 eV   82.96 nm  f=0.0000  <S**2>=0.000
       5 -> 14        -0.26939
       5 -> 16        -0.16841
       6 -> 15         0.26936
       6 -> 17         0.16841
       8 -> 19         0.13527
       8 -> 23         0.35161
       9 -> 20        -0.13527
       9 -> 22        -0.35161

 Excited State  48:      Singlet-EG    15.0825 eV   82.20 nm  f=0.1328  <S**2>=0.000
       5 -> 14         0.13848
       5 -> 16         0.12789
       6 -> 15         0.13848
       6 -> 17         0.12789
       7 -> 19        -0.11751
       8 -> 19         0.19969
       8 -> 23         0.39442
       9 -> 20         0.19969
       9 -> 22         0.39441

 Excited State  49:      Singlet-EG    15.0825 eV   82.20 nm  f=0.1328  <S**2>=0.000
       5 -> 15        -0.13851
       5 -> 17        -0.12783
       6 -> 14         0.13845
       6 -> 16         0.12794
       7 -> 20         0.11752
       8 -> 20         0.19966
       8 -> 22         0.39444
       9 -> 19        -0.19973
       9 -> 23        -0.39437

 Excited State  50:      Singlet-A2U   15.0906 eV   82.16 nm  f=0.8153  <S**2>=0.000
       5 -> 15        -0.15617
       5 -> 17         0.22031
       6 -> 14        -0.15622
       6 -> 16         0.22024
       7 -> 21         0.51053
       8 -> 20        -0.14688
       8 -> 22         0.13502
       9 -> 19        -0.14678
       9 -> 23         0.13522

 Excited State  51:      Singlet-EU    15.1643 eV   81.76 nm  f=0.0000  <S**2>=0.000
       5 -> 12         0.44368
       6 -> 13         0.44367
       7 -> 18        -0.24390
       7 -> 25        -0.10147

 Excited State  52:      Singlet-EG    15.2875 eV   81.10 nm  f=0.1882  <S**2>=0.000
       5 -> 15         0.24674
       6 -> 14         0.24674
       8 -> 20         0.12993
       8 -> 22         0.39381
       9 -> 19         0.12993
       9 -> 23         0.39382

 Excited State  53:      Singlet-EU    15.6167 eV   79.39 nm  f=0.0015  <S**2>=0.000
       6 -> 18         0.60702
       7 -> 22        -0.25589
       8 -> 21         0.12634
       8 -> 36        -0.10151

 Excited State  54:      Singlet-EU    15.6167 eV   79.39 nm  f=0.0015  <S**2>=0.000
       5 -> 18         0.60701
       7 -> 23        -0.25593
       9 -> 21         0.12636
       9 -> 36        -0.10150

 Excited State  55:      Singlet-EU    15.7984 eV   78.48 nm  f=0.2367  <S**2>=0.000
       6 -> 18         0.24419
       7 -> 22         0.59120
       8 -> 24         0.19090

 Excited State  56:      Singlet-EU    15.7984 eV   78.48 nm  f=0.2367  <S**2>=0.000
       5 -> 18         0.24423
       7 -> 23         0.59119
       9 -> 24         0.19087

 Excited State  57:      Singlet-EU    16.0024 eV   77.48 nm  f=0.0004  <S**2>=0.000
       7 -> 22        -0.20117
       8 -> 21        -0.10290
       8 -> 24         0.62818

 Excited State  58:      Singlet-EU    16.0024 eV   77.48 nm  f=0.0004  <S**2>=0.000
       7 -> 23        -0.20116
       9 -> 21        -0.10289
       9 -> 24         0.62818

 Excited State  59:      Singlet-EG    16.1387 eV   76.82 nm  f=0.0000  <S**2>=0.000
       5 -> 16         0.44138
       6 -> 17        -0.44135
       8 -> 23         0.20964
       9 -> 22        -0.20965

 Excited State  60:      Singlet-EG    16.1529 eV   76.76 nm  f=0.0515  <S**2>=0.000
       5 -> 17         0.43700
       6 -> 16        -0.43685
       6 -> 18         0.11411
       8 -> 22         0.16794
       8 -> 24         0.12213
       9 -> 23        -0.16801

 Excited State  61:      Singlet-EG    16.1529 eV   76.76 nm  f=0.0515  <S**2>=0.000
       5 -> 16         0.43691
       5 -> 18         0.11413
       6 -> 17         0.43693
       8 -> 23        -0.16798
       9 -> 22        -0.16797
       9 -> 24         0.12217

 Excited State  62:      Singlet-EG    16.1551 eV   76.75 nm  f=0.0000  <S**2>=0.000
       5 -> 21         0.48573
       5 -> 27        -0.10004
       5 -> 36        -0.13364
       9 -> 25        -0.42500

 Excited State  63:      Singlet-EG    16.1551 eV   76.75 nm  f=0.0000  <S**2>=0.000
       6 -> 21         0.48575
       6 -> 27        -0.10004
       6 -> 36        -0.13365
       8 -> 25        -0.42496

 Excited State  64:      Singlet-A2U   16.1908 eV   76.58 nm  f=0.0196  <S**2>=0.000
       5 -> 17         0.35707
       6 -> 16         0.35726
       7 -> 21        -0.18562
       7 -> 24         0.36452
       8 -> 22        -0.15655
       9 -> 23        -0.15648

 Excited State  65:      Singlet-EU    16.1983 eV   76.54 nm  f=0.0000  <S**2>=0.000
       5 -> 20        -0.45092
       6 -> 19         0.45093
       8 -> 29         0.13991
       9 -> 28        -0.13990

 Excited State  66:      Singlet-EG    16.4887 eV   75.19 nm  f=0.0000  <S**2>=0.000
       5 -> 19         0.32698
       6 -> 20        -0.32698
       6 -> 21         0.22278
       6 -> 24         0.11227
       8 -> 25         0.43095

 Excited State  67:      Singlet-EG    16.4887 eV   75.19 nm  f=0.0000  <S**2>=0.000
       5 -> 20         0.32699
       5 -> 21         0.22281
       5 -> 24         0.11227
       6 -> 19         0.32700
       9 -> 25         0.43091

 Excited State  68:      Singlet-EU    16.5898 eV   74.74 nm  f=0.0000  <S**2>=0.000
       5 -> 19         0.47611
       6 -> 20         0.47606

 Excited State  69:      Singlet-EG    16.6816 eV   74.32 nm  f=0.0000  <S**2>=0.000
       5 -> 20        -0.32672
       5 -> 21         0.37343
       6 -> 19        -0.32672
       9 -> 25         0.30535

 Excited State  70:      Singlet-EG    16.6816 eV   74.32 nm  f=0.0000  <S**2>=0.000
       5 -> 19        -0.32669
       6 -> 20         0.32676
       6 -> 21         0.37342
       8 -> 25         0.30535

 Excited State  71:      Singlet-A2U   16.7765 eV   73.90 nm  f=0.2236  <S**2>=0.000
       4 -> 10        -0.36553
       5 -> 17        -0.20443
       6 -> 16        -0.20442
       7 -> 24         0.47957

 Excited State  72:      Singlet-EU    17.0101 eV   72.89 nm  f=0.0148  <S**2>=0.000
       9 -> 26         0.68985

 Excited State  73:      Singlet-EU    17.0101 eV   72.89 nm  f=0.0148  <S**2>=0.000
       8 -> 26         0.68985

 Excited State  74:      Singlet-A1G   17.0533 eV   72.70 nm  f=0.0000  <S**2>=0.000
       7 -> 25         0.64241
       8 -> 28         0.10606
       9 -> 29         0.10606

 Excited State  75:      Singlet-A2U   17.2617 eV   71.83 nm  f=0.0589  <S**2>=0.000
       4 -> 10         0.57853
       7 -> 24         0.31969
       7 -> 36         0.10787

 Excited State  76:      Singlet-A1U   17.6419 eV   70.28 nm  f=0.0000  <S**2>=0.000
       7 -> 26         0.67072
       8 -> 30        -0.14759
       9 -> 31         0.14754

 Excited State  77:      Singlet-EU    17.6450 eV   70.27 nm  f=0.0000  <S**2>=0.000
       5 -> 20        -0.15534
       6 -> 19         0.15532
       8 -> 29        -0.43778
       8 -> 34         0.15296
       9 -> 28         0.43784
       9 -> 33        -0.15298

 Excited State  78:      Singlet-EU    17.6557 eV   70.22 nm  f=0.0409  <S**2>=0.000
       5 -> 25         0.23367
       8 -> 30        -0.16470
       9 -> 27         0.58585
       9 -> 31        -0.16480
       9 -> 36         0.10033

 Excited State  79:      Singlet-EU    17.6558 eV   70.22 nm  f=0.0409  <S**2>=0.000
       6 -> 25         0.23367
       8 -> 27         0.58586
       8 -> 31         0.16473
       8 -> 36         0.10032
       9 -> 30        -0.16474

 Excited State  80:      Singlet-EG    17.7213 eV   69.96 nm  f=0.0000  <S**2>=0.000
       7 -> 26         0.21952
       8 -> 30         0.45585
       9 -> 31        -0.45584

 Excited State  81:      Singlet-EU    17.7497 eV   69.85 nm  f=0.0000  <S**2>=0.000
       5 -> 20         0.10111
       5 -> 22         0.34886
       6 -> 19         0.10113
       6 -> 23         0.34879
       7 -> 29        -0.24412
       8 -> 29        -0.24740
       9 -> 28        -0.24729

 Excited State  82:      Singlet-EU    17.7497 eV   69.85 nm  f=0.0000  <S**2>=0.000
       5 -> 19        -0.10112
       5 -> 23        -0.34883
       6 -> 20         0.10113
       6 -> 22         0.34886
       7 -> 28         0.24410
       8 -> 28        -0.24733
       9 -> 29         0.24733

 Excited State  83:      Singlet-EU    17.7611 eV   69.81 nm  f=0.0000  <S**2>=0.000
       5 -> 22        -0.47372
       6 -> 23         0.47378

 Excited State  84:      Singlet-EG    17.8607 eV   69.42 nm  f=0.0000  <S**2>=0.000
       5 -> 22         0.29578
       6 -> 23         0.29577
       7 -> 29         0.46287
       7 -> 34        -0.10928
       8 -> 29         0.15903
       9 -> 28         0.15901

 Excited State  85:      Singlet-EG    17.8607 eV   69.42 nm  f=0.0000  <S**2>=0.000
       5 -> 23         0.29571
       6 -> 22        -0.29577
       7 -> 28         0.46293
       7 -> 33        -0.10930
       8 -> 28        -0.15897
       9 -> 29         0.15902

 Excited State  86:      Singlet-A1G   17.9232 eV   69.18 nm  f=0.0000  <S**2>=0.000
       4 -> 11         0.37529
       5 -> 23         0.26596
       6 -> 22         0.26591
       8 -> 28        -0.30131
       9 -> 29        -0.30134

 Excited State  87:      Singlet-A1G   17.9715 eV   68.99 nm  f=0.0000  <S**2>=0.000
       4 -> 11         0.40072
       5 -> 23        -0.36386
       6 -> 22        -0.36384
       7 -> 25         0.19884

 Excited State  88:      Singlet-EG    18.0328 eV   68.75 nm  f=0.0000  <S**2>=0.000
       5 -> 23        -0.10649
       6 -> 21         0.10051
       6 -> 22         0.10645
       6 -> 24        -0.15508
       7 -> 28         0.36589
       7 -> 33        -0.11718
       8 -> 28         0.33801
       8 -> 33        -0.10720
       9 -> 29        -0.33798
       9 -> 34         0.10720

 Excited State  89:      Singlet-EG    18.0328 eV   68.75 nm  f=0.0000  <S**2>=0.000
       5 -> 21         0.10052
       5 -> 22        -0.10644
       5 -> 24        -0.15510
       6 -> 23        -0.10644
       7 -> 29         0.36594
       7 -> 34        -0.11719
       8 -> 29        -0.33796
       8 -> 34         0.10720
       9 -> 28        -0.33796
       9 -> 33         0.10719

 Excited State  90:      Singlet-EG    18.0595 eV   68.65 nm  f=0.0703  <S**2>=0.000
       7 -> 30         0.36689
       8 -> 30         0.38143
       9 -> 27         0.18719
       9 -> 31         0.38142

 Excited State  91:      Singlet-EG    18.0596 eV   68.65 nm  f=0.0703  <S**2>=0.000
       7 -> 31         0.36691
       8 -> 27         0.18716
       8 -> 31        -0.38142
       9 -> 30         0.38143

 Excited State  92:      Singlet-A1G   18.2888 eV   67.79 nm  f=0.0000  <S**2>=0.000
       4 -> 11         0.39932
       5 -> 23         0.14587
       6 -> 22         0.14588
       8 -> 28         0.35191
       9 -> 29         0.35187

 Excited State  93:      Singlet-EG    18.3718 eV   67.49 nm  f=0.0000  <S**2>=0.000
       6 -> 24        -0.33282
       6 -> 36         0.10556
       7 -> 28        -0.12367
       8 -> 32         0.58008

 Excited State  94:      Singlet-EG    18.3718 eV   67.49 nm  f=0.0000  <S**2>=0.000
       5 -> 24        -0.33279
       5 -> 36         0.10555
       7 -> 29        -0.12370
       9 -> 32         0.58009

 Excited State  95:      Singlet-A2U   18.4536 eV   67.19 nm  f=0.0644  <S**2>=0.000
       7 -> 27         0.54278
       8 -> 31         0.29621
       9 -> 30         0.29622

 Excited State  96:      Singlet-EU    18.5059 eV   67.00 nm  f=0.0440  <S**2>=0.000
       5 -> 25         0.14524
       7 -> 30         0.37986

 The electronic state is 1-A1G.
 Alpha  occ. eigenvalues --  -10.42393 -10.42377  -0.88528  -0.73810  -0.54946
 Alpha  occ. eigenvalues --   -0.54946  -0.47381  -0.44704  -0.44704
 Alpha virt. eigenvalues --    0.05582   0.08281   0.15086   0.15086   0.16887
 Alpha virt. eigenvalues --    0.16887   0.20558   0.20558   0.21516   0.25087
 Alpha virt. eigenvalues --    0.25087   0.26013   0.28685   0.28685   0.33622

 Mulliken charges:
               1
     1  C   -0.030660
     2  C   -0.030660
     3  H    0.010220
     4  H    0.010220
     5  H    0.010220
     6  H    0.010220
     7  H    0.010220
     8  H    0.010220
 Sum of Mulliken charges =  -0.00000

 Dipole moment (field-independent basis, Debye):
    X=              0.0000    Y=             -0.0000    Z=              0.0000  Tot=              0.0000
 Quadrupole moment (field-independent basis, Debye-Ang):
   XX=            -14.8665   YY=            -14.8665   ZZ=            -15.5488
   XY=             -0.0000   XZ=             -0.0000   YZ=             -0.0000

 Normal termination of Gaussian 16 at Mon Mar 21 20:09:34 2022.
