 Gaussian 16, Revision C.01,
 Gaussian 16:  EM64L-G16RevC.01  3-Jul-2019

 -------------------------------------------------------------------
 #P TD(Nstates=10000) m11/Gen SCF(maxcycles=100) Int(Grid=ultrafine)
 -------------------------------------------------------------------

 ---------------------
 xGDB7_00001_tier4.com
 ---------------------
 Symbolic Z-matrix:
 Charge =  0 Multiplicity = 1

                         Standard orientation:
 ---------------------------------------------------------------------
 Center     Atomic      Atomic             Coordinates (Angstroms)
 Number     Number       Type             X           Y           Z
 ---------------------------------------------------------------------
      1          6           0        0.926251   -0.719055    0.000000
      2          6           0        0.000000    0.459276    0.000000
      3          8           0       -1.196998    0.387136    0.000000
      4          1           0        1.575965   -0.668678    0.877698
      5          1           0        1.575965   -0.668678   -0.877698
      6          1           0        0.366733   -1.652236    0.000000
      7          1           0        0.499813    1.451182    0.000000
 ---------------------------------------------------------------------

 SCF Done:  E(RM11) =  -153.636110665     A.U. after   14 cycles

 Excitation energies and oscillator strengths:

 Excited State   1:      Singlet-A"     4.0508 eV  306.08 nm  f=0.0000  <S**2>=0.000
      12 -> 14         0.69711
 This state for optimization and/or second-order correction.
 Total Energy, E(TD-HF/TD-DFT) =  -153.487248208
 Copying the excited state density for this state as the 1-particle RhoCI density.

 Excited State   2:      Singlet-A'     7.2524 eV  170.96 nm  f=0.0134  <S**2>=0.000
      12 -> 13         0.65160
      12 -> 15         0.21561

 Excited State   3:      Singlet-A'     8.1605 eV  151.93 nm  f=0.0449  <S**2>=0.000
      12 -> 13        -0.20342
      12 -> 15         0.64275
      12 -> 18        -0.12650

 Excited State   4:      Singlet-A"     8.6310 eV  143.65 nm  f=0.0049  <S**2>=0.000
      12 -> 16         0.68522
      12 -> 20        -0.10702

 Excited State   5:      Singlet-A'     8.7829 eV  141.17 nm  f=0.0624  <S**2>=0.000
      12 -> 17         0.66524
      12 -> 18        -0.11717

 Excited State   6:      Singlet-A"     8.8251 eV  140.49 nm  f=0.0003  <S**2>=0.000
       7 -> 14         0.18735
       9 -> 14        -0.32359
      10 -> 14         0.58456

 Excited State   7:      Singlet-A'     9.2911 eV  133.44 nm  f=0.2716  <S**2>=0.000
      11 -> 14         0.61219
      12 -> 15         0.10235
      12 -> 17         0.13260
      12 -> 18         0.13605
      12 -> 19         0.14311
      12 -> 21        -0.17802

 Excited State   8:      Singlet-A"     9.5489 eV  129.84 nm  f=0.0018  <S**2>=0.000
       7 -> 14         0.14983
       9 -> 14         0.59893
      10 -> 14         0.28644

 Excited State   9:      Singlet-A'     9.7587 eV  127.05 nm  f=0.0317  <S**2>=0.000
      11 -> 14        -0.26838
      12 -> 17         0.10521
      12 -> 18         0.41425
      12 -> 19         0.15383
      12 -> 21        -0.40621

 Excited State  10:      Singlet-A'     9.8042 eV  126.46 nm  f=0.0630  <S**2>=0.000
      12 -> 13        -0.10731
      12 -> 18         0.49780
      12 -> 19        -0.19425
      12 -> 21         0.40576

 Excited State  11:      Singlet-A"     9.9998 eV  123.99 nm  f=0.0013  <S**2>=0.000
       9 -> 14        -0.10906
      11 -> 13         0.25270
      12 -> 20         0.60720
      12 -> 22        -0.14747

 Excited State  12:      Singlet-A"    10.1224 eV  122.49 nm  f=0.0107  <S**2>=0.000
      11 -> 13         0.63296
      12 -> 20        -0.24434

 Excited State  13:      Singlet-A'    10.2997 eV  120.38 nm  f=0.0030  <S**2>=0.000
      10 -> 13        -0.16611
      12 -> 19         0.57750
      12 -> 21         0.30522
      12 -> 24        -0.11011

 Excited State  14:      Singlet-A'    10.7852 eV  114.96 nm  f=0.1048  <S**2>=0.000
       8 -> 14         0.10928
      10 -> 13         0.62159
      10 -> 15        -0.18690
      12 -> 19         0.16794

 Excited State  15:      Singlet-A"    10.8617 eV  114.15 nm  f=0.0497  <S**2>=0.000
       8 -> 13         0.16477
      11 -> 15         0.65905

 Excited State  16:      Singlet-A"    11.0657 eV  112.04 nm  f=0.0025  <S**2>=0.000
       7 -> 14         0.62939
      10 -> 14        -0.24626

 Excited State  17:      Singlet-A'    11.3603 eV  109.14 nm  f=0.0419  <S**2>=0.000
       8 -> 14         0.64272
      12 -> 24         0.12847
      12 -> 25        -0.15972

 Excited State  18:      Singlet-A"    11.3737 eV  109.01 nm  f=0.0086  <S**2>=0.000
      12 -> 20         0.17339
      12 -> 22         0.65207
      12 -> 28         0.12885

 Excited State  19:      Singlet-A'    11.5371 eV  107.47 nm  f=0.0832  <S**2>=0.000
       8 -> 14        -0.18298
      10 -> 15        -0.13085
      12 -> 19         0.11499
      12 -> 23        -0.28518
      12 -> 24         0.43244
      12 -> 25        -0.34122

 Excited State  20:      Singlet-A'    11.6477 eV  106.45 nm  f=0.0517  <S**2>=0.000
       9 -> 13        -0.15830
      10 -> 13         0.18564
      10 -> 15         0.60056
      12 -> 23        -0.14945

 Excited State  21:      Singlet-A"    11.7106 eV  105.87 nm  f=0.0711  <S**2>=0.000
       8 -> 13         0.23834
      11 -> 17         0.62396
      11 -> 19        -0.12883

 Excited State  22:      Singlet-A'    11.8330 eV  104.78 nm  f=0.0313  <S**2>=0.000
      11 -> 16         0.40252
      12 -> 23         0.47134
      12 -> 24         0.22010
      12 -> 25        -0.16330

 Excited State  23:      Singlet-A'    11.9904 eV  103.40 nm  f=0.0623  <S**2>=0.000
      10 -> 15        -0.11364
      11 -> 16         0.49957
      12 -> 23        -0.30973
      12 -> 24        -0.25504
      12 -> 25        -0.13015

 Excited State  24:      Singlet-A"    12.2442 eV  101.26 nm  f=0.0002  <S**2>=0.000
       8 -> 15        -0.23198
      10 -> 16        -0.10232
      11 -> 18         0.58286
      11 -> 19         0.11185
      11 -> 21        -0.18052

 Excited State  25:      Singlet-A'    12.2586 eV  101.14 nm  f=0.0099  <S**2>=0.000
       9 -> 13         0.60456
       9 -> 15         0.12242
      10 -> 15         0.12213
      12 -> 24        -0.13597
      12 -> 25        -0.17775

 Excited State  26:      Singlet-A'    12.4530 eV   99.56 nm  f=0.0174  <S**2>=0.000
       9 -> 13         0.18325
      11 -> 16         0.20774
      12 -> 23        -0.14574
      12 -> 24         0.29424
      12 -> 25         0.48751

 Excited State  27:      Singlet-A"    12.4537 eV   99.56 nm  f=0.0571  <S**2>=0.000
       8 -> 13         0.47462
       8 -> 17        -0.11563
      10 -> 16         0.30737
      10 -> 20         0.13163
      11 -> 15        -0.14051
      11 -> 17        -0.23365
      11 -> 18         0.13960
      11 -> 19        -0.12254

 Excited State  28:      Singlet-A"    12.5145 eV   99.07 nm  f=0.0053  <S**2>=0.000
       8 -> 13        -0.29010
      10 -> 16         0.49781
      10 -> 20         0.27192
      11 -> 17         0.10063
      11 -> 19         0.17224

 Excited State  29:      Singlet-A"    12.5755 eV   98.59 nm  f=0.0038  <S**2>=0.000
       8 -> 15        -0.18960
      10 -> 16        -0.14555
      11 -> 18         0.11690
      11 -> 21         0.60735

 Excited State  30:      Singlet-A'    12.8161 eV   96.74 nm  f=0.0744  <S**2>=0.000
       7 -> 13        -0.17111
       8 -> 16        -0.13748
       9 -> 13        -0.11007
       9 -> 15         0.16450
      10 -> 17        -0.32285
      10 -> 19         0.19015
      11 -> 20         0.46547

 Excited State  31:      Singlet-A'    12.9032 eV   96.09 nm  f=0.0167  <S**2>=0.000
       9 -> 15         0.48882
      10 -> 17         0.30381
      10 -> 18         0.30875

 Excited State  32:      Singlet-A"    12.9490 eV   95.75 nm  f=0.0004  <S**2>=0.000
       8 -> 13         0.22374
       8 -> 15        -0.25883
       8 -> 17         0.15694
      11 -> 18        -0.17686
      11 -> 19         0.51895

 Excited State  33:      Singlet-A'    13.1345 eV   94.40 nm  f=0.0143  <S**2>=0.000
       9 -> 15        -0.30186
      10 -> 17         0.28165
      10 -> 19        -0.10272
      10 -> 21         0.29933
      11 -> 20         0.36386
      11 -> 22        -0.15939

 Excited State  34:      Singlet-A"    13.1669 eV   94.16 nm  f=0.0180  <S**2>=0.000
      12 -> 26         0.66181
      12 -> 28         0.11368

 Excited State  35:      Singlet-A'    13.2038 eV   93.90 nm  f=0.1487  <S**2>=0.000
       7 -> 13         0.15085
       9 -> 15         0.22261
       9 -> 17        -0.21467
      10 -> 18        -0.33714
      10 -> 21         0.40828
      10 -> 23        -0.11866
      12 -> 27        -0.16059

 Excited State  36:      Singlet-A"    13.3016 eV   93.21 nm  f=0.0694  <S**2>=0.000
       7 -> 16        -0.11142
       9 -> 16         0.18694
      10 -> 16        -0.26488
      10 -> 20         0.53068
      10 -> 22        -0.16212
      11 -> 21        -0.13610

 Excited State  37:      Singlet-A"    13.4487 eV   92.19 nm  f=0.0043  <S**2>=0.000
       6 -> 14         0.10194
       8 -> 15         0.51742
       8 -> 18         0.13026
      11 -> 18         0.21221
      11 -> 19         0.29285
      11 -> 21         0.15283

 Excited State  38:      Singlet-A'    13.4795 eV   91.98 nm  f=0.0118  <S**2>=0.000
       7 -> 13         0.39501
       7 -> 15         0.16841
      10 -> 17         0.13984
      10 -> 18        -0.16981
      10 -> 21        -0.33310
      10 -> 25         0.10056
      11 -> 20         0.15994
      11 -> 22        -0.19095

 Excited State  39:      Singlet-A"    13.6560 eV   90.79 nm  f=0.0002  <S**2>=0.000
       9 -> 16         0.52966
      10 -> 22         0.16754
      12 -> 28        -0.37659

 Excited State  40:      Singlet-A'    13.6610 eV   90.76 nm  f=0.0315  <S**2>=0.000
       7 -> 13         0.44667
       7 -> 15        -0.11621
      10 -> 15        -0.16705
      10 -> 17        -0.18503
      10 -> 18         0.28483
      10 -> 19         0.19354
      10 -> 21         0.14273
      12 -> 27         0.11218

 Excited State  41:      Singlet-A"    13.7587 eV   90.11 nm  f=0.0016  <S**2>=0.000
       6 -> 14        -0.14366
       8 -> 15         0.11027
       9 -> 16         0.33605
      10 -> 22         0.14208
      12 -> 26        -0.11097
      12 -> 28         0.49752

 Excited State  42:      Singlet-A'    13.7722 eV   90.03 nm  f=0.1133  <S**2>=0.000
       7 -> 15         0.12447
       9 -> 18         0.13924
       9 -> 21        -0.11765
      10 -> 19        -0.17793
      10 -> 21         0.17991
      12 -> 27         0.55412

 Excited State  43:      Singlet-A'    13.7999 eV   89.84 nm  f=0.0497  <S**2>=0.000
       7 -> 13        -0.12451
       7 -> 15        -0.14568
       7 -> 17         0.11705
       8 -> 16        -0.10684
       9 -> 15        -0.10308
       9 -> 17        -0.30132
      10 -> 17         0.26850
      10 -> 19         0.37567
      10 -> 21        -0.10343
      11 -> 22         0.15216
      12 -> 27         0.17645

 Excited State  44:      Singlet-A'    13.9659 eV   88.78 nm  f=0.0327  <S**2>=0.000
       7 -> 13         0.10433
       8 -> 16        -0.23024
       9 -> 17         0.44651
       9 -> 21         0.10158
      10 -> 17         0.17659
      10 -> 18        -0.11116
      11 -> 22         0.30789
      12 -> 27         0.10558

 Excited State  45:      Singlet-A"    14.0281 eV   88.38 nm  f=0.0086  <S**2>=0.000
       6 -> 14        -0.24530
       8 -> 15         0.13757
       8 -> 18        -0.24593
       8 -> 19        -0.15610
       8 -> 21         0.25147
      11 -> 23         0.42519
      12 -> 28        -0.13651

 Excited State  46:      Singlet-A"    14.1749 eV   87.47 nm  f=0.0147  <S**2>=0.000
       6 -> 14         0.35679
       8 -> 17        -0.19856
       8 -> 18        -0.28426
       8 -> 19         0.12774
       8 -> 21        -0.15008
      11 -> 18        -0.10757
      11 -> 23         0.16977
      11 -> 24        -0.28030
      11 -> 25        -0.14833
      12 -> 28         0.12451

 Excited State  47:      Singlet-A'    14.2750 eV   86.85 nm  f=0.2024  <S**2>=0.000
       7 -> 15         0.50700
       8 -> 16        -0.11405
       9 -> 18         0.29211
      10 -> 19         0.16053
      10 -> 23         0.11825
      10 -> 25        -0.13997
      12 -> 27        -0.12514

 Excited State  48:      Singlet-A"    14.3252 eV   86.55 nm  f=0.0222  <S**2>=0.000
       6 -> 14         0.28592
       8 -> 17         0.16803
       8 -> 19        -0.25509
      11 -> 19        -0.10956
      11 -> 23         0.12575
      11 -> 24         0.37859
      11 -> 25        -0.31698

 Excited State  49:      Singlet-A"    14.3965 eV   86.12 nm  f=0.0067  <S**2>=0.000
       7 -> 16        -0.26005
       8 -> 17        -0.10085
       9 -> 16        -0.17705
       9 -> 20        -0.16303
      10 -> 16        -0.10991
      10 -> 20         0.14439
      10 -> 22         0.50503

 Excited State  50:      Singlet-A'    14.4867 eV   85.58 nm  f=0.0629  <S**2>=0.000
       8 -> 16        -0.11412
       9 -> 17        -0.23470
       9 -> 19         0.13105
      10 -> 18         0.11765
      10 -> 19        -0.34365
      10 -> 21        -0.13737
      11 -> 20         0.16668
      11 -> 22         0.38539

 Excited State  51:      Singlet-A'    14.5637 eV   85.13 nm  f=0.0029  <S**2>=0.000
       7 -> 15         0.21634
       8 -> 16         0.35512
       8 -> 20         0.12559
       9 -> 18        -0.29794
       9 -> 21         0.22537
      11 -> 20         0.16417
      11 -> 22         0.23562
      12 -> 29        -0.11824

 Excited State  52:      Singlet-A'    14.6343 eV   84.72 nm  f=0.0289  <S**2>=0.000
       8 -> 16         0.36920
       8 -> 20         0.10155
       9 -> 18         0.22394
       9 -> 21        -0.23465
      10 -> 19         0.13725
      11 -> 22         0.15521
      12 -> 27        -0.15002
      12 -> 29         0.33266

 Excited State  53:      Singlet-A"    14.6589 eV   84.58 nm  f=0.0028  <S**2>=0.000
       6 -> 14         0.17136
       8 -> 17         0.29168
       8 -> 18         0.13120
       9 -> 20         0.35612
      10 -> 22         0.15142
      11 -> 19        -0.11319
      11 -> 23         0.15365
      11 -> 24        -0.22774
      11 -> 25         0.19357

 Excited State  54:      Singlet-A'    14.7557 eV   84.02 nm  f=0.1172  <S**2>=0.000
       7 -> 15         0.17939
       7 -> 17        -0.12743
       8 -> 16        -0.14912
       9 -> 18        -0.34819
       9 -> 19         0.14181
      10 -> 24         0.11737
      12 -> 29         0.42246
      12 -> 32         0.11811

 Excited State  55:      Singlet-A"    14.7904 eV   83.83 nm  f=0.0001  <S**2>=0.000
       7 -> 16         0.13103
       8 -> 17        -0.36647
       8 -> 21         0.11977
       9 -> 20         0.40217
      10 -> 22         0.15149
      11 -> 24         0.26635

 Excited State  56:      Singlet-A'    14.8334 eV   83.58 nm  f=0.0628  <S**2>=0.000
       7 -> 15        -0.10440
       7 -> 18        -0.10676
       7 -> 21         0.13820
       8 -> 20        -0.13019
       9 -> 18         0.16523
       9 -> 21         0.48827
      10 -> 18        -0.13640
      10 -> 25        -0.10938
      11 -> 22        -0.10634
      12 -> 29         0.22988

 Excited State  57:      Singlet-A"    14.9952 eV   82.68 nm  f=0.0000  <S**2>=0.000
       8 -> 17        -0.26066
       8 -> 18         0.25139
       8 -> 21        -0.33054
       8 -> 24        -0.12224
      11 -> 23         0.37795
      11 -> 24         0.13001
      11 -> 25         0.19422

 Excited State  58:      Singlet-A'    15.0202 eV   82.54 nm  f=0.0106  <S**2>=0.000
       7 -> 18         0.13521
       8 -> 16        -0.21560
       8 -> 20         0.35391
       8 -> 22        -0.13336
       9 -> 17        -0.15086
       9 -> 19        -0.26739
       9 -> 21         0.10829
      10 -> 23        -0.20647
      12 -> 30        -0.19400

 Excited State  59:      Singlet-A'    15.1069 eV   82.07 nm  f=0.0444  <S**2>=0.000
       7 -> 15        -0.15661
       7 -> 17        -0.23662
       7 -> 18        -0.12807
       8 -> 20         0.35096
       9 -> 19         0.40118
      10 -> 25        -0.13320

 Excited State  60:      Singlet-A"    15.1575 eV   81.80 nm  f=0.4532  <S**2>=0.000
       6 -> 14         0.32109
       8 -> 21         0.39721
       9 -> 20        -0.19540
      10 -> 20         0.10613
      10 -> 22        -0.18264
      11 -> 25         0.27347

 Excited State  61:      Singlet-A"    15.2422 eV   81.34 nm  f=0.0219  <S**2>=0.000
       7 -> 16         0.57910
       9 -> 20        -0.16942
       9 -> 22         0.17955
      10 -> 20         0.13533
      10 -> 22         0.16034

 Excited State  62:      Singlet-A'    15.2795 eV   81.14 nm  f=0.1628  <S**2>=0.000
       7 -> 17         0.29227
       7 -> 18        -0.10770
       7 -> 19        -0.15399
       7 -> 21         0.20366
       8 -> 20         0.26289
      10 -> 23         0.23219
      10 -> 24         0.12920
      12 -> 30         0.14608
      12 -> 32         0.22354
      12 -> 33         0.10594

 Excited State  63:      Singlet-A'    15.3688 eV   80.67 nm  f=0.0607  <S**2>=0.000
       7 -> 17        -0.13934
       7 -> 19         0.11907
      10 -> 23        -0.21674
      10 -> 24        -0.13603
      12 -> 30         0.55347
      12 -> 32         0.16910

 Excited State  64:      Singlet-A'    15.4463 eV   80.27 nm  f=0.1433  <S**2>=0.000
       7 -> 17        -0.15034
       7 -> 21         0.20252
      10 -> 19         0.10120
      10 -> 23         0.22171
      10 -> 24        -0.28958
      10 -> 25         0.47337

 Excited State  65:      Singlet-A"    15.4962 eV   80.01 nm  f=0.0034  <S**2>=0.000
       8 -> 18         0.32260
       8 -> 19         0.35489
       8 -> 21         0.19847
       8 -> 23         0.13826
      11 -> 23         0.19312
      11 -> 25        -0.33482

 Excited State  66:      Singlet-A'    15.5609 eV   79.68 nm  f=0.0627  <S**2>=0.000
       7 -> 17         0.31833
       7 -> 18         0.13486
       8 -> 16         0.10051
       9 -> 17         0.11040
       9 -> 19         0.34004
       9 -> 21         0.12646
      10 -> 18         0.13983
      10 -> 23        -0.27228
      10 -> 25         0.14955
      12 -> 32         0.18610

 Excited State  67:      Singlet-A'    15.6277 eV   79.34 nm  f=0.0701  <S**2>=0.000
       7 -> 17        -0.13981
       7 -> 19        -0.13923
       7 -> 21         0.18856
       9 -> 18         0.12998
      10 -> 18         0.14114
      10 -> 24         0.44790
      10 -> 25         0.20294
      12 -> 30         0.14682
      12 -> 32        -0.23631

 Excited State  68:      Singlet-A"    15.6969 eV   78.99 nm  f=0.0211  <S**2>=0.000
       8 -> 19        -0.15226
      12 -> 31         0.63245
      12 -> 34         0.13095

 Excited State  69:      Singlet-A'    15.7556 eV   78.69 nm  f=0.0439  <S**2>=0.000
       7 -> 17        -0.27610
       7 -> 18         0.10221
      10 -> 24         0.23788
      12 -> 29        -0.21479
      12 -> 30        -0.12962
      12 -> 32         0.43377
      12 -> 33         0.12182

 Excited State  70:      Singlet-A"    15.7730 eV   78.61 nm  f=0.0127  <S**2>=0.000
       8 -> 17         0.21875
       8 -> 18        -0.22176
       8 -> 19         0.42380
       8 -> 21        -0.11925
      11 -> 17        -0.10707
      11 -> 23         0.10604
      11 -> 24         0.28149
      11 -> 25         0.18234
      12 -> 31         0.21150

 Excited State  71:      Singlet-A'    16.0167 eV   77.41 nm  f=0.0047  <S**2>=0.000
       7 -> 17        -0.10211
       7 -> 18        -0.25311
       7 -> 21         0.37526
       9 -> 19        -0.11056
       9 -> 21        -0.15036
      10 -> 23        -0.32211
      10 -> 25        -0.13491
      12 -> 30        -0.14121
      12 -> 32         0.11429
      12 -> 33        -0.14010

 Excited State  72:      Singlet-A"    16.0900 eV   77.06 nm  f=0.2356  <S**2>=0.000
       7 -> 20         0.54933
       9 -> 22         0.28058
      10 -> 26        -0.14813
      12 -> 34         0.13053

 Excited State  73:      Singlet-A'    16.1441 eV   76.80 nm  f=0.0203  <S**2>=0.000
       6 -> 13         0.48086
       7 -> 18        -0.16895
       8 -> 20        -0.12851
       8 -> 22        -0.28753
       9 -> 23        -0.10878
       9 -> 24         0.13030
      11 -> 28        -0.18852

 Excited State  74:      Singlet-A'    16.1633 eV   76.71 nm  f=0.0766  <S**2>=0.000
       6 -> 13         0.38433
       7 -> 18         0.25484
       7 -> 19         0.13824
       7 -> 21         0.13031
       8 -> 20         0.11091
       8 -> 22         0.28232
       9 -> 25        -0.10064
      11 -> 28         0.21822
      12 -> 33        -0.15527

 Excited State  75:      Singlet-A"    16.2052 eV   76.51 nm  f=0.0182  <S**2>=0.000
       7 -> 16        -0.10097
       7 -> 20        -0.16096
       7 -> 22         0.16486
       9 -> 20         0.22065
       9 -> 22         0.54446
      10 -> 22        -0.12288
      12 -> 34        -0.14346

 Excited State  76:      Singlet-A'    16.2189 eV   76.44 nm  f=0.1764  <S**2>=0.000
       6 -> 13         0.10425
       7 -> 18        -0.20259
       8 -> 22         0.32383
      11 -> 26        -0.11629
      11 -> 28         0.16267
      12 -> 33         0.43123
      12 -> 37        -0.19080

 Excited State  77:      Singlet-A'    16.3619 eV   75.78 nm  f=0.0028  <S**2>=0.000
       7 -> 17        -0.16831
       7 -> 18         0.25064
       7 -> 19        -0.19721

 The electronic state is 1-A'.
 Alpha  occ. eigenvalues --  -19.46982 -10.54147 -10.45278  -1.18666  -0.89110
 Alpha  occ. eigenvalues --   -0.70768  -0.60835  -0.57061  -0.56322  -0.51602
 Alpha  occ. eigenvalues --   -0.48742  -0.37639
 Alpha virt. eigenvalues --    0.04817   0.05739   0.07079   0.11241   0.11547
 Alpha virt. eigenvalues --    0.13992   0.15976   0.16125   0.16560   0.20571
 Alpha virt. eigenvalues --    0.22446   0.23715   0.25317   0.28661   0.30552

 Mulliken charges:
               1
     1  C    0.103480
     2  C   -0.132552
     3  O   -0.192061
     4  H    0.122938
     5  H    0.122938
     6  H    0.040316
     7  H   -0.065057
 Sum of Mulliken charges =   0.00000

 Dipole moment (field-independent basis, Debye):
    X=              3.0288    Y=             -0.3164    Z=             -0.0000  Tot=              3.0453
 Quadrupole moment (field-independent basis, Debye-Ang):
   XX=            -21.3556   YY=            -17.8017   ZZ=            -17.9734
   XY=              0.8802   XZ=             -0.0000   YZ=              0.0000

 Normal termination of Gaussian 16 at Mon Mar 21 20:06:18 2022.
