 Gaussian 16, Revision C.01,
 Gaussian 16:  EM64L-G16RevC.01  3-Jul-2019

 -------------------------------------------------------------------
 #P TD(Nstates=10000) m11/Gen SCF(maxcycles=100) Int(Grid=ultrafine)
 -------------------------------------------------------------------

 ---------------------
 xGDB7_00001_tier4.com
 ---------------------
 Symbolic Z-matrix:
 Charge =  0 Multiplicity = 1

                         Standard orientation:
 ---------------------------------------------------------------------
 Center     Atomic      Atomic             Coordinates (Angstroms)
 Number     Number       Type             X           Y           Z
 ---------------------------------------------------------------------
      1          6           0        0.046419    0.658432    0.000000
      2          8           0        0.046419   -0.751929    0.000000
      3          1           0       -0.438905    1.073261    0.890797
      4          1           0       -0.438905    1.073261   -0.890797
      5          1           0        1.087855    0.977571    0.000000
      6          1           0       -0.859911   -1.059251    0.000000
 ---------------------------------------------------------------------

 SCF Done:  E(RM11) =  -115.583831445     A.U. after   13 cycles

 Excitation energies and oscillator strengths:

 Excited State   1:      Singlet-A"     6.8747 eV  180.35 nm  f=0.0019  <S**2>=0.000
       9 -> 10         0.63393
       9 -> 11        -0.23604
       9 -> 14         0.14979
 This state for optimization and/or second-order correction.
 Total Energy, E(TD-HF/TD-DFT) =  -115.331189361
 Copying the excited state density for this state as the 1-particle RhoCI density.

 Excited State   2:      Singlet-A"     8.2273 eV  150.70 nm  f=0.0257  <S**2>=0.000
       9 -> 10         0.25039
       9 -> 11         0.64643

 Excited State   3:      Singlet-A'     8.6174 eV  143.88 nm  f=0.0009  <S**2>=0.000
       8 -> 10         0.65280
       8 -> 11        -0.16598
       8 -> 14         0.14960

 Excited State   4:      Singlet-A"     8.9803 eV  138.06 nm  f=0.0175  <S**2>=0.000
       9 -> 12         0.66765
       9 -> 14        -0.14546

 Excited State   5:      Singlet-A'     9.2804 eV  133.60 nm  f=0.0462  <S**2>=0.000
       9 -> 13         0.68458

 Excited State   6:      Singlet-A"     9.6060 eV  129.07 nm  f=0.0000  <S**2>=0.000
       9 -> 10        -0.13289
       9 -> 12         0.16594
       9 -> 14         0.63529
       9 -> 19         0.10373

 Excited State   7:      Singlet-A'     9.6918 eV  127.93 nm  f=0.0500  <S**2>=0.000
       7 -> 10         0.11778
       8 -> 10         0.18439
       8 -> 11         0.65149

 Excited State   8:      Singlet-A"    10.4136 eV  119.06 nm  f=0.0222  <S**2>=0.000
       9 -> 14        -0.12015
       9 -> 15         0.54704
       9 -> 18        -0.34081

 Excited State   9:      Singlet-A"    10.6201 eV  116.75 nm  f=0.0242  <S**2>=0.000
       8 -> 13         0.68395

 Excited State  10:      Singlet-A'    10.7027 eV  115.84 nm  f=0.0666  <S**2>=0.000
       8 -> 12         0.56576
       8 -> 14        -0.35796

 Excited State  11:      Singlet-A'    10.9443 eV  113.29 nm  f=0.0259  <S**2>=0.000
       8 -> 14         0.11428
       9 -> 16         0.56606
       9 -> 17        -0.36087

 Excited State  12:      Singlet-A'    11.2407 eV  110.30 nm  f=0.0395  <S**2>=0.000
       7 -> 10         0.47520
       7 -> 11        -0.17733
       7 -> 14         0.11639
       8 -> 12         0.24785
       8 -> 14         0.28162
       8 -> 15         0.17030
       9 -> 17         0.14533

 Excited State  13:      Singlet-A"    11.3883 eV  108.87 nm  f=0.0019  <S**2>=0.000
       6 -> 10        -0.17705
       9 -> 15         0.32233
       9 -> 18         0.56843

 Excited State  14:      Singlet-A'    11.4185 eV  108.58 nm  f=0.0001  <S**2>=0.000
       7 -> 10        -0.42287
       8 -> 10        -0.10105
       8 -> 12         0.28487
       8 -> 14         0.42742

 Excited State  15:      Singlet-A"    11.5712 eV  107.15 nm  f=0.0211  <S**2>=0.000
       6 -> 10         0.43933
       6 -> 14         0.13420
       9 -> 15         0.22276
       9 -> 19        -0.41172

 Excited State  16:      Singlet-A'    11.6821 eV  106.13 nm  f=0.0271  <S**2>=0.000
       7 -> 11         0.18867
       8 -> 15        -0.25444
       9 -> 16         0.30773
       9 -> 17         0.51454

 Excited State  17:      Singlet-A"    12.0243 eV  103.11 nm  f=0.0218  <S**2>=0.000
       6 -> 10         0.46331
       8 -> 16         0.17653
       9 -> 19         0.41205
       9 -> 20        -0.11176

 Excited State  18:      Singlet-A"    12.2514 eV  101.20 nm  f=0.0634  <S**2>=0.000
       6 -> 10        -0.11483
       6 -> 11        -0.12274
       8 -> 16         0.61040
       8 -> 17        -0.15555
       9 -> 19        -0.16877

 Excited State  19:      Singlet-A'    12.3356 eV  100.51 nm  f=0.0693  <S**2>=0.000
       7 -> 11         0.56133
       8 -> 15         0.27847
       8 -> 18        -0.24894

 Excited State  20:      Singlet-A"    12.3919 eV  100.05 nm  f=0.0234  <S**2>=0.000
       6 -> 11         0.50523
       6 -> 14        -0.11884
       8 -> 16         0.10339
       8 -> 17        -0.20221
       9 -> 20         0.30153
       9 -> 21         0.17239

 Excited State  21:      Singlet-A'    12.4110 eV   99.90 nm  f=0.0588  <S**2>=0.000
       5 -> 10        -0.10813
       7 -> 10         0.16048
       7 -> 11         0.26874
       8 -> 14         0.18392
       8 -> 15        -0.29808
       8 -> 18         0.40377
       9 -> 16        -0.18036
       9 -> 17        -0.20531

 Excited State  22:      Singlet-A"    12.7655 eV   97.12 nm  f=0.0065  <S**2>=0.000
       6 -> 11         0.10059
       7 -> 13         0.32052
       8 -> 16         0.13810
       8 -> 17         0.55073
       9 -> 20         0.14347

 Excited State  23:      Singlet-A"    12.9645 eV   95.63 nm  f=0.0083  <S**2>=0.000
       6 -> 11        -0.38979
       7 -> 13        -0.13006
       9 -> 19         0.21124
       9 -> 20         0.45782
       9 -> 21         0.15758
       9 -> 23        -0.11121

 Excited State  24:      Singlet-A'    13.1586 eV   94.22 nm  f=0.0395  <S**2>=0.000
       5 -> 10         0.12403
       6 -> 13         0.17390
       7 -> 12         0.15527
       7 -> 14        -0.17199
       8 -> 15         0.38947
       8 -> 18         0.44441
       9 -> 16         0.10131

 Excited State  25:      Singlet-A'    13.3893 eV   92.60 nm  f=0.1051  <S**2>=0.000
       7 -> 12         0.57486
       7 -> 14        -0.22732
       8 -> 15        -0.18351
       8 -> 18        -0.18221

 Excited State  26:      Singlet-A"    13.3924 eV   92.58 nm  f=0.0133  <S**2>=0.000
       7 -> 13         0.56925
       8 -> 16        -0.17189
       8 -> 17        -0.31337
       9 -> 20         0.10448

 Excited State  27:      Singlet-A'    13.6006 eV   91.16 nm  f=0.0634  <S**2>=0.000
       5 -> 10         0.53371
       5 -> 11        -0.10904
       5 -> 14         0.12509
       6 -> 13        -0.25641
       6 -> 16        -0.10819
       8 -> 19        -0.17192
       9 -> 22         0.14326

 Excited State  28:      Singlet-A"    13.6885 eV   90.58 nm  f=0.0022  <S**2>=0.000
       6 -> 11        -0.14825
       6 -> 12         0.50236
       6 -> 14        -0.38814
       6 -> 19        -0.11777
       7 -> 13        -0.11299

 Excited State  29:      Singlet-A'    13.8194 eV   89.72 nm  f=0.0658  <S**2>=0.000
       5 -> 10         0.19714
       5 -> 11        -0.15092
       7 -> 14         0.24940
       8 -> 19         0.48453
       8 -> 20        -0.20263
       8 -> 21        -0.10136

 Excited State  30:      Singlet-A"    13.8888 eV   89.27 nm  f=0.0026  <S**2>=0.000
       6 -> 12        -0.10236
       9 -> 20        -0.29151
       9 -> 21         0.58305

 Excited State  31:      Singlet-A'    14.1275 eV   87.76 nm  f=0.0793  <S**2>=0.000
       6 -> 13         0.28492
       7 -> 12         0.15015
       7 -> 14         0.38450
       7 -> 15         0.27133
       8 -> 19        -0.29681
       8 -> 20        -0.11513

 Excited State  32:      Singlet-A"    14.2142 eV   87.23 nm  f=0.0997  <S**2>=0.000
       6 -> 12         0.30101
       6 -> 14         0.27132
       6 -> 15         0.16712
       6 -> 19         0.10813
       9 -> 21         0.18199
       9 -> 23         0.42682
       9 -> 30         0.14800

 Excited State  33:      Singlet-A'    14.2682 eV   86.90 nm  f=0.0637  <S**2>=0.000
       5 -> 10         0.15359
       5 -> 11         0.22858
       6 -> 13         0.34143
       7 -> 14         0.11177
       7 -> 15        -0.13003
       7 -> 18         0.11685
       8 -> 19         0.17010
       8 -> 20         0.36634
       8 -> 21         0.19900
       9 -> 24        -0.10419

 Excited State  34:      Singlet-A'    14.3314 eV   86.51 nm  f=0.0250  <S**2>=0.000
       6 -> 13         0.31120
       7 -> 12        -0.25359
       7 -> 14        -0.20512
       7 -> 15         0.21057
       8 -> 15        -0.11935
       8 -> 20        -0.14241
       9 -> 22         0.37122

 Excited State  35:      Singlet-A'    14.5081 eV   85.46 nm  f=0.0617  <S**2>=0.000
       5 -> 10         0.20519
       5 -> 11         0.37857
       6 -> 13        -0.12323
       7 -> 14        -0.21879
       7 -> 15         0.32233
       7 -> 18        -0.17897
       8 -> 19         0.11848
       9 -> 22        -0.25757

 Excited State  36:      Singlet-A'    14.5474 eV   85.23 nm  f=0.1708  <S**2>=0.000
       5 -> 10        -0.13353
       5 -> 11         0.15327
       6 -> 13        -0.19377
       7 -> 12         0.14655
       7 -> 14         0.19699
       7 -> 15         0.13408
       7 -> 18        -0.16429
       8 -> 19         0.14798
       8 -> 20         0.13367
       9 -> 22         0.44843

 Excited State  37:      Singlet-A"    14.6480 eV   84.64 nm  f=0.0031  <S**2>=0.000
       6 -> 12         0.27357
       6 -> 14         0.36328
       6 -> 18         0.12764
       7 -> 16        -0.26979
       7 -> 17         0.11449
       9 -> 23        -0.34218

 Excited State  38:      Singlet-A"    14.6803 eV   84.46 nm  f=0.0382  <S**2>=0.000
       6 -> 12         0.12035
       6 -> 14         0.15529
       6 -> 15         0.16292
       7 -> 16         0.48516
       7 -> 17        -0.23862
       9 -> 23        -0.25620
       9 -> 25        -0.10411

 Excited State  39:      Singlet-A'    14.7839 eV   83.86 nm  f=0.0251  <S**2>=0.000
       5 -> 11         0.40222
       7 -> 15        -0.24433
       7 -> 18         0.17776
       8 -> 19        -0.12871
       8 -> 20        -0.31335
       8 -> 21        -0.10307
       8 -> 23         0.10332
       9 -> 22         0.13754
       9 -> 24        -0.17855

 Excited State  40:      Singlet-A'    15.0166 eV   82.56 nm  f=0.3751  <S**2>=0.000
       5 -> 11         0.14585
       6 -> 16         0.12580
       6 -> 17         0.11835
       7 -> 15        -0.10131
       7 -> 18         0.10373
       9 -> 24         0.61482

 Excited State  41:      Singlet-A"    15.1650 eV   81.76 nm  f=0.1827  <S**2>=0.000
       5 -> 13         0.10441
       6 -> 15         0.49455
       6 -> 18        -0.24139
       7 -> 16        -0.31217
       9 -> 23        -0.12859
       9 -> 25        -0.16217

 Excited State  42:      Singlet-A"    15.3418 eV   80.81 nm  f=0.0205  <S**2>=0.000
       6 -> 15         0.26655
       7 -> 16         0.21317
       7 -> 17         0.47136
       8 -> 22        -0.19984
       8 -> 24        -0.12012
       9 -> 25         0.21730

 Excited State  43:      Singlet-A'    15.3523 eV   80.76 nm  f=0.0562  <S**2>=0.000
       5 -> 11        -0.11392
       5 -> 12         0.14342
       6 -> 13        -0.11036
       6 -> 16         0.36116
       6 -> 17        -0.14200
       7 -> 15         0.24446
       7 -> 18         0.33701
       8 -> 21         0.27463

 Excited State  44:      Singlet-A"    15.4200 eV   80.40 nm  f=0.1032  <S**2>=0.000
       5 -> 13         0.37038
       7 -> 17        -0.27163
       8 -> 22         0.10934
       9 -> 25         0.43665
       9 -> 27         0.10399
       9 -> 29        -0.12634

 Excited State  45:      Singlet-A'    15.4917 eV   80.03 nm  f=0.3291  <S**2>=0.000
       6 -> 16         0.39586
       7 -> 18        -0.12164
       8 -> 20         0.30276
       8 -> 21        -0.36257
       8 -> 23         0.21388

 Excited State  46:      Singlet-A"    15.5322 eV   79.82 nm  f=0.0729  <S**2>=0.000
       5 -> 13         0.55400
       6 -> 15        -0.13430
       7 -> 17         0.11601
       9 -> 25        -0.31095

 Excited State  47:      Singlet-A'    15.7197 eV   78.87 nm  f=0.0191  <S**2>=0.000
       5 -> 12         0.36280
       6 -> 16        -0.23697
       6 -> 17         0.28697
       7 -> 15         0.13404
       7 -> 18         0.25535
       8 -> 20         0.10155
       8 -> 21        -0.11601
       8 -> 23         0.26375

 Excited State  48:      Singlet-A'    15.7365 eV   78.79 nm  f=0.0018  <S**2>=0.000
       5 -> 12         0.51137
       5 -> 14        -0.11665
       6 -> 13         0.10946
       6 -> 17        -0.15547
       7 -> 15        -0.18434
       7 -> 18        -0.28675
       8 -> 21         0.15464

 Excited State  49:      Singlet-A"    15.8019 eV   78.46 nm  f=0.0267  <S**2>=0.000
       6 -> 15         0.18520
       6 -> 18         0.48287
       7 -> 17        -0.19864
       8 -> 22        -0.21321
       8 -> 24         0.10363
       9 -> 25        -0.18759
       9 -> 27         0.21020

 Excited State  50:      Singlet-A"    15.9537 eV   77.71 nm  f=0.0682  <S**2>=0.000
       6 -> 15        -0.11141
       8 -> 22         0.25268
       9 -> 19        -0.13767
       9 -> 23        -0.12406
       9 -> 25        -0.16492
       9 -> 27         0.47146
       9 -> 29        -0.15562
       9 -> 30         0.22326

 Excited State  51:      Singlet-A'    15.9826 eV   77.57 nm  f=0.0135  <S**2>=0.000
       5 -> 14         0.13232
       6 -> 16         0.15363
       6 -> 17         0.32031
       7 -> 18        -0.26244
       7 -> 19        -0.22421
       7 -> 20         0.12553
       8 -> 21         0.27539
       8 -> 23         0.27492

 Excited State  52:      Singlet-A'    16.0895 eV   77.06 nm  f=0.0642  <S**2>=0.000
       5 -> 12        -0.10979
       5 -> 14         0.11269
       6 -> 16        -0.20676
       6 -> 17        -0.38561
       8 -> 21         0.14387
       8 -> 23         0.40235
       9 -> 24         0.12058
       9 -> 26        -0.14896

 Excited State  53:      Singlet-A"    16.1159 eV   76.93 nm  f=0.0588  <S**2>=0.000
       6 -> 15         0.10836
       6 -> 18         0.31514
       7 -> 17         0.16639
       8 -> 22         0.53278
       9 -> 29         0.14306
       9 -> 30        -0.10373

 Excited State  54:      Singlet-A'    16.3485 eV   75.84 nm  f=0.0501  <S**2>=0.000
       5 -> 10        -0.10642
       5 -> 12         0.14605
       5 -> 14         0.58357
       8 -> 23        -0.22296
       9 -> 26        -0.12663

 Excited State  55:      Singlet-A"    16.4064 eV   75.57 nm  f=0.0097  <S**2>=0.000
       6 -> 19         0.18599
       8 -> 22         0.11172
       8 -> 24         0.43880
       9 -> 27        -0.28321
       9 -> 29        -0.24417
       9 -> 30         0.21325

 Excited State  56:      Singlet-A'    16.4361 eV   75.43 nm  f=0.0004  <S**2>=0.000
       5 -> 14         0.11708
       6 -> 17        -0.15827
       9 -> 26         0.59452
       9 -> 28         0.26639

 Excited State  57:      Singlet-A"    16.4940 eV   75.17 nm  f=0.0593  <S**2>=0.000
       5 -> 17         0.10764
       6 -> 14         0.13438
       6 -> 19        -0.30336
       8 -> 24         0.47032
       9 -> 27         0.22876
       9 -> 29         0.16528

 Excited State  58:      Singlet-A'    16.6411 eV   74.50 nm  f=0.0314  <S**2>=0.000
       5 -> 15        -0.17973
       6 -> 17         0.17822
       7 -> 19         0.53736
       8 -> 21         0.10680
       8 -> 23         0.11049
       8 -> 25         0.12667
       9 -> 28         0.18730

 Excited State  59:      Singlet-A"    16.7017 eV   74.23 nm  f=0.0037  <S**2>=0.000
       6 -> 14        -0.14215
       6 -> 19         0.42015
       6 -> 20        -0.22061
       6 -> 21        -0.13327
       8 -> 24         0.13637
       9 -> 27         0.16193
       9 -> 29         0.24067
       9 -> 30        -0.24618
       9 -> 31         0.12886

 Excited State  60:      Singlet-A'    16.7027 eV   74.23 nm  f=0.0508  <S**2>=0.000
       7 -> 19        -0.14279
       8 -> 25        -0.21821
       9 -> 26        -0.28522
       9 -> 28         0.55193

 Excited State  61:      Singlet-A'    16.9744 eV   73.04 nm  f=0.0514  <S**2>=0.000
       5 -> 15         0.27436
       5 -> 18        -0.10049
       7 -> 20         0.37207
       7 -> 21         0.22795
       8 -> 25         0.33743
       9 -> 28         0.12024

 Excited State  62:      Singlet-A"    17.0343 eV   72.78 nm  f=0.0868  <S**2>=0.000
       5 -> 16         0.57323
       9 -> 29        -0.19311
       9 -> 30        -0.21164

 Excited State  63:      Singlet-A'    17.0680 eV   72.64 nm  f=0.1494  <S**2>=0.000
       5 -> 15        -0.23859
       5 -> 18         0.21187
       7 -> 19        -0.23757
       7 -> 20        -0.11441
       7 -> 21        -0.13985
       8 -> 21        -0.13092
       8 -> 25         0.44122
       8 -> 29        -0.10311
       9 -> 28         0.15702

 Excited State  64:      Singlet-A"    17.2542 eV   71.86 nm  f=0.0327  <S**2>=0.000
       5 -> 16         0.31265
       9 -> 23        -0.12729
       9 -> 25         0.11165
       9 -> 29         0.44555
       9 -> 30         0.35997

 Excited State  65:      Singlet-A'    17.5023 eV   70.84 nm  f=0.1082  <S**2>=0.000
       4 -> 10        -0.11581
       5 -> 15        -0.32677
       5 -> 18         0.31706
       7 -> 20         0.35295
       7 -> 21         0.10510
       8 -> 25        -0.22515

 Excited State  66:      Singlet-A"    17.5051 eV   70.83 nm  f=0.0130  <S**2>=0.000
       6 -> 15         0.10449
       6 -> 19         0.25624
       6 -> 20         0.50818
       6 -> 21         0.12853
       8 -> 28         0.13150
       9 -> 31         0.28555

 Excited State  67:      Singlet-A'    17.6917 eV   70.08 nm  f=0.0325  <S**2>=0.000
       5 -> 15         0.23511
       5 -> 18         0.35697
       8 -> 27         0.47368

 Excited State  68:      Singlet-A"    17.8010 eV   69.65 nm  f=0.0009  <S**2>=0.000
       5 -> 16         0.12423
       5 -> 17         0.43714
       8 -> 26         0.46320
       8 -> 28         0.19436

 Excited State  69:      Singlet-A"    17.9234 eV   69.17 nm  f=0.0014  <S**2>=0.000
       5 -> 17        -0.27688
       7 -> 22        -0.22981
       8 -> 26         0.45922
       8 -> 28        -0.34877
       9 -> 31         0.10020

 Excited State  70:      Singlet-A"    17.9685 eV   69.00 nm  f=0.0034  <S**2>=0.000
       5 -> 17         0.30319
       6 -> 19        -0.13579
       6 -> 21        -0.19085
       8 -> 26        -0.10415
       8 -> 28        -0.18171
       9 -> 29        -0.10966
       9 -> 30         0.12045
       9 -> 31         0.43591
       9 -> 33        -0.18698
       9 -> 34         0.14557

 Excited State  71:      Singlet-A'    17.9737 eV   68.98 nm  f=0.0006  <S**2>=0.000
       5 -> 15        -0.22156
       5 -> 18        -0.21537
       7 -> 20        -0.23921
       7 -> 21         0.40506
       8 -> 27         0.24989
       8 -> 29         0.11703
       8 -> 30        -0.14422
       8 -> 31         0.12662
       9 -> 32         0.10638

 Excited State  72:      Singlet-A'    18.0021 eV   68.87 nm  f=0.1016  <S**2>=0.000
       5 -> 15         0.24045
       5 -> 18         0.34109
       5 -> 19        -0.10504
       7 -> 20        -0.26421
       7 -> 21         0.18552
       8 -> 27        -0.32334
       8 -> 29         0.13247

 Excited State  73:      Singlet-A"    18.0633 eV   68.64 nm  f=0.0355  <S**2>=0.000
       5 -> 17        -0.27736
       6 -> 19        -0.16699
       6 -> 21        -0.21192
       7 -> 22         0.10346
       8 -> 26         0.16276
       8 -> 28         0.44941
       9 -> 31         0.22959

 Excited State  74:      Singlet-A'    18.2264 eV   68.02 nm  f=0.0259  <S**2>=0.000
       4 -> 10         0.14175
       5 -> 19        -0.25462
       7 -> 20         0.10073
       7 -> 21        -0.25558
       7 -> 23         0.15422
       8 -> 27         0.19802
       8 -> 29         0.40146
       8 -> 30        -0.22146

 Excited State  75:      Singlet-A'    18.3673 eV   67.50 nm  f=0.0663  <S**2>=0.000
       5 -> 19        -0.18428
       6 -> 22         0.11010
       7 -> 21        -0.10082
       7 -> 23        -0.40994
       8 -> 30         0.13341
       9 -> 32         0.43776
       9 -> 35        -0.10485

 Excited State  76:      Singlet-A"    18.4282 eV   67.28 nm  f=0.0099  <S**2>=0.000
       7 -> 22         0.63199
       7 -> 24        -0.12343
       8 -> 26         0.12203
       8 -> 28        -0.19043

 Excited State  77:      Singlet-A'    18.5024 eV   67.01 nm  f=0.0113  <S**2>=0.000
       4 -> 10        -0.22944
       5 -> 19         0.10132
       6 -> 22        -0.14011
       7 -> 23        -0.32250
       8 -> 29         0.36678
       8 -> 30         0.12185
       9 -> 32        -0.31330

 Excited State  78:      Singlet-A"    18.5428 eV   66.86 nm  f=0.0178  <S**2>=0.000
       6 -> 20        -0.28547
       6 -> 21         0.45856
       6 -> 23        -0.22950
       9 -> 31         0.16911
       9 -> 33        -0.29080

 Excited State  79:      Singlet-A'    18.6857 eV   66.35 nm  f=0.0012  <S**2>=0.000
       4 -> 10         0.54484

 The electronic state is 1-A'.
 Alpha  occ. eigenvalues --  -19.46367 -10.48153  -1.14935  -0.81413  -0.63408
 Alpha  occ. eigenvalues --   -0.56424  -0.54780  -0.45247  -0.39624
 Alpha virt. eigenvalues --    0.04441   0.07369   0.11252   0.11340   0.14585
 Alpha virt. eigenvalues --    0.18686   0.19401   0.20472   0.20868   0.25316
 Alpha virt. eigenvalues --    0.28627   0.31506   0.31670   0.33773   0.34486

 Mulliken charges:
               1
     1  C    0.336236
     2  O   -0.435191
     3  H   -0.008608
     4  H   -0.008608
     5  H   -0.065773
     6  H    0.181945
 Sum of Mulliken charges =   0.00000

 Dipole moment (field-independent basis, Debye):
    X=             -1.4419    Y=              1.0540    Z=              0.0000  Tot=              1.7860
 Quadrupole moment (field-independent basis, Debye-Ang):
   XX=            -11.8253   YY=            -13.5114   ZZ=            -13.9016
   XY=              2.1753   XZ=              0.0000   YZ=             -0.0000

 Normal termination of Gaussian 16 at Mon Mar 21 20:09:36 2022.
