 Gaussian 16, Revision C.01,
 Gaussian 16:  EM64L-G16RevC.01  3-Jul-2019

 -------------------------------------------------------------------
 #P TD(Nstates=10000) m11/Gen SCF(maxcycles=100) Int(Grid=ultrafine)
 -------------------------------------------------------------------

 ---------------------
 xGDB7_00001_tier4.com
 ---------------------
 Symbolic Z-matrix:
 Charge =  0 Multiplicity = 1

                         Standard orientation:
 ---------------------------------------------------------------------
 Center     Atomic      Atomic             Coordinates (Angstroms)
 Number     Number       Type             X           Y           Z
 ---------------------------------------------------------------------
      1          6           0       -0.026655   -0.220923    1.206915
      2          7           0       -0.026655    0.579675   -0.000000
      3          6           0       -0.026655   -0.220923   -1.206915
      4          1           0        0.028929    0.427196    2.082330
      5          1           0        0.800836   -0.947383    1.258571
      6          1           0       -0.961718   -0.783094    1.269367
      7          1           0        0.770359    1.199905   -0.000000
      8          1           0       -0.961718   -0.783094   -1.269367
      9          1           0        0.800836   -0.947383   -1.258571
     10          1           0        0.028929    0.427196   -2.082330
 ---------------------------------------------------------------------

 SCF Done:  E(RM11) =  -134.977613997     A.U. after   14 cycles

 Excitation energies and oscillator strengths:

 Excited State   1:      Singlet-A'     5.8917 eV  210.44 nm  f=0.0006  <S**2>=0.000
      13 -> 14         0.63042
      13 -> 16         0.28477
 This state for optimization and/or second-order correction.
 Total Energy, E(TD-HF/TD-DFT) =  -134.761096321
 Copying the excited state density for this state as the 1-particle RhoCI density.

 Excited State   2:      Singlet-A"     6.9349 eV  178.78 nm  f=0.0017  <S**2>=0.000
      13 -> 15         0.69384

 Excited State   3:      Singlet-A'     7.1421 eV  173.60 nm  f=0.0345  <S**2>=0.000
      13 -> 14        -0.28229
      13 -> 16         0.62938

 Excited State   4:      Singlet-A'     8.1730 eV  151.70 nm  f=0.0129  <S**2>=0.000
      13 -> 17        -0.31476
      13 -> 18         0.58373
      13 -> 20        -0.16284

 Excited State   5:      Singlet-A'     8.3183 eV  149.05 nm  f=0.1050  <S**2>=0.000
      13 -> 17         0.57291
      13 -> 18         0.29654
      13 -> 20         0.11041
      13 -> 22         0.18378
      13 -> 27         0.10446

 Excited State   6:      Singlet-A'     8.9256 eV  138.91 nm  f=0.0182  <S**2>=0.000
      13 -> 17        -0.21596
      13 -> 20         0.51944
      13 -> 22         0.38259

 Excited State   7:      Singlet-A"     9.0190 eV  137.47 nm  f=0.0136  <S**2>=0.000
      13 -> 19         0.67797

 Excited State   8:      Singlet-A'     9.3022 eV  133.29 nm  f=0.0104  <S**2>=0.000
      13 -> 18        -0.18937
      13 -> 20        -0.39030
      13 -> 22         0.52226
      13 -> 24        -0.10188

 Excited State   9:      Singlet-A"     9.6789 eV  128.10 nm  f=0.0067  <S**2>=0.000
      11 -> 15         0.12272
      12 -> 14         0.44775
      13 -> 21         0.46755
      13 -> 23        -0.15294

 Excited State  10:      Singlet-A"     9.7879 eV  126.67 nm  f=0.1210  <S**2>=0.000
      11 -> 15         0.13870
      12 -> 14         0.46068
      13 -> 21        -0.39543
      13 -> 23         0.26975

 Excited State  11:      Singlet-A'     9.8222 eV  126.23 nm  f=0.0276  <S**2>=0.000
      10 -> 15         0.10105
      11 -> 14         0.62923
      11 -> 16         0.12277
      12 -> 15         0.20759

 Excited State  12:      Singlet-A"     9.9283 eV  124.88 nm  f=0.0110  <S**2>=0.000
      13 -> 21         0.30581
      13 -> 23         0.60344

 Excited State  13:      Singlet-A'    10.2299 eV  121.20 nm  f=0.0019  <S**2>=0.000
      13 -> 20        -0.12189
      13 -> 24         0.66369

 Excited State  14:      Singlet-A"    10.3055 eV  120.31 nm  f=0.0000  <S**2>=0.000
      10 -> 14         0.55711
      11 -> 15         0.31603
      13 -> 25        -0.15064

 Excited State  15:      Singlet-A"    10.5341 eV  117.70 nm  f=0.0355  <S**2>=0.000
      10 -> 14         0.13704
      13 -> 25         0.63950
      13 -> 26         0.13582

 Excited State  16:      Singlet-A'    10.7084 eV  115.78 nm  f=0.0503  <S**2>=0.000
       8 -> 14         0.15537
      11 -> 14        -0.14089
      11 -> 16        -0.21214
      12 -> 15         0.59447
      13 -> 27        -0.11261

 Excited State  17:      Singlet-A"    10.7935 eV  114.87 nm  f=0.0143  <S**2>=0.000
       9 -> 14        -0.12731
      10 -> 14        -0.17064
      11 -> 15         0.33771
      12 -> 16        -0.12664
      13 -> 25        -0.14040
      13 -> 26         0.45847
      13 -> 30        -0.16182
      13 -> 33        -0.11539

 Excited State  18:      Singlet-A"    10.8953 eV  113.80 nm  f=0.0025  <S**2>=0.000
       9 -> 14         0.13798
      10 -> 14         0.26122
      11 -> 15        -0.32817
      12 -> 16         0.30019
      13 -> 26         0.37409

 Excited State  19:      Singlet-A'    11.0567 eV  112.13 nm  f=0.1497  <S**2>=0.000
       8 -> 14         0.13659
      10 -> 15        -0.34522
      11 -> 14        -0.10721
      11 -> 16         0.53604
      12 -> 15         0.11435

 Excited State  20:      Singlet-A"    11.1210 eV  111.49 nm  f=0.0130  <S**2>=0.000
      10 -> 14        -0.10948
      11 -> 15         0.26030
      12 -> 14        -0.16306
      12 -> 16         0.58605
      13 -> 26        -0.10824

 Excited State  21:      Singlet-A'    11.4584 eV  108.20 nm  f=0.0367  <S**2>=0.000
       8 -> 14        -0.14319
      10 -> 15         0.47882
      11 -> 14        -0.15828
      11 -> 16         0.31875
      11 -> 18        -0.11463
      12 -> 15         0.10913
      13 -> 27        -0.23553

 Excited State  22:      Singlet-A'    11.5369 eV  107.47 nm  f=0.0068  <S**2>=0.000
      10 -> 15         0.17544
      12 -> 15         0.13919
      13 -> 27         0.55518
      13 -> 28         0.22548

 Excited State  23:      Singlet-A"    11.8377 eV  104.74 nm  f=0.0034  <S**2>=0.000
      10 -> 16         0.61721
      11 -> 19         0.17643
      12 -> 18         0.14158

 Excited State  24:      Singlet-A'    11.8954 eV  104.23 nm  f=0.0293  <S**2>=0.000
      11 -> 17        -0.37622
      12 -> 21        -0.12435
      13 -> 27        -0.21224
      13 -> 28         0.43353
      13 -> 29        -0.19500

 Excited State  25:      Singlet-A"    11.9043 eV  104.15 nm  f=0.0009  <S**2>=0.000
      11 -> 21         0.15992
      12 -> 17         0.65312

 Excited State  26:      Singlet-A"    11.9487 eV  103.76 nm  f=0.1019  <S**2>=0.000
       9 -> 14        -0.40589
       9 -> 16        -0.13978
      10 -> 16        -0.19901
      12 -> 18         0.43194
      12 -> 22         0.16488

 Excited State  27:      Singlet-A'    12.0007 eV  103.31 nm  f=0.0504  <S**2>=0.000
       9 -> 15        -0.10091
      10 -> 15        -0.13024
      11 -> 17         0.46639
      11 -> 18        -0.28982
      13 -> 28         0.29061

 Excited State  28:      Singlet-A"    12.0834 eV  102.61 nm  f=0.2349  <S**2>=0.000
       8 -> 15        -0.17011
       9 -> 14         0.44374
      10 -> 18        -0.11245
      11 -> 15         0.18935
      12 -> 18         0.40519

 Excited State  29:      Singlet-A'    12.2130 eV  101.52 nm  f=0.0586  <S**2>=0.000
       8 -> 14        -0.14712
       9 -> 15         0.23057
      11 -> 17         0.22369
      11 -> 18         0.48878
      11 -> 22         0.10599
      12 -> 21         0.12061
      13 -> 28         0.23272

 Excited State  30:      Singlet-A"    12.2491 eV  101.22 nm  f=0.0131  <S**2>=0.000
      10 -> 17         0.13987
      10 -> 20         0.16906
      12 -> 20        -0.10773
      13 -> 26         0.25674
      13 -> 30         0.50537
      13 -> 33         0.17296
      13 -> 39         0.10609

 Excited State  31:      Singlet-A'    12.4878 eV   99.28 nm  f=0.0433  <S**2>=0.000
       8 -> 14         0.52473
       8 -> 16         0.17558
       9 -> 15        -0.11643
      10 -> 15         0.17231
      11 -> 18         0.12927
      11 -> 20        -0.16326
      12 -> 15        -0.11161
      13 -> 28         0.15964

 Excited State  32:      Singlet-A'    12.5328 eV   98.93 nm  f=0.1568  <S**2>=0.000
       9 -> 15        -0.10104
      11 -> 22        -0.10395
      13 -> 28         0.20564
      13 -> 29         0.58869
      13 -> 34         0.10680

 Excited State  33:      Singlet-A"    12.5434 eV   98.84 nm  f=0.0804  <S**2>=0.000
       8 -> 15        -0.12295
      10 -> 17         0.40204
      10 -> 18        -0.27464
      11 -> 19         0.24556
      11 -> 21         0.15428
      12 -> 18        -0.13515
      12 -> 20         0.19420
      12 -> 22         0.18993

 Excited State  34:      Singlet-A"    12.6503 eV   98.01 nm  f=0.0216  <S**2>=0.000
       9 -> 16         0.12429
      10 -> 18         0.33532
      11 -> 25        -0.11184
      12 -> 20         0.45969
      12 -> 22         0.26075

 Excited State  35:      Singlet-A'    12.6631 eV   97.91 nm  f=0.0537  <S**2>=0.000
       8 -> 16         0.17002
       9 -> 15         0.15510
      11 -> 20         0.45941
      11 -> 22         0.18005
      12 -> 19         0.33107

 Excited State  36:      Singlet-A"    12.6897 eV   97.70 nm  f=0.0024  <S**2>=0.000
       8 -> 15         0.18700
       9 -> 14         0.13559
      10 -> 17         0.28179
      10 -> 18         0.36784
      11 -> 19         0.12385
      11 -> 21         0.11141
      12 -> 20        -0.27950
      13 -> 30        -0.17002

 Excited State  37:      Singlet-A'    12.7944 eV   96.90 nm  f=0.0331  <S**2>=0.000
       8 -> 14        -0.15551
       8 -> 16         0.21270
       9 -> 15         0.16686
      10 -> 15        -0.10383
      10 -> 19        -0.19636
      11 -> 20        -0.25259
      11 -> 22        -0.26332
      12 -> 19         0.36206
      13 -> 32         0.11986

 Excited State  38:      Singlet-A"    12.8099 eV   96.79 nm  f=0.0944  <S**2>=0.000
       9 -> 14         0.14880
       9 -> 16        -0.35529
      10 -> 16        -0.11167
      10 -> 17        -0.31394
      10 -> 20         0.15614
      10 -> 22         0.12160
      11 -> 19         0.36310

 Excited State  39:      Singlet-A'    12.9516 eV   95.73 nm  f=0.0005  <S**2>=0.000
       8 -> 14        -0.11739
       9 -> 15        -0.19692
      10 -> 19         0.10250
      10 -> 21         0.14865
      11 -> 20        -0.28021
      11 -> 22         0.29469
      12 -> 19         0.26233
      13 -> 29         0.10293
      13 -> 32        -0.26781
      13 -> 34        -0.12948

 Excited State  40:      Singlet-A"    13.0297 eV   95.16 nm  f=0.0303  <S**2>=0.000
       9 -> 16        -0.17069
      10 -> 17        -0.13289
      10 -> 20        -0.30424
      10 -> 24        -0.12304
      11 -> 21         0.13192
      12 -> 20        -0.25519
      12 -> 22         0.37332
      12 -> 24        -0.15843

 Excited State  41:      Singlet-A'    13.0489 eV   95.01 nm  f=0.0568  <S**2>=0.000
       8 -> 14         0.12363
       8 -> 18         0.14978
       9 -> 15         0.39776
      10 -> 19         0.20979
      11 -> 20        -0.10026
      11 -> 22        -0.17675
      12 -> 23        -0.12429
      13 -> 29         0.14135
      13 -> 32        -0.25696
      13 -> 34        -0.16653

 Excited State  42:      Singlet-A'    13.1740 eV   94.11 nm  f=0.0195  <S**2>=0.000
       8 -> 16        -0.10251
       8 -> 17        -0.11217
       9 -> 15         0.26143
      10 -> 19         0.19267
      10 -> 21         0.10134
      11 -> 20        -0.11945
      11 -> 22         0.20485
      12 -> 21        -0.24622
      12 -> 23         0.16172
      12 -> 25        -0.11740
      13 -> 31         0.12061
      13 -> 32         0.18395
      13 -> 34         0.25811
      13 -> 37         0.11207

 Excited State  43:      Singlet-A"    13.2208 eV   93.78 nm  f=0.0161  <S**2>=0.000
       9 -> 16         0.24426
       9 -> 17        -0.25316
      10 -> 17        -0.16287
      10 -> 18        -0.10778
      10 -> 20         0.20453
      10 -> 22         0.19407
      11 -> 21         0.39039
      12 -> 17        -0.11082
      13 -> 33        -0.17003

 Excited State  44:      Singlet-A'    13.2406 eV   93.64 nm  f=0.0507  <S**2>=0.000
       8 -> 17         0.11324
       9 -> 15         0.13137
      11 -> 17        -0.16558
      11 -> 18        -0.17261
      11 -> 22         0.14942
      11 -> 24        -0.16073
      12 -> 21         0.49295
      12 -> 23        -0.10711
      13 -> 32         0.19763

 Excited State  45:      Singlet-A"    13.3299 eV   93.01 nm  f=0.0012  <S**2>=0.000
       9 -> 16         0.15025
       9 -> 17         0.22937
      10 -> 18        -0.13673
      10 -> 20         0.33483
      10 -> 22         0.12094
      11 -> 21        -0.20800
      11 -> 23         0.21108
      11 -> 25        -0.10349
      12 -> 20        -0.15431
      12 -> 22         0.28526
      13 -> 30        -0.14072
      13 -> 33         0.11882

 Excited State  46:      Singlet-A'    13.3526 eV   92.85 nm  f=0.1786  <S**2>=0.000
       8 -> 16        -0.10777
       9 -> 15        -0.19186
      10 -> 19         0.24538
      11 -> 18         0.12163
      11 -> 22        -0.14568
      11 -> 24         0.19164
      12 -> 19         0.25000
      12 -> 23        -0.24529
      12 -> 25         0.10175
      13 -> 29        -0.15803
      13 -> 31         0.22376
      13 -> 34         0.19809

 Excited State  47:      Singlet-A"    13.4123 eV   92.44 nm  f=0.0088  <S**2>=0.000
       9 -> 16         0.34002
       9 -> 18         0.16967
      10 -> 16        -0.10594
      10 -> 20        -0.27482
      11 -> 19         0.38735
      11 -> 23         0.19279

 Excited State  48:      Singlet-A"    13.4870 eV   91.93 nm  f=0.0029  <S**2>=0.000
       8 -> 15        -0.11810
       9 -> 17        -0.12362
      10 -> 17        -0.12824
      10 -> 22        -0.10725
      11 -> 21         0.16543
      11 -> 23        -0.15260
      13 -> 30        -0.26598
      13 -> 33         0.48619

 Excited State  49:      Singlet-A'    13.5335 eV   91.61 nm  f=0.0079  <S**2>=0.000
       7 -> 14         0.16782
       8 -> 14         0.16047
       8 -> 16        -0.24873
       8 -> 18        -0.17113
      11 -> 20         0.10839
      11 -> 22        -0.14303
      12 -> 19         0.15190
      12 -> 21         0.16542
      12 -> 23         0.26886
      12 -> 26         0.10433
      13 -> 31        -0.11481
      13 -> 32        -0.17298
      13 -> 34         0.21151

 Excited State  50:      Singlet-A"    13.5359 eV   91.60 nm  f=0.0137  <S**2>=0.000
       8 -> 15         0.54193
      10 -> 14         0.11099
      10 -> 18        -0.14391
      10 -> 22        -0.23629
      11 -> 23        -0.10729
      12 -> 22         0.15197
      12 -> 24         0.10439

 Excited State  51:      Singlet-A'    13.6045 eV   91.13 nm  f=0.0181  <S**2>=0.000
       7 -> 14        -0.11615
      10 -> 19        -0.24798
      13 -> 31         0.50949
      13 -> 32        -0.20161
      13 -> 36        -0.14589
      13 -> 38         0.11326
      13 -> 40        -0.13503

 Excited State  52:      Singlet-A'    13.6356 eV   90.93 nm  f=0.0984  <S**2>=0.000
       7 -> 14        -0.34510
       7 -> 16        -0.10281
       7 -> 18        -0.10021
      12 -> 23        -0.12679
      12 -> 26        -0.10476
      13 -> 31        -0.28658
      13 -> 32        -0.15026
      13 -> 34         0.36270
      13 -> 36        -0.11940

 Excited State  53:      Singlet-A"    13.6935 eV   90.54 nm  f=0.0275  <S**2>=0.000
       8 -> 15         0.16235
       9 -> 16        -0.22815
       9 -> 18         0.19977
      10 -> 22         0.23358
      10 -> 24        -0.10148
      11 -> 19        -0.17151
      11 -> 21         0.15883
      11 -> 23         0.33119
      12 -> 20         0.12974
      12 -> 22        -0.18773
      13 -> 33         0.19249

 Excited State  54:      Singlet-A'    13.7962 eV   89.87 nm  f=0.1582  <S**2>=0.000
       7 -> 14         0.47183
       8 -> 18         0.11266
      10 -> 21        -0.17780
      11 -> 22         0.13801
      12 -> 21        -0.10596
      12 -> 23        -0.21081
      13 -> 32        -0.13191
      13 -> 34         0.19082

 Excited State  55:      Singlet-A"    13.9461 eV   88.90 nm  f=0.0129  <S**2>=0.000
       8 -> 15        -0.12388
       9 -> 18         0.37774
       9 -> 22         0.12196
      10 -> 18         0.12463
      10 -> 20         0.15010
      10 -> 22        -0.26885
      11 -> 23         0.19804
      11 -> 25         0.23384
      11 -> 26         0.12198
      12 -> 22         0.11357

 Excited State  56:      Singlet-A'    13.9472 eV   88.90 nm  f=0.0047  <S**2>=0.000
       7 -> 14         0.10404
       8 -> 16         0.36548
       8 -> 17        -0.11162
       8 -> 20        -0.10468
      10 -> 21         0.30980
      11 -> 24         0.14247
      12 -> 19        -0.15743
      12 -> 23         0.11319
      12 -> 25         0.18284
      13 -> 32        -0.15255
      13 -> 34         0.12956

 Excited State  57:      Singlet-A"    13.9633 eV   88.79 nm  f=0.0403  <S**2>=0.000
       8 -> 19         0.10220
       9 -> 17        -0.11129
      10 -> 22         0.13267
      12 -> 24         0.58844

 Excited State  58:      Singlet-A'    14.1043 eV   87.91 nm  f=0.0646  <S**2>=0.000
       8 -> 16         0.29393
      10 -> 19         0.29006
      10 -> 21        -0.22091
      10 -> 23         0.12554
      11 -> 22        -0.15147
      11 -> 24        -0.17540
      12 -> 23         0.19168
      12 -> 25        -0.22365
      13 -> 36         0.11885

 Excited State  59:      Singlet-A'    14.1540 eV   87.60 nm  f=0.1013  <S**2>=0.000
       8 -> 18        -0.13886
      11 -> 24        -0.21070
      12 -> 23        -0.17690
      12 -> 25         0.22828
      13 -> 32        -0.20062
      13 -> 36         0.38078
      13 -> 37         0.19745

 Excited State  60:      Singlet-A"    14.2218 eV   87.18 nm  f=0.0095  <S**2>=0.000
       9 -> 17         0.53123
      10 -> 17        -0.10034
      11 -> 21         0.32869
      12 -> 24         0.11553

 Excited State  61:      Singlet-A'    14.3079 eV   86.65 nm  f=0.0137  <S**2>=0.000
       8 -> 16        -0.11263
       8 -> 22         0.12044
      10 -> 19        -0.12270
      11 -> 24         0.34992
      12 -> 23         0.11394
      12 -> 25        -0.22464
      12 -> 26        -0.18610
      13 -> 32        -0.10395
      13 -> 36         0.33182

 Excited State  62:      Singlet-A"    14.3729 eV   86.26 nm  f=0.0491  <S**2>=0.000
       8 -> 19        -0.12497
       9 -> 18         0.11530
       9 -> 20         0.16490
       9 -> 22         0.25304
      10 -> 20        -0.12456
      10 -> 22         0.26674
      10 -> 24         0.20800
      11 -> 23        -0.14663
      11 -> 25         0.36535
      11 -> 26        -0.11935

 Excited State  63:      Singlet-A"    14.4477 eV   85.82 nm  f=0.0392  <S**2>=0.000
       9 -> 18        -0.25729
       9 -> 20         0.41225
      10 -> 22        -0.20637
      11 -> 23         0.31970
      11 -> 26        -0.19809

 Excited State  64:      Singlet-A'    14.5375 eV   85.29 nm  f=0.1207  <S**2>=0.000
       7 -> 18         0.11854
       8 -> 16        -0.10479
       8 -> 18         0.28568
       8 -> 24         0.12605
       9 -> 23         0.12683
      10 -> 21         0.21885
      10 -> 23         0.34818
      11 -> 24        -0.16737
      12 -> 23         0.11314
      12 -> 25         0.12426
      13 -> 36         0.13208

 Excited State  65:      Singlet-A"    14.5626 eV   85.14 nm  f=0.0438  <S**2>=0.000
       7 -> 15         0.47549
       9 -> 20         0.12217
      10 -> 24        -0.17841
      13 -> 35        -0.33260

 Excited State  66:      Singlet-A'    14.5953 eV   84.95 nm  f=0.0770  <S**2>=0.000
       7 -> 14        -0.17354
       7 -> 16         0.19254
       8 -> 17         0.26273
       8 -> 22        -0.12822
      10 -> 21        -0.16054
      10 -> 23         0.21015
      11 -> 20        -0.11904
      11 -> 22         0.12635
      11 -> 24         0.25782
      12 -> 25         0.14421
      12 -> 26         0.20787
      13 -> 36        -0.10571
      13 -> 37         0.10407
      13 -> 38        -0.15701

 Excited State  67:      Singlet-A"    14.6053 eV   84.89 nm  f=0.3669  <S**2>=0.000
       7 -> 15         0.32374
       9 -> 22         0.10473
      10 -> 24        -0.20425
      11 -> 25         0.10321
      12 -> 27         0.10258
      13 -> 33        -0.14922
      13 -> 35         0.47472

 Excited State  68:      Singlet-A'    14.6897 eV   84.40 nm  f=0.1265  <S**2>=0.000
       7 -> 16        -0.10202
       8 -> 17         0.28960
       8 -> 20         0.17663
      10 -> 21         0.31929
      11 -> 22        -0.10019
      12 -> 23        -0.15268
      12 -> 25        -0.29448
      12 -> 26         0.19415
      13 -> 37         0.14151

 Excited State  69:      Singlet-A'    14.7546 eV   84.03 nm  f=0.0348  <S**2>=0.000
       8 -> 17        -0.25592
       8 -> 18        -0.12744
       8 -> 20         0.25126
      12 -> 26         0.32097
      13 -> 34         0.12304
      13 -> 36         0.16736
      13 -> 37        -0.30647
      13 -> 38         0.13696

 Excited State  70:      Singlet-A"    14.8116 eV   83.71 nm  f=0.0993  <S**2>=0.000
       7 -> 15         0.22683
       8 -> 19        -0.10528
       9 -> 18        -0.26369
       9 -> 20        -0.25250
      10 -> 24         0.31857

 The electronic state is 1-A'.
 Alpha  occ. eigenvalues --  -14.59569 -10.45121 -10.45119  -1.03114  -0.83047
 Alpha  occ. eigenvalues --   -0.74930  -0.60863  -0.56158  -0.54961  -0.49651
 Alpha  occ. eigenvalues --   -0.47159  -0.46881  -0.32829
 Alpha virt. eigenvalues --    0.05589   0.07532   0.11059   0.14644   0.15531
 Alpha virt. eigenvalues --    0.17194   0.18153   0.18836   0.19873   0.21953
 Alpha virt. eigenvalues --    0.22750   0.24115   0.25364   0.26751   0.30344

 Mulliken charges:
               1
     1  C    0.466172
     2  N   -0.604758
     3  C    0.466172
     4  H   -0.110083
     5  H    0.010864
     6  H   -0.052697
     7  H   -0.023753
     8  H   -0.052697
     9  H    0.010864
    10  H   -0.110083
 Sum of Mulliken charges =  -0.00000

 Dipole moment (field-independent basis, Debye):
    X=              0.9733    Y=             -0.4420    Z=             -0.0000  Tot=              1.0689
 Quadrupole moment (field-independent basis, Debye-Ang):
   XX=            -20.9196   YY=            -21.5003   ZZ=            -19.7496
   XY=              2.1281   XZ=              0.0000   YZ=             -0.0000

 Normal termination of Gaussian 16 at Mon Mar 21 20:06:30 2022.
