 Gaussian 16, Revision C.01,
 Gaussian 16:  EM64L-G16RevC.01  3-Jul-2019

 -------------------------------------------------------------------
 #P TD(Nstates=10000) m11/Gen SCF(maxcycles=100) Int(Grid=ultrafine)
 -------------------------------------------------------------------

 ---------------------
 xGDB7_00001_tier4.com
 ---------------------
 Symbolic Z-matrix:
 Charge =  0 Multiplicity = 1

                         Standard orientation:
 ---------------------------------------------------------------------
 Center     Atomic      Atomic             Coordinates (Angstroms)
 Number     Number       Type             X           Y           Z
 ---------------------------------------------------------------------
      1          9           0       -1.139724   -0.269725    0.000000
      2          6           0        0.000000    0.430281    0.000000
      3          6           0        1.180852   -0.148760    0.000000
      4          1           0       -0.180450    1.498331    0.000000
      5          1           0        1.283634   -1.225170    0.000000
      6          1           0        2.069222    0.465238    0.000000
 ---------------------------------------------------------------------

 SCF Done:  E(RM11) =  -177.616410003     A.U. after   15 cycles

 Excitation energies and oscillator strengths:

 Excited State   1:      Singlet-A"     7.1903 eV  172.43 nm  f=0.0390  <S**2>=0.000
      12 -> 13         0.68801
 This state for optimization and/or second-order correction.
 Total Energy, E(TD-HF/TD-DFT) =  -177.352172925
 Copying the excited state density for this state as the 1-particle RhoCI density.

 Excited State   2:      Singlet-A'     7.7569 eV  159.84 nm  f=0.3272  <S**2>=0.000
      12 -> 15         0.69913

 Excited State   3:      Singlet-A"     7.8062 eV  158.83 nm  f=0.0059  <S**2>=0.000
      12 -> 14         0.68033
      12 -> 17        -0.11366

 Excited State   4:      Singlet-A"     8.8418 eV  140.22 nm  f=0.0019  <S**2>=0.000
      11 -> 15        -0.24747
      12 -> 16         0.49637
      12 -> 17        -0.21607
      12 -> 18        -0.16425
      12 -> 20        -0.26279
      12 -> 21         0.15308

 Excited State   5:      Singlet-A"     8.9157 eV  139.06 nm  f=0.0001  <S**2>=0.000
      11 -> 15         0.62566
      12 -> 16         0.11821
      12 -> 17        -0.20682

 Excited State   6:      Singlet-A"     9.1475 eV  135.54 nm  f=0.0019  <S**2>=0.000
      10 -> 15         0.12184
      11 -> 15         0.14263
      12 -> 14         0.11888
      12 -> 16         0.30884
      12 -> 17         0.52983
      12 -> 18        -0.18734
      12 -> 21        -0.11487

 Excited State   7:      Singlet-A"     9.8338 eV  126.08 nm  f=0.0023  <S**2>=0.000
      10 -> 15         0.47778
      12 -> 16        -0.23158
      12 -> 17        -0.11710
      12 -> 18        -0.41833

 Excited State   8:      Singlet-A"     9.9575 eV  124.51 nm  f=0.0049  <S**2>=0.000
      10 -> 15         0.48898
      12 -> 16         0.10629
      12 -> 18         0.47711

 Excited State   9:      Singlet-A'    10.0412 eV  123.48 nm  f=0.0015  <S**2>=0.000
      11 -> 13        -0.19447
      12 -> 19         0.65780

 Excited State  10:      Singlet-A'    10.3232 eV  120.10 nm  f=0.0059  <S**2>=0.000
      11 -> 13         0.58698
      11 -> 14         0.23796
      12 -> 19         0.21903

 Excited State  11:      Singlet-A"    10.4475 eV  118.67 nm  f=0.1440  <S**2>=0.000
      12 -> 16         0.17209
      12 -> 17        -0.11112
      12 -> 20         0.59293
      12 -> 21         0.25140

 Excited State  12:      Singlet-A"    10.7967 eV  114.83 nm  f=0.0043  <S**2>=0.000
      12 -> 16        -0.18218
      12 -> 17         0.25779
      12 -> 20        -0.13749
      12 -> 21         0.57877
      12 -> 27         0.11426

 Excited State  13:      Singlet-A'    11.0093 eV  112.62 nm  f=0.0641  <S**2>=0.000
      10 -> 13         0.45782
      10 -> 14        -0.19361
      11 -> 13        -0.22683
      11 -> 14         0.40529

 Excited State  14:      Singlet-A'    11.4050 eV  108.71 nm  f=0.0754  <S**2>=0.000
      10 -> 13        -0.35600
      10 -> 14         0.13226
      11 -> 13        -0.13366
      11 -> 14         0.42775
      12 -> 23         0.34124

 Excited State  15:      Singlet-A'    11.4766 eV  108.03 nm  f=0.0663  <S**2>=0.000
      10 -> 13         0.22220
      11 -> 14        -0.21732
      11 -> 16         0.25328
      12 -> 23         0.52840
      12 -> 24        -0.11714

 Excited State  16:      Singlet-A"    11.5740 eV  107.12 nm  f=0.0000  <S**2>=0.000
      12 -> 22         0.67199

 Excited State  17:      Singlet-A'    11.8330 eV  104.78 nm  f=0.1147  <S**2>=0.000
      10 -> 14         0.51105
      11 -> 13        -0.14492
      11 -> 16         0.28651
      11 -> 17        -0.14489
      11 -> 18        -0.11730
      12 -> 23        -0.16762

 Excited State  18:      Singlet-A'    12.0296 eV  103.07 nm  f=0.0805  <S**2>=0.000
      10 -> 13        -0.27721
      10 -> 14        -0.37658
      10 -> 16         0.11926
      11 -> 16         0.38604
      11 -> 17        -0.14163
      11 -> 20        -0.16921
      11 -> 21         0.10600
      11 -> 27         0.10964
      12 -> 23        -0.14201

 Excited State  19:      Singlet-A"    12.2029 eV  101.60 nm  f=0.0381  <S**2>=0.000
       8 -> 15         0.66407

 Excited State  20:      Singlet-A'    12.6393 eV   98.09 nm  f=0.0625  <S**2>=0.000
       9 -> 15        -0.11326
      11 -> 14         0.10088
      11 -> 16         0.29487
      11 -> 17         0.43173
      11 -> 18        -0.10905
      11 -> 20         0.19412
      11 -> 21        -0.16784
      11 -> 27        -0.14289
      12 -> 24        -0.18872

 Excited State  21:      Singlet-A'    12.7087 eV   97.56 nm  f=0.0635  <S**2>=0.000
       9 -> 15         0.37787
      10 -> 16         0.17738
      10 -> 17         0.16531
      11 -> 16         0.11674
      11 -> 17         0.12620
      11 -> 18         0.17775
      12 -> 24         0.39524
      12 -> 26        -0.15601

 Excited State  22:      Singlet-A"    12.7198 eV   97.47 nm  f=0.0010  <S**2>=0.000
      10 -> 19         0.17169
      11 -> 19         0.65700

 Excited State  23:      Singlet-A'    12.8593 eV   96.42 nm  f=0.0320  <S**2>=0.000
       8 -> 13        -0.10451
       9 -> 15         0.52551
      10 -> 16        -0.10675
      10 -> 17        -0.16641
      12 -> 24        -0.34917

 Excited State  24:      Singlet-A"    13.0693 eV   94.87 nm  f=0.0391  <S**2>=0.000
       9 -> 13         0.57442
       9 -> 14         0.28689
       9 -> 16         0.15477
      12 -> 25        -0.10477

 Excited State  25:      Singlet-A"    13.0856 eV   94.75 nm  f=0.0525  <S**2>=0.000
      12 -> 25         0.63110
      12 -> 27         0.19768

 Excited State  26:      Singlet-A'    13.1408 eV   94.35 nm  f=0.0496  <S**2>=0.000
       9 -> 15        -0.11013
      10 -> 16         0.32851
      10 -> 17        -0.18229
      10 -> 18        -0.11663
      10 -> 20        -0.13186
      11 -> 18         0.41548
      11 -> 20         0.23103
      12 -> 24        -0.19937

 Excited State  27:      Singlet-A"    13.1968 eV   93.95 nm  f=0.0043  <S**2>=0.000
      12 -> 20         0.13281
      12 -> 21        -0.15805
      12 -> 25        -0.19717
      12 -> 27         0.59101
      12 -> 28        -0.11929

 Excited State  28:      Singlet-A'    13.2893 eV   93.30 nm  f=0.0556  <S**2>=0.000
       8 -> 13         0.17327
       8 -> 14         0.15946
       9 -> 15         0.10570
      10 -> 17         0.32354
      10 -> 20         0.12459
      11 -> 17        -0.31817
      11 -> 18        -0.11453
      11 -> 20         0.30869
      12 -> 24        -0.20424

 Excited State  29:      Singlet-A'    13.4028 eV   92.51 nm  f=0.0959  <S**2>=0.000
       8 -> 13        -0.23038
      10 -> 16        -0.32207
      10 -> 17         0.12056
      10 -> 18         0.14750
      10 -> 20         0.21034
      11 -> 16         0.19955
      11 -> 17        -0.12307
      11 -> 18         0.35321
      12 -> 26         0.16969

 Excited State  30:      Singlet-A'    13.5705 eV   91.36 nm  f=0.1712  <S**2>=0.000
       8 -> 13         0.10173
       8 -> 14        -0.14485
      10 -> 17         0.33518
      11 -> 17         0.16151
      11 -> 18         0.18989
      11 -> 20        -0.32273
      11 -> 21         0.16442
      12 -> 24        -0.21013
      12 -> 26        -0.24493

 Excited State  31:      Singlet-A"    13.6183 eV   91.04 nm  f=0.0078  <S**2>=0.000
       7 -> 15         0.68303

 Excited State  32:      Singlet-A'    13.6995 eV   90.50 nm  f=0.0100  <S**2>=0.000
       8 -> 13         0.50786
      10 -> 16        -0.27566
      10 -> 17        -0.25931
      11 -> 18         0.13433
      12 -> 26        -0.15823

 Excited State  33:      Singlet-A'    13.8718 eV   89.38 nm  f=0.0082  <S**2>=0.000
       8 -> 13         0.26045
      10 -> 16         0.16946
      10 -> 18         0.20577
      11 -> 16        -0.14009
      11 -> 18         0.11513
      12 -> 26         0.52031

 Excited State  34:      Singlet-A"    14.0924 eV   87.98 nm  f=0.0180  <S**2>=0.000
      10 -> 19         0.60566
      10 -> 23         0.12080
      10 -> 24         0.10615
      11 -> 19        -0.16036
      11 -> 23        -0.22042

 Excited State  35:      Singlet-A'    14.1072 eV   87.89 nm  f=0.2450  <S**2>=0.000
      10 -> 16         0.19763
      10 -> 18         0.41206
      10 -> 22        -0.10385
      11 -> 17        -0.16504
      11 -> 20        -0.12137
      11 -> 21        -0.38041
      12 -> 26        -0.14715

 Excited State  36:      Singlet-A"    14.2413 eV   87.06 nm  f=0.0041  <S**2>=0.000
       9 -> 13        -0.24713
       9 -> 14         0.55856
       9 -> 16        -0.19789
       9 -> 17        -0.22885
       9 -> 18        -0.10221

 Excited State  37:      Singlet-A'    14.2527 eV   86.99 nm  f=0.0576  <S**2>=0.000
       8 -> 14         0.51401
      10 -> 18        -0.17515
      11 -> 18         0.15252
      11 -> 20        -0.24013
      11 -> 21        -0.27219

 Excited State  38:      Singlet-A'    14.4666 eV   85.70 nm  f=0.0405  <S**2>=0.000
       8 -> 14         0.34542
       8 -> 17        -0.10622
      10 -> 18         0.29806
      10 -> 21         0.17969
      11 -> 17         0.13393
      11 -> 21         0.29133
      12 -> 24         0.12119
      12 -> 26        -0.19435

 Excited State  39:      Singlet-A"    14.5086 eV   85.46 nm  f=0.0014  <S**2>=0.000
       9 -> 13        -0.22158
       9 -> 16         0.52382
       9 -> 17        -0.15942
       9 -> 20        -0.11799
       9 -> 27         0.11944
      12 -> 28         0.18212
      12 -> 29         0.19093

 Excited State  40:      Singlet-A"    14.5898 eV   84.98 nm  f=0.0266  <S**2>=0.000
       9 -> 16        -0.12571
       9 -> 17         0.12454
       9 -> 20         0.11538
      11 -> 23        -0.24486
      12 -> 27         0.14139
      12 -> 28         0.39193
      12 -> 29         0.39558

 Excited State  41:      Singlet-A'    14.6000 eV   84.92 nm  f=0.0216  <S**2>=0.000
       7 -> 13        -0.22832
       7 -> 14        -0.14954
      10 -> 18        -0.13231
      10 -> 20         0.49087
      10 -> 21         0.23532
      10 -> 25         0.13038
      11 -> 22         0.14551

 Excited State  42:      Singlet-A"    14.7125 eV   84.27 nm  f=0.0024  <S**2>=0.000
       9 -> 16        -0.12480
      10 -> 19         0.18969
      11 -> 23         0.57270
      11 -> 26         0.10381
      12 -> 28         0.16587
      12 -> 29         0.14702

 Excited State  43:      Singlet-A'    14.9927 eV   82.70 nm  f=0.0542  <S**2>=0.000
       8 -> 18         0.14030
       9 -> 19         0.12870
      10 -> 21        -0.16057
      10 -> 22         0.13446
      11 -> 22         0.58976

 Excited State  44:      Singlet-A'    15.0559 eV   82.35 nm  f=0.0676  <S**2>=0.000
       7 -> 13         0.55776
       7 -> 14         0.15817
       8 -> 16        -0.10913
       8 -> 20         0.10581
      10 -> 16         0.13346
      10 -> 20         0.22233

 Excited State  45:      Singlet-A"    15.1722 eV   81.72 nm  f=0.0084  <S**2>=0.000
       9 -> 14        -0.10107
       9 -> 16        -0.12016
       9 -> 17        -0.15796
       9 -> 18        -0.10054
       9 -> 20        -0.13047
      10 -> 23         0.18582
      12 -> 28         0.41648
      12 -> 29        -0.38060
      12 -> 31        -0.12048

 Excited State  46:      Singlet-A'    15.2094 eV   81.52 nm  f=0.0137  <S**2>=0.000
       7 -> 13        -0.17429
       8 -> 16        -0.24330
       8 -> 17         0.39364
       8 -> 20         0.18170
       8 -> 21        -0.15232
       8 -> 27        -0.11992
      10 -> 18         0.11950
      10 -> 21        -0.10968
      10 -> 22         0.12728
      11 -> 21         0.11578
      11 -> 22        -0.14722
      11 -> 27        -0.12988

 Excited State  47:      Singlet-A"    15.2661 eV   81.22 nm  f=0.0486  <S**2>=0.000
       9 -> 14        -0.18163
       9 -> 16        -0.26467
       9 -> 17        -0.22455
       9 -> 20        -0.24716
       9 -> 21         0.11168
       9 -> 27         0.14651
      12 -> 28        -0.10356
      12 -> 29         0.24897
      12 -> 30         0.33373

 Excited State  48:      Singlet-A"    15.3307 eV   80.87 nm  f=0.0992  <S**2>=0.000
       6 -> 15         0.12507
      10 -> 23         0.60175
      11 -> 26         0.11205
      12 -> 28        -0.16058

 Excited State  49:      Singlet-A'    15.3968 eV   80.53 nm  f=0.0178  <S**2>=0.000
       6 -> 13         0.10740
       8 -> 16         0.45943
       8 -> 17         0.32536
       8 -> 18        -0.14663
       9 -> 19         0.23151
      10 -> 18        -0.10245
      12 -> 32         0.11280

 Excited State  50:      Singlet-A"    15.4373 eV   80.31 nm  f=0.0044  <S**2>=0.000
       6 -> 15         0.11116
       9 -> 17         0.13623
       9 -> 20         0.15085
      12 -> 28         0.14209
      12 -> 29        -0.17377
      12 -> 30         0.56344
      12 -> 31        -0.12610

 Excited State  51:      Singlet-A'    15.4975 eV   80.00 nm  f=0.1828  <S**2>=0.000
       8 -> 16        -0.17914
       8 -> 17         0.10584
       9 -> 19         0.15454
      10 -> 16        -0.10413
      10 -> 17         0.11794
      10 -> 20        -0.17015
      10 -> 21         0.46214
      10 -> 22        -0.14541
      12 -> 32        -0.26637

 Excited State  52:      Singlet-A'    15.6533 eV   79.21 nm  f=0.1683  <S**2>=0.000
       7 -> 14        -0.12183
       8 -> 16        -0.17289
       8 -> 17         0.13497
      10 -> 22        -0.34503
      12 -> 32         0.50698

 Excited State  53:      Singlet-A'    15.7394 eV   78.77 nm  f=0.0461  <S**2>=0.000
       7 -> 13        -0.15893
       7 -> 14         0.30198
       7 -> 17        -0.10333
       8 -> 17        -0.14950
       8 -> 18         0.10550
       9 -> 19         0.24433
      10 -> 21         0.17816
      10 -> 22         0.28982
      11 -> 17        -0.10434
      11 -> 21        -0.10233
      11 -> 22        -0.12997
      12 -> 32         0.27719

 Excited State  54:      Singlet-A"    15.7949 eV   78.50 nm  f=0.0140  <S**2>=0.000
       8 -> 19        -0.36241
       8 -> 24        -0.12258
       9 -> 17         0.14624
      10 -> 19         0.10765
      10 -> 24        -0.13815
      11 -> 24         0.43865
      11 -> 26        -0.17135
      12 -> 31        -0.14408

 Excited State  55:      Singlet-A"    15.8986 eV   77.98 nm  f=0.0099  <S**2>=0.000
       6 -> 15         0.20005
       8 -> 19        -0.15347
       9 -> 17        -0.22669
       9 -> 18        -0.14500
       9 -> 20         0.19439
      11 -> 24         0.14917
      12 -> 31         0.49465

 Excited State  56:      Singlet-A'    15.9072 eV   77.94 nm  f=0.0844  <S**2>=0.000
       7 -> 14         0.36098
       8 -> 18        -0.29809
       9 -> 19        -0.35175
      10 -> 22        -0.10976
      11 -> 22         0.13427
      11 -> 25        -0.21967

 Excited State  57:      Singlet-A'    15.9730 eV   77.62 nm  f=0.0694  <S**2>=0.000
       7 -> 13         0.11783
       7 -> 14        -0.32304
       7 -> 16         0.12532
       9 -> 19        -0.28879
      10 -> 20        -0.10768
      10 -> 21         0.19690
      10 -> 22         0.32711
      11 -> 25        -0.12191
      12 -> 32         0.21381

 Excited State  58:      Singlet-A"    16.0928 eV   77.04 nm  f=0.0000  <S**2>=0.000
       9 -> 14         0.13831
       9 -> 17         0.25312
       9 -> 18         0.24160
       9 -> 20        -0.30786
       9 -> 21         0.17324
      12 -> 31         0.38471
      12 -> 33        -0.19019

 Excited State  59:      Singlet-A"    16.2206 eV   76.44 nm  f=0.0005  <S**2>=0.000
       6 -> 15        -0.30380
       8 -> 19        -0.22808
       9 -> 17         0.12034
       9 -> 18        -0.24598
       9 -> 21        -0.11164
      10 -> 24         0.37159
      10 -> 26        -0.12720
      12 -> 33        -0.21229

 Excited State  60:      Singlet-A"    16.3083 eV   76.03 nm  f=0.0152  <S**2>=0.000
       6 -> 15        -0.16201
       8 -> 19         0.32539
       9 -> 18        -0.31533
       9 -> 21        -0.10324
      10 -> 24        -0.32321
      12 -> 33        -0.29587

 Excited State  61:      Singlet-A'    16.3198 eV   75.97 nm  f=0.1288  <S**2>=0.000
       7 -> 14         0.20599
       7 -> 16        -0.12825
       8 -> 17         0.25935
       8 -> 18         0.14930
       8 -> 20        -0.13874
       9 -> 19        -0.26368
      10 -> 21         0.12020
      11 -> 20         0.10050
      11 -> 25         0.22902
      11 -> 27         0.30058

 Excited State  62:      Singlet-A'    16.3535 eV   75.82 nm  f=0.0970  <S**2>=0.000
       7 -> 14         0.11679
       7 -> 16         0.48830
       7 -> 17        -0.12647
       7 -> 20        -0.18673
       7 -> 21         0.10412
       8 -> 18         0.24622
      10 -> 22        -0.15320

 Excited State  63:      Singlet-A'    16.4435 eV   75.40 nm  f=0.0129  <S**2>=0.000
       7 -> 16        -0.18680
       8 -> 16         0.17652
       8 -> 18         0.36341
       8 -> 20         0.24303
       8 -> 21         0.15667
      11 -> 22        -0.13265
      11 -> 25        -0.33243

 Excited State  64:      Singlet-A"    16.4962 eV   75.16 nm  f=0.0662  <S**2>=0.000
       6 -> 15        -0.16732
       8 -> 19         0.23649
       9 -> 17        -0.23332
       9 -> 18         0.30964
       9 -> 20         0.17668
       9 -> 22         0.11491
      10 -> 24         0.21886
      11 -> 24         0.22380
      11 -> 26        -0.12650
      12 -> 33        -0.22086

 Excited State  65:      Singlet-A"    16.5018 eV   75.13 nm  f=0.0034  <S**2>=0.000
       6 -> 15         0.17733
       7 -> 19         0.12378
       8 -> 19         0.27541
       9 -> 17         0.16723
       9 -> 18        -0.22169
       9 -> 20        -0.18702
      10 -> 24         0.26312
      11 -> 24         0.31743
      12 -> 33         0.20718

 Excited State  66:      Singlet-A'    16.6523 eV   74.45 nm  f=0.0291  <S**2>=0.000
       7 -> 14        -0.10925
       8 -> 18        -0.18254
       8 -> 20         0.22847
       9 -> 19         0.10264
      10 -> 17         0.10163
      11 -> 21        -0.12013
      11 -> 25        -0.20507
      11 -> 27         0.46058
      12 -> 34         0.12029

 Excited State  67:      Singlet-A"    16.7323 eV   74.10 nm  f=0.0207  <S**2>=0.000
       8 -> 23         0.25928
      11 -> 24         0.24032
      11 -> 26         0.56704

 Excited State  68:      Singlet-A"    16.7870 eV   73.86 nm  f=0.1467  <S**2>=0.000
       6 -> 15        -0.37844
       9 -> 21        -0.27543
      12 -> 29        -0.10506
      12 -> 31         0.15842
      12 -> 33         0.41722
      12 -> 37        -0.11357

 Excited State  69:      Singlet-A'    16.8797 eV   73.45 nm  f=0.0160  <S**2>=0.000
       6 -> 13        -0.20811
       6 -> 14        -0.11041
       8 -> 20        -0.31907
      10 -> 25         0.42600
      11 -> 25        -0.24990
      12 -> 34        -0.10889

 Excited State  70:      Singlet-A'    16.9776 eV   73.03 nm  f=0.0142  <S**2>=0.000
       6 -> 13         0.45809
       6 -> 14         0.10747
       6 -> 20        -0.11107
       7 -> 20         0.11210
       8 -> 16        -0.13986
       8 -> 17         0.11717
       8 -> 18         0.10762
       8 -> 21         0.25599
      10 -> 25         0.22000
      10 -> 27         0.10038

 Excited State  71:      Singlet-A'    17.0368 eV   72.77 nm  f=0.0001  <S**2>=0.000
       7 -> 16        -0.15308
       7 -> 17        -0.26408
       8 -> 16         0.14981
       8 -> 17        -0.12929
       8 -> 20         0.24502
      10 -> 25         0.35962
      11 -> 25         0.28883

 Excited State  72:      Singlet-A"    17.1669 eV   72.22 nm  f=0.1781  <S**2>=0.000
       6 -> 15        -0.22861
       9 -> 17         0.10564
       9 -> 18        -0.10142
       9 -> 20         0.31853
       9 -> 21         0.48589
      12 -> 33         0.12354
      12 -> 35        -0.15992

 Excited State  73:      Singlet-A'    17.1879 eV   72.13 nm  f=0.0245  <S**2>=0.000
       6 -> 13         0.11581
       7 -> 17         0.13954
       8 -> 18         0.12354
       8 -> 21        -0.29368
      12 -> 34         0.52766

 Excited State  74:      Singlet-A'    17.3689 eV   71.38 nm  f=0.0008  <S**2>=0.000
       6 -> 13        -0.24251
       6 -> 14        -0.12306
       7 -> 16         0.21586
       7 -> 17         0.25288
       8 -> 20         0.25769

 The electronic state is 1-A'.
 Alpha  occ. eigenvalues --  -25.06917 -10.53164 -10.44574  -1.34875  -0.90907
 Alpha  occ. eigenvalues --   -0.74150  -0.66481  -0.61225  -0.60542  -0.52882
 Alpha  occ. eigenvalues --   -0.49799  -0.38045
 Alpha virt. eigenvalues --    0.05093   0.06529   0.08607   0.12473   0.14648
 Alpha virt. eigenvalues --    0.15763   0.15766   0.19297   0.22026   0.22313
 Alpha virt. eigenvalues --    0.23414   0.27580   0.28588   0.30322   0.31404

 Mulliken charges:
               1
     1  F   -0.359448
     2  C    0.442738
     3  C   -0.158984
     4  H    0.012068
     5  H    0.016027
     6  H    0.047598
 Sum of Mulliken charges =  -0.00000

 Dipole moment (field-independent basis, Debye):
    X=              1.2704    Y=              0.8230    Z=              0.0000  Tot=              1.5137
 Quadrupole moment (field-independent basis, Debye-Ang):
   XX=            -17.6948   YY=            -15.5422   ZZ=            -19.0555
   XY=             -0.9440   XZ=              0.0000   YZ=              0.0000

 Normal termination of Gaussian 16 at Mon Mar 21 20:15:07 2022.
