 Gaussian 16, Revision C.01,
 Gaussian 16:  EM64L-G16RevC.01  3-Jul-2019

 -------------------------------------------------------------------
 #P TD(Nstates=10000) m11/Gen SCF(maxcycles=100) Int(Grid=ultrafine)
 -------------------------------------------------------------------

 ---------------------
 xGDB7_00001_tier4.com
 ---------------------
 Symbolic Z-matrix:
 Charge =  0 Multiplicity = 1

                         Standard orientation:
 ---------------------------------------------------------------------
 Center     Atomic      Atomic             Coordinates (Angstroms)
 Number     Number       Type             X           Y           Z
 ---------------------------------------------------------------------
      1          6           0        0.000000    0.729549   -0.367364
      2          6           0       -0.000000   -0.729549   -0.367364
      3          8           0       -0.000000   -0.000000    0.845033
      4          1           0       -0.918945    1.264243   -0.587975
      5          1           0        0.918945    1.264243   -0.587975
      6          1           0        0.918945   -1.264243   -0.587975
      7          1           0       -0.918945   -1.264243   -0.587975
 ---------------------------------------------------------------------

 SCF Done:  E(RM11) =  -153.599407556     A.U. after   14 cycles

 Excitation energies and oscillator strengths:

 Excited State   1:      Singlet-B1     7.7717 eV  159.53 nm  f=0.0093  <S**2>=0.000
      12 -> 13         0.63980
      12 -> 16        -0.23205
      12 -> 18         0.15777
 This state for optimization and/or second-order correction.
 Total Energy, E(TD-HF/TD-DFT) =  -153.313801213
 Copying the excited state density for this state as the 1-particle RhoCI density.

 Excited State   2:      Singlet-A2     8.2254 eV  150.73 nm  f=0.0000  <S**2>=0.000
      12 -> 14         0.56770
      12 -> 17        -0.33671
      12 -> 20        -0.22611

 Excited State   3:      Singlet-B1     8.2727 eV  149.87 nm  f=0.0281  <S**2>=0.000
      12 -> 13         0.26571
      12 -> 16         0.57830
      12 -> 18        -0.20479
      12 -> 21        -0.13087
      12 -> 28        -0.14639

 Excited State   4:      Singlet-A1     8.4972 eV  145.91 nm  f=0.0002  <S**2>=0.000
      11 -> 13         0.68844
      11 -> 18         0.11857

 Excited State   5:      Singlet-A2     8.5802 eV  144.50 nm  f=0.0000  <S**2>=0.000
      12 -> 14         0.37911
      12 -> 17         0.30655
      12 -> 20         0.47143
      12 -> 29        -0.15737

 Excited State   6:      Singlet-A1     8.8595 eV  139.95 nm  f=0.0330  <S**2>=0.000
      12 -> 15         0.69520

 Excited State   7:      Singlet-B2     9.1410 eV  135.63 nm  f=0.0438  <S**2>=0.000
      11 -> 14         0.69459

 Excited State   8:      Singlet-A1     9.2649 eV  133.82 nm  f=0.0584  <S**2>=0.000
      11 -> 16         0.57073
      11 -> 18        -0.34501
      11 -> 21        -0.14567
      11 -> 28        -0.11699

 Excited State   9:      Singlet-B1     9.5093 eV  130.38 nm  f=0.0145  <S**2>=0.000
      11 -> 15         0.54336
      12 -> 16         0.17868
      12 -> 18         0.38559

 Excited State  10:      Singlet-B1     9.6522 eV  128.45 nm  f=0.0057  <S**2>=0.000
      11 -> 15        -0.42794
      12 -> 16         0.22834
      12 -> 18         0.48405

 Excited State  11:      Singlet-B2    10.2417 eV  121.06 nm  f=0.1451  <S**2>=0.000
      11 -> 17         0.54101
      11 -> 20         0.38734

 Excited State  12:      Singlet-A2    10.2839 eV  120.56 nm  f=0.0000  <S**2>=0.000
      10 -> 13        -0.32511
      10 -> 16        -0.10630
      12 -> 17         0.45163
      12 -> 20        -0.39452

 Excited State  13:      Singlet-A2    10.3833 eV  119.41 nm  f=0.0000  <S**2>=0.000
      10 -> 13         0.59295
      12 -> 14         0.13091
      12 -> 17         0.26500
      12 -> 20        -0.19287

 Excited State  14:      Singlet-A1    10.6986 eV  115.89 nm  f=0.0104  <S**2>=0.000
      11 -> 13        -0.11673
      11 -> 16         0.34503
      11 -> 18         0.57800

 Excited State  15:      Singlet-B1    10.8113 eV  114.68 nm  f=0.0376  <S**2>=0.000
      10 -> 14         0.51458
      10 -> 20        -0.13189
      12 -> 21        -0.41165

 Excited State  16:      Singlet-B2    10.9939 eV  112.78 nm  f=0.0177  <S**2>=0.000
       9 -> 13         0.67333
      11 -> 17         0.10957

 Excited State  17:      Singlet-B2    11.2402 eV  110.30 nm  f=0.1303  <S**2>=0.000
      10 -> 15        -0.18506
      11 -> 17         0.16396
      12 -> 19         0.63905

 Excited State  18:      Singlet-B1    11.2853 eV  109.86 nm  f=0.0522  <S**2>=0.000
      10 -> 14         0.43623
      12 -> 18        -0.11215
      12 -> 21         0.49097
      12 -> 28         0.12720

 Excited State  19:      Singlet-A2    11.3962 eV  108.79 nm  f=0.0000  <S**2>=0.000
      10 -> 16         0.53418
      10 -> 18        -0.38201
      10 -> 21        -0.14846
      10 -> 28        -0.10352

 Excited State  20:      Singlet-B2    11.4106 eV  108.66 nm  f=0.0082  <S**2>=0.000
       9 -> 13         0.13093
       9 -> 16         0.41217
       9 -> 18        -0.13273
       9 -> 28        -0.11519
      11 -> 17        -0.32867
      11 -> 20         0.33316
      12 -> 19         0.18553

 Excited State  21:      Singlet-A1    11.5460 eV  107.38 nm  f=0.0040  <S**2>=0.000
       9 -> 14        -0.17176
       9 -> 17         0.17452
       9 -> 20         0.13942
      11 -> 21         0.24735
      12 -> 22         0.57179

 Excited State  22:      Singlet-A1    11.6127 eV  106.77 nm  f=0.0107  <S**2>=0.000
       9 -> 14         0.65622
       9 -> 17        -0.10619
      12 -> 22         0.19486

 Excited State  23:      Singlet-B1    11.6650 eV  106.29 nm  f=0.0012  <S**2>=0.000
      10 -> 14         0.14186
      10 -> 17         0.43663
      10 -> 20         0.49148
      11 -> 22        -0.10282

 Excited State  24:      Singlet-A2    11.7383 eV  105.62 nm  f=0.0000  <S**2>=0.000
      11 -> 19         0.68875
      11 -> 39        -0.10149

 Excited State  25:      Singlet-B2    11.7583 eV  105.44 nm  f=0.1985  <S**2>=0.000
       9 -> 16         0.40101
       9 -> 18        -0.11985
      10 -> 15        -0.39754
      11 -> 17         0.15449
      11 -> 20        -0.25989
      12 -> 19        -0.16664

 Excited State  26:      Singlet-A2    11.9420 eV  103.82 nm  f=0.0000  <S**2>=0.000
       9 -> 15         0.68121

 Excited State  27:      Singlet-B2    11.9592 eV  103.67 nm  f=0.0123  <S**2>=0.000
       9 -> 16         0.23265
      10 -> 15         0.51588
      11 -> 17         0.13384
      11 -> 20        -0.33663

 Excited State  28:      Singlet-B1    12.0785 eV  102.65 nm  f=0.0053  <S**2>=0.000
      11 -> 22         0.67047

 Excited State  29:      Singlet-A1    12.1513 eV  102.03 nm  f=0.0055  <S**2>=0.000
       9 -> 17        -0.24919
       9 -> 20        -0.20241
      11 -> 16         0.16219
      11 -> 21         0.55723
      11 -> 28         0.10457
      12 -> 22        -0.14997

 Excited State  30:      Singlet-A2    12.3153 eV  100.68 nm  f=0.0000  <S**2>=0.000
      10 -> 16        -0.20617
      10 -> 18        -0.23377
      10 -> 21         0.12674
      12 -> 23         0.59336
      12 -> 38        -0.10734

 Excited State  31:      Singlet-A1    12.5891 eV   98.49 nm  f=0.0132  <S**2>=0.000
      12 -> 22        -0.12434
      12 -> 24         0.66954

 Excited State  32:      Singlet-A2    12.7775 eV   97.03 nm  f=0.0000  <S**2>=0.000
      10 -> 16         0.27386
      10 -> 18         0.52001
      10 -> 21        -0.12018
      12 -> 23         0.33850

 Excited State  33:      Singlet-B1    12.8219 eV   96.70 nm  f=0.0044  <S**2>=0.000
      10 -> 17        -0.10859
      12 -> 21        -0.19281
      12 -> 25         0.52409
      12 -> 28         0.36693

 Excited State  34:      Singlet-B2    12.9191 eV   95.97 nm  f=0.0016  <S**2>=0.000
       9 -> 16         0.22420
       9 -> 18         0.51654
      11 -> 23        -0.38374

 Excited State  35:      Singlet-B2    13.1076 eV   94.59 nm  f=0.0339  <S**2>=0.000
       9 -> 16         0.11138
       9 -> 18         0.37827
      11 -> 23         0.56086

 Excited State  36:      Singlet-A1    13.1205 eV   94.50 nm  f=0.0483  <S**2>=0.000
       8 -> 13         0.35508
       9 -> 14         0.13072
       9 -> 17         0.28203
       9 -> 20         0.30071
      11 -> 21         0.21584
      11 -> 25        -0.11583
      11 -> 28        -0.22956
      12 -> 22        -0.16940
      12 -> 24        -0.10152

 Excited State  37:      Singlet-B1    13.1330 eV   94.41 nm  f=0.0109  <S**2>=0.000
      11 -> 24         0.66733
      12 -> 28         0.13236

 Excited State  38:      Singlet-B1    13.3884 eV   92.61 nm  f=0.0270  <S**2>=0.000
      10 -> 17         0.38623
      10 -> 20        -0.36069
      11 -> 24         0.11506
      12 -> 25         0.32172
      12 -> 28        -0.26325

 Excited State  39:      Singlet-A1    13.6508 eV   90.83 nm  f=0.0070  <S**2>=0.000
       8 -> 13         0.52265
       8 -> 18         0.12643
       9 -> 17        -0.18999
       9 -> 20        -0.12341
      10 -> 19        -0.30733
      11 -> 21        -0.10500
      12 -> 22         0.14934

 Excited State  40:      Singlet-A1    13.6625 eV   90.75 nm  f=0.0031  <S**2>=0.000
       8 -> 16        -0.25252
       8 -> 18         0.11270
       9 -> 17         0.28288
       9 -> 20        -0.10028
      11 -> 16         0.11673
      11 -> 25         0.50238
      11 -> 28         0.13028

 Excited State  41:      Singlet-A2    13.6955 eV   90.53 nm  f=0.0000  <S**2>=0.000
       7 -> 14         0.16359
      10 -> 16         0.22700
      10 -> 21         0.57147
      12 -> 29         0.21997

 Excited State  42:      Singlet-A1    13.7426 eV   90.22 nm  f=0.0117  <S**2>=0.000
       8 -> 13        -0.10734
       9 -> 17        -0.33950
       9 -> 20         0.45497
      10 -> 19        -0.25165
      11 -> 25         0.25134

 Excited State  43:      Singlet-B1    13.7948 eV   89.88 nm  f=0.0335  <S**2>=0.000
       8 -> 15         0.10053
      10 -> 17         0.33603
      10 -> 20        -0.27448
      12 -> 25        -0.28818
      12 -> 28         0.42179

 Excited State  44:      Singlet-B2    13.8442 eV   89.56 nm  f=0.0064  <S**2>=0.000
       8 -> 14         0.15199
       9 -> 21        -0.12198
      10 -> 22         0.30245
      10 -> 24        -0.12502
      12 -> 26         0.56978
      12 -> 42        -0.11650

 Excited State  45:      Singlet-B2    13.9800 eV   88.69 nm  f=0.2415  <S**2>=0.000
       8 -> 14         0.58757
       8 -> 17        -0.19144
       8 -> 20        -0.18807
       9 -> 21        -0.13972
      10 -> 22        -0.13359
      12 -> 26        -0.11987

 Excited State  46:      Singlet-B1    14.2196 eV   87.19 nm  f=0.1828  <S**2>=0.000
       8 -> 15        -0.33659
       9 -> 19         0.58485

 Excited State  47:      Singlet-A2    14.2717 eV   86.87 nm  f=0.0000  <S**2>=0.000
       7 -> 20        -0.10376
       9 -> 22        -0.31917
      10 -> 21        -0.20957
      12 -> 20         0.13021
      12 -> 29         0.49084
      12 -> 38        -0.14587
      12 -> 46        -0.11076

 Excited State  48:      Singlet-B2    14.2752 eV   86.85 nm  f=0.0050  <S**2>=0.000
       8 -> 17        -0.13570
       8 -> 20        -0.13080
       9 -> 16         0.12388
       9 -> 21         0.56238
       9 -> 28         0.11409
      10 -> 22        -0.14870
      12 -> 26         0.20971

 Excited State  49:      Singlet-A1    14.2792 eV   86.83 nm  f=0.2665  <S**2>=0.000
       8 -> 13         0.17766
       8 -> 16         0.44616
       8 -> 18        -0.12616
      10 -> 19         0.29225
      11 -> 25         0.31836
      12 -> 27         0.12169

 Excited State  50:      Singlet-A1    14.4250 eV   85.95 nm  f=0.0001  <S**2>=0.000
       8 -> 13         0.12261
       8 -> 16        -0.28562
       8 -> 18         0.23966
       9 -> 17        -0.23763
       9 -> 20         0.10269
      10 -> 19         0.44188
      11 -> 28        -0.18895

 Excited State  51:      Singlet-B2    14.4364 eV   85.88 nm  f=0.0193  <S**2>=0.000
       9 -> 21         0.17476
      10 -> 15         0.11047
      10 -> 22         0.57420
      10 -> 24         0.10007
      12 -> 26        -0.26642

 Excited State  52:      Singlet-A2    14.4416 eV   85.85 nm  f=0.0000  <S**2>=0.000
       9 -> 22         0.59562
      12 -> 29         0.29906

 Excited State  53:      Singlet-B2    14.5319 eV   85.32 nm  f=0.0000  <S**2>=0.000
       8 -> 14         0.31685
       8 -> 17         0.33621
       8 -> 20         0.43666
       8 -> 29        -0.10229
       9 -> 21         0.15726
      11 -> 29        -0.14967

 Excited State  54:      Singlet-B1    14.5572 eV   85.17 nm  f=0.1514  <S**2>=0.000
       7 -> 13         0.62680
       8 -> 15         0.17217
       9 -> 19         0.15799

 Excited State  55:      Singlet-B1    14.6315 eV   84.74 nm  f=0.0036  <S**2>=0.000
       7 -> 13        -0.19506
       8 -> 15         0.55398
       9 -> 19         0.31792
      10 -> 23        -0.15402

 Excited State  56:      Singlet-A2    14.7233 eV   84.21 nm  f=0.0000  <S**2>=0.000
      11 -> 26         0.69390
      11 -> 42        -0.10416

 Excited State  57:      Singlet-A1    14.8091 eV   83.72 nm  f=0.0152  <S**2>=0.000
      10 -> 19        -0.13763
      11 -> 28        -0.40234
      11 -> 30         0.10777
      12 -> 27         0.48120

 Excited State  58:      Singlet-B1    15.1216 eV   81.99 nm  f=0.1496  <S**2>=0.000
       7 -> 13        -0.18189
       7 -> 16         0.13734
      10 -> 23         0.50409
      12 -> 30         0.37480

 Excited State  59:      Singlet-A2    15.1598 eV   81.78 nm  f=0.0000  <S**2>=0.000
       7 -> 14         0.61951
       7 -> 20        -0.10608
      10 -> 21        -0.18713
      12 -> 31         0.17029

 Excited State  60:      Singlet-B2    15.2140 eV   81.49 nm  f=0.4051  <S**2>=0.000
       9 -> 21        -0.14721
      10 -> 24         0.64278
      11 -> 29        -0.11589
      12 -> 26         0.12193

 Excited State  61:      Singlet-B1    15.2274 eV   81.42 nm  f=0.3309  <S**2>=0.000
       7 -> 16         0.25468
       7 -> 18        -0.19294
       8 -> 15        -0.10433
      10 -> 23        -0.40337
      12 -> 30         0.41901

 Excited State  62:      Singlet-A2    15.2347 eV   81.38 nm  f=0.0000  <S**2>=0.000
       7 -> 17        -0.29693
       7 -> 20        -0.35424
      10 -> 16         0.11052
      10 -> 25         0.42191
      10 -> 28         0.17694
      12 -> 29        -0.11290
      12 -> 31        -0.15000

 Excited State  63:      Singlet-A1    15.3054 eV   81.01 nm  f=0.2982  <S**2>=0.000
       8 -> 16        -0.25240
       8 -> 18        -0.23268
       9 -> 20         0.16052
       9 -> 23         0.18438
      11 -> 25        -0.11191
      11 -> 28         0.26074
      11 -> 30        -0.10207
      12 -> 27         0.43267

 Excited State  64:      Singlet-B2    15.3978 eV   80.52 nm  f=0.0439  <S**2>=0.000
       8 -> 20         0.16269
      11 -> 29         0.61574
      11 -> 38        -0.15545

 Excited State  65:      Singlet-B1    15.5344 eV   79.81 nm  f=0.0031  <S**2>=0.000
       7 -> 16         0.51052
       7 -> 18        -0.20394
       7 -> 21        -0.13814
      10 -> 23         0.10399
      12 -> 30        -0.35868

 Excited State  66:      Singlet-A1    15.5689 eV   79.64 nm  f=0.0680  <S**2>=0.000
       8 -> 18        -0.22046
       9 -> 20        -0.11743
       9 -> 23         0.50881
      11 -> 28        -0.10852
      11 -> 30         0.28138
      12 -> 27        -0.12460
      12 -> 32        -0.16073

 Excited State  67:      Singlet-A2    15.6159 eV   79.40 nm  f=0.0000  <S**2>=0.000
       7 -> 14        -0.16753
       9 -> 24        -0.28446
      10 -> 28         0.18625
      12 -> 31         0.55531

 Excited State  68:      Singlet-B1    15.6178 eV   79.39 nm  f=0.0455  <S**2>=0.000
      11 -> 27         0.67880

 Excited State  69:      Singlet-A2    15.6611 eV   79.17 nm  f=0.0000  <S**2>=0.000
       9 -> 24         0.60935
      10 -> 25         0.10527
      12 -> 31         0.27776

 Excited State  70:      Singlet-A1    15.7232 eV   78.85 nm  f=0.0218  <S**2>=0.000
       7 -> 15         0.15186
       8 -> 16         0.17500
       8 -> 18         0.46773
       9 -> 23         0.36695
      11 -> 28         0.10311
      11 -> 30        -0.18113

 Excited State  71:      Singlet-A1    15.8117 eV   78.41 nm  f=0.0004  <S**2>=0.000
       8 -> 18         0.10394
      11 -> 30         0.31529
      12 -> 32         0.57454

 Excited State  72:      Singlet-A1    15.9244 eV   77.86 nm  f=0.1844  <S**2>=0.000
       7 -> 15         0.19394
       8 -> 18         0.12387
       9 -> 20         0.11372
       9 -> 23        -0.18682
      11 -> 28         0.25223
      11 -> 30         0.47067
      12 -> 32        -0.25949

 Excited State  73:      Singlet-B2    16.0048 eV   77.47 nm  f=0.1497  <S**2>=0.000
       8 -> 17         0.26341
       8 -> 20        -0.14493
       9 -> 21         0.13973
       9 -> 25        -0.35363
       9 -> 28        -0.28979
      11 -> 31         0.36494

 Excited State  74:      Singlet-A1    16.0234 eV   77.38 nm  f=0.0048  <S**2>=0.000
       7 -> 15         0.61201
       8 -> 16        -0.12599
       8 -> 18        -0.11458
      12 -> 32         0.18095

 Excited State  75:      Singlet-A2    16.0243 eV   77.37 nm  f=0.0000  <S**2>=0.000
       7 -> 14         0.16120
       7 -> 17         0.25653
       7 -> 20         0.34424
      10 -> 25         0.47669
      12 -> 29         0.12644
      12 -> 35         0.11923

 Excited State  76:      Singlet-B2    16.2053 eV   76.51 nm  f=0.0927  <S**2>=0.000
       8 -> 17         0.36830
       8 -> 20        -0.34977
       9 -> 25         0.40350
       9 -> 28         0.11803
      11 -> 31         0.14218

 Excited State  77:      Singlet-B1    16.2970 eV   76.08 nm  f=0.1750  <S**2>=0.000
      10 -> 29         0.10157
      11 -> 32         0.17772
      12 -> 34         0.65067

 Excited State  78:      Singlet-B1    16.4837 eV   75.22 nm  f=0.0297  <S**2>=0.000
      11 -> 27         0.10643
      11 -> 32         0.64485
      12 -> 34        -0.17709

 Excited State  79:      Singlet-A2    16.6349 eV   74.53 nm  f=0.0000  <S**2>=0.000
       6 -> 15         0.10609
       8 -> 19         0.64976
      10 -> 28         0.10675

 Excited State  80:      Singlet-B2    16.6572 eV   74.43 nm  f=0.0357  <S**2>=0.000
       7 -> 19         0.10906
       8 -> 17        -0.29873
       8 -> 20         0.19831
       9 -> 25         0.18579
      11 -> 31         0.51536

 Excited State  81:      Singlet-A2    16.7488 eV   74.03 nm  f=0.0000  <S**2>=0.000
       7 -> 17         0.24144
       8 -> 19        -0.13135
      10 -> 25        -0.17550
      10 -> 28         0.54051
      10 -> 30        -0.12439
      12 -> 31        -0.16703

 Excited State  82:      Singlet-B1    16.8022 eV   73.79 nm  f=0.0354  <S**2>=0.000
       7 -> 16         0.25430
       7 -> 18         0.55399
       8 -> 22         0.18858
       9 -> 26         0.11689
      12 -> 36        -0.13748

 Excited State  83:      Singlet-A1    16.8282 eV   73.68 nm  f=0.1742  <S**2>=0.000
       7 -> 22        -0.11863
      10 -> 26         0.66603

 Excited State  84:      Singlet-B2    16.8742 eV   73.48 nm  f=0.0115  <S**2>=0.000
       9 -> 25        -0.34051
       9 -> 28         0.53657
      11 -> 31         0.12189

 Excited State  85:      Singlet-B1    16.9521 eV   73.14 nm  f=0.1060  <S**2>=0.000
       7 -> 18        -0.19391
       8 -> 22         0.60593
       9 -> 26         0.16989
      10 -> 29         0.10835

 Excited State  86:      Singlet-B2    16.9566 eV   73.12 nm  f=0.0680  <S**2>=0.000
      12 -> 33         0.68017

 Excited State  87:      Singlet-A1    16.9615 eV   73.10 nm  f=0.0003  <S**2>=0.000
       8 -> 21         0.54242
       9 -> 29         0.14697
      11 -> 34         0.35763

 Excited State  88:      Singlet-B1    17.2153 eV   72.02 nm  f=0.0247  <S**2>=0.000
       8 -> 22        -0.20891
       8 -> 24        -0.11012
       9 -> 26         0.58691
      10 -> 29         0.13220
      12 -> 36         0.19457

 Excited State  89:      Singlet-A2    17.2164 eV   72.02 nm  f=0.0000  <S**2>=0.000
       7 -> 17        -0.12653
      10 -> 30        -0.18411
      11 -> 33        -0.10850
      12 -> 23         0.11613
      12 -> 29         0.11948
      12 -> 35         0.34098
      12 -> 38         0.49983

 Excited State  90:      Singlet-A1    17.2222 eV   71.99 nm  f=0.1580  <S**2>=0.000
       7 -> 15        -0.10558
       8 -> 21        -0.31661
      11 -> 34         0.57287

 Excited State  91:      Singlet-B1    17.2707 eV   71.79 nm  f=0.0277  <S**2>=0.000
       7 -> 18         0.12851
       7 -> 21        -0.27002
       8 -> 24         0.16119
       9 -> 26        -0.20827
      10 -> 29         0.47725
      12 -> 36         0.24582

 Excited State  92:      Singlet-B1    17.3502 eV   71.46 nm  f=0.0183  <S**2>=0.000
       7 -> 16         0.12701
       7 -> 18         0.10839
       7 -> 21         0.11359
       9 -> 26        -0.13070
      10 -> 29        -0.26840
      10 -> 31         0.14318
      12 -> 36         0.43577
      12 -> 37         0.35725

 Excited State  93:      Singlet-A2    17.4439 eV   71.08 nm  f=0.0000  <S**2>=0.000
       7 -> 17         0.19841
       7 -> 20        -0.17980
      11 -> 33         0.53602
      11 -> 39         0.14524
      12 -> 35         0.28533

 Excited State  94:      Singlet-A2    17.4743 eV   70.95 nm  f=0.0000  <S**2>=0.000
       7 -> 17         0.15080
       7 -> 20        -0.18168
      11 -> 33        -0.36635
      12 -> 29        -0.13347
      12 -> 35         0.40914
      12 -> 38        -0.28070
      12 -> 45         0.13551

 Excited State  95:      Singlet-A2    17.5815 eV   70.52 nm  f=0.0000  <S**2>=0.000
       7 -> 17         0.40034
       7 -> 20        -0.33184
      10 -> 25         0.11887
      10 -> 28        -0.23163
      10 -> 30         0.12549
      11 -> 33        -0.14355

 The electronic state is 1-A1.
 Alpha  occ. eigenvalues --  -19.48020 -10.49475 -10.49439  -1.21806  -0.80011
 Alpha  occ. eigenvalues --   -0.76754  -0.64860  -0.60635  -0.51864  -0.49808
 Alpha  occ. eigenvalues --   -0.42782  -0.39624
 Alpha virt. eigenvalues --    0.04875   0.06463   0.10051   0.10094   0.13801
 Alpha virt. eigenvalues --    0.14740   0.17613   0.18880   0.19410   0.20154
 Alpha virt. eigenvalues --    0.23593   0.24756   0.27571   0.29234   0.33447

 Mulliken charges:
               1
     1  C    0.378570
     2  C    0.378570
     3  O   -0.544993
     4  H   -0.053037
     5  H   -0.053037
     6  H   -0.053037
     7  H   -0.053037
 Sum of Mulliken charges =   0.00000

 Dipole moment (field-independent basis, Debye):
    X=             -0.0000    Y=              0.0000    Z=             -2.0541  Tot=              2.0541
 Quadrupole moment (field-independent basis, Debye-Ang):
   XX=            -17.4141   YY=            -16.3586   ZZ=            -21.0615
   XY=              0.0000   XZ=              0.0000   YZ=              0.0000

 Normal termination of Gaussian 16 at Mon Mar 21 20:11:50 2022.
