 Gaussian 16, Revision C.01,
 Gaussian 16:  EM64L-G16RevC.01  3-Jul-2019

 -------------------------------------------------------------------
 #P TD(Nstates=10000) m11/Gen SCF(maxcycles=100) Int(Grid=ultrafine)
 -------------------------------------------------------------------

 ---------------------
 xGDB7_00001_tier4.com
 ---------------------
 Symbolic Z-matrix:
 Charge =  0 Multiplicity = 1

                         Standard orientation:
 ---------------------------------------------------------------------
 Center     Atomic      Atomic             Coordinates (Angstroms)
 Number     Number       Type             X           Y           Z
 ---------------------------------------------------------------------
      1          6           0        0.000284   -0.018657   -1.236532
      2          6           0       -0.000055    0.003295    0.218717
      3          6           0       -0.000323    0.021367    1.415619
      4          1           0        0.273656    0.958689   -1.636635
      5          1           0       -0.987794   -0.279414   -1.618263
      6          1           0        0.715256   -0.752703   -1.610700
      7          1           0       -0.000556    0.037402    2.478776
 ---------------------------------------------------------------------

 SCF Done:  E(RM11) =  -116.482983204     A.U. after   15 cycles

 Excitation energies and oscillator strengths:

 Excited State   1:      Singlet-A      6.2497 eV  198.39 nm  f=0.0000  <S**2>=0.000
      10 -> 15         0.38349
      10 -> 16         0.25290
      10 -> 18         0.15212
      11 -> 15        -0.25291
      11 -> 16         0.38349
      11 -> 17         0.15213
 This state for optimization and/or second-order correction.
 Total Energy, E(TD-HF/TD-DFT) =  -116.253312438
 Copying the excited state density for this state as the 1-particle RhoCI density.

 Excited State   2:      Singlet-A      7.1503 eV  173.40 nm  f=0.0255  <S**2>=0.000
      10 -> 12         0.33367
      11 -> 12         0.58652
      11 -> 14        -0.14796

 Excited State   3:      Singlet-A      7.1505 eV  173.39 nm  f=0.0255  <S**2>=0.000
      10 -> 12         0.58653
      10 -> 14        -0.14791
      11 -> 12        -0.33367

 Excited State   4:      Singlet-A      7.3100 eV  169.61 nm  f=0.0006  <S**2>=0.000
      10 -> 15         0.46287
      10 -> 17        -0.12562
      11 -> 16        -0.46287
      11 -> 18        -0.12562

 Excited State   5:      Singlet-A      7.3100 eV  169.61 nm  f=0.0006  <S**2>=0.000
      10 -> 16         0.46286
      10 -> 18         0.12562
      11 -> 15         0.46286
      11 -> 17        -0.12562

 Excited State   6:      Singlet-A      8.0875 eV  153.30 nm  f=0.0062  <S**2>=0.000
      10 -> 13         0.17857
      11 -> 13         0.62712
      11 -> 14         0.24229

 Excited State   7:      Singlet-A      8.0875 eV  153.30 nm  f=0.0062  <S**2>=0.000
      10 -> 13         0.62712
      10 -> 14         0.24229
      11 -> 13        -0.17857

 Excited State   8:      Singlet-A      8.9147 eV  139.08 nm  f=0.0580  <S**2>=0.000
      10 -> 13        -0.10320
      10 -> 14         0.25482
      11 -> 12         0.16389
      11 -> 13        -0.22557
      11 -> 14         0.55703
      11 -> 21        -0.11083

 Excited State   9:      Singlet-A      8.9148 eV  139.08 nm  f=0.0580  <S**2>=0.000
      10 -> 12         0.16384
      10 -> 13        -0.22556
      10 -> 14         0.55705
      10 -> 21        -0.11084
      11 -> 13         0.10318
      11 -> 14        -0.25483

 Excited State  10:      Singlet-A      9.7668 eV  126.94 nm  f=0.9305  <S**2>=0.000
      10 -> 15         0.26108
      10 -> 16        -0.39589
      11 -> 15         0.39589
      11 -> 16         0.26108

 Excited State  11:      Singlet-A     10.3964 eV  119.26 nm  f=0.0000  <S**2>=0.000
      10 -> 15        -0.13617
      10 -> 17        -0.10696
      10 -> 18         0.40317
      10 -> 19         0.14496
      10 -> 20        -0.11385
      11 -> 16        -0.13647
      11 -> 17         0.40370
      11 -> 18         0.10766
      11 -> 19        -0.11393
      11 -> 20        -0.14513

 Excited State  12:      Singlet-A     10.4514 eV  118.63 nm  f=0.0072  <S**2>=0.000
      10 -> 16        -0.12878
      10 -> 18         0.42914
      10 -> 20        -0.12375
      11 -> 15        -0.12865
      11 -> 17        -0.42879
      11 -> 19         0.12376

 Excited State  13:      Singlet-A     10.4514 eV  118.63 nm  f=0.0072  <S**2>=0.000
      10 -> 15         0.12884
      10 -> 17         0.42906
      10 -> 19        -0.12385
      11 -> 16        -0.12859
      11 -> 18         0.42887
      11 -> 20        -0.12366

 Excited State  14:      Singlet-A     10.8569 eV  114.20 nm  f=0.0000  <S**2>=0.000
      10 -> 18        -0.16556
      10 -> 19         0.34188
      10 -> 20        -0.26813
      11 -> 17        -0.16558
      11 -> 19        -0.26867
      11 -> 20        -0.34112

 Excited State  15:      Singlet-A     10.8803 eV  113.95 nm  f=0.3651  <S**2>=0.000
      10 -> 17        -0.38385
      10 -> 18        -0.10227
      10 -> 19         0.15523
      10 -> 20         0.19722
      11 -> 17        -0.10222
      11 -> 18         0.38387
      11 -> 19         0.19699
      11 -> 20        -0.15518

 Excited State  16:      Singlet-A     10.9375 eV  113.36 nm  f=0.0035  <S**2>=0.000
      10 -> 19         0.19154
      10 -> 21         0.35635
      11 -> 20         0.19135
      11 -> 21         0.46707

 Excited State  17:      Singlet-A     10.9378 eV  113.35 nm  f=0.0036  <S**2>=0.000
      10 -> 20        -0.18942
      10 -> 21         0.46785
      11 -> 19         0.19078
      11 -> 21        -0.35710

 Excited State  18:      Singlet-A     11.0195 eV  112.51 nm  f=0.0232  <S**2>=0.000
      10 -> 20        -0.40182
      10 -> 21        -0.14957
      10 -> 22        -0.13773
      11 -> 19         0.40337
      11 -> 21         0.27354
      11 -> 23        -0.13775

 Excited State  19:      Singlet-A     11.0195 eV  112.51 nm  f=0.0232  <S**2>=0.000
      10 -> 19         0.40222
      10 -> 21        -0.27425
      10 -> 23        -0.13761
      11 -> 20         0.40183
      11 -> 21        -0.15150
      11 -> 22         0.13769

 Excited State  20:      Singlet-A     11.0690 eV  112.01 nm  f=0.0029  <S**2>=0.000
      10 -> 17         0.25645
      10 -> 19         0.24726
      10 -> 20         0.31779
      11 -> 18        -0.25642
      11 -> 19         0.31469
      11 -> 20        -0.24937

 Excited State  21:      Singlet-A     11.5630 eV  107.22 nm  f=0.0912  <S**2>=0.000
       9 -> 12         0.61774
       9 -> 13        -0.29889

 Excited State  22:      Singlet-A     11.5631 eV  107.22 nm  f=0.0912  <S**2>=0.000
       8 -> 12         0.61774
       8 -> 13        -0.29888

 Excited State  23:      Singlet-A     11.7829 eV  105.22 nm  f=0.0000  <S**2>=0.000
      10 -> 22         0.32707
      10 -> 23         0.32982
      11 -> 22         0.33022
      11 -> 23        -0.32706

 Excited State  24:      Singlet-A     11.9110 eV  104.09 nm  f=0.0140  <S**2>=0.000
      10 -> 19         0.11512
      10 -> 23         0.45264
      11 -> 20         0.11507
      11 -> 22        -0.45236

 Excited State  25:      Singlet-A     11.9112 eV  104.09 nm  f=0.0140  <S**2>=0.000
      10 -> 20        -0.11509
      10 -> 22         0.45250
      11 -> 19         0.11500
      11 -> 23         0.45255

 Excited State  26:      Singlet-A     12.0260 eV  103.10 nm  f=0.0185  <S**2>=0.000
       7 -> 12         0.64231
       7 -> 13        -0.18107
       7 -> 14        -0.11645

 Excited State  27:      Singlet-A     12.1444 eV  102.09 nm  f=0.0083  <S**2>=0.000
       7 -> 15         0.49211
      10 -> 24         0.16440
      11 -> 24         0.37954
      11 -> 27        -0.13396

 Excited State  28:      Singlet-A     12.1444 eV  102.09 nm  f=0.0083  <S**2>=0.000
       7 -> 16         0.49211
      10 -> 24        -0.37953
      10 -> 27         0.13397
      11 -> 24         0.16442

 Excited State  29:      Singlet-A     12.4350 eV   99.71 nm  f=0.0026  <S**2>=0.000
       7 -> 15        -0.35988
       7 -> 16        -0.14694
       8 -> 16        -0.12244
       9 -> 15        -0.12254
      11 -> 24         0.44989
      11 -> 27        -0.15252

 Excited State  30:      Singlet-A     12.4351 eV   99.70 nm  f=0.0026  <S**2>=0.000
       7 -> 15        -0.14694
       7 -> 16         0.35991
       8 -> 15         0.12242
       9 -> 16        -0.12246
      10 -> 24         0.44989
      10 -> 27        -0.15254

 Excited State  31:      Singlet-A     12.4701 eV   99.43 nm  f=0.0000  <S**2>=0.000
       8 -> 15         0.37420
       8 -> 16         0.28411
       9 -> 15        -0.28418
       9 -> 16         0.37425

 Excited State  32:      Singlet-A     12.6204 eV   98.24 nm  f=0.2151  <S**2>=0.000
       6 -> 12         0.13936
       6 -> 13         0.16324
       7 -> 12         0.18721
       7 -> 13         0.20727
      10 -> 22         0.28566
      10 -> 23        -0.28306
      11 -> 22        -0.28304
      11 -> 23        -0.28555

 Excited State  33:      Singlet-A     12.8272 eV   96.66 nm  f=0.0366  <S**2>=0.000
       7 -> 16        -0.14173
       8 -> 14         0.11961
       8 -> 15         0.16300
       8 -> 16         0.38713
       9 -> 13         0.10097
       9 -> 14        -0.13905
       9 -> 15         0.38707
       9 -> 16        -0.16287

 Excited State  34:      Singlet-A     12.8273 eV   96.66 nm  f=0.0366  <S**2>=0.000
       7 -> 15        -0.14179
       8 -> 13         0.10086
       8 -> 14        -0.13889
       8 -> 15        -0.38712
       8 -> 16         0.16288
       9 -> 14        -0.11955
       9 -> 15         0.16292
       9 -> 16         0.38719

 Excited State  35:      Singlet-A     13.0144 eV   95.27 nm  f=0.0127  <S**2>=0.000
       8 -> 16         0.15914
       9 -> 12        -0.20412
       9 -> 13        -0.41950
       9 -> 14         0.42649
       9 -> 15         0.15921

 Excited State  36:      Singlet-A     13.0145 eV   95.27 nm  f=0.0127  <S**2>=0.000
       8 -> 12        -0.20412
       8 -> 13        -0.41952
       8 -> 14         0.42653
       8 -> 15        -0.15913
       9 -> 16         0.15902

 Excited State  37:      Singlet-A     13.1965 eV   93.95 nm  f=0.0001  <S**2>=0.000
       7 -> 13         0.32118
       7 -> 14        -0.23574
       8 -> 15         0.22727
       8 -> 16        -0.29936
       9 -> 15         0.29926
       9 -> 16         0.22724

 Excited State  38:      Singlet-A     13.3872 eV   92.61 nm  f=0.0000  <S**2>=0.000
      10 -> 25         0.16691
      10 -> 26         0.27457
      10 -> 28        -0.15004
      10 -> 29         0.30163
      11 -> 25        -0.27478
      11 -> 26         0.16670
      11 -> 28         0.30175
      11 -> 29         0.14984

 Excited State  39:      Singlet-A     13.4246 eV   92.36 nm  f=0.0017  <S**2>=0.000
       6 -> 12        -0.10302
       7 -> 13        -0.23628
      10 -> 25        -0.20970
      10 -> 26         0.12714
      10 -> 28         0.30489
      10 -> 29         0.15149
      11 -> 25        -0.12723
      11 -> 26        -0.20959
      11 -> 28         0.15154
      11 -> 29        -0.30486

 Excited State  40:      Singlet-A     13.5681 eV   91.38 nm  f=0.0966  <S**2>=0.000
       6 -> 12         0.11031
       7 -> 13         0.40625
       7 -> 14        -0.16361
       8 -> 15        -0.14803
       8 -> 16         0.19503
       9 -> 15        -0.19492
       9 -> 16        -0.14805
      10 -> 22        -0.10908
      10 -> 23         0.10810
      10 -> 25        -0.13428
      10 -> 28         0.11040
      11 -> 22         0.10809
      11 -> 23         0.10907
      11 -> 26        -0.13421
      11 -> 29        -0.11035

 Excited State  41:      Singlet-A     13.6734 eV   90.68 nm  f=0.0686  <S**2>=0.000
       6 -> 16        -0.22501
       8 -> 14         0.10904
      10 -> 24         0.10972
      10 -> 26        -0.21550
      10 -> 27         0.28289
      10 -> 29        -0.19173
      10 -> 30         0.12100
      11 -> 25        -0.21545
      11 -> 27        -0.20536
      11 -> 28         0.19170

 Excited State  42:      Singlet-A     13.6737 eV   90.67 nm  f=0.0685  <S**2>=0.000
       6 -> 15         0.22505
       9 -> 14         0.10916
      10 -> 25        -0.21529
      10 -> 27         0.20533
      10 -> 28         0.19160
      11 -> 24         0.10965
      11 -> 26         0.21541
      11 -> 27         0.28294
      11 -> 29         0.19190
      11 -> 30         0.12097

 Excited State  43:      Singlet-A     13.8621 eV   89.44 nm  f=0.1559  <S**2>=0.000
       6 -> 15        -0.14922
       9 -> 14         0.13698
      10 -> 25         0.24350
      10 -> 27         0.18246
      10 -> 28        -0.21214
      11 -> 26        -0.24356
      11 -> 27         0.31459
      11 -> 29        -0.21216
      11 -> 30         0.12188

 Excited State  44:      Singlet-A     13.8622 eV   89.44 nm  f=0.1559  <S**2>=0.000
       6 -> 16         0.14923
       8 -> 14         0.13712
      10 -> 26         0.24353
      10 -> 27         0.31460
      10 -> 29         0.21219
      10 -> 30         0.12186
      11 -> 25         0.24339
      11 -> 27        -0.18225
      11 -> 28        -0.21204

 Excited State  45:      Singlet-A     13.9366 eV   88.96 nm  f=0.1757  <S**2>=0.000
       6 -> 12         0.10981
       6 -> 13         0.16557
       7 -> 13         0.13762
       7 -> 14         0.56471
      10 -> 28         0.12574
      11 -> 29        -0.12578

 Excited State  46:      Singlet-A     13.9529 eV   88.86 nm  f=0.0009  <S**2>=0.000
       9 -> 12         0.19865
       9 -> 13         0.40184
       9 -> 14         0.40174
       9 -> 21         0.10373
      11 -> 24        -0.12733
      11 -> 27        -0.24517
      11 -> 30        -0.11434

 Excited State  47:      Singlet-A     13.9530 eV   88.86 nm  f=0.0009  <S**2>=0.000
       8 -> 12         0.19867
       8 -> 13         0.40187
       8 -> 14         0.40178
       8 -> 21         0.10377
      10 -> 24        -0.12730
      10 -> 27        -0.24510
      10 -> 30        -0.11431

 Excited State  48:      Singlet-A     14.1200 eV   87.81 nm  f=0.0000  <S**2>=0.000
       8 -> 18        -0.16368
       9 -> 17        -0.16378
      10 -> 25        -0.17168
      10 -> 26        -0.28251
      10 -> 28        -0.13204
      10 -> 29         0.26510
      11 -> 25         0.28253
      11 -> 26        -0.17183
      11 -> 28         0.26522
      11 -> 29         0.13198

 Excited State  49:      Singlet-A     14.2188 eV   87.20 nm  f=0.0000  <S**2>=0.000
       8 -> 18         0.44827
       9 -> 17         0.44890
      10 -> 29         0.10027
      11 -> 28         0.10010

 Excited State  50:      Singlet-A     14.2429 eV   87.05 nm  f=0.0002  <S**2>=0.000
       8 -> 17        -0.12238
       9 -> 18        -0.12243
      10 -> 25         0.32147
      10 -> 28         0.33016
      11 -> 26        -0.32143
      11 -> 29         0.33011

 Excited State  51:      Singlet-A     14.2430 eV   87.05 nm  f=0.0002  <S**2>=0.000
       8 -> 18         0.12233
       9 -> 17        -0.12186
      10 -> 26         0.32144
      10 -> 29        -0.33028
      11 -> 25         0.32139
      11 -> 28         0.33032

 Excited State  52:      Singlet-A     14.3227 eV   86.56 nm  f=0.1026  <S**2>=0.000
       7 -> 17        -0.10166
       7 -> 18        -0.10883
       8 -> 18         0.43755
       9 -> 17        -0.43700
      10 -> 29         0.10034
      11 -> 28        -0.10028

 Excited State  53:      Singlet-A     14.3228 eV   86.56 nm  f=0.1025  <S**2>=0.000
       7 -> 17         0.10877
       7 -> 18        -0.10162
       8 -> 17         0.43720
       9 -> 18         0.43721
      10 -> 28         0.10055
      11 -> 29         0.10058

 Excited State  54:      Singlet-A     14.5869 eV   85.00 nm  f=0.1560  <S**2>=0.000
       6 -> 16         0.23499
       7 -> 16        -0.16717
       7 -> 17         0.22154
       7 -> 18         0.46876
       7 -> 20        -0.15632
       8 -> 18         0.11953
       9 -> 17        -0.11954

 Excited State  55:      Singlet-A     14.5869 eV   85.00 nm  f=0.1561  <S**2>=0.000
       6 -> 15        -0.23494
       7 -> 15         0.16717
       7 -> 17         0.46876
       7 -> 18        -0.22154
       7 -> 19        -0.15636
       8 -> 17        -0.11949
       9 -> 18        -0.11949

 Excited State  56:      Singlet-A     14.6166 eV   84.82 nm  f=0.0052  <S**2>=0.000
       6 -> 12         0.53838
       6 -> 13         0.13616
       6 -> 14        -0.16199
       7 -> 13        -0.23931
       7 -> 14        -0.17320
      10 -> 25         0.10853
      11 -> 26         0.10861

 Excited State  57:      Singlet-A     14.7485 eV   84.07 nm  f=0.0000  <S**2>=0.000
       8 -> 19        -0.34420
       8 -> 20         0.30925
       9 -> 19         0.30937
       9 -> 20         0.34421
      10 -> 29         0.11548
      11 -> 28         0.11551

 Excited State  58:      Singlet-A     14.8147 eV   83.69 nm  f=0.0464  <S**2>=0.000
       6 -> 12         0.25260
       6 -> 14        -0.11705
       7 -> 14         0.10291
       8 -> 17        -0.21928
       9 -> 18         0.21922
      10 -> 25        -0.21013
      10 -> 26         0.12778
      10 -> 28        -0.15346
      10 -> 32        -0.15325
      11 -> 25        -0.12773
      11 -> 26        -0.21014
      11 -> 29         0.15341
      11 -> 31        -0.15326

 Excited State  59:      Singlet-A     14.9660 eV   82.84 nm  f=0.0002  <S**2>=0.000
       8 -> 17        -0.18887
       8 -> 19         0.26777
       8 -> 20         0.29780
       9 -> 18         0.18876
       9 -> 19         0.29853
       9 -> 20        -0.26811
      10 -> 28         0.13663
      11 -> 29        -0.13682

 Excited State  60:      Singlet-A     14.9955 eV   82.68 nm  f=0.0043  <S**2>=0.000
       6 -> 15        -0.23548
       6 -> 16        -0.15768
       6 -> 18        -0.14441
       7 -> 18         0.23300
       8 -> 19         0.13614
       8 -> 20         0.27863
       9 -> 19        -0.27789
       9 -> 20         0.13562
      11 -> 27         0.12812
      11 -> 30        -0.16598
      11 -> 34         0.13250

 Excited State  61:      Singlet-A     14.9955 eV   82.68 nm  f=0.0043  <S**2>=0.000
       6 -> 15        -0.15767
       6 -> 16         0.23554
       6 -> 17         0.14442
       7 -> 17        -0.23301
       8 -> 19         0.27826
       8 -> 20        -0.13590
       9 -> 19         0.13588
       9 -> 20         0.27821
      10 -> 27         0.12809
      10 -> 30        -0.16596
      10 -> 34         0.13251

 Excited State  62:      Singlet-A     15.2276 eV   81.42 nm  f=0.0011  <S**2>=0.000
       8 -> 20         0.16976
       9 -> 19        -0.16977
      11 -> 27        -0.24419
      11 -> 30         0.50535
      11 -> 34        -0.24604

 Excited State  63:      Singlet-A     15.2277 eV   81.42 nm  f=0.0011  <S**2>=0.000
       8 -> 19         0.16979
       9 -> 20         0.16970
      10 -> 27        -0.24421
      10 -> 30         0.50536
      10 -> 34        -0.24604

 Excited State  64:      Singlet-A     15.3303 eV   80.88 nm  f=0.0978  <S**2>=0.000
       6 -> 13         0.19362
       6 -> 14         0.20950
       7 -> 21        -0.14499
       7 -> 24        -0.10811
       8 -> 17         0.29223
       8 -> 19         0.13488
       8 -> 20         0.15025
       9 -> 18        -0.29219
       9 -> 19         0.15009
       9 -> 20        -0.13500
      10 -> 32        -0.12764
      11 -> 31        -0.12769

 Excited State  65:      Singlet-A     15.4190 eV   80.41 nm  f=0.0505  <S**2>=0.000
       6 -> 15         0.10285
       7 -> 17         0.18628
       7 -> 18        -0.14023
       7 -> 19         0.50890
       8 -> 19         0.15206
       8 -> 21        -0.11123
       9 -> 20         0.15198
       9 -> 21        -0.12389

 Excited State  66:      Singlet-A     15.4191 eV   80.41 nm  f=0.0506  <S**2>=0.000
       6 -> 16        -0.10299
       7 -> 17         0.14021
       7 -> 18         0.18632
       7 -> 20         0.50874
       8 -> 20        -0.15208
       8 -> 21        -0.12384
       9 -> 19         0.15208
       9 -> 21         0.11134

 Excited State  67:      Singlet-A     15.4661 eV   80.16 nm  f=0.2180  <S**2>=0.000
       6 -> 15         0.19594
       6 -> 16         0.16859
       7 -> 19        -0.22714
       7 -> 20         0.23091
       8 -> 20         0.10537
       9 -> 14         0.11839
       9 -> 19        -0.10572
       9 -> 21        -0.21383
       9 -> 24         0.16694
      10 -> 31         0.16061
      10 -> 32        -0.15197
      11 -> 30        -0.10340
      11 -> 31         0.15152
      11 -> 32         0.16036
      11 -> 35         0.10597
      11 -> 36        -0.15002

 Excited State  68:      Singlet-A     15.4662 eV   80.16 nm  f=0.2181  <S**2>=0.000
       6 -> 15        -0.16861
       6 -> 16         0.19594
       7 -> 19         0.23046
       7 -> 20         0.22724
       8 -> 14        -0.11843
       8 -> 19        -0.10581
       8 -> 21         0.21390
       8 -> 24        -0.16699
       9 -> 20        -0.10538
      10 -> 30         0.10336
      10 -> 31         0.15185
      10 -> 32         0.16034
      10 -> 35        -0.10595
      10 -> 36         0.15007
      11 -> 31        -0.16088
      11 -> 32         0.15146

 Excited State  69:      Singlet-A     15.4913 eV   80.03 nm  f=0.0034  <S**2>=0.000
       6 -> 12        -0.12172
       6 -> 13         0.43219

 The electronic state is 1-A.
 Alpha  occ. eigenvalues --  -10.45952 -10.44505 -10.43118  -0.91355  -0.82739
 Alpha  occ. eigenvalues --   -0.64246  -0.56535  -0.54848  -0.54847  -0.37723
 Alpha  occ. eigenvalues --   -0.37723
 Alpha virt. eigenvalues --    0.04542   0.07117   0.10400   0.12214   0.12214
 Alpha virt. eigenvalues --    0.17025   0.17025   0.19985   0.19985   0.20596
 Alpha virt. eigenvalues --    0.25071   0.25072   0.27268   0.32402   0.32402

 Mulliken charges:
               1
     1  C    0.307647
     2  C    0.938745
     3  C   -1.422569
     4  H    0.030285
     5  H    0.030275
     6  H    0.030279
     7  H    0.085339
 Sum of Mulliken charges =  -0.00000

 Dipole moment (field-independent basis, Debye):
    X=              0.0002    Y=             -0.0117    Z=             -0.7725  Tot=              0.7726
 Quadrupole moment (field-independent basis, Debye-Ang):
   XX=            -19.5284   YY=            -19.5270   ZZ=            -13.8693
   XY=             -0.0000   XZ=             -0.0012   YZ=              0.0854

 Normal termination of Gaussian 16 at Mon Mar 21 20:16:37 2022.
