 Gaussian 16, Revision C.01,
 Gaussian 16:  EM64L-G16RevC.01  3-Jul-2019

 -------------------------------------------------------------------
 #P TD(Nstates=10000) m11/Gen SCF(maxcycles=100) Int(Grid=ultrafine)
 -------------------------------------------------------------------

 ---------------------
 xGDB7_00001_tier4.com
 ---------------------
 Symbolic Z-matrix:
 Charge =  0 Multiplicity = 1

                         Standard orientation:
 ---------------------------------------------------------------------
 Center     Atomic      Atomic             Coordinates (Angstroms)
 Number     Number       Type             X           Y           Z
 ---------------------------------------------------------------------
      1          8           0        0.000000    0.000000    0.596896
      2          8           0        0.000000    0.000000   -0.596896
 ---------------------------------------------------------------------

 SCF Done:  E(RM11) =  -150.100518762     A.U. after   11 cycles

 Excitation energies and oscillator strengths:

 Excited state symmetry could not be determined.
 Excited State   1:      Singlet-?Sym    -0.0167 eV    -74159.33 nm  f=-0.0000  <S**2>=0.000
       8 ->  9        -3.68319
       8 -> 14         0.29695
       8 <-  9        -3.61533
       8 <- 14         0.29026
 This state for optimization and/or second-order correction.
 Total Energy, E(TD-HF/TD-DFT) =  -150.101133160
 Copying the excited state density for this state as the 1-particle RhoCI density.

 Excited state symmetry could not be determined.
 Excited State   2:      Singlet-?Sym    6.5550 eV  189.14 nm  f=0.0000  <S**2>=0.000
       5 ->  9         0.70053

 Excited state symmetry could not be determined.
 Excited State   3:      Singlet-?Sym    7.1691 eV  172.94 nm  f=0.0000  <S**2>=0.000
       6 ->  9         0.70627

 Excited state symmetry could not be determined.
 Excited State   4:      Singlet-?Sym    7.6902 eV  161.22 nm  f=0.0161  <S**2>=0.000
       8 -> 10         0.69126
       8 -> 17        -0.14233

 Excited state symmetry could not be determined.
 Excited State   5:      Singlet-?Sym    8.0074 eV  154.84 nm  f=0.0000  <S**2>=0.000
       8 -> 11         0.62363
       8 -> 16        -0.32799

 Excited state symmetry could not be determined.
 Excited State   6:      Singlet-?Sym    8.2445 eV  150.38 nm  f=0.0000  <S**2>=0.000
       8 -> 12         0.70222

 Excited state symmetry could not be determined.
 Excited State   7:      Singlet-?Sym    8.7752 eV  141.29 nm  f=0.0841  <S**2>=0.000
       7 ->  9         0.20563
       8 -> 13         0.67449

 Excited state symmetry could not be determined.
 Excited State   8:      Singlet-?Sym    9.7952 eV  126.58 nm  f=0.0000  <S**2>=0.000
       8 -> 11         0.32544
       8 -> 16         0.62152

 Excited state symmetry could not be determined.
 Excited State   9:      Singlet-?Sym    9.9946 eV  124.05 nm  f=0.0000  <S**2>=0.000
       8 -> 14         0.70069

 Excited state symmetry could not be determined.
 Excited State  10:      Singlet-?Sym   10.5550 eV  117.46 nm  f=0.1061  <S**2>=0.000
       6 -> 17        -0.10914
       6 -> 18         0.11754
       7 ->  9         0.66010
       8 -> 13        -0.20741
       7 <-  9        -0.10593

 Excited state symmetry could not be determined.
 Excited State  11:      Singlet-?Sym   10.9739 eV  112.98 nm  f=0.0000  <S**2>=0.000
       8 -> 15         0.70274

 Excited state symmetry could not be determined.
 Excited State  12:      Singlet-?Sym   11.3759 eV  108.99 nm  f=0.0089  <S**2>=0.000
       8 -> 10         0.12309
       8 -> 17         0.56565
       8 -> 18        -0.39004

 Excited state symmetry could not be determined.
 Excited State  13:      Singlet-?Sym   14.8693 eV   83.38 nm  f=0.0000  <S**2>=0.000
       7 -> 10         0.69207
       7 -> 17        -0.13358

 Excited state symmetry could not be determined.
 Excited State  14:      Singlet-?Sym   14.9510 eV   82.93 nm  f=0.1421  <S**2>=0.000
       5 -> 11         0.33647
       5 -> 16        -0.18804
       8 -> 17         0.34043
       8 -> 18         0.47621

 Excited state symmetry could not be determined.
 Excited State  15:      Singlet-?Sym   15.1477 eV   81.85 nm  f=0.0000  <S**2>=0.000
       5 -> 10         0.67674
       5 -> 17        -0.14038
       8 -> 19        -0.13372

 Excited State  16:      Singlet-SGU   15.1969 eV   81.59 nm  f=0.1988  <S**2>=0.000
       6 -> 10         0.69391
       6 -> 17        -0.11341

 Excited state symmetry could not be determined.
 Excited State  17:      Singlet-?Sym   15.2778 eV   81.15 nm  f=0.0975  <S**2>=0.000
       4 ->  9         0.22374
       6 -> 12        -0.14432
       7 -> 11         0.60853
       7 -> 16        -0.23756

 Excited state symmetry could not be determined.
 Excited State  18:      Singlet-?Sym   15.5250 eV   79.86 nm  f=0.0000  <S**2>=0.000
       5 -> 10         0.13738
       8 -> 19         0.69175

 Excited state symmetry could not be determined.
 Excited State  19:      Singlet-?Sym   15.5516 eV   79.72 nm  f=0.0000  <S**2>=0.000
       8 -> 20         0.70282

 Excited state symmetry could not be determined.
 Excited State  20:      Singlet-?Sym   15.7355 eV   78.79 nm  f=0.0000  <S**2>=0.000
       6 -> 11        -0.41037
       6 -> 16         0.18447
       7 -> 12         0.53338

 Excited state symmetry could not be determined.
 Excited State  21:      Singlet-?Sym   15.7380 eV   78.78 nm  f=0.0000  <S**2>=0.000
       5 -> 12         0.61514
       7 -> 13        -0.34246

 Excited state symmetry could not be determined.
 Excited State  22:      Singlet-?Sym   15.8712 eV   78.12 nm  f=0.0038  <S**2>=0.000
       5 -> 11         0.55662
       5 -> 16        -0.19961
       8 -> 17        -0.18888
       8 -> 18        -0.33557

 Excited state symmetry could not be determined.
 Excited State  23:      Singlet-?Sym   15.8787 eV   78.08 nm  f=0.0496  <S**2>=0.000
       4 ->  9        -0.14527
       6 -> 12         0.66115
       7 -> 11         0.18101

 Excited state symmetry could not be determined.
 Excited State  24:      Singlet-?Sym   16.0224 eV   77.38 nm  f=0.0000  <S**2>=0.000
       5 -> 12         0.34174
       7 -> 13         0.61766

 Excited state symmetry could not be determined.
 Excited State  25:      Singlet-?Sym   16.0656 eV   77.17 nm  f=0.0465  <S**2>=0.000
       4 ->  9         0.63927
       6 -> 12         0.19891
       7 -> 11        -0.13236
       7 -> 16         0.15605

 Excited state symmetry could not be determined.
 Excited State  26:      Singlet-?Sym   16.0674 eV   77.16 nm  f=0.0000  <S**2>=0.000
       5 -> 13         0.43171
       6 -> 11        -0.41891
       6 -> 16         0.18495
       7 -> 12        -0.31195

 Excited state symmetry could not be determined.
 Excited State  27:      Singlet-?Sym   16.1995 eV   76.54 nm  f=0.0565  <S**2>=0.000
       6 -> 13         0.70357

 Excited state symmetry could not be determined.
 Excited State  28:      Singlet-?Sym   17.0153 eV   72.87 nm  f=0.0000  <S**2>=0.000
       5 -> 13         0.52678
       6 -> 11         0.16972
       6 -> 16        -0.29352
       7 -> 12         0.32032

 Excited state symmetry could not be determined.
 Excited State  29:      Singlet-?Sym   17.1640 eV   72.23 nm  f=0.0888  <S**2>=0.000
       7 -> 11         0.28020
       7 -> 16         0.63830

 Excited state symmetry could not be determined.
 Excited State  30:      Singlet-?Sym   17.4042 eV   71.24 nm  f=0.0047  <S**2>=0.000
       5 -> 15        -0.14321
       7 -> 14         0.68682

 Excited state symmetry could not be determined.
 Excited State  31:      Singlet-?Sym   17.4073 eV   71.23 nm  f=0.0457  <S**2>=0.000
       5 -> 11         0.26547
       5 -> 16         0.64653

 Excited state symmetry could not be determined.
 Excited State  32:      Singlet-?Sym   17.4336 eV   71.12 nm  f=0.0000  <S**2>=0.000
       5 -> 14         0.61108
       7 -> 15        -0.34350

 Excited state symmetry could not be determined.
 Excited State  33:      Singlet-?Sym   17.5004 eV   70.85 nm  f=0.0000  <S**2>=0.000
       5 -> 13         0.15891
       6 -> 11         0.34553
       6 -> 16         0.58390

 Excited state symmetry could not be determined.
 Excited State  34:      Singlet-?Sym   17.5404 eV   70.68 nm  f=0.0000  <S**2>=0.000
       6 -> 14         0.69801

 Excited state symmetry could not be determined.
 Excited State  35:      Singlet-?Sym   17.5943 eV   70.47 nm  f=0.0000  <S**2>=0.000
       5 -> 14         0.34230
       7 -> 15         0.61603

 Excited state symmetry could not be determined.
 Excited State  36:      Singlet-?Sym   17.8512 eV   69.45 nm  f=0.0000  <S**2>=0.000
       6 -> 15         0.70104

 Excited state symmetry could not be determined.
 Excited State  37:      Singlet-?Sym   17.9352 eV   69.13 nm  f=0.0431  <S**2>=0.000
       5 -> 15         0.68002
       7 -> 14         0.13157

 Excited state symmetry could not be determined.
 Excited State  38:      Singlet-?Sym   18.7533 eV   66.11 nm  f=0.0000  <S**2>=0.000
       7 -> 10         0.11872
       7 -> 17         0.56942
       7 -> 18        -0.37643

 Excited state symmetry could not be determined.
 Excited State  39:      Singlet-?Sym   18.9303 eV   65.50 nm  f=0.0000  <S**2>=0.000
       5 -> 10         0.12166
       5 -> 17         0.56311
       5 -> 18        -0.38163
       8 -> 21        -0.10162

 Excited State  40:      Singlet-SGU   20.1567 eV   61.51 nm  f=0.0229  <S**2>=0.000
       4 -> 11         0.10023
       4 -> 16        -0.11517
       6 -> 10         0.10331
       6 -> 17         0.46950
       6 -> 18        -0.13333
       8 -> 23        -0.46302

 Excited state symmetry could not be determined.
 Excited State  41:      Singlet-?Sym   20.3528 eV   60.92 nm  f=0.0000  <S**2>=0.000
       5 -> 18        -0.10196
       8 -> 21         0.68890

 Excited state symmetry could not be determined.
 Excited State  42:      Singlet-?Sym   20.4591 eV   60.60 nm  f=0.0000  <S**2>=0.000
       8 -> 22         0.70309

 Excited state symmetry could not be determined.
 Excited State  43:      Singlet-?Sym   21.3501 eV   58.07 nm  f=0.7556  <S**2>=0.000
       4 -> 11         0.27215
       4 -> 16        -0.15416
       6 -> 17         0.37488
       6 -> 18         0.11821
       8 -> 23         0.47838

 Excited state symmetry could not be determined.
 Excited State  44:      Singlet-?Sym   21.3834 eV   57.98 nm  f=0.1743  <S**2>=0.000
       5 -> 19         0.17684
       7 -> 20        -0.17501
       8 -> 24         0.65885

 Excited state symmetry could not be determined.
 Excited State  45:      Singlet-?Sym   21.4669 eV   57.76 nm  f=0.1875  <S**2>=0.000
       5 -> 20         0.17817
       7 -> 19         0.21770
       8 -> 25         0.64557

 Excited State  46:      Singlet-SGG   21.9898 eV   56.38 nm  f=0.0000  <S**2>=0.000
       4 -> 10         0.67364
       4 -> 17        -0.11025
       8 -> 28        -0.16483

 Excited state symmetry could not be determined.
 Excited State  47:      Singlet-?Sym   22.0054 eV   56.34 nm  f=0.0770  <S**2>=0.000
       8 -> 26         0.68670

 Excited state symmetry could not be determined.
 Excited State  48:      Singlet-?Sym   22.1032 eV   56.09 nm  f=0.0000  <S**2>=0.000
       8 -> 27         0.69358

 Excited state symmetry could not be determined.
 Excited State  49:      Singlet-?Sym   22.5442 eV   55.00 nm  f=0.0000  <S**2>=0.000
       7 -> 17         0.37707
       7 -> 18         0.58640

 Excited state symmetry could not be determined.
 Excited State  50:      Singlet-?Sym   22.6215 eV   54.81 nm  f=0.0000  <S**2>=0.000
       4 -> 12         0.69579

 Excited state symmetry could not be determined.
 Excited State  51:      Singlet-?Sym   22.6927 eV   54.64 nm  f=0.0000  <S**2>=0.000
       4 -> 13         0.15968
       5 -> 17         0.38422
       5 -> 18         0.56097

 Excited state symmetry could not be determined.
 Excited State  52:      Singlet-?Sym   22.8573 eV   54.24 nm  f=0.0000  <S**2>=0.000
       4 -> 10         0.16813
       6 -> 19        -0.28179
       8 -> 28         0.60946

 Excited State  53:      Singlet-SGU   22.9051 eV   54.13 nm  f=0.0345  <S**2>=0.000
       4 -> 11         0.54914
       4 -> 16        -0.15956
       6 -> 17        -0.28730
       6 -> 18        -0.28995

 Excited state symmetry could not be determined.
 Excited State  54:      Singlet-?Sym   22.9794 eV   53.95 nm  f=0.1028  <S**2>=0.000
       5 -> 19        -0.36603
       7 -> 20         0.54836
       8 -> 24         0.23878

 Excited state symmetry could not be determined.
 Excited State  55:      Singlet-?Sym   22.9838 eV   53.94 nm  f=0.0000  <S**2>=0.000
       4 -> 13         0.68186
       5 -> 18        -0.14971

 Excited state symmetry could not be determined.
 Excited State  56:      Singlet-?Sym   22.9908 eV   53.93 nm  f=0.1174  <S**2>=0.000
       5 -> 20         0.36017
       7 -> 19         0.53792
       8 -> 25        -0.27397

 Excited state symmetry could not be determined.
 Excited State  57:      Singlet-?Sym   23.2343 eV   53.36 nm  f=0.0000  <S**2>=0.000
       6 -> 20         0.70130

 Excited state symmetry could not be determined.
 Excited State  58:      Singlet-?Sym   23.2510 eV   53.32 nm  f=0.0000  <S**2>=0.000
       6 -> 19         0.64666
       8 -> 28         0.27362

 Excited state symmetry could not be determined.
 Excited State  59:      Singlet-?Sym   23.7601 eV   52.18 nm  f=0.4611  <S**2>=0.000
       4 -> 15         0.11659
       5 -> 19         0.56790
       7 -> 20         0.39328

 Excited state symmetry could not be determined.
 Excited State  60:      Singlet-?Sym   23.7948 eV   52.11 nm  f=0.5075  <S**2>=0.000
       4 ->  9         0.10127
       4 -> 14         0.18870
       5 -> 20         0.55846
       7 -> 19        -0.36853

 Excited state symmetry could not be determined.
 Excited State  61:      Singlet-?Sym   24.1232 eV   51.40 nm  f=0.0145  <S**2>=0.000
       4 -> 11         0.27568
       4 -> 16         0.62922
       6 -> 18         0.10624

 Excited state symmetry could not be determined.
 Excited State  62:      Singlet-?Sym   24.3794 eV   50.86 nm  f=0.0168  <S**2>=0.000
       4 -> 14         0.67321
       5 -> 20        -0.13854
       7 -> 19         0.13263

 Excited state symmetry could not be determined.
 Excited State  63:      Singlet-?Sym   24.6435 eV   50.31 nm  f=0.6417  <S**2>=0.000
       4 -> 11         0.17424
       4 -> 16        -0.17878
       5 -> 28         0.10381
       6 -> 18         0.57822
       7 ->  9        -0.14280
       8 -> 23        -0.19799
       8 -> 30        -0.10886

 Excited state symmetry could not be determined.
 Excited State  64:      Singlet-?Sym   24.6457 eV   50.31 nm  f=0.0020  <S**2>=0.000
       4 -> 15         0.68799

 Excited State  65:      Singlet-SGG   26.8125 eV   46.24 nm  f=0.0000  <S**2>=0.000
       4 -> 17         0.56326
       4 -> 18        -0.30680
       6 -> 21         0.10556
       7 -> 22        -0.21324

 Excited state symmetry could not be determined.
 Excited State  66:      Singlet-?Sym   27.7563 eV   44.67 nm  f=0.0034  <S**2>=0.000
       6 -> 22        -0.32552
       7 -> 21         0.62245

 Excited state symmetry could not be determined.
 Excited State  67:      Singlet-?Sym   27.8142 eV   44.58 nm  f=0.0000  <S**2>=0.000
       4 -> 17         0.17735
       5 -> 23        -0.22743
       7 -> 22         0.63907

 Excited state symmetry could not be determined.
 Excited State  68:      Singlet-?Sym   28.0160 eV   44.25 nm  f=0.0000  <S**2>=0.000
       5 -> 22         0.49757
       7 -> 23         0.49708

 Excited state symmetry could not be determined.
 Excited State  69:      Singlet-?Sym   28.0426 eV   44.21 nm  f=0.0012  <S**2>=0.000
       5 -> 21         0.56033
       6 -> 23        -0.41212

 Excited state symmetry could not be determined.
 Excited State  70:      Singlet-?Sym   28.1312 eV   44.07 nm  f=0.0000  <S**2>=0.000
       4 -> 17        -0.13002
       6 -> 21         0.67661

 Excited state symmetry could not be determined.
 Excited State  71:      Singlet-?Sym   28.1641 eV   44.02 nm  f=0.0000  <S**2>=0.000
       5 -> 22        -0.49478
       7 -> 23         0.50149

 Excited state symmetry could not be determined.
 Excited State  72:      Singlet-?Sym   28.4788 eV   43.54 nm  f=0.0000  <S**2>=0.000
       4 -> 20         0.34419
       5 -> 27        -0.18543
       6 -> 25         0.55964
       7 -> 28        -0.13490
       8 -> 29         0.11943

 Excited state symmetry could not be determined.
 Excited State  73:      Singlet-?Sym   28.5077 eV   43.49 nm  f=0.0052  <S**2>=0.000
       4 -> 19         0.34556
       5 -> 28        -0.12322
       6 -> 24         0.56086
       6 -> 26        -0.13611
       7 -> 27         0.16260

 Excited state symmetry could not be determined.
 Excited State  74:      Singlet-?Sym   28.5272 eV   43.46 nm  f=0.3211  <S**2>=0.000
       6 -> 22         0.61676
       7 -> 21         0.32244

 Excited state symmetry could not be determined.
 Excited State  75:      Singlet-?Sym   28.5564 eV   43.42 nm  f=0.0000  <S**2>=0.000
       3 ->  9         0.53756
       7 -> 24         0.39785
       7 -> 26        -0.20420

 Excited state symmetry could not be determined.
 Excited State  76:      Singlet-?Sym   28.6312 eV   43.30 nm  f=0.0000  <S**2>=0.000
       4 -> 17         0.23554
       4 -> 18         0.11778
       5 -> 23         0.62958
       7 -> 22         0.15958

 Excited state symmetry could not be determined.
 Excited State  77:      Singlet-?Sym   28.7652 eV   43.10 nm  f=0.3032  <S**2>=0.000
       5 -> 21         0.41282
       6 -> 23         0.56053

 Excited state symmetry could not be determined.
 Excited State  78:      Singlet-?Sym   28.7710 eV   43.09 nm  f=0.0000  <S**2>=0.000
       5 -> 24        -0.33203
       7 -> 25         0.62308

 Excited state symmetry could not be determined.
 Excited State  79:      Singlet-?Sym   28.7923 eV   43.06 nm  f=0.0000  <S**2>=0.000
       3 ->  9        -0.30731
       5 -> 25         0.36504
       7 -> 24         0.50084
       7 -> 26         0.11576

 Excited state symmetry could not be determined.
 Excited State  80:      Singlet-?Sym   29.0748 eV   42.64 nm  f=0.0000  <S**2>=0.000
       5 -> 24         0.61099
       7 -> 25         0.32767

 Excited state symmetry could not be determined.
 Excited State  81:      Singlet-?Sym   29.1281 eV   42.57 nm  f=0.0000  <S**2>=0.000
       3 ->  9         0.10203
       5 -> 25         0.57468
       7 -> 24        -0.28289
       7 -> 26        -0.25595

 Excited state symmetry could not be determined.
 Excited State  82:      Singlet-?Sym   29.3883 eV   42.19 nm  f=0.0003  <S**2>=0.000
       4 -> 21        -0.11830
       5 -> 28         0.31394
       6 -> 24         0.19450
       6 -> 26         0.55419
       7 -> 27         0.12315
       8 -> 30        -0.12364

 Excited state symmetry could not be determined.
 Excited State  83:      Singlet-?Sym   29.5489 eV   41.96 nm  f=0.0000  <S**2>=0.000
       4 -> 22        -0.10292
       6 -> 27         0.65867
       7 -> 26        -0.21960

 Excited state symmetry could not be determined.
 Excited State  84:      Singlet-?Sym   29.5498 eV   41.96 nm  f=0.0000  <S**2>=0.000
       4 -> 23        -0.10380
       6 -> 28         0.68596

 Excited state symmetry could not be determined.
 Excited State  85:      Singlet-?Sym   29.6057 eV   41.88 nm  f=0.0000  <S**2>=0.000
       5 -> 27         0.57217
       6 -> 25         0.17385
       7 -> 28        -0.29823
       8 -> 29        -0.21700

 Excited state symmetry could not be determined.
 Excited State  86:      Singlet-?Sym   29.6740 eV   41.78 nm  f=0.0000  <S**2>=0.000
       3 ->  9         0.30523
       5 -> 25         0.18630
       6 -> 27         0.19765
       7 -> 26         0.56643

 Excited state symmetry could not be determined.
 Excited State  87:      Singlet-?Sym   29.6824 eV   41.77 nm  f=0.0101  <S**2>=0.000
       5 -> 28        -0.24872
       6 -> 24        -0.22714
       6 -> 26         0.10352
       7 -> 27         0.60306

 Excited state symmetry could not be determined.
 Excited State  88:      Singlet-?Sym   29.6938 eV   41.75 nm  f=0.0000  <S**2>=0.000
       5 -> 26         0.68592

 Excited state symmetry could not be determined.
 Excited State  89:      Singlet-?Sym   29.7518 eV   41.67 nm  f=0.0000  <S**2>=0.000
       5 -> 27         0.21860
       6 -> 25         0.24707
       7 -> 28         0.61839

 Excited state symmetry could not be determined.
 Excited State  90:      Singlet-?Sym   30.1362 eV   41.14 nm  f=0.0000  <S**2>=0.000
       4 -> 17         0.23323
       4 -> 18         0.62257
       5 -> 23        -0.17199
       7 -> 22        -0.13256

 Excited state symmetry could not be determined.
 Excited State  91:      Singlet-?Sym   30.3667 eV   40.83 nm  f=0.0010  <S**2>=0.000
       4 -> 19         0.61324
       5 -> 28         0.10698
       6 -> 24        -0.30407
       7 -> 27        -0.10491

 Excited state symmetry could not be determined.
 Excited State  92:      Singlet-?Sym   30.4115 eV   40.77 nm  f=0.0000  <S**2>=0.000
       4 -> 20         0.61027
       5 -> 27         0.15515
       6 -> 25        -0.30892

 Excited state symmetry could not be determined.
 Excited State  93:      Singlet-?Sym   30.9534 eV   40.06 nm  f=0.0050  <S**2>=0.000
       5 -> 28         0.53746
       6 -> 26        -0.29613
       7 -> 27         0.23913
       8 -> 30         0.20356

 Excited state symmetry could not be determined.
 Excited State  94:      Singlet-?Sym   32.1991 eV   38.51 nm  f=0.0000  <S**2>=0.000
       5 -> 27         0.24485
       8 -> 29         0.65482

 Excited state symmetry could not be determined.
 Excited State  95:      Singlet-?Sym   34.1570 eV   36.30 nm  f=0.0000  <S**2>=0.000
       8 -> 31         0.69692

 Excited state symmetry could not be determined.
 Excited State  96:      Singlet-?Sym   34.1806 eV   36.27 nm  f=0.0136  <S**2>=0.000
       3 -> 10         0.16476
       3 -> 17        -0.17938
       4 -> 21         0.18211
       6 -> 26         0.20222
       7 -> 27        -0.10831
       8 -> 30         0.56703

 Excited state symmetry could not be determined.
 Excited State  97:      Singlet-?Sym   34.9720 eV   35.45 nm  f=0.0689  <S**2>=0.000
       4 -> 21         0.66369
       8 -> 30        -0.19999

 Excited state symmetry could not be determined.
 Excited State  98:      Singlet-?Sym   35.1052 eV   35.32 nm  f=0.0000  <S**2>=0.000
       4 -> 22         0.69679
       6 -> 27         0.10279

 Excited state symmetry could not be determined.
 Excited State  99:      Singlet-?Sym   35.3553 eV   35.07 nm  f=0.0000  <S**2>=0.000
       4 -> 23         0.69262
       6 -> 28         0.10226

 Excited state symmetry could not be determined.
 Excited State 100:      Singlet-?Sym   35.7964 eV   34.64 nm  f=0.0000  <S**2>=0.000
       4 -> 24         0.69933

 Excited state symmetry could not be determined.
 Excited State 101:      Singlet-?Sym   35.8474 eV   34.59 nm  f=0.0000  <S**2>=0.000
       4 -> 25         0.70242

 Excited state symmetry could not be determined.
 Excited State 102:      Singlet-?Sym   36.3512 eV   34.11 nm  f=0.0627  <S**2>=0.000
       3 -> 12        -0.15757
       4 -> 27         0.65461
       6 -> 29        -0.19252

 Excited State 103:      Singlet-SGU   36.3611 eV   34.10 nm  f=0.0086  <S**2>=0.000
       3 -> 10         0.68136
       8 -> 30        -0.13371

 Excited State 104:      Singlet-SGG   36.3684 eV   34.09 nm  f=0.0000  <S**2>=0.000
       3 -> 11         0.61490
       3 -> 16        -0.30509
       4 -> 26         0.15715

 Excited state symmetry could not be determined.
 Excited State 105:      Singlet-?Sym   36.4062 eV   34.06 nm  f=0.0525  <S**2>=0.000
       3 -> 13        -0.12144
       4 -> 28         0.66416
       6 -> 30        -0.18099

 Excited state symmetry could not be determined.
 Excited State 106:      Singlet-?Sym   36.6442 eV   33.83 nm  f=0.0000  <S**2>=0.000
       3 -> 11        -0.11582

 Unable to determine electronic state:  an orbital has unidentified symmetry.
 Alpha  occ. eigenvalues --  -19.62673 -19.62673  -1.44345  -0.92000  -0.67220
 Alpha  occ. eigenvalues --   -0.66985  -0.66286  -0.39203
 Alpha virt. eigenvalues --   -0.08394   0.05733   0.10339   0.11490   0.12982
 Alpha virt. eigenvalues --    0.15189   0.16226   0.17220   0.33036   0.40300
 Alpha virt. eigenvalues --    0.44229   0.44364   0.59795   0.61895   0.63090

 Mulliken charges:
               1
     1  O   -0.000000
     2  O   -0.000000
 Sum of Mulliken charges =  -0.00000

 Dipole moment (field-independent basis, Debye):
    X=             -0.0000    Y=              0.0000    Z=              0.0000  Tot=              0.0000
 Quadrupole moment (field-independent basis, Debye-Ang):
   XX=            -11.1510   YY=             -9.2781   ZZ=            -10.7697
   XY=              0.0000   XZ=              0.0000   YZ=              0.0000

 Normal termination of Gaussian 16 at Mon Mar 21 20:04:53 2022.
