 Gaussian 16, Revision C.01,
 Gaussian 16:  EM64L-G16RevC.01  3-Jul-2019

 -------------------------------------------------------------------
 #P TD(Nstates=10000) m11/Gen SCF(maxcycles=100) Int(Grid=ultrafine)
 -------------------------------------------------------------------

 ---------------------
 xGDB7_00001_tier4.com
 ---------------------
 Symbolic Z-matrix:
 Charge =  0 Multiplicity = 1

                         Standard orientation:
 ---------------------------------------------------------------------
 Center     Atomic      Atomic             Coordinates (Angstroms)
 Number     Number       Type             X           Y           Z
 ---------------------------------------------------------------------
      1          6           0       -0.000001    0.000006    0.000000
      2          1           0       -0.991926    0.448073    0.033817
      3          1           0        0.066172   -0.671147   -0.854975
      4          1           0        0.176250   -0.561167    0.916416
      5          1           0        0.749514    0.784204   -0.095260
 ---------------------------------------------------------------------

 SCF Done:  E(RM11) =  -40.4475700397     A.U. after   12 cycles

 Excitation energies and oscillator strengths:

 Excited State   1:      Singlet-A     10.3574 eV  119.71 nm  f=0.1078  <S**2>=0.000
       5 ->  6         0.69555
 This state for optimization and/or second-order correction.
 Total Energy, E(TD-HF/TD-DFT) =  -40.0669422945
 Copying the excited state density for this state as the 1-particle RhoCI density.

 Excited State   2:      Singlet-A     10.3575 eV  119.70 nm  f=0.1078  <S**2>=0.000
       4 ->  6         0.69276

 Excited State   3:      Singlet-A     10.3575 eV  119.70 nm  f=0.1078  <S**2>=0.000
       3 ->  6         0.69332

 Excited State   4:      Singlet-A     12.8069 eV   96.81 nm  f=0.0000  <S**2>=0.000
       3 ->  8        -0.29137
       3 ->  9        -0.17999
       4 ->  7         0.14948
       4 ->  8        -0.18588
       4 ->  9        -0.22929
       5 ->  7         0.29016
       5 ->  8         0.29678
       5 ->  9        -0.19770

 Excited State   5:      Singlet-A     12.8069 eV   96.81 nm  f=0.0000  <S**2>=0.000
       3 ->  8        -0.22531
       3 ->  9        -0.21958
       4 ->  8         0.22987
       4 ->  9         0.25656
       5 ->  7         0.35317
       5 ->  8        -0.19019
       5 ->  9         0.24479

 Excited State   6:      Singlet-A     12.8070 eV   96.81 nm  f=0.0000  <S**2>=0.000
       3 ->  8        -0.27739
       3 ->  9         0.37426
       3 -> 22        -0.10065
       4 ->  7         0.44133
       4 ->  8         0.12337
       4 -> 12         0.11725
       4 -> 21         0.10070

 Excited State   7:      Singlet-A     12.9341 eV   95.86 nm  f=0.1557  <S**2>=0.000
       3 ->  9         0.12096
       4 ->  8        -0.13654
       4 ->  9         0.46340
       5 ->  8         0.45199

 Excited State   8:      Singlet-A     12.9341 eV   95.86 nm  f=0.1557  <S**2>=0.000
       3 ->  7         0.11593
       3 ->  9         0.44744
       4 ->  7        -0.23443
       4 ->  8        -0.14519
       5 ->  7         0.38777
       5 ->  8        -0.11160

 Excited State   9:      Singlet-A     12.9341 eV   95.86 nm  f=0.1557  <S**2>=0.000
       3 ->  7         0.44684
       3 ->  8        -0.15984
       4 ->  8        -0.36515
       5 ->  7        -0.20491
       5 ->  8        -0.21528

 Excited State  10:      Singlet-A     13.1184 eV   94.51 nm  f=0.0000  <S**2>=0.000
       3 ->  7        -0.16471
       3 ->  8         0.14519
       4 ->  7         0.22629
       4 ->  8        -0.29126
       4 ->  9        -0.11565
       4 -> 11        -0.15357
       5 ->  9         0.43316
       5 -> 10        -0.20481

 Excited State  11:      Singlet-A     13.1185 eV   94.51 nm  f=0.0000  <S**2>=0.000
       3 ->  7         0.22879
       3 ->  8         0.38988
       3 -> 11         0.15562
       3 -> 12         0.15352
       4 ->  7         0.30857
       4 ->  9         0.12771
       4 -> 12         0.13817
       5 ->  7         0.17647
       5 ->  9        -0.18779

 Excited State  12:      Singlet-A     13.4357 eV   92.28 nm  f=0.0000  <S**2>=0.000
       3 -> 10        -0.10414
       3 -> 11         0.13728
       3 -> 14        -0.12042
       4 -> 10         0.35755
       4 -> 11        -0.24738
       5 -> 10         0.27028
       5 -> 11         0.36098
       5 -> 12        -0.10222

 Excited State  13:      Singlet-A     13.4358 eV   92.28 nm  f=0.0000  <S**2>=0.000
       3 -> 10         0.37270
       3 -> 11        -0.22229
       4 -> 10         0.13624
       5 ->  7        -0.10249
       5 -> 11         0.10437
       5 -> 12         0.45116
       5 -> 13         0.10204

 Excited State  14:      Singlet-A     13.4358 eV   92.28 nm  f=0.0000  <S**2>=0.000
       3 -> 10        -0.24788
       3 -> 11        -0.38372
       4 ->  7        -0.11626
       4 -> 12         0.46001
       4 -> 13        -0.10757
       5 -> 13         0.12581

 Excited State  15:      Singlet-A     13.5902 eV   91.23 nm  f=0.0000  <S**2>=0.000
       3 ->  7        -0.10731
       3 -> 12         0.20670
       4 ->  8        -0.13935
       4 -> 10        -0.17717
       4 -> 11         0.29617
       5 ->  9         0.22517
       5 -> 10         0.46823

 Excited State  16:      Singlet-A     13.5902 eV   91.23 nm  f=0.0000  <S**2>=0.000
       3 ->  8        -0.19959
       3 -> 11         0.37059
       3 -> 12         0.27896
       4 ->  7        -0.17305
       4 -> 10        -0.11414
       4 -> 11        -0.14881
       4 -> 12         0.32823
       5 -> 12         0.17860

 Excited State  17:      Singlet-A     13.6200 eV   91.03 nm  f=0.0000  <S**2>=0.000
       3 ->  7         0.21084
       3 -> 12         0.33879
       4 ->  8         0.15754
       4 ->  9        -0.14451
       4 -> 10         0.19420
       4 -> 11         0.27902
       5 ->  8         0.14044
       5 ->  9         0.15968
       5 -> 10        -0.27731
       5 -> 11         0.19917

 Excited State  18:      Singlet-A     14.3720 eV   86.27 nm  f=0.0080  <S**2>=0.000
       3 -> 10         0.14576
       3 -> 11        -0.15970
       3 -> 12         0.23958
       3 -> 13        -0.17845
       4 -> 10         0.14575
       4 -> 11        -0.14194
       4 -> 13         0.12616
       4 -> 14         0.31388
       5 -> 11        -0.25918
       5 -> 12        -0.24017
       5 -> 13         0.13992
       5 -> 14        -0.18280

 Excited State  19:      Singlet-A     14.3720 eV   86.27 nm  f=0.0080  <S**2>=0.000
       3 -> 10         0.10084
       3 -> 12         0.12736
       3 -> 13         0.37054
       4 -> 10        -0.31797
       4 -> 11        -0.20262
       4 -> 13         0.13268
       5 -> 11         0.26389
       5 -> 12        -0.14172
       5 -> 13         0.10310
       5 -> 14        -0.18920

 Excited State  20:      Singlet-A     14.3721 eV   86.27 nm  f=0.0080  <S**2>=0.000
       3 -> 10         0.32621
       3 -> 12        -0.16167
       3 -> 14        -0.14988
       4 -> 11         0.17769
       4 -> 12         0.24037
       4 -> 13         0.27591
       5 -> 12        -0.19455
       5 -> 14         0.32503

 Excited State  21:      Singlet-A     14.4042 eV   86.07 nm  f=0.0000  <S**2>=0.000
       3 -> 11         0.11466
       4 -> 13        -0.16424
       4 -> 14        -0.18323
       5 -> 13         0.61255

 Excited State  22:      Singlet-A     14.4043 eV   86.07 nm  f=0.0000  <S**2>=0.000
       3 -> 13         0.28320
       4 -> 13        -0.30725
       4 -> 14         0.44537
       5 -> 14         0.26731

 Excited State  23:      Singlet-A     14.4043 eV   86.07 nm  f=0.0000  <S**2>=0.000
       3 -> 10        -0.10267
       3 -> 14         0.59300
       4 -> 13         0.30723

 Excited State  24:      Singlet-A     14.8580 eV   83.45 nm  f=0.7536  <S**2>=0.000
       3 -> 10        -0.23316
       3 -> 11        -0.10700
       3 -> 12         0.19995
       3 -> 14        -0.12058
       4 -> 11        -0.21279
       4 -> 12        -0.21462
       4 -> 13         0.23977
       5 -> 14         0.43519

 Excited State  25:      Singlet-A     14.8581 eV   83.45 nm  f=0.7535  <S**2>=0.000
       3 -> 10        -0.13907
       3 -> 13         0.42481
       3 -> 14        -0.12201
       4 -> 10         0.28062
       4 -> 11         0.13245
       4 -> 13         0.20178
       5 -> 11        -0.25982
       5 -> 12         0.14359
       5 -> 13         0.11880
       5 -> 14        -0.11593

 Excited State  26:      Singlet-A     14.8581 eV   83.45 nm  f=0.7536  <S**2>=0.000
       3 -> 10        -0.18397
       3 -> 11         0.12769
       3 -> 12        -0.18342
       3 -> 13        -0.18261
       3 -> 14        -0.14570
       4 -> 10        -0.12013
       4 -> 13         0.20326
       4 -> 14         0.34868
       5 -> 11         0.20280
       5 -> 12         0.24418
       5 -> 13         0.17225
       5 -> 14        -0.13823

 Excited State  27:      Singlet-A     15.1360 eV   81.91 nm  f=0.0000  <S**2>=0.000
       3 ->  7         0.33847
       3 -> 12        -0.21230
       4 ->  8         0.25297
       4 ->  9        -0.23175
       4 -> 10        -0.12196
       4 -> 11        -0.17485
       5 ->  8         0.22532
       5 ->  9         0.25585
       5 -> 10         0.17425
       5 -> 11        -0.12490

 Excited State  28:      Singlet-A     17.0181 eV   72.85 nm  f=0.0846  <S**2>=0.000
       5 -> 15         0.67463
       5 -> 16         0.16299

 Excited State  29:      Singlet-A     17.0182 eV   72.85 nm  f=0.0846  <S**2>=0.000
       4 -> 15         0.67408
       4 -> 16         0.16286

 Excited State  30:      Singlet-A     17.0182 eV   72.85 nm  f=0.0846  <S**2>=0.000
       3 -> 15         0.67005
       3 -> 16         0.16189

 Excited State  31:      Singlet-A     18.5294 eV   66.91 nm  f=0.0214  <S**2>=0.000
       5 -> 15        -0.17310
       5 -> 16         0.67639

 Excited State  32:      Singlet-A     18.5295 eV   66.91 nm  f=0.0214  <S**2>=0.000
       4 -> 15        -0.17301
       4 -> 16         0.67607

 Excited State  33:      Singlet-A     18.5295 eV   66.91 nm  f=0.0214  <S**2>=0.000
       3 -> 15        -0.17326
       3 -> 16         0.67703

 Excited State  34:      Singlet-A     18.8363 eV   65.82 nm  f=0.0000  <S**2>=0.000
       3 -> 18         0.28291
       3 -> 20        -0.18796
       3 -> 22         0.18607
       4 -> 18         0.11324
       4 -> 19         0.16649
       4 -> 20         0.27306
       4 -> 21         0.21200
       5 -> 17         0.19258
       5 -> 18         0.13900
       5 -> 19        -0.15994
       5 -> 21         0.17394
       5 -> 22        -0.20802

 Excited State  35:      Singlet-A     18.8363 eV   65.82 nm  f=0.0000  <S**2>=0.000
       3 -> 17        -0.14840
       3 -> 18         0.16645
       3 -> 21        -0.25117
       3 -> 22        -0.18833
       4 -> 17         0.27907
       4 -> 19         0.13442
       4 -> 20         0.12990
       4 -> 21        -0.19874
       5 -> 19         0.24232
       5 -> 20        -0.19832
       5 -> 22        -0.25018

 Excited State  36:      Singlet-A     18.9569 eV   65.40 nm  f=0.0035  <S**2>=0.000
       3 -> 17         0.17656
       4 -> 17         0.43194
       4 -> 19        -0.15502
       5 -> 18         0.44181
       5 -> 19        -0.18906

 Excited State  37:      Singlet-A     18.9570 eV   65.40 nm  f=0.0035  <S**2>=0.000
       3 -> 17         0.40755
       3 -> 19        -0.20251
       4 -> 17        -0.15303
       5 -> 17         0.22219
       5 -> 18         0.19558
       5 -> 19         0.39297

 Excited State  38:      Singlet-A     18.9570 eV   65.40 nm  f=0.0035  <S**2>=0.000
       3 -> 18        -0.33915
       3 -> 19         0.33342
       4 -> 17         0.11528
       4 -> 18         0.34553
       4 -> 19         0.32754

 Excited State  39:      Singlet-A     18.9604 eV   65.39 nm  f=0.0000  <S**2>=0.000
       3 -> 19         0.12283
       3 -> 20         0.27507
       4 -> 20         0.36128
       4 -> 22         0.13152
       5 -> 21         0.19726
       5 -> 22         0.39978

 Excited State  40:      Singlet-A     18.9605 eV   65.39 nm  f=0.0000  <S**2>=0.000
       3 -> 20         0.35941
       4 -> 19         0.10143
       4 -> 20        -0.24880
       5 -> 20         0.13992
       5 -> 21         0.40684
       5 -> 22        -0.17435

 Excited State  41:      Singlet-A     18.9605 eV   65.39 nm  f=0.0000  <S**2>=0.000
       3 -> 17         0.10018
       3 -> 22        -0.44443
       4 -> 21         0.45378
       5 -> 18        -0.10060

 Excited State  42:      Singlet-A     18.9879 eV   65.30 nm  f=0.0000  <S**2>=0.000
       2 ->  6         0.66401
       3 -> 21        -0.12462
       4 -> 22        -0.11981
       5 -> 20         0.12003

 Excited State  43:      Singlet-A     19.0682 eV   65.02 nm  f=0.0000  <S**2>=0.000
       3 -> 18        -0.23908
       3 -> 19        -0.11704
       3 -> 20        -0.18558
       3 -> 22         0.21146
       4 -> 17         0.18581
       4 -> 18        -0.10846
       4 -> 19        -0.12655
       4 -> 20         0.18846
       4 -> 21         0.23598
       5 -> 17        -0.21589
       5 -> 18        -0.16589
       5 -> 19         0.26532
       5 -> 21         0.14600

 Excited State  44:      Singlet-A     19.0682 eV   65.02 nm  f=0.0000  <S**2>=0.000
       3 -> 17        -0.16549
       3 -> 18         0.28829
       3 -> 21         0.20874
       3 -> 22         0.10105
       4 -> 17         0.27171
       4 -> 19         0.20837
       4 -> 20        -0.19023
       4 -> 21         0.10184
       5 -> 19         0.19823
       5 -> 20         0.17995
       5 -> 22         0.27038

 Excited State  45:      Singlet-A     19.0868 eV   64.96 nm  f=0.0000  <S**2>=0.000
       3 -> 17        -0.19943
       3 -> 22        -0.10949
       4 -> 17        -0.21556
       4 -> 18        -0.12661
       4 -> 19         0.29853
       5 -> 17        -0.35901
       5 -> 18         0.36632

 Excited State  46:      Singlet-A     19.0868 eV   64.96 nm  f=0.0000  <S**2>=0.000
       3 -> 17         0.38388
       3 -> 18         0.15781
       3 -> 19        -0.13925
       4 -> 18        -0.14119
       4 -> 19         0.27715
       5 -> 17        -0.27626
       5 -> 18        -0.22895
       5 -> 19        -0.20752
       5 -> 22         0.10120

 Excited State  47:      Singlet-A     19.0869 eV   64.96 nm  f=0.0000  <S**2>=0.000
       3 -> 19         0.46188
       3 -> 20        -0.10749
       4 -> 18        -0.45322
       5 -> 19         0.13920

 Excited State  48:      Singlet-A     19.1247 eV   64.83 nm  f=0.0000  <S**2>=0.000
       3 -> 17        -0.15443
       3 -> 18        -0.28636
       3 -> 19        -0.24722
       4 -> 17         0.11143
       4 -> 18        -0.28931
       4 -> 19         0.26610
       5 -> 17         0.36021
       5 -> 19        -0.18758

 Excited State  49:      Singlet-A     19.8195 eV   62.56 nm  f=0.1618  <S**2>=0.000
       3 -> 21         0.10182
       3 -> 26         0.12786
       4 -> 20         0.20081
       4 -> 21        -0.13145
       4 -> 22         0.33973
       5 -> 20         0.45347
       5 -> 21        -0.10026
       5 -> 22        -0.19313

 Excited State  50:      Singlet-A     19.8195 eV   62.56 nm  f=0.1618  <S**2>=0.000
       3 -> 20        -0.37057
       3 -> 22        -0.26993
       4 -> 21        -0.14791
       4 -> 22         0.16216
       5 -> 20         0.10436
       5 -> 21         0.39482
       5 -> 22         0.10441

 Excited State  51:      Singlet-A     19.8195 eV   62.56 nm  f=0.1618  <S**2>=0.000
       3 -> 21         0.41814
       3 -> 22        -0.18880
       4 -> 20         0.17369
       4 -> 21        -0.21028
       4 -> 22        -0.37759
       5 -> 27         0.13530

 Excited State  52:      Singlet-A     20.0851 eV   61.73 nm  f=0.0000  <S**2>=0.000
       2 ->  6         0.18992
       3 -> 21         0.31812
       3 -> 24         0.18579
       3 -> 25        -0.10585
       4 -> 20        -0.10814
       4 -> 22         0.30578
       4 -> 23         0.11807
       4 -> 25         0.15562
       5 -> 20        -0.30626
       5 -> 23         0.17837
       5 -> 25        -0.10151

 Excited State  53:      Singlet-A     20.4344 eV   60.67 nm  f=0.0000  <S**2>=0.000
       3 -> 23        -0.28053
       4 -> 23        -0.32870
       4 -> 24         0.18647
       4 -> 25         0.14452
       5 -> 23         0.22201
       5 -> 24         0.40375
       5 -> 25         0.14947

 Excited State  54:      Singlet-A     20.4344 eV   60.67 nm  f=0.0000  <S**2>=0.000
       3 -> 23         0.38834
       4 -> 23        -0.24500
       4 -> 25         0.21236
       5 -> 23         0.15691
       5 -> 24        -0.19976
       5 -> 25         0.39371

 Excited State  55:      Singlet-A     20.4345 eV   60.67 nm  f=0.0000  <S**2>=0.000
       3 -> 23         0.11075
       3 -> 24         0.23586
       3 -> 25         0.41612
       4 -> 24        -0.40610
       4 -> 25         0.21793
       5 -> 24         0.14133
       5 -> 25        -0.10043

 Excited State  56:      Singlet-A     20.4958 eV   60.49 nm  f=0.0074  <S**2>=0.000
       2 ->  8         0.10441
       2 -> 11         0.10221
       3 -> 23         0.17566
       3 -> 24        -0.22490
       4 -> 23         0.17898
       4 -> 24        -0.13295
       4 -> 25        -0.26509
       5 -> 23         0.46609
       5 -> 24         0.20356

 Excited State  57:      Singlet-A     20.4958 eV   60.49 nm  f=0.0074  <S**2>=0.000
       3 -> 23         0.24496
       3 -> 24        -0.29359
       4 -> 23         0.15543
       4 -> 24         0.15231
       4 -> 25         0.34648
       5 -> 23        -0.19210
       5 -> 24         0.29952
       5 -> 25        -0.12797

 Excited State  58:      Singlet-A     20.4959 eV   60.49 nm  f=0.0074  <S**2>=0.000
       3 -> 25         0.46963
       4 -> 23         0.23621
       4 -> 24         0.34350
       5 -> 24        -0.16429
       5 -> 25         0.16555

 Excited State  59:      Singlet-A     20.7732 eV   59.68 nm  f=0.0000  <S**2>=0.000
       3 -> 23        -0.22713
       3 -> 25        -0.15956
       4 -> 23         0.38335
       4 -> 24        -0.21546
       5 -> 24         0.11373
       5 -> 25         0.44109

 Excited State  60:      Singlet-A     20.7732 eV   59.68 nm  f=0.0000  <S**2>=0.000
       3 -> 23         0.31101
       3 -> 24         0.39192
       4 -> 24         0.20920
       4 -> 25        -0.27622
       5 -> 23        -0.15551
       5 -> 24         0.26630
       5 -> 25         0.14739

 Excited State  61:      Singlet-A     21.7186 eV   57.09 nm  f=0.0456  <S**2>=0.000
       2 ->  7         0.54234
       2 ->  8        -0.23734
       2 ->  9        -0.19307
       3 -> 27         0.10773
       4 -> 26        -0.16962
       4 -> 27        -0.14180
       5 -> 26        -0.10898

 Excited State  62:      Singlet-A     21.7186 eV   57.09 nm  f=0.0456  <S**2>=0.000
       2 ->  7         0.23627
       2 ->  8         0.57455
       3 -> 26        -0.24687
       4 -> 27         0.11439

 Excited State  63:      Singlet-A     21.7186 eV   57.09 nm  f=0.0456  <S**2>=0.000
       2 ->  7         0.19438
       2 ->  9         0.59046
       4 -> 26        -0.10774
       5 -> 27        -0.24507

 Excited State  64:      Singlet-A     21.9768 eV   56.42 nm  f=0.0000  <S**2>=0.000
       3 -> 27         0.10537
       4 -> 26        -0.20995
       4 -> 27        -0.12882
       5 -> 26         0.63907

 Excited State  65:      Singlet-A     21.9769 eV   56.42 nm  f=0.0000  <S**2>=0.000
       3 -> 26         0.29561
       4 -> 26        -0.29938
       4 -> 27         0.48547
       5 -> 27         0.26825

 Excited State  66:      Singlet-A     21.9769 eV   56.42 nm  f=0.0000  <S**2>=0.000
       3 -> 27         0.61360
       4 -> 26         0.29565
       4 -> 27         0.10638

 Excited State  67:      Singlet-A     22.0601 eV   56.20 nm  f=0.0000  <S**2>=0.000
       2 ->  6        -0.13456
       2 -> 15        -0.12562
       3 -> 21        -0.18384
       3 -> 24         0.29663
       3 -> 25        -0.16904
       4 -> 22        -0.17671
       4 -> 23         0.18845
       4 -> 24         0.13898
       4 -> 25         0.24850
       5 -> 20         0.17707
       5 -> 23         0.28465
       5 -> 25        -0.16204

 Excited State  68:      Singlet-A     22.4572 eV   55.21 nm  f=0.1392  <S**2>=0.000
       2 -> 10         0.61001
       4 -> 27         0.10622
       5 -> 27        -0.27824

 Excited State  69:      Singlet-A     22.4572 eV   55.21 nm  f=0.1392  <S**2>=0.000
       2 -> 11         0.58203
       2 -> 12        -0.18596
       3 -> 26         0.16050
       4 -> 26        -0.14783
       4 -> 27        -0.17539

 Excited State  70:      Singlet-A     22.4572 eV   55.21 nm  f=0.1392  <S**2>=0.000
       2 -> 11         0.18587
       2 -> 12         0.58102
       3 -> 26         0.21953
       3 -> 27        -0.10794
       4 -> 26         0.16080

 Excited State  71:      Singlet-A     22.9001 eV   54.14 nm  f=0.1900  <S**2>=0.000
       2 ->  9         0.26853
       2 -> 10         0.30784
       3 -> 26        -0.12960
       4 -> 26         0.13496
       4 -> 27        -0.10899
       5 -> 27         0.49086

 Excited State  72:      Singlet-A     22.9001 eV   54.14 nm  f=0.1900  <S**2>=0.000
       2 ->  7         0.23912

 The electronic state is 1-A.
 Alpha  occ. eigenvalues --  -10.41989  -0.82232  -0.50106  -0.50106  -0.50106
 Alpha virt. eigenvalues --    0.05564   0.17507   0.17507   0.17507   0.22057
 Alpha virt. eigenvalues --    0.22057   0.22057   0.22677   0.22677   0.33280
 Alpha virt. eigenvalues --    0.38153   0.39828   0.39828   0.39828   0.42095

 Mulliken charges:
               1
     1  C    0.010440
     2  H   -0.002603
     3  H   -0.002626
     4  H   -0.002613
     5  H   -0.002598
 Sum of Mulliken charges =   0.00000

 Dipole moment (field-independent basis, Debye):
    X=             -0.0000    Y=             -0.0001    Z=             -0.0000  Tot=              0.0001
 Quadrupole moment (field-independent basis, Debye-Ang):
   XX=             -8.3767   YY=             -8.3768   ZZ=             -8.3769
   XY=             -0.0000   XZ=              0.0000   YZ=             -0.0000

 Normal termination of Gaussian 16 at Mon Mar 21 20:15:24 2022.
