 Gaussian 16, Revision C.01,
 Gaussian 16:  EM64L-G16RevC.01  3-Jul-2019

 -------------------------------------------------------------------
 #P TD(Nstates=10000) m11/Gen SCF(maxcycles=100) Int(Grid=ultrafine)
 -------------------------------------------------------------------

 ---------------------
 xGDB7_00001_tier4.com
 ---------------------
 Symbolic Z-matrix:
 Charge =  0 Multiplicity = 1

                         Standard orientation:
 ---------------------------------------------------------------------
 Center     Atomic      Atomic             Coordinates (Angstroms)
 Number     Number       Type             X           Y           Z
 ---------------------------------------------------------------------
      1          6           0        0.037922   -0.393776    0.738519
      2          6           0        0.037922   -0.393776   -0.738519
      3          7           0        0.037922    0.865964    0.000000
      4          1           0        0.953211   -0.606479    1.276872
      5          1           0       -0.870248   -0.700655    1.244917
      6          1           0       -0.870248   -0.700655   -1.244917
      7          1           0        0.953211   -0.606479   -1.276872
      8          1           0       -0.886454    1.277834    0.000000
 ---------------------------------------------------------------------

 SCF Done:  E(RM11) =  -133.747134877     A.U. after   14 cycles

 Excitation energies and oscillator strengths:

 Excited State   1:      Singlet-A'     6.7303 eV  184.22 nm  f=0.0006  <S**2>=0.000
      12 -> 13         0.60384
      12 -> 15         0.34452
 This state for optimization and/or second-order correction.
 Total Energy, E(TD-HF/TD-DFT) =  -133.499799623
 Copying the excited state density for this state as the 1-particle RhoCI density.

 Excited State   2:      Singlet-A"     7.4900 eV  165.53 nm  f=0.0031  <S**2>=0.000
      12 -> 14         0.69264

 Excited State   3:      Singlet-A'     7.6906 eV  161.22 nm  f=0.0247  <S**2>=0.000
      12 -> 13        -0.33773
      12 -> 15         0.59462
      12 -> 17        -0.10506

 Excited State   4:      Singlet-A'     8.4612 eV  146.53 nm  f=0.0765  <S**2>=0.000
      11 -> 13         0.12919
      12 -> 16         0.66005
      12 -> 20        -0.11448

 Excited State   5:      Singlet-A"     8.8574 eV  139.98 nm  f=0.0472  <S**2>=0.000
      12 -> 19         0.64131
      12 -> 21        -0.19318
      12 -> 31        -0.10417

 Excited State   6:      Singlet-A'     8.9187 eV  139.02 nm  f=0.0194  <S**2>=0.000
      11 -> 13         0.63233
      11 -> 15         0.20109
      12 -> 16        -0.12748

 Excited State   7:      Singlet-A"     9.2231 eV  134.43 nm  f=0.0000  <S**2>=0.000
      10 -> 13         0.62262
      10 -> 15         0.29158

 Excited State   8:      Singlet-A'     9.4285 eV  131.50 nm  f=0.0085  <S**2>=0.000
      11 -> 13         0.13501
      11 -> 15        -0.14682
      12 -> 17         0.64575

 Excited State   9:      Singlet-A"     9.6123 eV  128.98 nm  f=0.0409  <S**2>=0.000
       9 -> 13        -0.22957
      10 -> 15         0.12723
      11 -> 14         0.63991

 Excited State  10:      Singlet-A'     9.8665 eV  125.66 nm  f=0.0580  <S**2>=0.000
      11 -> 13        -0.17870
      11 -> 15         0.62099
      12 -> 17         0.18574
      12 -> 20         0.11813

 Excited State  11:      Singlet-A'    10.0336 eV  123.57 nm  f=0.0198  <S**2>=0.000
      10 -> 14         0.68524

 Excited State  12:      Singlet-A"    10.0572 eV  123.28 nm  f=0.0105  <S**2>=0.000
       9 -> 13         0.57150
      10 -> 13         0.16347
      10 -> 15        -0.20722
      11 -> 14         0.24460

 Excited State  13:      Singlet-A"    10.1863 eV  121.72 nm  f=0.0000  <S**2>=0.000
       9 -> 13         0.21675
      10 -> 13        -0.13664
      10 -> 15         0.31387
      12 -> 18         0.54273
      12 -> 21         0.11552

 Excited State  14:      Singlet-A"    10.2168 eV  121.35 nm  f=0.0784  <S**2>=0.000
       9 -> 13         0.18842
      10 -> 13        -0.21420
      10 -> 15         0.47975
      12 -> 18        -0.38715

 Excited State  15:      Singlet-A'    10.3196 eV  120.14 nm  f=0.0047  <S**2>=0.000
       9 -> 14         0.12469
      11 -> 15        -0.13408
      12 -> 16         0.13131
      12 -> 20         0.63206

 Excited State  16:      Singlet-A'    10.5845 eV  117.14 nm  f=0.0325  <S**2>=0.000
      11 -> 16         0.65938
      11 -> 17         0.10288
      11 -> 20        -0.10040
      12 -> 23         0.11214

 Excited State  17:      Singlet-A'    10.7405 eV  115.44 nm  f=0.0721  <S**2>=0.000
       9 -> 14         0.66025
      12 -> 20        -0.12449

 Excited State  18:      Singlet-A"    10.8458 eV  114.32 nm  f=0.0069  <S**2>=0.000
       9 -> 15        -0.21280
      10 -> 16         0.59127
      10 -> 20        -0.11068
      11 -> 19         0.20928

 Excited State  19:      Singlet-A"    10.9231 eV  113.51 nm  f=0.0070  <S**2>=0.000
       9 -> 15        -0.21409
      10 -> 16        -0.11269
      11 -> 19        -0.12432
      12 -> 18        -0.17235
      12 -> 19         0.19890
      12 -> 21         0.51565
      12 -> 22        -0.21862

 Excited State  20:      Singlet-A"    11.0928 eV  111.77 nm  f=0.1106  <S**2>=0.000
       9 -> 15         0.53148
       9 -> 20        -0.11588
      10 -> 16         0.26396
      11 -> 19        -0.23151
      12 -> 19         0.11487
      12 -> 21         0.13302
      12 -> 22        -0.12280

 Excited State  21:      Singlet-A"    11.4048 eV  108.71 nm  f=0.0994  <S**2>=0.000
       9 -> 15         0.22042
       9 -> 16         0.10959
      10 -> 16        -0.15392
      11 -> 18         0.10040
      11 -> 19         0.47419
      11 -> 21        -0.10406
      12 -> 22        -0.34530

 Excited State  22:      Singlet-A'    11.4866 eV  107.94 nm  f=0.0443  <S**2>=0.000
      10 -> 19         0.43281
      10 -> 21        -0.11177
      11 -> 16        -0.10325
      12 -> 23         0.40931
      12 -> 24         0.24842

 Excited State  23:      Singlet-A'    11.6160 eV  106.74 nm  f=0.0277  <S**2>=0.000
      10 -> 19         0.11775
      11 -> 17         0.59103
      12 -> 23        -0.22333
      12 -> 24         0.13010
      12 -> 27        -0.12929

 Excited State  24:      Singlet-A"    11.6170 eV  106.73 nm  f=0.0059  <S**2>=0.000
       9 -> 15         0.17423
      11 -> 19         0.22101
      12 -> 21         0.34168
      12 -> 22         0.51179

 Excited State  25:      Singlet-A'    11.8047 eV  105.03 nm  f=0.0041  <S**2>=0.000
      11 -> 17        -0.23349
      12 -> 23        -0.34653
      12 -> 24         0.50473
      12 -> 25         0.18236

 Excited State  26:      Singlet-A"    11.8404 eV  104.71 nm  f=0.0390  <S**2>=0.000
       9 -> 16         0.46898
      10 -> 17         0.46210
      11 -> 19        -0.11623

 Excited State  27:      Singlet-A'    11.9795 eV  103.50 nm  f=0.0048  <S**2>=0.000
       9 -> 19         0.61117
       9 -> 21        -0.16103
      11 -> 20         0.13166
      12 -> 25         0.15500

 Excited State  28:      Singlet-A"    12.0141 eV  103.20 nm  f=0.0772  <S**2>=0.000
       9 -> 16        -0.43670
      10 -> 17         0.49539

 Excited State  29:      Singlet-A'    12.1534 eV  102.02 nm  f=0.0314  <S**2>=0.000
       9 -> 19        -0.18796
      10 -> 19        -0.27369
      11 -> 17         0.18429
      11 -> 20         0.20919
      12 -> 23         0.26478
      12 -> 24         0.11533
      12 -> 25         0.42114

 Excited State  30:      Singlet-A'    12.2431 eV  101.27 nm  f=0.0081  <S**2>=0.000
       8 -> 13        -0.11936
      10 -> 19         0.18937
      10 -> 21        -0.11364
      12 -> 20        -0.13335
      12 -> 23        -0.12794
      12 -> 24        -0.28587
      12 -> 25         0.43123
      12 -> 27        -0.26539

 Excited State  31:      Singlet-A"    12.2979 eV  100.82 nm  f=0.0004  <S**2>=0.000
       9 -> 16        -0.14162
      11 -> 18         0.65716

 Excited State  32:      Singlet-A'    12.6344 eV   98.13 nm  f=0.0230  <S**2>=0.000
      10 -> 18         0.66566

 Excited State  33:      Singlet-A"    12.6525 eV   97.99 nm  f=0.0000  <S**2>=0.000
       8 -> 14         0.15581
       9 -> 17         0.56212
      10 -> 20         0.23364
      12 -> 26        -0.19350

 Excited State  34:      Singlet-A"    12.7655 eV   97.12 nm  f=0.0436  <S**2>=0.000
      10 -> 20         0.51730
      12 -> 26         0.38967

 Excited State  35:      Singlet-A"    12.7867 eV   96.96 nm  f=0.0245  <S**2>=0.000
       9 -> 17         0.28083
      10 -> 20        -0.32986
      12 -> 26         0.47738

 Excited State  36:      Singlet-A'    12.8407 eV   96.56 nm  f=0.0780  <S**2>=0.000
       8 -> 13        -0.13699
       9 -> 18        -0.13160
      10 -> 21        -0.11155
      11 -> 20         0.47331
      12 -> 25        -0.20885
      12 -> 27        -0.29223
      12 -> 28         0.13915

 Excited State  37:      Singlet-A'    13.0351 eV   95.12 nm  f=0.0268  <S**2>=0.000
       8 -> 13         0.58730
       8 -> 15         0.16883
       9 -> 18        -0.16961
      12 -> 27        -0.20785

 Excited State  38:      Singlet-A'    13.1353 eV   94.39 nm  f=0.1309  <S**2>=0.000
       8 -> 15         0.10452
       9 -> 18        -0.13630
      10 -> 19         0.21127
      11 -> 20         0.22491
      11 -> 23         0.16984
      11 -> 24         0.14593
      12 -> 23        -0.14079
      12 -> 24        -0.10711
      12 -> 27         0.42820
      12 -> 28         0.20560

 Excited State  39:      Singlet-A"    13.1770 eV   94.09 nm  f=0.0151  <S**2>=0.000
       9 -> 20        -0.10862
      11 -> 19         0.18650
      11 -> 21         0.54437
      11 -> 22        -0.31877

 Excited State  40:      Singlet-A'    13.4201 eV   92.39 nm  f=0.0727  <S**2>=0.000
       8 -> 13        -0.16605
       9 -> 18        -0.29085
      10 -> 18        -0.12310
      10 -> 21         0.45072
      10 -> 22        -0.15743
      11 -> 20        -0.11718
      11 -> 23        -0.10788
      12 -> 28         0.18387
      12 -> 30         0.11210

 Excited State  41:      Singlet-A'    13.4739 eV   92.02 nm  f=0.0635  <S**2>=0.000
       9 -> 18         0.26450
      10 -> 19        -0.17200
      11 -> 20        -0.13630
      11 -> 23         0.19189
      11 -> 24        -0.15511
      12 -> 24         0.10313
      12 -> 28         0.49999
      12 -> 32         0.10010

 Excited State  42:      Singlet-A"    13.5069 eV   91.79 nm  f=0.0842  <S**2>=0.000
       8 -> 14         0.43015
       8 -> 19         0.11441
       9 -> 16         0.10490
       9 -> 17        -0.17869
       9 -> 20         0.32464
      12 -> 29        -0.30042

 Excited State  43:      Singlet-A"    13.6551 eV   90.80 nm  f=0.0327  <S**2>=0.000
      11 -> 21         0.33554
      11 -> 22         0.57383
      11 -> 36        -0.10402

 Excited State  44:      Singlet-A'    13.7262 eV   90.33 nm  f=0.0189  <S**2>=0.000
       8 -> 15        -0.25154
       9 -> 18        -0.10584
      10 -> 21         0.17633
      11 -> 23         0.54678
      12 -> 27        -0.12273
      12 -> 30        -0.11785

 Excited State  45:      Singlet-A"    13.7694 eV   90.04 nm  f=0.0105  <S**2>=0.000
       8 -> 14         0.35347
      10 -> 23         0.17930
      10 -> 24         0.12634
      12 -> 26         0.10582
      12 -> 29         0.50004
      12 -> 36        -0.10844

 Excited State  46:      Singlet-A'    13.7980 eV   89.86 nm  f=0.0844  <S**2>=0.000
       8 -> 13        -0.15192
       8 -> 15         0.44423
       9 -> 18        -0.10445
       9 -> 21        -0.15128
      10 -> 21        -0.13753
      11 -> 23         0.26491
      11 -> 24        -0.19462
      12 -> 28        -0.20472
      12 -> 30         0.10911

 Excited State  47:      Singlet-A"    13.8737 eV   89.37 nm  f=0.0615  <S**2>=0.000
       8 -> 14        -0.27835
       9 -> 15         0.11005
       9 -> 20         0.46156
      10 -> 23        -0.28858
      11 -> 21         0.11318
      12 -> 29         0.21353

 Excited State  48:      Singlet-A'    13.9484 eV   88.89 nm  f=0.0163  <S**2>=0.000
       7 -> 13        -0.21580
       9 -> 18        -0.20295
      10 -> 19        -0.14398
      10 -> 21        -0.13455
      10 -> 22         0.18549
      11 -> 20        -0.16971
      11 -> 24         0.47146
      12 -> 30         0.10049

 Excited State  49:      Singlet-A"    13.9977 eV   88.57 nm  f=0.0004  <S**2>=0.000
       8 -> 14        -0.22082
       9 -> 20         0.23531
      10 -> 23         0.57491
      10 -> 24         0.11423

 Excited State  50:      Singlet-A'    14.0633 eV   88.16 nm  f=0.0067  <S**2>=0.000
       8 -> 15         0.23056
       9 -> 18         0.21413
      10 -> 19         0.10600
      10 -> 21         0.31054
      10 -> 22         0.46932
      11 -> 24         0.11221
      12 -> 30        -0.10941

 Excited State  51:      Singlet-A'    14.1675 eV   87.51 nm  f=0.0374  <S**2>=0.000
       8 -> 15        -0.22441
       9 -> 18        -0.21756
      10 -> 22         0.38676
      11 -> 24        -0.30269
      11 -> 25         0.13801
      12 -> 27         0.11330
      12 -> 30         0.27355

 Excited State  52:      Singlet-A'    14.2006 eV   87.31 nm  f=0.0119  <S**2>=0.000
       7 -> 13         0.12584
       9 -> 18         0.25855
      10 -> 22        -0.10448
      11 -> 24         0.14344
      12 -> 30         0.54609

 Excited State  53:      Singlet-A"    14.2108 eV   87.25 nm  f=0.0205  <S**2>=0.000
      10 -> 23        -0.15706
      10 -> 24         0.64072
      10 -> 25         0.12120

 Excited State  54:      Singlet-A'    14.5045 eV   85.48 nm  f=0.2199  <S**2>=0.000
       7 -> 15        -0.12479
       8 -> 15         0.18096
       8 -> 16        -0.18767
       9 -> 19         0.15532
       9 -> 21         0.44038
       9 -> 22        -0.24517
       9 -> 26         0.10025
      11 -> 25         0.23810

 Excited State  55:      Singlet-A'    14.5832 eV   85.02 nm  f=0.1595  <S**2>=0.000
       7 -> 15         0.10265
       9 -> 21        -0.23146
      11 -> 25         0.56950
      11 -> 27        -0.17833
      11 -> 28         0.10232

 Excited State  56:      Singlet-A"    14.5906 eV   84.98 nm  f=0.0024  <S**2>=0.000
       8 -> 19         0.18644
       9 -> 23        -0.38476
      10 -> 25         0.45789
      11 -> 26         0.16027

 Excited State  57:      Singlet-A'    14.6854 eV   84.43 nm  f=0.2339  <S**2>=0.000
       7 -> 13         0.57322
       8 -> 16         0.21130
       9 -> 18        -0.14256
      10 -> 21        -0.10988
      11 -> 27         0.12195
      11 -> 28        -0.10753

 Excited State  58:      Singlet-A"    14.7329 eV   84.15 nm  f=0.0155  <S**2>=0.000
       8 -> 19         0.53354
       8 -> 21        -0.13931
       9 -> 23         0.21638
       9 -> 24        -0.16738
       9 -> 25         0.13067
      11 -> 26        -0.11800
      12 -> 31         0.13460

 Excited State  59:      Singlet-A"    14.8522 eV   83.48 nm  f=0.0892  <S**2>=0.000
       7 -> 14        -0.27977
       9 -> 23        -0.21693
       9 -> 24        -0.14500
      10 -> 25        -0.32355
      10 -> 27         0.12310
      11 -> 26         0.39876
      12 -> 31         0.12257

 Excited State  60:      Singlet-A'    14.8575 eV   83.45 nm  f=0.2734  <S**2>=0.000
       8 -> 16        -0.28165
       8 -> 17        -0.17799
       9 -> 22         0.49881
      10 -> 26         0.22121
      11 -> 25         0.10226
      11 -> 27         0.12333

 Excited State  61:      Singlet-A'    14.8959 eV   83.23 nm  f=0.1335  <S**2>=0.000
       8 -> 16         0.43169
       9 -> 21         0.29407
       9 -> 22         0.27767
      10 -> 21         0.10664
      11 -> 27        -0.17825
      11 -> 28         0.11460
      12 -> 32        -0.10771

 Excited State  62:      Singlet-A"    14.9988 eV   82.66 nm  f=0.0001  <S**2>=0.000
       8 -> 19        -0.12046
       8 -> 21         0.10741
      10 -> 25         0.24001
      10 -> 27         0.20905
      10 -> 28        -0.13731
      12 -> 19         0.10026
      12 -> 31         0.50932
      12 -> 33        -0.14690

 Excited State  63:      Singlet-A'    15.0088 eV   82.61 nm  f=0.0790  <S**2>=0.000
       9 -> 21         0.17884
      11 -> 28         0.10827
      12 -> 28        -0.14885
      12 -> 32         0.55330
      12 -> 34         0.18125

 Excited State  64:      Singlet-A"    15.0827 eV   82.20 nm  f=0.3229  <S**2>=0.000
       7 -> 14         0.23127
       8 -> 19         0.11702
       9 -> 23        -0.28351
       9 -> 24         0.36103
      10 -> 25        -0.27514
      10 -> 28         0.10053
      11 -> 26        -0.15525
      12 -> 31         0.20827
      12 -> 33        -0.10601

 Excited State  65:      Singlet-A'    15.1441 eV   81.87 nm  f=0.0620  <S**2>=0.000
       7 -> 13        -0.13271
       7 -> 15        -0.10857
       8 -> 16         0.17218
       9 -> 22         0.11347
      10 -> 21         0.10268
      10 -> 26        -0.21698
      11 -> 20         0.12231
      11 -> 25         0.17089
      11 -> 27         0.48037
      12 -> 32         0.13973

 Excited State  66:      Singlet-A"    15.1725 eV   81.72 nm  f=0.0313  <S**2>=0.000
       7 -> 14         0.13437
       9 -> 23         0.31571
       9 -> 24         0.26494
      10 -> 27        -0.18589
      11 -> 26         0.44411

 Excited State  67:      Singlet-A"    15.2365 eV   81.37 nm  f=0.0981  <S**2>=0.000
       7 -> 14        -0.14479
       8 -> 18        -0.12091
       8 -> 19         0.16230
       9 -> 23         0.10027
       9 -> 24         0.29554
       9 -> 25        -0.23024
      10 -> 27         0.42433
      12 -> 31        -0.18056

 Excited State  68:      Singlet-A"    15.2817 eV   81.13 nm  f=0.1069  <S**2>=0.000
       7 -> 14         0.51123
       9 -> 24        -0.24907
      10 -> 27         0.24824
      11 -> 26         0.17445

 Excited State  69:      Singlet-A'    15.3916 eV   80.55 nm  f=0.1676  <S**2>=0.000
       7 -> 15        -0.15792
       8 -> 16        -0.12763
       9 -> 22         0.12281
      10 -> 26        -0.36210
      11 -> 27        -0.10747
      11 -> 28        -0.19245
      12 -> 32        -0.12208
      12 -> 34         0.43777

 Excited State  70:      Singlet-A'    15.4715 eV   80.14 nm  f=0.0637  <S**2>=0.000
       7 -> 15         0.53133
       8 -> 17        -0.18026
      10 -> 26        -0.22940
      11 -> 27         0.13892
      11 -> 30         0.11130

 Excited State  71:      Singlet-A"    15.5788 eV   79.59 nm  f=0.0133  <S**2>=0.000
       7 -> 19         0.27173
       9 -> 24         0.13397
       9 -> 25         0.44326
       9 -> 27        -0.15828
       9 -> 28         0.10291
      11 -> 29        -0.29369
      12 -> 31        -0.14068

 Excited State  72:      Singlet-A'    15.5874 eV   79.54 nm  f=0.2652  <S**2>=0.000
       7 -> 13        -0.10279
       7 -> 16        -0.11257
       8 -> 16         0.16011
       9 -> 22        -0.11584
      10 -> 26         0.36241
      11 -> 27         0.16516
      12 -> 34         0.44282

 Excited State  73:      Singlet-A"    15.7200 eV   78.87 nm  f=0.0112  <S**2>=0.000
       7 -> 19        -0.15827
       9 -> 25         0.32904
      10 -> 27         0.25846
      10 -> 28         0.26288
      11 -> 29         0.36108

 Excited State  74:      Singlet-A'    15.7353 eV   78.79 nm  f=0.0053  <S**2>=0.000
       7 -> 15        -0.23126
       8 -> 17        -0.16009
      10 -> 26        -0.11927
      11 -> 27         0.14448
      11 -> 28         0.53248
      11 -> 30         0.11470
      11 -> 32         0.11899

 Excited State  75:      Singlet-A'    15.8118 eV   78.41 nm  f=0.1722  <S**2>=0.000
       7 -> 15         0.10022
       7 -> 16         0.13710
       8 -> 17         0.57840
      11 -> 27         0.16918
      11 -> 28         0.15076

 Excited State  76:      Singlet-A"    15.9424 eV   77.77 nm  f=0.1848  <S**2>=0.000
       8 -> 18         0.12827
       9 -> 24        -0.11520
       9 -> 25        -0.13177
      10 -> 27         0.15286
      10 -> 28         0.50476
      10 -> 32         0.11675
      11 -> 29        -0.25909

 Excited State  77:      Singlet-A"    16.0769 eV   77.12 nm  f=0.0561  <S**2>=0.000
      11 -> 29        -0.12986
      12 -> 31         0.18685
      12 -> 33         0.58535
      12 -> 35        -0.18850

 Excited State  78:      Singlet-A'    16.1594 eV   76.73 nm  f=0.0768  <S**2>=0.000
       7 -> 15        -0.13432
       7 -> 16         0.21618
       9 -> 26        -0.26464
      11 -> 30         0.39571
      12 -> 32         0.10361
      12 -> 34        -0.10946
      12 -> 38        -0.16842
      12 -> 39        -0.30721

 Excited State  79:      Singlet-A"    16.2304 eV   76.39 nm  f=0.0002  <S**2>=0.000
       7 -> 19        -0.29702
       8 -> 18         0.38915
       9 -> 25         0.14583
       9 -> 27         0.14731
       9 -> 28        -0.10757
      10 -> 30        -0.13076
      11 -> 29        -0.21898
      12 -> 36        -0.20713

 Excited State  80:      Singlet-A'    16.2367 eV   76.36 nm  f=0.1577  <S**2>=0.000
       8 -> 20         0.17193
       9 -> 26         0.49753
      12 -> 38        -0.18275
      12 -> 39        -0.27069

 Excited State  81:      Singlet-A"    16.3330 eV   75.91 nm  f=0.0194  <S**2>=0.000
       7 -> 19         0.23410
       8 -> 18         0.42013
       9 -> 24         0.14136
       9 -> 27         0.12517
      10 -> 30         0.10613
      11 -> 29         0.15568
      12 -> 35         0.21139
      12 -> 36         0.22701

 Excited State  82:      Singlet-A'    16.3721 eV   75.73 nm  f=0.1012  <S**2>=0.000
       7 -> 16         0.33125
       8 -> 20        -0.24259
       9 -> 26         0.22467
      10 -> 29         0.38781
      12 -> 39         0.13097

 Excited State  83:      Singlet-A"    16.3835 eV   75.68 nm  f=0.0204  <S**2>=0.000
       8 -> 18        -0.23666

 The electronic state is 1-A'.
 Alpha  occ. eigenvalues --  -14.61142 -10.46561 -10.46528  -1.09241  -0.78176
 Alpha  occ. eigenvalues --   -0.74209  -0.64536  -0.58835  -0.48434  -0.45669
 Alpha  occ. eigenvalues --   -0.44391  -0.36088
 Alpha virt. eigenvalues --    0.05343   0.06799   0.10435   0.13422   0.16748
 Alpha virt. eigenvalues --    0.17528   0.19013   0.20829   0.22935   0.24073
 Alpha virt. eigenvalues --    0.24391   0.25866   0.27782   0.29212   0.31102

 Mulliken charges:
               1
     1  C    0.388252
     2  C    0.388252
     3  N   -0.353088
     4  H   -0.130670
     5  H   -0.088970
     6  H   -0.088970
     7  H   -0.130670
     8  H    0.015862
 Sum of Mulliken charges =  -0.00000

 Dipole moment (field-independent basis, Debye):
    X=             -1.3588    Y=             -1.1663    Z=              0.0000  Tot=              1.7907
 Quadrupole moment (field-independent basis, Debye-Ang):
   XX=            -17.7081   YY=            -21.3264   ZZ=            -18.5363
   XY=             -2.1907   XZ=              0.0000   YZ=              0.0000

 Normal termination of Gaussian 16 at Mon Mar 21 20:16:10 2022.
