 Gaussian 16, Revision C.01,
 Gaussian 16:  EM64L-G16RevC.01  3-Jul-2019

 -------------------------------------------------------------------
 #P TD(Nstates=10000) m11/Gen SCF(maxcycles=100) Int(Grid=ultrafine)
 -------------------------------------------------------------------

 ---------------------
 xGDB7_00001_tier4.com
 ---------------------
 Symbolic Z-matrix:
 Charge =  0 Multiplicity = 1

                         Standard orientation:
 ---------------------------------------------------------------------
 Center     Atomic      Atomic             Coordinates (Angstroms)
 Number     Number       Type             X           Y           Z
 ---------------------------------------------------------------------
      1          6           0        0.000000    0.000000    0.597322
      2          6           0        0.000000    0.000000   -0.597322
      3          1           0        0.000000    0.000000    1.661338
      4          1           0        0.000000    0.000000   -1.661338
 ---------------------------------------------------------------------

 SCF Done:  E(RM11) =  -77.2151871751     A.U. after   13 cycles

 Excitation energies and oscillator strengths:

 Excited state symmetry could not be determined.
 Excited State   1:      Singlet-?Sym    6.2601 eV  198.05 nm  f=0.0000  <S**2>=0.000
       6 -> 11        -0.48907
       6 -> 18         0.10430
       7 -> 10         0.48907
       7 -> 19        -0.10430
 This state for optimization and/or second-order correction.
 Total Energy, E(TD-HF/TD-DFT) =  -76.9851317387
 Copying the excited state density for this state as the 1-particle RhoCI density.

 Excited state symmetry could not be determined.
 Excited State   2:      Singlet-?Sym    7.3729 eV  168.16 nm  f=0.0000  <S**2>=0.000
       6 -> 10        -0.49505
       7 -> 11         0.49505

 Excited state symmetry could not be determined.
 Excited State   3:      Singlet-?Sym    7.3729 eV  168.16 nm  f=0.0000  <S**2>=0.000
       6 -> 11         0.49505
       7 -> 10         0.49505

 Excited state symmetry could not be determined.
 Excited State   4:      Singlet-?Sym    7.9095 eV  156.75 nm  f=0.0769  <S**2>=0.000
       6 ->  8         0.35151
       7 ->  8         0.60486

 Excited state symmetry could not be determined.
 Excited State   5:      Singlet-?Sym    7.9095 eV  156.75 nm  f=0.0769  <S**2>=0.000
       6 ->  8         0.60486
       7 ->  8        -0.35151

 Excited state symmetry could not be determined.
 Excited State   6:      Singlet-?Sym    8.3825 eV  147.91 nm  f=0.0000  <S**2>=0.000
       6 ->  9         0.52038
       7 ->  9        -0.46610

 Excited state symmetry could not be determined.
 Excited State   7:      Singlet-?Sym    8.3825 eV  147.91 nm  f=0.0000  <S**2>=0.000
       6 ->  9         0.46610
       7 ->  9         0.52038

 Excited state symmetry could not be determined.
 Excited State   8:      Singlet-?Sym    9.8542 eV  125.82 nm  f=0.0471  <S**2>=0.000
       6 -> 12         0.38955
       7 -> 12         0.56357
       7 -> 21         0.10607

 Excited state symmetry could not be determined.
 Excited State   9:      Singlet-?Sym    9.8542 eV  125.82 nm  f=0.0471  <S**2>=0.000
       6 -> 12         0.56357
       6 -> 21         0.10607
       7 -> 12        -0.38955

 Excited state symmetry could not be determined.
 Excited State  10:      Singlet-?Sym   10.4204 eV  118.98 nm  f=0.8579  <S**2>=0.000
       6 -> 10         0.49156
       7 -> 11         0.49156

 Excited state symmetry could not be determined.
 Excited State  11:      Singlet-?Sym   11.5642 eV  107.21 nm  f=0.0000  <S**2>=0.000
       5 -> 11        -0.10321
       7 -> 13         0.67756
       7 -> 20        -0.11040

 Excited state symmetry could not be determined.
 Excited State  12:      Singlet-?Sym   11.5642 eV  107.21 nm  f=0.0000  <S**2>=0.000
       5 -> 10        -0.10321
       6 -> 13         0.67756
       6 -> 20        -0.11040

 Excited state symmetry could not be determined.
 Excited State  13:      Singlet-?Sym   11.7186 eV  105.80 nm  f=0.0000  <S**2>=0.000
       6 -> 15        -0.49849
       7 -> 14         0.49849

 Excited state symmetry could not be determined.
 Excited State  14:      Singlet-?Sym   11.8127 eV  104.96 nm  f=0.0000  <S**2>=0.000
       6 -> 15         0.49652
       7 -> 14         0.49652

 Excited state symmetry could not be determined.
 Excited State  15:      Singlet-?Sym   11.8127 eV  104.96 nm  f=0.0000  <S**2>=0.000
       6 -> 14         0.49652
       7 -> 15        -0.49652

 Excited state symmetry could not be determined.
 Excited State  16:      Singlet-?Sym   12.4858 eV   99.30 nm  f=0.0000  <S**2>=0.000
       4 ->  9        -0.12094
       5 ->  8         0.19521
       5 -> 12        -0.13707
       6 -> 14         0.45752
       7 -> 15         0.45752

 Excited state symmetry could not be determined.
 Excited State  17:      Singlet-?Sym   12.5725 eV   98.62 nm  f=0.0000  <S**2>=0.000
       5 -> 10         0.67313
       5 -> 19        -0.11736
       6 -> 13         0.10047

 Excited state symmetry could not be determined.
 Excited State  18:      Singlet-?Sym   12.5725 eV   98.62 nm  f=0.0000  <S**2>=0.000
       5 -> 11         0.67313
       5 -> 18        -0.11736
       7 -> 13         0.10047

 Excited state symmetry could not be determined.
 Excited State  19:      Singlet-?Sym   12.9584 eV   95.68 nm  f=0.0000  <S**2>=0.000
       6 -> 16        -0.42575
       6 -> 17         0.26234
       7 -> 16         0.26234
       7 -> 17         0.42575

 Excited state symmetry could not be determined.
 Excited State  20:      Singlet-?Sym   12.9584 eV   95.68 nm  f=0.0000  <S**2>=0.000
       6 -> 16         0.26234
       6 -> 17         0.42575
       7 -> 16         0.42575
       7 -> 17        -0.26234

 Excited state symmetry could not be determined.
 Excited State  21:      Singlet-?Sym   13.5453 eV   91.53 nm  f=0.3379  <S**2>=0.000
       4 -> 10        -0.11917
       4 -> 11         0.18665
       6 -> 16         0.25289
       6 -> 17        -0.39609
       7 -> 16         0.39610
       7 -> 17         0.25289

 Excited state symmetry could not be determined.
 Excited State  22:      Singlet-?Sym   13.5453 eV   91.53 nm  f=0.3379  <S**2>=0.000
       4 -> 10        -0.18665
       4 -> 11        -0.11917
       6 -> 16         0.39610
       6 -> 17         0.25289
       7 -> 16        -0.25289
       7 -> 17         0.39609

 Excited State  23:      Singlet-SGG   13.6182 eV   91.04 nm  f=0.0000  <S**2>=0.000
       5 ->  8         0.66502
       5 -> 12         0.12078
       6 -> 14        -0.13104
       7 -> 15        -0.13104

 Excited State  24:      Singlet-SGU   13.7746 eV   90.01 nm  f=0.3389  <S**2>=0.000
       4 ->  8        -0.19571
       5 ->  9         0.63325
       6 -> 19        -0.13825
       7 -> 18        -0.13825

 Excited state symmetry could not be determined.
 Excited State  25:      Singlet-?Sym   13.8863 eV   89.28 nm  f=0.0000  <S**2>=0.000
       6 -> 11         0.10974
       6 -> 18         0.47818
       7 -> 10        -0.10974
       7 -> 19        -0.47818

 Excited state symmetry could not be determined.
 Excited State  26:      Singlet-?Sym   14.2963 eV   86.72 nm  f=0.0000  <S**2>=0.000
       6 -> 19        -0.48879
       7 -> 18         0.48879

 Excited state symmetry could not be determined.
 Excited State  27:      Singlet-?Sym   14.2963 eV   86.72 nm  f=0.0000  <S**2>=0.000
       6 -> 18         0.48879
       7 -> 19         0.48879

 Excited state symmetry could not be determined.
 Excited State  28:      Singlet-?Sym   15.2563 eV   81.27 nm  f=0.0218  <S**2>=0.000
       4 -> 10         0.12315
       6 -> 12        -0.13534
       6 -> 21         0.63642
       7 -> 21        -0.20171

 Excited state symmetry could not be determined.
 Excited State  29:      Singlet-?Sym   15.2563 eV   81.27 nm  f=0.0218  <S**2>=0.000
       4 -> 11         0.12315
       6 -> 21         0.20171
       7 -> 12        -0.13534
       7 -> 21         0.63642

 Excited State  30:      Singlet-SGU   15.3492 eV   80.78 nm  f=0.0001  <S**2>=0.000
       4 ->  8         0.40495
       5 ->  9         0.26433
       5 -> 13        -0.10017
       6 -> 19         0.35018
       7 -> 18         0.35018

 Excited state symmetry could not be determined.
 Excited State  31:      Singlet-?Sym   15.7014 eV   78.96 nm  f=0.0000  <S**2>=0.000
       6 -> 20        -0.25815
       7 -> 13         0.10903
       7 -> 20         0.62662

 Excited state symmetry could not be determined.
 Excited State  32:      Singlet-?Sym   15.7014 eV   78.96 nm  f=0.0000  <S**2>=0.000
       6 -> 13         0.10903
       6 -> 20         0.62662
       7 -> 20         0.25815

 Excited state symmetry could not be determined.
 Excited State  33:      Singlet-?Sym   15.8237 eV   78.35 nm  f=0.6490  <S**2>=0.000
       4 -> 10         0.27048
       4 -> 11         0.45725
       6 -> 22         0.20675
       7 -> 22         0.34951

 Excited state symmetry could not be determined.
 Excited State  34:      Singlet-?Sym   15.8237 eV   78.35 nm  f=0.6490  <S**2>=0.000
       4 -> 10         0.45725
       4 -> 11        -0.27048
       6 -> 22         0.34951
       7 -> 22        -0.20675

 Excited State  35:      Singlet-SGG   16.0377 eV   77.31 nm  f=0.0000  <S**2>=0.000
       4 ->  9         0.40477
       5 -> 12         0.50187
       6 -> 14         0.14226
       6 -> 28         0.12124
       7 -> 15         0.14226
       7 -> 29         0.12124

 Excited State  36:      Singlet-SGU   16.0740 eV   77.13 nm  f=0.0278  <S**2>=0.000
       4 ->  8         0.52641
       4 -> 12         0.13768
       6 -> 19        -0.29927
       7 -> 18        -0.29927

 Excited State  37:      Singlet-SGG   16.5045 eV   75.12 nm  f=0.0000  <S**2>=0.000
       4 ->  9         0.53850
       5 ->  8         0.11570
       5 -> 12        -0.42895

 Excited state symmetry could not be determined.
 Excited State  38:      Singlet-?Sym   16.8533 eV   73.57 nm  f=0.2057  <S**2>=0.000
       4 -> 11        -0.37429
       7 -> 21         0.11948
       7 -> 22         0.56559

 Excited state symmetry could not be determined.
 Excited State  39:      Singlet-?Sym   16.8533 eV   73.57 nm  f=0.2057  <S**2>=0.000
       4 -> 10        -0.37429
       6 -> 21         0.11948
       6 -> 22         0.56559

 Excited state symmetry could not be determined.
 Excited State  40:      Singlet-?Sym   16.9387 eV   73.20 nm  f=0.0000  <S**2>=0.000
       6 -> 23         0.30139
       6 -> 24        -0.39894
       7 -> 23         0.39904
       7 -> 24         0.30132

 Excited state symmetry could not be determined.
 Excited State  41:      Singlet-?Sym   16.9387 eV   73.20 nm  f=0.0000  <S**2>=0.000
       6 -> 23         0.39904
       6 -> 24         0.30132
       7 -> 23        -0.30139
       7 -> 24         0.39894

 Excited State  42:      Singlet-SGU   17.0154 eV   72.87 nm  f=0.6320  <S**2>=0.000
       4 -> 12        -0.41681
       5 ->  9         0.14599
       5 -> 13         0.54079

 Excited state symmetry could not be determined.
 Excited State  43:      Singlet-?Sym   17.0938 eV   72.53 nm  f=0.0000  <S**2>=0.000
       6 -> 23        -0.39483
       6 -> 24         0.29151
       7 -> 23         0.29144
       7 -> 24         0.39493

 Excited state symmetry could not be determined.
 Excited State  44:      Singlet-?Sym   17.0938 eV   72.53 nm  f=0.0000  <S**2>=0.000
       6 -> 23         0.29144
       6 -> 24         0.39493
       7 -> 23         0.39483
       7 -> 24        -0.29151

 Excited state symmetry could not be determined.
 Excited State  45:      Singlet-?Sym   17.3081 eV   71.63 nm  f=0.0000  <S**2>=0.000
       6 -> 28         0.49598
       7 -> 29        -0.49598

 Excited state symmetry could not be determined.
 Excited State  46:      Singlet-?Sym   17.3081 eV   71.63 nm  f=0.0000  <S**2>=0.000
       6 -> 29         0.49598
       7 -> 28         0.49598

 Excited state symmetry could not be determined.
 Excited State  47:      Singlet-?Sym   17.3457 eV   71.48 nm  f=0.1010  <S**2>=0.000
       4 -> 18         0.10174
       4 -> 19         0.11398
       5 -> 14         0.51001
       5 -> 15         0.45524

 Excited state symmetry could not be determined.
 Excited State  48:      Singlet-?Sym   17.3457 eV   71.48 nm  f=0.1010  <S**2>=0.000
       4 -> 18         0.11398
       4 -> 19        -0.10174
       5 -> 14        -0.45524
       5 -> 15         0.51001

 Excited state symmetry could not be determined.
 Excited State  49:      Singlet-?Sym   17.7016 eV   70.04 nm  f=0.0000  <S**2>=0.000
       6 -> 29        -0.49881
       7 -> 28         0.49881

 Excited state symmetry could not be determined.
 Excited State  50:      Singlet-?Sym   17.7604 eV   69.81 nm  f=0.0000  <S**2>=0.000
       4 ->  9        -0.14580
       5 -> 12        -0.10229
       6 -> 28         0.47511
       7 -> 29         0.47511

 Excited state symmetry could not be determined.
 Excited State  51:      Singlet-?Sym   18.0691 eV   68.62 nm  f=0.0000  <S**2>=0.000
       6 -> 18        -0.10145
       6 -> 25         0.48869
       7 -> 19         0.10145
       7 -> 26        -0.48869

 Excited State  52:      Singlet-SGU   18.0863 eV   68.55 nm  f=0.0055  <S**2>=0.000
       4 -> 12         0.43129
       5 -> 13         0.35761
       6 -> 26        -0.27599
       7 -> 25        -0.27599

 Excited state symmetry could not be determined.
 Excited State  53:      Singlet-?Sym   18.0942 eV   68.52 nm  f=0.0000  <S**2>=0.000
       6 -> 27         0.49073
       7 -> 27         0.46073

 Excited state symmetry could not be determined.
 Excited State  54:      Singlet-?Sym   18.0942 eV   68.52 nm  f=0.0000  <S**2>=0.000
       6 -> 27        -0.46073
       7 -> 27         0.49073

 Excited state symmetry could not be determined.
 Excited State  55:      Singlet-?Sym   18.2441 eV   67.96 nm  f=0.0000  <S**2>=0.000
       6 -> 26        -0.49130
       7 -> 25         0.49130

 Excited state symmetry could not be determined.
 Excited State  56:      Singlet-?Sym   18.2441 eV   67.96 nm  f=0.0000  <S**2>=0.000
       6 -> 25         0.49130
       7 -> 26         0.49130

 Excited state symmetry could not be determined.
 Excited State  57:      Singlet-?Sym   18.4867 eV   67.07 nm  f=0.0000  <S**2>=0.000
       3 -> 10         0.17632
       4 -> 14         0.45872
       4 -> 15        -0.12031
       5 -> 18        -0.11175
       5 -> 19         0.42607
       6 -> 27         0.14735

 Excited state symmetry could not be determined.
 Excited State  58:      Singlet-?Sym   18.4867 eV   67.07 nm  f=0.0000  <S**2>=0.000
       3 -> 11         0.17632
       4 -> 14         0.12031
       4 -> 15         0.45872
       5 -> 18         0.42607
       5 -> 19         0.11175
       7 -> 27         0.14735

 Excited state symmetry could not be determined.
 Excited State  59:      Singlet-?Sym   18.9809 eV   65.32 nm  f=0.0000  <S**2>=0.000
       5 -> 16         0.70137

 Excited state symmetry could not be determined.
 Excited State  60:      Singlet-?Sym   18.9809 eV   65.32 nm  f=0.0000  <S**2>=0.000
       5 -> 17         0.70137

 Excited state symmetry could not be determined.
 Excited State  61:      Singlet-?Sym   19.0118 eV   65.21 nm  f=0.0408  <S**2>=0.000
       4 ->  8        -0.10076
       4 -> 12         0.31045
       5 -> 13         0.21074
       6 -> 26         0.39530
       7 -> 25         0.39530

 Excited State  62:      Singlet-SGG   19.5285 eV   63.49 nm  f=0.0000  <S**2>=0.000
       4 -> 13         0.67438
       5 -> 21         0.12744

 Excited state symmetry could not be determined.
 Excited State  63:      Singlet-?Sym   20.4553 eV   60.61 nm  f=0.0000  <S**2>=0.000
       3 -> 10         0.46956
       3 -> 11         0.25057
       4 -> 14        -0.33943
       4 -> 15        -0.18113
       5 -> 10         0.10343
       5 -> 19         0.14042

 Excited state symmetry could not be determined.
 Excited State  64:      Singlet-?Sym   20.4553 eV   60.61 nm  f=0.0000  <S**2>=0.000
       3 -> 10        -0.25057
       3 -> 11         0.46956
       4 -> 14         0.18113
       4 -> 15        -0.33943
       5 -> 11         0.10343
       5 -> 18         0.14042

 Excited state symmetry could not be determined.
 Excited State  65:      Singlet-?Sym   20.5219 eV   60.42 nm  f=0.0000  <S**2>=0.000
       3 -> 10        -0.35187
       3 -> 11         0.15472
       4 -> 14        -0.29415
       4 -> 15         0.12934
       5 -> 18        -0.19655
       5 -> 19         0.44700

 Excited state symmetry could not be determined.
 Excited State  66:      Singlet-?Sym   20.5219 eV   60.42 nm  f=0.0000  <S**2>=0.000
       3 -> 10        -0.15472
       3 -> 11        -0.35187
       4 -> 14        -0.12934
       4 -> 15        -0.29415
       5 -> 18         0.44700
       5 -> 19         0.19655

 Excited State  67:      Singlet-SGG   20.6784 eV   59.96 nm  f=0.0000  <S**2>=0.000
       3 ->  8         0.68849

 Excited state symmetry could not be determined.
 Excited State  68:      Singlet-?Sym   20.9178 eV   59.27 nm  f=0.0000  <S**2>=0.000
       4 -> 17         0.65738
       5 -> 23         0.25355

 Excited state symmetry could not be determined.
 Excited State  69:      Singlet-?Sym   20.9178 eV   59.27 nm  f=0.0000  <S**2>=0.000
       4 -> 16         0.65739
       5 -> 24         0.25354

 Excited State  70:      Singlet-SGU   21.2137 eV   58.45 nm  f=0.1884  <S**2>=0.000
       3 ->  9         0.48453
       4 -> 22        -0.13815
       5 -> 20        -0.46654

 Excited State  71:      Singlet-SGU   21.4460 eV   57.81 nm  f=0.1302  <S**2>=0.000
       3 ->  9         0.49766
       4 -> 22         0.10158
       5 -> 20         0.47211

 Excited State  72:      Singlet-SGG   21.5667 eV   57.49 nm  f=0.0000  <S**2>=0.000
       4 -> 13        -0.10454
       5 -> 21         0.64958
       5 -> 22        -0.20363

 Excited state symmetry could not be determined.
 Excited State  73:      Singlet-?Sym   21.9473 eV   56.49 nm  f=0.0027  <S**2>=0.000
       3 -> 14         0.10445
       4 -> 19         0.65370
       5 -> 14        -0.14566
       5 -> 28         0.15759

 Excited state symmetry could not be determined.
 Excited State  74:      Singlet-?Sym   21.9473 eV   56.49 nm  f=0.0027  <S**2>=0.000
       3 -> 15         0.10445
       4 -> 18         0.65370
       5 -> 15        -0.14566
       5 -> 29         0.15759

 Excited State  75:      Singlet-SGG   22.3850 eV   55.39 nm  f=0.0000  <S**2>=0.000
       4 -> 20         0.23096
       5 -> 21         0.20353
       5 -> 22         0.59065
       6 -> 32        -0.12373
       7 -> 33        -0.12373

 Excited state symmetry could not be determined.
 Excited State  76:      Singlet-?Sym   22.9836 eV   53.94 nm  f=0.0000  <S**2>=0.000
       4 -> 17        -0.25287
       5 -> 23         0.65966

 Excited state symmetry could not be determined.
 Excited State  77:      Singlet-?Sym   22.9836 eV   53.94 nm  f=0.0000  <S**2>=0.000
       4 -> 16        -0.25286
       5 -> 24         0.65966

 Excited State  78:      Singlet-SGG   23.0317 eV   53.83 nm  f=0.0000  <S**2>=0.000
       3 -> 12         0.68020

 Excited State  79:      Singlet-SGU   23.5766 eV   52.59 nm  f=0.0599  <S**2>=0.000
       4 -> 21         0.68834

 Excited state symmetry could not be determined.
 Excited State  80:      Singlet-?Sym   23.7514 eV   52.20 nm  f=0.1104  <S**2>=0.000
       4 -> 18        -0.10751
       4 -> 19        -0.10066
       5 -> 28         0.46480
       5 -> 29         0.49643

 Excited state symmetry could not be determined.
 Excited State  81:      Singlet-?Sym   23.7514 eV   52.20 nm  f=0.1104  <S**2>=0.000
       4 -> 18         0.10066
       4 -> 19        -0.10751
       5 -> 28         0.49643
       5 -> 29        -0.46480

 Excited state symmetry could not be determined.
 Excited State  82:      Singlet-?Sym   23.8850 eV   51.91 nm  f=0.0000  <S**2>=0.000
       5 -> 18        -0.12993
       5 -> 25         0.68664

 Excited state symmetry could not be determined.
 Excited State  83:      Singlet-?Sym   23.8850 eV   51.91 nm  f=0.0000  <S**2>=0.000
       5 -> 19        -0.12993
       5 -> 26         0.68664

 Excited State  84:      Singlet-SGG   24.0277 eV   51.60 nm  f=0.0000  <S**2>=0.000
       4 -> 20         0.64662
       5 -> 22        -0.25455

 Excited state symmetry could not be determined.
 Excited State  85:      Singlet-?Sym   24.0384 eV   51.58 nm  f=0.0000  <S**2>=0.000
       6 -> 30         0.69085

 Excited state symmetry could not be determined.
 Excited State  86:      Singlet-?Sym   24.0384 eV   51.58 nm  f=0.0000  <S**2>=0.000
       7 -> 30         0.69085

 Excited State  87:      Singlet-SGU   24.4577 eV   50.69 nm  f=0.0000  <S**2>=0.000
       3 -> 13         0.51985
       4 -> 22         0.32853
       5 -> 20        -0.15481
       5 -> 27        -0.28750

 Excited state symmetry could not be determined.
 Excited State  88:      Singlet-?Sym   24.6532 eV   50.29 nm  f=0.0000  <S**2>=0.000
       3 -> 17         0.23091
       4 -> 23         0.62651
       6 -> 33         0.15327
       7 -> 32         0.15327

 Excited state symmetry could not be determined.
 Excited State  89:      Singlet-?Sym   24.6532 eV   50.29 nm  f=0.0000  <S**2>=0.000
       3 -> 16         0.23092
       4 -> 24         0.62651
       6 -> 32         0.15327
       7 -> 33        -0.15327

 Excited State  90:      Singlet-SGU   24.7798 eV   50.03 nm  f=0.1501  <S**2>=0.000
       3 -> 13         0.27253
       4 -> 22         0.12893
       5 -> 27         0.61747

 Excited state symmetry could not be determined.
 Excited State  91:      Singlet-?Sym   24.8858 eV   49.82 nm  f=0.0001  <S**2>=0.000
       3 -> 14         0.68467

 Excited state symmetry could not be determined.
 Excited State  92:      Singlet-?Sym   24.8858 eV   49.82 nm  f=0.0001  <S**2>=0.000
       3 -> 15         0.68467

 Excited State  93:      Singlet-SGU   24.9738 eV   49.65 nm  f=0.0054  <S**2>=0.000
       3 -> 13        -0.35369
       4 -> 22         0.57063
       5 -> 20        -0.11590

 Excited state symmetry could not be determined.
 Excited State  94:      Singlet-?Sym   25.4609 eV   48.70 nm  f=0.0000  <S**2>=0.000
       3 -> 17         0.17310
       4 -> 23        -0.28077
       6 -> 33         0.43664
       7 -> 32         0.43664

 Excited state symmetry could not be determined.
 Excited State  95:      Singlet-?Sym   25.4610 eV   48.70 nm  f=0.0000  <S**2>=0.000
       3 -> 16         0.17313
       4 -> 24        -0.28077
       6 -> 32         0.43663
       7 -> 33        -0.43663

 Excited state symmetry could not be determined.
 Excited State  96:      Singlet-?Sym   25.7929 eV   48.07 nm  f=0.0000  <S**2>=0.000
       6 -> 33        -0.49775
       7 -> 32         0.49775

 Excited state symmetry could not be determined.
 Excited State  97:      Singlet-?Sym   25.8030 eV   48.05 nm  f=0.0000  <S**2>=0.000
       3 -> 19         0.14213
       4 -> 28         0.56935
       4 -> 29        -0.37438

 Excited state symmetry could not be determined.
 Excited State  98:      Singlet-?Sym   25.8030 eV   48.05 nm  f=0.0000  <S**2>=0.000
       3 -> 18         0.14213
       4 -> 28         0.37438
       4 -> 29         0.56935

 Excited state symmetry could not be determined.
 Excited State  99:      Singlet-?Sym   25.8904 eV   47.89 nm  f=0.0070  <S**2>=0.000
       4 -> 18        -0.11213
       4 -> 25         0.64796
       7 -> 31        -0.24371

 Excited state symmetry could not be determined.
 Excited State 100:      Singlet-?Sym   25.8904 eV   47.89 nm  f=0.0070  <S**2>=0.000
       4 -> 19        -0.11213

 The electronic state is 1-SGG.
 Alpha  occ. eigenvalues --  -10.45245 -10.44956  -0.88161  -0.68523  -0.61141
 Alpha  occ. eigenvalues --   -0.40440  -0.40440
 Alpha virt. eigenvalues --    0.04907   0.06348   0.11073   0.11073   0.15775
 Alpha virt. eigenvalues --    0.21478   0.22338   0.22338   0.31002   0.31002
 Alpha virt. eigenvalues --    0.31589   0.31589   0.36676   0.37503   0.40463

 Mulliken charges:
               1
     1  C   -0.048109
     2  C   -0.048109
     3  H    0.048109
     4  H    0.048109
 Sum of Mulliken charges =   0.00000

 Dipole moment (field-independent basis, Debye):
    X=              0.0000    Y=              0.0000    Z=              0.0000  Tot=              0.0000
 Quadrupole moment (field-independent basis, Debye-Ang):
   XX=            -13.4929   YY=            -13.4929   ZZ=             -6.8825
   XY=             -0.0000   XZ=              0.0000   YZ=              0.0000

 Normal termination of Gaussian 16 at Mon Mar 21 20:05:02 2022.
