 Gaussian 16, Revision C.01,
 Gaussian 16:  EM64L-G16RevC.01  3-Jul-2019

 -------------------------------------------------------------------
 #P TD(Nstates=10000) m11/Gen SCF(maxcycles=100) Int(Grid=ultrafine)
 -------------------------------------------------------------------

 ---------------------
 xGDB7_00001_tier4.com
 ---------------------
 Symbolic Z-matrix:
 Charge =  0 Multiplicity = 1

                         Standard orientation:
 ---------------------------------------------------------------------
 Center     Atomic      Atomic             Coordinates (Angstroms)
 Number     Number       Type             X           Y           Z
 ---------------------------------------------------------------------
      1          6           0       -1.131573   -0.504386    0.000000
      2          6           0        0.000000    0.472223    0.000000
      3          6           0        1.284136    0.150792    0.000000
      4          1           0       -1.767446   -0.362776    0.877699
      5          1           0       -0.770122   -1.533458    0.000000
      6          1           0       -1.767446   -0.362776   -0.877699
      7          1           0       -0.276551    1.523465    0.000000
      8          1           0        1.608435   -0.884555    0.000000
      9          1           0        2.057749    0.908327    0.000000
 ---------------------------------------------------------------------

 SCF Done:  E(RM11) =  -117.728634719     A.U. after   14 cycles

 Excitation energies and oscillator strengths:

 Excited State   1:      Singlet-A"     7.0906 eV  174.86 nm  f=0.0265  <S**2>=0.000
      12 -> 13         0.65554
      12 -> 15        -0.23023
 This state for optimization and/or second-order correction.
 Total Energy, E(TD-HF/TD-DFT) =  -117.468058638
 Copying the excited state density for this state as the 1-particle RhoCI density.

 Excited State   2:      Singlet-A'     7.5935 eV  163.28 nm  f=0.4074  <S**2>=0.000
      12 -> 16         0.69857

 Excited State   3:      Singlet-A"     7.7390 eV  160.21 nm  f=0.0014  <S**2>=0.000
      12 -> 13        -0.12697
      12 -> 14         0.50845
      12 -> 15        -0.44769

 Excited State   4:      Singlet-A"     8.0035 eV  154.91 nm  f=0.0175  <S**2>=0.000
      11 -> 16         0.10377
      12 -> 13         0.18499
      12 -> 14         0.47310
      12 -> 15         0.43829
      12 -> 17         0.12613

 Excited State   5:      Singlet-A"     8.1952 eV  151.29 nm  f=0.0008  <S**2>=0.000
      11 -> 16         0.67754
      12 -> 15        -0.13927

 Excited State   6:      Singlet-A"     9.0901 eV  136.39 nm  f=0.0008  <S**2>=0.000
       7 -> 16         0.14212
       8 -> 16        -0.24334
      10 -> 16         0.62773

 Excited State   7:      Singlet-A"     9.2982 eV  133.34 nm  f=0.0028  <S**2>=0.000
      12 -> 15        -0.12353
      12 -> 17         0.65151
      12 -> 22        -0.16245

 Excited State   8:      Singlet-A'     9.5175 eV  130.27 nm  f=0.0106  <S**2>=0.000
      11 -> 13         0.64770
      11 -> 15        -0.22473

 Excited State   9:      Singlet-A"     9.6491 eV  128.49 nm  f=0.0654  <S**2>=0.000
      12 -> 19         0.47338
      12 -> 20         0.47815

 Excited State  10:      Singlet-A'     9.8948 eV  125.30 nm  f=0.0694  <S**2>=0.000
      12 -> 18         0.64271
      12 -> 21         0.18326
      12 -> 24        -0.13837

 Excited State  11:      Singlet-A'    10.0031 eV  123.95 nm  f=0.0124  <S**2>=0.000
       8 -> 13         0.11006
      10 -> 13         0.47990
      10 -> 14         0.15628
      11 -> 14         0.44726

 Excited State  12:      Singlet-A"    10.1612 eV  122.02 nm  f=0.0040  <S**2>=0.000
      12 -> 19        -0.45735
      12 -> 20         0.46398
      12 -> 22        -0.21185

 Excited State  13:      Singlet-A'    10.2581 eV  120.87 nm  f=0.1385  <S**2>=0.000
      10 -> 13        -0.38332
      10 -> 14        -0.21297
      11 -> 14         0.44123
      11 -> 15        -0.25977

 Excited State  14:      Singlet-A'    10.3735 eV  119.52 nm  f=0.0966  <S**2>=0.000
      10 -> 13        -0.14897
      11 -> 13         0.18763
      11 -> 14         0.23513
      11 -> 15         0.57603
      12 -> 18        -0.10345

 Excited State  15:      Singlet-A"    10.5902 eV  117.07 nm  f=0.0001  <S**2>=0.000
       7 -> 16         0.12272
       8 -> 16         0.62112
      10 -> 16         0.21978
      12 -> 22         0.12843

 Excited State  16:      Singlet-A'    10.6677 eV  116.22 nm  f=0.0581  <S**2>=0.000
      12 -> 18        -0.15282
      12 -> 21         0.63709
      12 -> 24         0.10875
      12 -> 26        -0.10693

 Excited State  17:      Singlet-A"    10.7866 eV  114.94 nm  f=0.0639  <S**2>=0.000
       8 -> 16        -0.13958
      12 -> 17         0.14034
      12 -> 19        -0.15124
      12 -> 22         0.57014
      12 -> 23         0.22213
      12 -> 25         0.11634

 Excited State  18:      Singlet-A'    10.9992 eV  112.72 nm  f=0.0297  <S**2>=0.000
       8 -> 13         0.14153
      10 -> 14         0.11989
      10 -> 15         0.62174
      12 -> 24        -0.13587

 Excited State  19:      Singlet-A"    11.0081 eV  112.63 nm  f=0.0015  <S**2>=0.000
      12 -> 22        -0.19769
      12 -> 23         0.63552

 Excited State  20:      Singlet-A'    11.1443 eV  111.25 nm  f=0.0183  <S**2>=0.000
      10 -> 13        -0.22386
      10 -> 14         0.57331
      10 -> 15        -0.18509
      12 -> 24        -0.15404

 Excited State  21:      Singlet-A"    11.3096 eV  109.63 nm  f=0.0832  <S**2>=0.000
       9 -> 13         0.56765
       9 -> 14         0.36351

 Excited State  22:      Singlet-A'    11.5324 eV  107.51 nm  f=0.0484  <S**2>=0.000
      10 -> 14         0.16441
      10 -> 15         0.14945
      11 -> 17         0.19747
      12 -> 18         0.13489
      12 -> 24         0.55853
      12 -> 26         0.11872

 Excited State  23:      Singlet-A'    11.6176 eV  106.72 nm  f=0.0302  <S**2>=0.000
       9 -> 16         0.67055

 Excited State  24:      Singlet-A'    11.8545 eV  104.59 nm  f=0.0417  <S**2>=0.000
       8 -> 13        -0.27659
       8 -> 14        -0.15318
      10 -> 17        -0.15640
      11 -> 17         0.47807
      11 -> 19        -0.15448
      11 -> 22        -0.10594
      12 -> 24        -0.18199

 Excited State  25:      Singlet-A"    11.8919 eV  104.26 nm  f=0.0075  <S**2>=0.000
       7 -> 16        -0.36182
       8 -> 18         0.11399
      10 -> 18         0.18276
      11 -> 18         0.47387
      11 -> 21         0.13836
      12 -> 25         0.16194

 Excited State  26:      Singlet-A'    11.8941 eV  104.24 nm  f=0.0649  <S**2>=0.000
       8 -> 13         0.55150
       8 -> 14        -0.10888
      11 -> 14        -0.13707
      11 -> 17         0.31442

 Excited State  27:      Singlet-A"    11.9339 eV  103.89 nm  f=0.0244  <S**2>=0.000
       7 -> 16        -0.26455
      11 -> 18        -0.35634
      12 -> 20        -0.11695
      12 -> 25         0.46774

 Excited State  28:      Singlet-A"    12.0704 eV  102.72 nm  f=0.0765  <S**2>=0.000
       7 -> 16         0.45231
      10 -> 16        -0.13711
      10 -> 21         0.10798
      11 -> 18         0.20141
      12 -> 25         0.39331

 Excited State  29:      Singlet-A'    12.1134 eV  102.35 nm  f=0.0469  <S**2>=0.000
       8 -> 14        -0.20363
      10 -> 17         0.10124
      11 -> 19         0.40173
      11 -> 20         0.47258

 Excited State  30:      Singlet-A'    12.2465 eV  101.24 nm  f=0.0207  <S**2>=0.000
       8 -> 14        -0.21648
       8 -> 15         0.40702
      10 -> 17        -0.11296
      11 -> 17        -0.11110
      11 -> 19        -0.29344
      11 -> 20         0.28987

 Excited State  31:      Singlet-A'    12.3478 eV  100.41 nm  f=0.1657  <S**2>=0.000
       8 -> 13        -0.10627
       8 -> 14        -0.27694
      10 -> 17         0.52066
      10 -> 20        -0.10291
      10 -> 23         0.12055
      11 -> 19        -0.11477
      11 -> 20        -0.14026

 Excited State  32:      Singlet-A"    12.3740 eV  100.20 nm  f=0.0111  <S**2>=0.000
       7 -> 16         0.14179
       7 -> 18        -0.10692
       9 -> 15        -0.38661
      10 -> 18         0.50426

 Excited State  33:      Singlet-A"    12.4116 eV   99.89 nm  f=0.0411  <S**2>=0.000
       9 -> 15         0.50837
      10 -> 18         0.35117
      12 -> 27        -0.22090

 Excited State  34:      Singlet-A"    12.5224 eV   99.01 nm  f=0.0007  <S**2>=0.000
       9 -> 15         0.15108
      10 -> 18         0.17292
      12 -> 27         0.57477
      12 -> 28        -0.22417

 Excited State  35:      Singlet-A'    12.6655 eV   97.89 nm  f=0.0193  <S**2>=0.000
       8 -> 14        -0.30200
       8 -> 15        -0.15686
      11 -> 20        -0.16614
      12 -> 21         0.10976
      12 -> 26         0.52097

 Excited State  36:      Singlet-A'    12.6916 eV   97.69 nm  f=0.0141  <S**2>=0.000
       8 -> 14         0.16783
       8 -> 15         0.33581
       8 -> 17         0.15497
      10 -> 19        -0.26555
      11 -> 17         0.15767
      11 -> 19         0.25583
      11 -> 20        -0.13172
      11 -> 22         0.19422
      11 -> 23         0.13032
      12 -> 24        -0.12668
      12 -> 26         0.16590

 Excited State  37:      Singlet-A"    12.7473 eV   97.26 nm  f=0.0079  <S**2>=0.000
       9 -> 13        -0.32002
       9 -> 14         0.50507
       9 -> 15         0.10078
       9 -> 17        -0.23723
      11 -> 21        -0.10649
      12 -> 25         0.13616

 Excited State  38:      Singlet-A'    12.9037 eV   96.08 nm  f=0.3694  <S**2>=0.000
       7 -> 13        -0.11039
       8 -> 14         0.34476
      10 -> 17         0.23972
      11 -> 17         0.13193
      11 -> 19        -0.21592
      11 -> 20         0.21172
      11 -> 22        -0.14957
      12 -> 26         0.33654

 Excited State  39:      Singlet-A"    12.9160 eV   95.99 nm  f=0.0671  <S**2>=0.000
      11 -> 18        -0.15967
      11 -> 21         0.63129
      11 -> 24         0.11478

 Excited State  40:      Singlet-A'    12.9763 eV   95.55 nm  f=0.0772  <S**2>=0.000
       7 -> 14         0.10800
       8 -> 15         0.20705
      10 -> 19         0.22138
      10 -> 20         0.54818
      11 -> 22         0.14156

 Excited State  41:      Singlet-A"    13.0313 eV   95.14 nm  f=0.0033  <S**2>=0.000
       9 -> 14        -0.10706
       9 -> 17        -0.13915
       9 -> 23        -0.10029
      12 -> 27         0.26365
      12 -> 28         0.53441
      12 -> 30         0.16239

 Excited State  42:      Singlet-A'    13.0447 eV   95.05 nm  f=0.0218  <S**2>=0.000
       8 -> 15        -0.21774
       8 -> 17         0.16349
      11 -> 19        -0.20416
      11 -> 20         0.16991
      11 -> 22         0.49976
      11 -> 23         0.16463
      11 -> 25         0.10354

 Excited State  43:      Singlet-A"    13.2797 eV   93.36 nm  f=0.0000  <S**2>=0.000
       9 -> 17        -0.12835
       9 -> 20         0.12878
      10 -> 21         0.61464

 Excited State  44:      Singlet-A'    13.2994 eV   93.23 nm  f=0.0140  <S**2>=0.000
       7 -> 13        -0.11958
       7 -> 15         0.24651
       8 -> 15         0.20246
       9 -> 18         0.22548
      10 -> 19         0.39563
      10 -> 20        -0.27950
      10 -> 22        -0.13420
      10 -> 23         0.10444

 Excited State  45:      Singlet-A'    13.3571 eV   92.82 nm  f=0.0009  <S**2>=0.000
       7 -> 13         0.59019
       8 -> 15         0.11224
      10 -> 14         0.12265
      10 -> 19         0.16747
      11 -> 23         0.16937

 Excited State  46:      Singlet-A"    13.5337 eV   91.61 nm  f=0.0218  <S**2>=0.000
       8 -> 18         0.18144
       9 -> 17        -0.25344
       9 -> 23        -0.10113
      11 -> 24         0.54969

 Excited State  47:      Singlet-A'    13.5775 eV   91.32 nm  f=0.0711  <S**2>=0.000
       7 -> 13        -0.15224
       8 -> 17         0.11897
       8 -> 19         0.13642
       9 -> 18         0.18038
      10 -> 22         0.11116
      10 -> 23         0.10603
      11 -> 17        -0.13534
      11 -> 22        -0.16577
      11 -> 23         0.48474
      12 -> 29        -0.15017

 Excited State  48:      Singlet-A"    13.6501 eV   90.83 nm  f=0.0409  <S**2>=0.000
       9 -> 14         0.14828
       9 -> 17         0.42027
       9 -> 19        -0.13108
       9 -> 23         0.16384
      10 -> 21         0.19087
      11 -> 24         0.32707
      12 -> 28         0.14557
      12 -> 30         0.10632

 Excited State  49:      Singlet-A'    13.7210 eV   90.36 nm  f=0.2082  <S**2>=0.000
       7 -> 15        -0.12366
       8 -> 17        -0.29620
       8 -> 22         0.11486
       9 -> 18         0.39372
      10 -> 19        -0.11126
      10 -> 20         0.11595
      10 -> 22        -0.25194
      10 -> 23        -0.21964
      11 -> 25         0.11817

 Excited State  50:      Singlet-A'    13.8535 eV   89.50 nm  f=0.1489  <S**2>=0.000
       7 -> 14         0.26736
       7 -> 19         0.11588
       8 -> 17        -0.14589
      10 -> 19         0.16590
      10 -> 22         0.33404
      10 -> 23        -0.28228
      11 -> 23         0.15245
      12 -> 29         0.21387

 Excited State  51:      Singlet-A'    13.8871 eV   89.28 nm  f=0.0924  <S**2>=0.000
       7 -> 14         0.20872
       7 -> 15        -0.19053
       8 -> 17         0.17718
       8 -> 19         0.11016
       8 -> 20         0.10033
      10 -> 22        -0.27397
      11 -> 25        -0.14221
      12 -> 29         0.43145

 Excited State  52:      Singlet-A"    14.0536 eV   88.22 nm  f=0.0111  <S**2>=0.000
       9 -> 19         0.11681
       9 -> 20        -0.11032
       9 -> 22        -0.13288
      12 -> 28        -0.24057
      12 -> 30         0.57163

 Excited State  53:      Singlet-A'    14.0588 eV   88.19 nm  f=0.0377  <S**2>=0.000
       7 -> 14        -0.16807
       7 -> 15         0.10952
       8 -> 17         0.11634
       8 -> 20        -0.30457
       9 -> 18         0.15110
      10 -> 19        -0.10838
      10 -> 22         0.11862
      11 -> 22        -0.16464
      11 -> 25         0.32240
      12 -> 29         0.32295

 Excited State  54:      Singlet-A'    14.1844 eV   87.41 nm  f=0.0776  <S**2>=0.000
       7 -> 15         0.21518
       8 -> 19         0.15214
       8 -> 20         0.15356
       9 -> 18         0.30560
      10 -> 19        -0.12631
      10 -> 20         0.10473
      10 -> 22         0.23111
      10 -> 23         0.11000
      10 -> 25         0.12418
      11 -> 23        -0.19758
      11 -> 25        -0.27523
      11 -> 27        -0.10765

 Excited State  55:      Singlet-A'    14.2229 eV   87.17 nm  f=0.0122  <S**2>=0.000
       7 -> 14        -0.19194
       7 -> 15         0.36706
       8 -> 17        -0.15753
       8 -> 19         0.12911
       8 -> 20         0.17983
       9 -> 18        -0.14588
       9 -> 21        -0.10970
      10 -> 19        -0.12392
      10 -> 23        -0.12287
      10 -> 25        -0.21345
      11 -> 23         0.17012
      12 -> 29         0.19898

 Excited State  56:      Singlet-A'    14.2315 eV   87.12 nm  f=0.0219  <S**2>=0.000
       7 -> 13         0.10448
       7 -> 14         0.47443
       7 -> 15         0.23030
      10 -> 17        -0.10582
      10 -> 19        -0.10843
      10 -> 23         0.21500
      11 -> 25         0.25013

 Excited State  57:      Singlet-A"    14.2495 eV   87.01 nm  f=0.0008  <S**2>=0.000
       8 -> 18         0.34957
       8 -> 21         0.18613
       9 -> 17         0.11404
       9 -> 19         0.17228
       9 -> 20         0.29002
       9 -> 23         0.15403
      10 -> 21        -0.11039
      10 -> 24         0.24663
      11 -> 24        -0.10051
      12 -> 32         0.15052

 Excited State  58:      Singlet-A"    14.3491 eV   86.41 nm  f=0.0479  <S**2>=0.000
       6 -> 16         0.21427
       8 -> 18        -0.30580
       8 -> 21        -0.15315
       9 -> 20         0.38925
      10 -> 24        -0.19021
      11 -> 18         0.10125
      12 -> 32         0.15692
      12 -> 36        -0.11125

 Excited State  59:      Singlet-A'    14.3955 eV   86.13 nm  f=0.0107  <S**2>=0.000
       7 -> 14         0.12772
       7 -> 15         0.20269
       8 -> 17         0.33293
       8 -> 19        -0.11952
      10 -> 23        -0.32663
      11 -> 22        -0.12255
      12 -> 29        -0.12975
      12 -> 31         0.29473

 Excited State  60:      Singlet-A'    14.5048 eV   85.48 nm  f=0.0910  <S**2>=0.000
       8 -> 17        -0.17275
       8 -> 19         0.10486
      10 -> 22         0.11402
      10 -> 23         0.12332
      11 -> 22         0.10023
      12 -> 29         0.10841
      12 -> 31         0.58912

 Excited State  61:      Singlet-A"    14.5159 eV   85.41 nm  f=0.0358  <S**2>=0.000
       8 -> 18        -0.11093
       9 -> 19         0.30333
       9 -> 20        -0.25478
       9 -> 22        -0.14041
       9 -> 23         0.18117
      10 -> 24        -0.15398
      11 -> 26         0.11325
      12 -> 30        -0.24389
      12 -> 32         0.25891
      12 -> 33        -0.21210

 Excited State  62:      Singlet-A"    14.5771 eV   85.05 nm  f=0.0105  <S**2>=0.000
       8 -> 21         0.31681
       9 -> 19        -0.28735
       9 -> 22         0.12989
       9 -> 23        -0.16485
      10 -> 24        -0.19055
      11 -> 26         0.24302
      12 -> 32         0.27577
      12 -> 34        -0.11583

 Excited State  63:      Singlet-A"    14.6598 eV   84.57 nm  f=0.1254  <S**2>=0.000
       8 -> 21        -0.24920
       9 -> 20        -0.14769
      10 -> 24         0.26353
      11 -> 26        -0.23379
      12 -> 30        -0.10670
      12 -> 32         0.37147
      12 -> 33         0.15977
      12 -> 34        -0.19635
      12 -> 36        -0.10401

 Excited State  64:      Singlet-A'    14.6658 eV   84.54 nm  f=0.1068  <S**2>=0.000
       7 -> 15        -0.13781
       7 -> 20        -0.10221
       8 -> 17         0.14311
       8 -> 19         0.39739
       8 -> 20         0.14146
      10 -> 17         0.11661
      10 -> 19         0.10988
      10 -> 22         0.13647
      10 -> 23        -0.13680
      10 -> 25        -0.18836
      11 -> 23        -0.17369
      11 -> 25         0.27185

 Excited State  65:      Singlet-A"    14.7528 eV   84.04 nm  f=0.1182  <S**2>=0.000
       6 -> 16         0.21402
       8 -> 21         0.10852
       9 -> 19         0.17492
       9 -> 20        -0.15699
      12 -> 32        -0.20626
      12 -> 33         0.45764
      12 -> 34        -0.18310
      12 -> 37         0.14656

 Excited State  66:      Singlet-A'    14.8093 eV   83.72 nm  f=0.0635  <S**2>=0.000
       8 -> 20         0.10094
       9 -> 21         0.60664
      10 -> 25        -0.11761
      11 -> 28         0.11012

 Excited State  67:      Singlet-A"    14.8824 eV   83.31 nm  f=0.0208  <S**2>=0.000
       8 -> 18        -0.40630
       8 -> 21         0.22229
      10 -> 24         0.42598
      11 -> 18         0.10954
      11 -> 24         0.11106
      11 -> 26         0.15668

 Excited State  68:      Singlet-A'    14.9692 eV   82.83 nm  f=0.2506  <S**2>=0.000
       7 -> 15         0.10893
       8 -> 20        -0.28998
       8 -> 25        -0.11750
      10 -> 25        -0.13533
      11 -> 25        -0.23053
      11 -> 27         0.47123

 Excited State  69:      Singlet-A"    15.0923 eV   82.15 nm  f=0.0356  <S**2>=0.000
       6 -> 16         0.35786
       7 -> 21         0.12279
       8 -> 21        -0.25461
       8 -> 24        -0.21063
      10 -> 24         0.13249
      10 -> 26        -0.14963
      11 -> 26         0.29980
      11 -> 29        -0.13103
      12 -> 33        -0.14377

 Excited State  70:      Singlet-A"    15.1775 eV   81.69 nm  f=0.0061  <S**2>=0.000
      12 -> 32         0.19904
      12 -> 33         0.22394
      12 -> 34         0.55082
      12 -> 36        -0.14395
      12 -> 39         0.11761

 Excited State  71:      Singlet-A"    15.1975 eV   81.58 nm  f=0.1174  <S**2>=0.000
       6 -> 16        -0.37928
       8 -> 21        -0.17439
       8 -> 24        -0.12437
       9 -> 20         0.10303
      11 -> 26         0.40675
      12 -> 33         0.20686

 Excited State  72:      Singlet-A'    15.2687 eV   81.20 nm  f=0.0719  <S**2>=0.000
       7 -> 17         0.12669
       8 -> 19        -0.25778
       8 -> 20         0.35698
       8 -> 22        -0.11955
       8 -> 23         0.15538
       9 -> 18         0.12416
      10 -> 19        -0.10360
      11 -> 25         0.15837
      11 -> 27         0.34302

 Excited State  73:      Singlet-A'    15.3222 eV   80.92 nm  f=0.0199  <S**2>=0.000
       7 -> 15         0.10497
       7 -> 20         0.11174
       8 -> 19         0.23877
       9 -> 18        -0.13524
       9 -> 21         0.14851
      10 -> 22        -0.16938
      10 -> 25         0.47271
      10 -> 27        -0.13946
      11 -> 27         0.16034

 Excited State  74:      Singlet-A'    15.4496 eV   80.25 nm  f=0.1223  <S**2>=0.000
       7 -> 17         0.11485
       8 -> 17         0.10294
       8 -> 22         0.51755
       8 -> 23        -0.12824
      10 -> 23         0.14988
      10 -> 27        -0.25396
      11 -> 27         0.12411

 Excited State  75:      Singlet-A'    15.4600 eV   80.20 nm  f=0.1160  <S**2>=0.000
       6 -> 13         0.15683
       7 -> 17         0.27963
       7 -> 19        -0.12568
       7 -> 20        -0.11007
       8 -> 22        -0.10225
      10 -> 27        -0.13886
      11 -> 27        -0.11426
      11 -> 28         0.32985
      12 -> 35        -0.31328
      12 -> 40        -0.12197

 Excited State  76:      Singlet-A"    15.5098 eV   79.94 nm  f=0.0439  <S**2>=0.000
       6 -> 16        -0.12033
       7 -> 21         0.10241
       8 -> 24         0.15179
       9 -> 17        -0.15786

 The electronic state is 1-A'.
 Alpha  occ. eigenvalues --  -10.44274 -10.43276 -10.42832  -0.92180  -0.81314
 Alpha  occ. eigenvalues --   -0.67303  -0.58516  -0.53424  -0.52638  -0.47853
 Alpha  occ. eigenvalues --   -0.44881  -0.36218
 Alpha virt. eigenvalues --    0.05930   0.07643   0.08600   0.09463   0.15075
 Alpha virt. eigenvalues --    0.16436   0.17874   0.18246   0.20548   0.21430
 Alpha virt. eigenvalues --    0.21693   0.23820   0.25210   0.27864   0.28585

 Mulliken charges:
               1
     1  C    0.450480
     2  C   -0.308657
     3  C   -0.201914
     4  H    0.056163
     5  H    0.061543
     6  H    0.056163
     7  H   -0.141060
     8  H   -0.021711
     9  H    0.048992
 Sum of Mulliken charges =  -0.00000

 Dipole moment (field-independent basis, Debye):
    X=             -0.3780    Y=             -0.0439    Z=              0.0000  Tot=              0.3805
 Quadrupole moment (field-independent basis, Debye-Ang):
   XX=            -19.0280   YY=            -19.0372   ZZ=            -21.7772
   XY=             -0.2207   XZ=             -0.0000   YZ=             -0.0000

 Normal termination of Gaussian 16 at Mon Mar 21 20:18:49 2022.
