 Gaussian 16, Revision C.01,
 Gaussian 16:  EM64L-G16RevC.01  3-Jul-2019

 -------------------------------------------------------------------
 #P TD(Nstates=10000) m11/Gen SCF(maxcycles=100) Int(Grid=ultrafine)
 -------------------------------------------------------------------

 ---------------------
 xGDB7_00001_tier4.com
 ---------------------
 Symbolic Z-matrix:
 Charge =  0 Multiplicity = 1

                         Standard orientation:
 ---------------------------------------------------------------------
 Center     Atomic      Atomic             Coordinates (Angstroms)
 Number     Number       Type             X           Y           Z
 ---------------------------------------------------------------------
      1          7           0        1.106441    0.142513   -0.090982
      2          7           0       -0.080753   -0.512520    0.006066
      3          6           0       -1.148696    0.167456    0.008166
      4          1           0        1.854749   -0.409916    0.291533
      5          1           0        1.109676    1.100453    0.242713
      6          1           0       -2.089851   -0.366199    0.035249
      7          1           0       -1.162209    1.260974   -0.024080
 ---------------------------------------------------------------------

 SCF Done:  E(RM11) =  -149.774299981     A.U. after   15 cycles

 Excitation energies and oscillator strengths:

 Excited State   1:      Singlet-A      5.5796 eV  222.21 nm  f=0.0019  <S**2>=0.000
      11 -> 14         0.64644
      11 -> 15         0.22626
 This state for optimization and/or second-order correction.
 Total Energy, E(TD-HF/TD-DFT) =  -149.569254513
 Copying the excited state density for this state as the 1-particle RhoCI density.

 Excited State   2:      Singlet-A      6.1721 eV  200.88 nm  f=0.1365  <S**2>=0.000
      12 -> 13        -0.40709
      12 -> 14         0.55785

 Excited State   3:      Singlet-A      6.4288 eV  192.86 nm  f=0.0919  <S**2>=0.000
      12 -> 13         0.45621
      12 -> 14         0.36010
      12 -> 15         0.36998

 Excited State   4:      Singlet-A      7.2618 eV  170.74 nm  f=0.0282  <S**2>=0.000
      12 -> 13        -0.29990
      12 -> 14        -0.19930
      12 -> 15         0.57597
      12 -> 16         0.12269

 Excited State   5:      Singlet-A      7.7915 eV  159.13 nm  f=0.0145  <S**2>=0.000
      11 -> 13         0.65314
      11 -> 15         0.15049
      12 -> 16        -0.13496

 Excited State   6:      Singlet-A      7.8810 eV  157.32 nm  f=0.0197  <S**2>=0.000
      11 -> 13         0.12225
      12 -> 13         0.12640
      12 -> 16         0.65677

 Excited State   7:      Singlet-A      8.6105 eV  143.99 nm  f=0.0087  <S**2>=0.000
      11 -> 13        -0.14793
      11 -> 14        -0.22550
      11 -> 15         0.59760
      11 -> 16         0.11217
      12 -> 17        -0.15981

 Excited State   8:      Singlet-A      8.6618 eV  143.14 nm  f=0.0111  <S**2>=0.000
      11 -> 15         0.17512
      12 -> 17         0.54629
      12 -> 18        -0.33366
      12 -> 27         0.10769

 Excited State   9:      Singlet-A      9.2347 eV  134.26 nm  f=0.0101  <S**2>=0.000
      12 -> 17         0.33184
      12 -> 18         0.51228
      12 -> 19        -0.27399

 Excited State  10:      Singlet-A      9.5432 eV  129.92 nm  f=0.0618  <S**2>=0.000
       9 -> 14         0.23476
      10 -> 14         0.16736
      11 -> 16         0.46429
      12 -> 18         0.15416
      12 -> 19         0.34087

 Excited State  11:      Singlet-A      9.5861 eV  129.34 nm  f=0.0967  <S**2>=0.000
       9 -> 14        -0.25768
      11 -> 16         0.46162
      12 -> 19        -0.36984

 Excited State  12:      Singlet-A      9.7555 eV  127.09 nm  f=0.0026  <S**2>=0.000
       9 -> 14         0.41472
       9 -> 15         0.15424
      10 -> 14         0.28296
      12 -> 17        -0.10196
      12 -> 18        -0.19751
      12 -> 19        -0.36532

 Excited State  13:      Singlet-A     10.0332 eV  123.57 nm  f=0.0296  <S**2>=0.000
       9 -> 14         0.13082
      10 -> 14        -0.12273
      11 -> 17        -0.38742
      11 -> 18         0.45800
      11 -> 19        -0.12307
      11 -> 27        -0.12142
      11 -> 28        -0.10751
      12 -> 21        -0.14700

 Excited State  14:      Singlet-A     10.4744 eV  118.37 nm  f=0.0940  <S**2>=0.000
      11 -> 17         0.49829
      11 -> 18         0.30259
      11 -> 19        -0.23301
      12 -> 20         0.11379
      12 -> 21        -0.21064

 Excited State  15:      Singlet-A     10.5724 eV  117.27 nm  f=0.0354  <S**2>=0.000
       9 -> 14         0.13645
      10 -> 14        -0.18315
      12 -> 20         0.61358

 Excited State  16:      Singlet-A     10.6172 eV  116.78 nm  f=0.0140  <S**2>=0.000
       9 -> 14         0.10130
      10 -> 13         0.12739
      10 -> 14        -0.12583
      11 -> 17         0.13361
      11 -> 18         0.24797
      12 -> 21         0.56129

 Excited State  17:      Singlet-A     10.6808 eV  116.08 nm  f=0.0868  <S**2>=0.000
       9 -> 14        -0.22326
      10 -> 13        -0.10793
      10 -> 14         0.39797
      11 -> 18         0.27124
      11 -> 19         0.29381
      12 -> 20         0.21798

 Excited State  18:      Singlet-A     10.8116 eV  114.68 nm  f=0.0767  <S**2>=0.000
       9 -> 14         0.13418
      10 -> 14        -0.23406
      11 -> 17         0.11307
      11 -> 19         0.55381
      11 -> 23        -0.10341
      12 -> 21        -0.21325

 Excited State  19:      Singlet-A     10.9917 eV  112.80 nm  f=0.0325  <S**2>=0.000
      10 -> 13         0.26059
      10 -> 15         0.11504
      12 -> 22         0.59016

 Excited State  20:      Singlet-A     11.0824 eV  111.87 nm  f=0.0635  <S**2>=0.000
      10 -> 13         0.51325
      10 -> 15         0.29439
      12 -> 22        -0.31964

 Excited State  21:      Singlet-A     11.5031 eV  107.78 nm  f=0.0453  <S**2>=0.000
       9 -> 13         0.32079
      10 -> 15        -0.10226
      12 -> 23         0.53982
      12 -> 24         0.14311

 Excited State  22:      Singlet-A     11.5572 eV  107.28 nm  f=0.0857  <S**2>=0.000
       9 -> 13         0.53248
      10 -> 15        -0.13780
      11 -> 20         0.12721
      12 -> 23        -0.33740

 Excited State  23:      Singlet-A     11.7368 eV  105.64 nm  f=0.0129  <S**2>=0.000
      11 -> 21         0.57857
      11 -> 22        -0.22910
      11 -> 23         0.12273
      12 -> 25        -0.19342

 Excited State  24:      Singlet-A     11.7935 eV  105.13 nm  f=0.0725  <S**2>=0.000
      10 -> 15         0.14539
      11 -> 20         0.62087
      11 -> 21        -0.10881

 Excited State  25:      Singlet-A     11.9220 eV  104.00 nm  f=0.0196  <S**2>=0.000
       9 -> 13         0.21497
      10 -> 13        -0.29493
      10 -> 14        -0.18171
      10 -> 15         0.45751
      11 -> 20        -0.15135
      12 -> 24        -0.10619
      12 -> 27        -0.16795

 Excited State  26:      Singlet-A     11.9740 eV  103.54 nm  f=0.0010  <S**2>=0.000
       8 -> 14         0.55642
       8 -> 15         0.20217
      12 -> 24         0.25395
      12 -> 25        -0.16780

 Excited State  27:      Singlet-A     12.0607 eV  102.80 nm  f=0.0109  <S**2>=0.000
       8 -> 14        -0.25158
       9 -> 15        -0.11866
      10 -> 14        -0.11125
      12 -> 23        -0.10294
      12 -> 24         0.54701

 Excited State  28:      Singlet-A     12.2481 eV  101.23 nm  f=0.1061  <S**2>=0.000
      11 -> 21         0.29705
      11 -> 22         0.54753
      11 -> 24         0.15635
      12 -> 25         0.15962

 Excited State  29:      Singlet-A     12.2765 eV  100.99 nm  f=0.0788  <S**2>=0.000
       8 -> 14         0.14505
      10 -> 15         0.20343
      11 -> 22        -0.18027
      12 -> 25         0.50324
      12 -> 26        -0.10422
      12 -> 27         0.19451

 Excited State  30:      Singlet-A     12.3619 eV  100.30 nm  f=0.0922  <S**2>=0.000
      10 -> 16         0.31751
      11 -> 21        -0.12523
      11 -> 22         0.10488
      12 -> 24        -0.13378
      12 -> 25        -0.24338
      12 -> 26        -0.20700
      12 -> 27         0.38984
      12 -> 28         0.12793

 Excited State  31:      Singlet-A     12.6303 eV   98.16 nm  f=0.0920  <S**2>=0.000
       7 -> 13         0.10227
       9 -> 14        -0.14846
       9 -> 15         0.41931
      10 -> 16        -0.40800
      12 -> 25        -0.12749

 Excited State  32:      Singlet-A     12.7167 eV   97.50 nm  f=0.0357  <S**2>=0.000
       9 -> 14        -0.11550
       9 -> 15         0.33537
      10 -> 16         0.33142
      11 -> 23        -0.22442
      11 -> 24         0.27887
      12 -> 27        -0.18660

 Excited State  33:      Singlet-A     12.7524 eV   97.22 nm  f=0.0516  <S**2>=0.000
       9 -> 15        -0.18878
      10 -> 16        -0.23463
      11 -> 22        -0.17684
      11 -> 23        -0.27563
      11 -> 24         0.46835
      12 -> 27         0.15259

 Excited State  34:      Singlet-A     12.9594 eV   95.67 nm  f=0.0857  <S**2>=0.000
      12 -> 26         0.59810
      12 -> 27         0.26801

 Excited State  35:      Singlet-A     13.1139 eV   94.54 nm  f=0.0394  <S**2>=0.000
      11 -> 23         0.50554
      11 -> 24         0.36313
      11 -> 25         0.12616
      12 -> 27        -0.10293

 Excited State  36:      Singlet-A     13.3263 eV   93.04 nm  f=0.0269  <S**2>=0.000
       9 -> 16         0.37967
      10 -> 17         0.39553
      10 -> 18        -0.17441
      11 -> 25        -0.21357

 Excited State  37:      Singlet-A     13.4440 eV   92.22 nm  f=0.0088  <S**2>=0.000
       7 -> 14         0.11823
       9 -> 16         0.40067
       9 -> 17         0.16067
      10 -> 17        -0.34741
      10 -> 18         0.20669
      11 -> 25        -0.14253
      12 -> 29         0.10272

 Excited State  38:      Singlet-A     13.5454 eV   91.53 nm  f=0.0314  <S**2>=0.000
       9 -> 16         0.12011
       9 -> 18        -0.11733
      11 -> 23        -0.10614
      11 -> 25         0.45745
      11 -> 26         0.20740
      11 -> 27        -0.26635
      11 -> 28        -0.11602
      12 -> 30         0.10021

 Excited State  39:      Singlet-A     13.7087 eV   90.44 nm  f=0.0017  <S**2>=0.000
       7 -> 14         0.59752
       7 -> 15         0.17502
       9 -> 16        -0.12510
      10 -> 18        -0.11782
      12 -> 28         0.12444

 Excited State  40:      Singlet-A     13.7612 eV   90.10 nm  f=0.0736  <S**2>=0.000
       8 -> 13        -0.16690
       9 -> 16         0.18398
      11 -> 17        -0.13513
      11 -> 25         0.33031
      11 -> 26        -0.26789
      11 -> 27         0.39113

 Excited State  41:      Singlet-A     13.9233 eV   89.05 nm  f=0.0228  <S**2>=0.000
       7 -> 14         0.12675
       8 -> 13         0.50815
       9 -> 18         0.12120
      10 -> 17         0.17134
      10 -> 18         0.28417
      11 -> 26        -0.11520

 Excited State  42:      Singlet-A     13.9645 eV   88.79 nm  f=0.0342  <S**2>=0.000
       7 -> 14         0.11744
       8 -> 13        -0.35075
      10 -> 17         0.12600
      10 -> 18         0.36367
      10 -> 19        -0.18231
      11 -> 27        -0.12447
      12 -> 28        -0.29236

 Excited State  43:      Singlet-A     14.0530 eV   88.23 nm  f=0.0240  <S**2>=0.000
       9 -> 17        -0.13007
      10 -> 18         0.17223
      10 -> 19        -0.25622
      10 -> 20        -0.11052
      11 -> 26         0.10470
      12 -> 27        -0.16931
      12 -> 28         0.45162
      12 -> 30         0.13640
      12 -> 31        -0.14413

 Excited State  44:      Singlet-A     14.1891 eV   87.38 nm  f=0.0192  <S**2>=0.000
       9 -> 17        -0.14644
      10 -> 17         0.13000
      10 -> 19        -0.19961
      10 -> 21        -0.15116
      11 -> 26         0.14440
      12 -> 28        -0.13242
      12 -> 29         0.48239
      12 -> 30         0.13146
      12 -> 32         0.13587
      12 -> 33         0.12460

 Excited State  45:      Singlet-A     14.2663 eV   86.91 nm  f=0.0175  <S**2>=0.000
       7 -> 15        -0.11360
       9 -> 16         0.16595
       9 -> 17        -0.18388
       9 -> 18         0.50272
       9 -> 19        -0.19805
      11 -> 26         0.14520
      12 -> 30        -0.10096

 Excited State  46:      Singlet-A     14.2818 eV   86.81 nm  f=0.0459  <S**2>=0.000
       9 -> 19         0.17357
      10 -> 18         0.11393
      10 -> 19         0.18539
      11 -> 26         0.47242
      11 -> 27         0.28466
      12 -> 29        -0.14307

 Excited State  47:      Singlet-A     14.3647 eV   86.31 nm  f=0.0279  <S**2>=0.000
      10 -> 17         0.19358
      10 -> 18         0.28031
      10 -> 19         0.42039
      12 -> 28         0.15747
      12 -> 29         0.27967

 Excited State  48:      Singlet-A     14.4992 eV   85.51 nm  f=0.0484  <S**2>=0.000
       9 -> 17         0.37133
       9 -> 19        -0.22616
      10 -> 17         0.10137
      10 -> 19        -0.18984
      10 -> 21         0.12991
      11 -> 26         0.19323
      11 -> 27         0.14171
      12 -> 30        -0.28162

 Excited State  49:      Singlet-A     14.7066 eV   84.31 nm  f=0.1167  <S**2>=0.000
       7 -> 13        -0.10582
       7 -> 15        -0.13060
       9 -> 16        -0.11537
       9 -> 17         0.21656
       9 -> 19        -0.27055
      10 -> 19         0.14668
      12 -> 30         0.45698

 Excited State  50:      Singlet-A     14.7735 eV   83.92 nm  f=0.1379  <S**2>=0.000
       9 -> 17         0.27081
       9 -> 18         0.30477
       9 -> 19         0.43753
      12 -> 31        -0.15560

 Excited State  51:      Singlet-A     14.8416 eV   83.54 nm  f=0.0577  <S**2>=0.000
       7 -> 13         0.38471
       7 -> 15         0.34048
       8 -> 15         0.20025
       9 -> 15        -0.15264
       9 -> 19        -0.10901
      10 -> 20         0.16198
      12 -> 30         0.16220
      12 -> 31        -0.17001

 Excited State  52:      Singlet-A     14.9772 eV   82.78 nm  f=0.0233  <S**2>=0.000
       7 -> 13         0.21193
       7 -> 15         0.14064
       9 -> 18         0.13724
      10 -> 20        -0.24929
      12 -> 30         0.11455
      12 -> 31         0.50012

 Excited State  53:      Singlet-A     15.0243 eV   82.52 nm  f=0.0151  <S**2>=0.000
       7 -> 13        -0.18286
       8 -> 14        -0.17937
       8 -> 15         0.42987
       8 -> 16        -0.14500
      10 -> 20        -0.14847
      10 -> 21         0.23352
      12 -> 30         0.14708
      12 -> 32         0.14423
      12 -> 33         0.10306

 Excited State  54:      Singlet-A     15.0995 eV   82.11 nm  f=0.0377  <S**2>=0.000
       7 -> 13         0.13017
       8 -> 15        -0.21238
      10 -> 20        -0.19771
      10 -> 21         0.22648
      12 -> 31        -0.22453
      12 -> 32         0.32103
      12 -> 33         0.29439

 Excited State  55:      Singlet-A     15.1642 eV   81.76 nm  f=0.0944  <S**2>=0.000
       8 -> 15        -0.12270
       8 -> 16         0.12542
       9 -> 20         0.11525
      10 -> 20         0.10573
      10 -> 21         0.11710
      11 -> 27        -0.17415
      11 -> 28         0.51767
      11 -> 29        -0.18541
      11 -> 30        -0.11423

 Excited State  56:      Singlet-A     15.2076 eV   81.53 nm  f=0.0683  <S**2>=0.000
       8 -> 15        -0.11083
       9 -> 17        -0.12907
      10 -> 20         0.10659
      10 -> 21         0.47756
      10 -> 23         0.12737
      11 -> 28        -0.19083
      12 -> 29         0.13903
      12 -> 31         0.15269
      12 -> 33        -0.20118

 Excited State  57:      Singlet-A     15.3299 eV   80.88 nm  f=0.0189  <S**2>=0.000
      10 -> 20         0.41006
      11 -> 30         0.15190
      12 -> 28         0.10494
      12 -> 29        -0.15298
      12 -> 31         0.13635
      12 -> 33         0.38656

 Excited State  58:      Singlet-A     15.4655 eV   80.17 nm  f=0.0268  <S**2>=0.000
       8 -> 16         0.27481
       9 -> 20         0.22381
       9 -> 21         0.16674
      10 -> 20        -0.14411
      11 -> 29         0.17604
      11 -> 30         0.40062
      11 -> 31         0.12647
      12 -> 33        -0.10590

 Excited State  59:      Singlet-A     15.5965 eV   79.49 nm  f=0.0714  <S**2>=0.000
       8 -> 15         0.13344
       8 -> 16         0.46703
       8 -> 17         0.12411
      10 -> 24        -0.10181
      11 -> 28        -0.18818
      11 -> 30        -0.26356
      12 -> 33         0.10596

 Excited State  60:      Singlet-A     15.6086 eV   79.43 nm  f=0.0152  <S**2>=0.000
       6 -> 14        -0.15791
       8 -> 16         0.16107
      10 -> 20         0.16298
      10 -> 22         0.32862
      10 -> 23         0.21366
      10 -> 25        -0.10029
      12 -> 32         0.34408
      12 -> 33        -0.14559

 Excited State  61:      Singlet-A     15.6527 eV   79.21 nm  f=0.0094  <S**2>=0.000
       8 -> 16        -0.16983
       9 -> 20         0.28450
       9 -> 21         0.46751
       9 -> 23         0.10926
       9 -> 24        -0.13617
      11 -> 26        -0.10148
      11 -> 30        -0.18902

 Excited State  62:      Singlet-A     15.8386 eV   78.28 nm  f=0.0044  <S**2>=0.000
       7 -> 13        -0.11117
       7 -> 15         0.11139
      10 -> 22         0.43692
      10 -> 23        -0.24902
      12 -> 32        -0.17298
      12 -> 34        -0.25467

 Excited State  63:      Singlet-A     15.8546 eV   78.20 nm  f=0.0042  <S**2>=0.000
       6 -> 14         0.22396
       7 -> 13        -0.22298
       7 -> 14        -0.10674
       7 -> 15         0.22740
       9 -> 20         0.12260
      10 -> 22         0.11571
      12 -> 34         0.43961

 Excited State  64:      Singlet-A     15.9052 eV   77.95 nm  f=0.0223  <S**2>=0.000
       6 -> 14        -0.10745
       7 -> 13        -0.23801
       7 -> 14        -0.12669
       7 -> 15         0.31577
       7 -> 17         0.10864
      10 -> 22        -0.26801
      11 -> 29         0.12663
      11 -> 30        -0.16616
      12 -> 34        -0.23408
      12 -> 35         0.14348

 Excited State  65:      Singlet-A     15.9692 eV   77.64 nm  f=0.0366  <S**2>=0.000
       6 -> 14        -0.17901
       9 -> 20        -0.13882
      10 -> 27         0.13158
      11 -> 28         0.11207
      11 -> 29         0.16249
      12 -> 32        -0.27710
      12 -> 33         0.16525
      12 -> 34         0.21262
      12 -> 35         0.33295
      12 -> 36        -0.20449

 Excited State  66:      Singlet-A     16.0069 eV   77.46 nm  f=0.0185  <S**2>=0.000
       7 -> 13         0.13304
       7 -> 15        -0.14687
       9 -> 20         0.25122
       9 -> 21        -0.21170
       9 -> 24         0.16777
      10 -> 23        -0.14685
      10 -> 24         0.10173
      11 -> 29         0.29372
      11 -> 30        -0.26076
      11 -> 31         0.12913

 Excited State  67:      Singlet-A     16.0421 eV   77.29 nm  f=0.1124  <S**2>=0.000
       6 -> 14         0.26256
       9 -> 20        -0.25118
       9 -> 22        -0.11435
       9 -> 24        -0.17042
      11 -> 28         0.15548
      11 -> 29         0.40053

 Excited State  68:      Singlet-A     16.1428 eV   76.80 nm  f=0.0513  <S**2>=0.000
       6 -> 14        -0.11426
       9 -> 20        -0.24531
       9 -> 21         0.19384
       9 -> 22         0.24215
       9 -> 24         0.20448
      10 -> 22        -0.10569
      10 -> 23        -0.14399
      10 -> 24         0.15529
      12 -> 32         0.12729
      12 -> 33        -0.12410
      12 -> 34         0.15331
      12 -> 36         0.27035

 Excited State  69:      Singlet-A     16.2189 eV   76.44 nm  f=0.0657  <S**2>=0.000
       8 -> 17        -0.10486
       8 -> 18         0.13398
       9 -> 22         0.26335
       9 -> 24         0.13762
      10 -> 23         0.38317
      10 -> 24         0.13497
      11 -> 29         0.12118
      11 -> 30        -0.10974
      12 -> 33         0.12556
      12 -> 34        -0.12363
      12 -> 35        -0.16366
      12 -> 36        -0.10337

 Excited State  70:      Singlet-A     16.3710 eV   75.73 nm  f=0.0363  <S**2>=0.000
       8 -> 18        -0.14537
       9 -> 20         0.11562
       9 -> 21        -0.11303
       9 -> 22         0.14214
      10 -> 23         0.22444
      12 -> 30         0.12080
      12 -> 35         0.35177
      12 -> 36         0.34637

 Excited State  71:      Singlet-A     16.4380 eV   75.43 nm  f=0.1309  <S**2>=0.000
       6 -> 14         0.25410
       8 -> 17        -0.11057
       8 -> 18        -0.12640
       9 -> 21         0.10012
       9 -> 23        -0.20141
       9 -> 24         0.12517
      10 -> 24         0.28148
      11 -> 29        -0.12962
      11 -> 31         0.29222
      11 -> 32         0.11157
      12 -> 35         0.17917
      12 -> 36        -0.10324

 Excited State  72:      Singlet-A     16.4448 eV   75.39 nm  f=0.1023  <S**2>=0.000
       6 -> 16         0.12424
       7 -> 16         0.14173
       8 -> 16        -0.13702
       8 -> 17         0.50509
       8 -> 20        -0.11434
       9 -> 21         0.11175
       9 -> 24         0.21382

 Excited State  73:      Singlet-A     16.4990 eV   75.15 nm  f=0.0959  <S**2>=0.000
       6 -> 14        -0.25473
       8 -> 19        -0.13494
       9 -> 22        -0.18695
      10 -> 23         0.17966
      11 -> 31         0.33339
      12 -> 32        -0.11208
      12 -> 35        -0.19732
      12 -> 36         0.25488

 Excited State  74:      Singlet-A     16.5780 eV   74.79 nm  f=0.4101  <S**2>=0.000
       6 -> 15         0.12227
       8 -> 18         0.41530

 The electronic state is 1-A.
 Alpha  occ. eigenvalues --  -14.65062 -14.64320 -10.46440  -1.13285  -0.93454
 Alpha  occ. eigenvalues --   -0.73450  -0.65544  -0.62321  -0.53688  -0.51414
 Alpha  occ. eigenvalues --   -0.38661  -0.34290
 Alpha virt. eigenvalues --    0.05517   0.07791   0.09418   0.13385   0.16911
 Alpha virt. eigenvalues --    0.18210   0.19389   0.22933   0.23296   0.24603
 Alpha virt. eigenvalues --    0.26186   0.27068   0.29670   0.31196   0.33934

 Mulliken charges:
               1
     1  N    0.086572
     2  N   -0.195592
     3  C    0.296178
     4  H    0.040756
     5  H    0.036149
     6  H   -0.201551
     7  H   -0.062513
 Sum of Mulliken charges =  -0.00000

 Dipole moment (field-independent basis, Debye):
    X=              0.3377    Y=              1.7284    Z=              1.0387  Tot=              2.0446
 Quadrupole moment (field-independent basis, Debye-Ang):
   XX=            -14.6769   YY=            -18.5252   ZZ=            -20.6337
   XY=             -0.3675   XZ=              1.9066   YZ=              0.3188

 Normal termination of Gaussian 16 at Mon Mar 21 20:08:30 2022.
