 Gaussian 16, Revision C.01,
 Gaussian 16:  EM64L-G16RevC.01  3-Jul-2019

 -------------------------------------------------------------------
 #P TD(Nstates=10000) m11/Gen SCF(maxcycles=100) Int(Grid=ultrafine)
 -------------------------------------------------------------------

 ---------------------
 xGDB7_00001_tier4.com
 ---------------------
 Symbolic Z-matrix:
 Charge =  0 Multiplicity = 1

                         Standard orientation:
 ---------------------------------------------------------------------
 Center     Atomic      Atomic             Coordinates (Angstroms)
 Number     Number       Type             X           Y           Z
 ---------------------------------------------------------------------
      1          7           0        1.078471   -0.156900   -0.000001
      2          6           0       -0.161963    0.384944   -0.000002
      3          8           0       -1.189170   -0.245458    0.000001
      4          1           0        1.898427    0.419427    0.000004
      5          1           0        1.178124   -1.157073    0.000005
      6          1           0       -0.140706    1.489948    0.000007
 ---------------------------------------------------------------------

 SCF Done:  E(RM11) =  -169.699656659     A.U. after   15 cycles

 Excitation energies and oscillator strengths:

 Excited State   1:      Singlet-A      5.4426 eV  227.80 nm  f=0.0006  <S**2>=0.000
      12 -> 15         0.69203
 This state for optimization and/or second-order correction.
 Total Energy, E(TD-HF/TD-DFT) =  -169.499643483
 Copying the excited state density for this state as the 1-particle RhoCI density.

 Excited State   2:      Singlet-A      7.2093 eV  171.98 nm  f=0.0126  <S**2>=0.000
      11 -> 13         0.66648
      11 -> 14         0.17403

 Excited State   3:      Singlet-A      7.3648 eV  168.35 nm  f=0.0098  <S**2>=0.000
      11 -> 15         0.32775
      12 -> 13         0.60187

 Excited State   4:      Singlet-A      7.8222 eV  158.50 nm  f=0.2069  <S**2>=0.000
      11 -> 15         0.54454
      12 -> 13        -0.24693
      12 -> 14         0.33655

 Excited State   5:      Singlet-A      8.0885 eV  153.28 nm  f=0.0036  <S**2>=0.000
      11 -> 13        -0.15645
      11 -> 14         0.62864
      11 -> 16         0.22210

 Excited State   6:      Singlet-A      8.4050 eV  147.51 nm  f=0.1442  <S**2>=0.000
      11 -> 15        -0.26507
      12 -> 13         0.19695
      12 -> 14         0.59162
      12 -> 16         0.14798

 Excited State   7:      Singlet-A      8.8848 eV  139.55 nm  f=0.0063  <S**2>=0.000
      11 -> 14        -0.22511
      11 -> 16         0.60720
      11 -> 18        -0.19559

 Excited State   8:      Singlet-A      8.9243 eV  138.93 nm  f=0.0777  <S**2>=0.000
      12 -> 13        -0.14619
      12 -> 16         0.61769
      12 -> 18         0.23094

 Excited State   9:      Singlet-A      9.1091 eV  136.11 nm  f=0.0027  <S**2>=0.000
      12 -> 17         0.69264

 Excited State  10:      Singlet-A      9.8146 eV  126.33 nm  f=0.0104  <S**2>=0.000
      12 -> 16        -0.19313
      12 -> 18         0.64810
      12 -> 20        -0.13769

 Excited State  11:      Singlet-A      9.8699 eV  125.62 nm  f=0.0012  <S**2>=0.000
      11 -> 16         0.12040
      11 -> 18         0.37450
      11 -> 19         0.39754
      11 -> 20         0.37533

 Excited State  12:      Singlet-A      9.9256 eV  124.91 nm  f=0.0043  <S**2>=0.000
      10 -> 15         0.61724
      11 -> 18         0.17846
      11 -> 19        -0.19592
      11 -> 20        -0.11945

 Excited State  13:      Singlet-A      9.9312 eV  124.84 nm  f=0.0035  <S**2>=0.000
      11 -> 17         0.64902
      12 -> 19        -0.22657

 Excited State  14:      Singlet-A     10.0724 eV  123.09 nm  f=0.0013  <S**2>=0.000
      10 -> 15         0.27766
      11 -> 16        -0.14038
      11 -> 18        -0.41828
      11 -> 19         0.42201
      11 -> 22         0.11584

 Excited State  15:      Singlet-A     10.2887 eV  120.51 nm  f=0.0074  <S**2>=0.000
       9 -> 15        -0.10335
      11 -> 17         0.22101
      12 -> 16        -0.13064
      12 -> 19         0.53340
      12 -> 20         0.30418

 Excited State  16:      Singlet-A     10.4408 eV  118.75 nm  f=0.0217  <S**2>=0.000
      12 -> 18         0.10324
      12 -> 19        -0.33033
      12 -> 20         0.58673

 Excited State  17:      Singlet-A     10.5556 eV  117.46 nm  f=0.0195  <S**2>=0.000
       9 -> 14         0.10185
      10 -> 15         0.11006
      11 -> 16        -0.11440
      11 -> 18        -0.24736
      11 -> 19        -0.25087
      11 -> 20         0.55112

 Excited State  18:      Singlet-A     11.3677 eV  109.07 nm  f=0.0789  <S**2>=0.000
       8 -> 13         0.11408
       9 -> 15         0.57754
      10 -> 13        -0.25350
      11 -> 21         0.22397

 Excited State  19:      Singlet-A     11.4943 eV  107.87 nm  f=0.0321  <S**2>=0.000
       9 -> 13         0.63903
      11 -> 22         0.19361

 Excited State  20:      Singlet-A     11.5094 eV  107.72 nm  f=0.0088  <S**2>=0.000
      12 -> 22         0.24359
      12 -> 23         0.61493

 Excited State  21:      Singlet-A     11.5576 eV  107.27 nm  f=0.0147  <S**2>=0.000
       9 -> 13        -0.15370
      11 -> 22         0.32754
      11 -> 23         0.42951
      12 -> 21        -0.34248

 Excited State  22:      Singlet-A     11.6096 eV  106.79 nm  f=0.0044  <S**2>=0.000
       9 -> 15         0.13417
      10 -> 13         0.53011
      11 -> 21         0.35163
      12 -> 22        -0.20661

 Excited State  23:      Singlet-A     11.7309 eV  105.69 nm  f=0.0333  <S**2>=0.000
       8 -> 15        -0.21251
      11 -> 22         0.19761
      11 -> 23         0.29359
      12 -> 21         0.50838
      12 -> 24        -0.12595
      12 -> 26         0.12820

 Excited State  24:      Singlet-A     11.7784 eV  105.26 nm  f=0.1514  <S**2>=0.000
       9 -> 15        -0.28589
      10 -> 13        -0.30833
      10 -> 16        -0.11164
      11 -> 21         0.48931

 Excited State  25:      Singlet-A     11.8652 eV  104.49 nm  f=0.0000  <S**2>=0.000
       9 -> 13        -0.15619
       9 -> 14         0.11234
       9 -> 19        -0.10903
      11 -> 22         0.48019
      11 -> 23        -0.41351

 Excited State  26:      Singlet-A     12.0347 eV  103.02 nm  f=0.0304  <S**2>=0.000
      10 -> 13         0.13561
      11 -> 21         0.13565
      11 -> 24        -0.14855
      12 -> 22         0.57311
      12 -> 23        -0.22939

 Excited State  27:      Singlet-A     12.0399 eV  102.98 nm  f=0.0001  <S**2>=0.000
       7 -> 15        -0.10972
       8 -> 15         0.61258
       9 -> 14        -0.13884
      12 -> 21         0.21176

 Excited State  28:      Singlet-A     12.3277 eV  100.57 nm  f=0.0016  <S**2>=0.000
       8 -> 15         0.16016
       9 -> 14         0.62684
       9 -> 16         0.12875
      11 -> 19         0.13379

 Excited State  29:      Singlet-A     12.4107 eV   99.90 nm  f=0.1017  <S**2>=0.000
      10 -> 14         0.63773
      10 -> 16         0.17014
      10 -> 19        -0.10223
      11 -> 24        -0.10261

 Excited State  30:      Singlet-A     12.5832 eV   98.53 nm  f=0.0180  <S**2>=0.000
      10 -> 14         0.15201
      10 -> 16        -0.13436
      11 -> 24         0.61922

 Excited State  31:      Singlet-A     12.6300 eV   98.17 nm  f=0.0053  <S**2>=0.000
       9 -> 14        -0.10033
      12 -> 21         0.18038
      12 -> 24         0.64693

 Excited State  32:      Singlet-A     13.0297 eV   95.15 nm  f=0.0011  <S**2>=0.000
       8 -> 13         0.50792
       9 -> 15        -0.12785
      10 -> 16         0.36406
      10 -> 20         0.12624
      12 -> 27        -0.11106

 Excited State  33:      Singlet-A     13.2259 eV   93.74 nm  f=0.0095  <S**2>=0.000
       9 -> 14        -0.12241
       9 -> 16         0.57192
      10 -> 17         0.32435
      11 -> 18        -0.10633

 Excited State  34:      Singlet-A     13.4594 eV   92.12 nm  f=0.0391  <S**2>=0.000
       9 -> 16        -0.31285
      10 -> 17         0.60737

 Excited State  35:      Singlet-A     13.4928 eV   91.89 nm  f=0.0367  <S**2>=0.000
       8 -> 13        -0.38885
       9 -> 17         0.21986
      10 -> 16         0.40390
      10 -> 18         0.18139
      10 -> 20         0.10979
      11 -> 24         0.12674
      12 -> 25         0.13710

 Excited State  36:      Singlet-A     13.5968 eV   91.19 nm  f=0.1399  <S**2>=0.000
       9 -> 18         0.12796
       9 -> 19         0.11813
      11 -> 25         0.63713
      11 -> 27         0.10086

 Excited State  37:      Singlet-A     13.6723 eV   90.68 nm  f=0.1200  <S**2>=0.000
       8 -> 14         0.32403
      10 -> 18        -0.12847
      10 -> 19        -0.23665
      12 -> 23         0.11941
      12 -> 25         0.50688

 Excited State  38:      Singlet-A     13.8271 eV   89.67 nm  f=0.0421  <S**2>=0.000
       8 -> 14        -0.38784
       9 -> 17        -0.16635
      10 -> 18         0.12492
      10 -> 19         0.28353
      12 -> 25         0.42214

 Excited State  39:      Singlet-A     13.9322 eV   88.99 nm  f=0.1677  <S**2>=0.000
       8 -> 13         0.13493
       8 -> 14        -0.14440
       9 -> 17         0.47098
      10 -> 18        -0.10585
      12 -> 27         0.39260

 Excited State  40:      Singlet-A     14.0008 eV   88.56 nm  f=0.0142  <S**2>=0.000
       9 -> 19         0.13375
      11 -> 27        -0.38666
      11 -> 28         0.11780
      11 -> 31        -0.10827
      12 -> 24         0.12075
      12 -> 26         0.49430

 Excited State  41:      Singlet-A     14.1047 eV   87.90 nm  f=0.0273  <S**2>=0.000
       9 -> 18         0.41920
       9 -> 19         0.20876
       9 -> 20         0.25390
      11 -> 27        -0.21740
      11 -> 28         0.11386
      12 -> 26        -0.29668

 Excited State  42:      Singlet-A     14.1123 eV   87.86 nm  f=0.0288  <S**2>=0.000
       9 -> 18         0.35454
       9 -> 20         0.18707
      11 -> 25        -0.10219
      11 -> 27         0.39740
      12 -> 26         0.33041

 Excited State  43:      Singlet-A     14.1494 eV   87.63 nm  f=0.0457  <S**2>=0.000
       8 -> 16         0.13443
      10 -> 18         0.50070
      10 -> 19        -0.12699
      11 -> 24        -0.11030
      11 -> 26        -0.33455
      12 -> 27         0.17045

 Excited State  44:      Singlet-A     14.1586 eV   87.57 nm  f=0.0987  <S**2>=0.000
       9 -> 17        -0.37042
      10 -> 16         0.19008
      10 -> 18        -0.24093
      10 -> 20         0.17320
      11 -> 26        -0.14162
      12 -> 27         0.40198

 Excited State  45:      Singlet-A     14.3010 eV   86.70 nm  f=0.0237  <S**2>=0.000
       7 -> 15        -0.12180
       9 -> 18        -0.28702
       9 -> 19         0.54894
       9 -> 20         0.14156
      11 -> 22         0.11000
      11 -> 27         0.15540

 Excited State  46:      Singlet-A     14.3307 eV   86.52 nm  f=0.0773  <S**2>=0.000
       8 -> 14         0.31458
      10 -> 14         0.10650
      10 -> 16        -0.12415
      10 -> 18         0.15147
      10 -> 19         0.39858
      10 -> 20         0.16658
      11 -> 26         0.28577
      12 -> 27         0.17590

 Excited State  47:      Singlet-A     14.4179 eV   85.99 nm  f=0.0735  <S**2>=0.000
       8 -> 14        -0.22802
      10 -> 18         0.21847
      10 -> 19        -0.32153
      11 -> 26         0.46756
      12 -> 27         0.17351

 Excited State  48:      Singlet-A     14.5366 eV   85.29 nm  f=0.0006  <S**2>=0.000
       7 -> 15         0.65961
       8 -> 15         0.12942

 Excited State  49:      Singlet-A     14.7511 eV   84.05 nm  f=0.0055  <S**2>=0.000
       8 -> 16        -0.10578
       8 -> 19        -0.10523
      10 -> 16        -0.19057
      10 -> 19        -0.16395
      10 -> 20         0.56330
      12 -> 28        -0.14046

 Excited State  50:      Singlet-A     14.7717 eV   83.93 nm  f=0.0414  <S**2>=0.000
       9 -> 18        -0.21914
       9 -> 19        -0.24867
       9 -> 20         0.54325
      11 -> 25         0.14288

 Excited State  51:      Singlet-A     14.9537 eV   82.91 nm  f=0.0008  <S**2>=0.000
       8 -> 16         0.57158
       8 -> 18        -0.15431
       8 -> 20         0.14490
      10 -> 18        -0.13464
      10 -> 20         0.13639
      12 -> 28         0.10950

 Excited State  52:      Singlet-A     15.1583 eV   81.79 nm  f=0.0444  <S**2>=0.000
       9 -> 22        -0.16108
       9 -> 23        -0.17709
      11 -> 27         0.12684
      11 -> 28         0.55793
      11 -> 29         0.15467
      11 -> 30        -0.15882

 Excited State  53:      Singlet-A     15.1954 eV   81.59 nm  f=0.0890  <S**2>=0.000
       7 -> 13         0.57246
       7 -> 14         0.22937
       8 -> 14        -0.11291
      10 -> 20        -0.13050
      12 -> 28        -0.10354

 Excited State  54:      Singlet-A     15.3785 eV   80.62 nm  f=0.0110  <S**2>=0.000
       8 -> 17         0.59217
       8 -> 21         0.11565
      10 -> 21        -0.23613
      11 -> 29         0.18154

 Excited State  55:      Singlet-A     15.4461 eV   80.27 nm  f=0.0049  <S**2>=0.000
       8 -> 17        -0.14846
       9 -> 18         0.11512
       9 -> 22         0.11409
       9 -> 23         0.26929
      11 -> 29         0.44931
      11 -> 30        -0.12216
      11 -> 31         0.31706

 Excited State  56:      Singlet-A     15.4917 eV   80.03 nm  f=0.0113  <S**2>=0.000
       7 -> 13         0.12394
       7 -> 14         0.11508
       8 -> 16        -0.12494
      10 -> 23         0.13292
      12 -> 28         0.40351
      12 -> 30        -0.12032
      12 -> 31        -0.39147
      12 -> 33        -0.15563
      12 -> 36        -0.12522

 Excited State  57:      Singlet-A     15.6413 eV   79.27 nm  f=0.0431  <S**2>=0.000
       8 -> 19         0.38602
       8 -> 20         0.11315
      10 -> 22        -0.30283
      10 -> 23         0.19574
      12 -> 29         0.34374

 Excited State  58:      Singlet-A     15.6476 eV   79.24 nm  f=0.0041  <S**2>=0.000
       8 -> 17         0.10382
       9 -> 22        -0.15346
       9 -> 23         0.47855
      11 -> 28         0.12723
      11 -> 29        -0.32876
      11 -> 30        -0.23077

 Excited State  59:      Singlet-A     15.7089 eV   78.93 nm  f=0.0018  <S**2>=0.000
       8 -> 19        -0.19788
       8 -> 20        -0.11026
       9 -> 21         0.24940
      10 -> 22         0.19935
      12 -> 29         0.49954
      12 -> 31        -0.16418

 Excited State  60:      Singlet-A     15.8092 eV   78.43 nm  f=0.0003  <S**2>=0.000
       9 -> 22         0.22226
      10 -> 21         0.11496
      11 -> 27        -0.14269
      11 -> 28         0.12405
      11 -> 29        -0.21499
      11 -> 30         0.11363
      11 -> 31         0.43898
      11 -> 33         0.13929
      12 -> 32         0.24491

 Excited State  61:      Singlet-A     15.8286 eV   78.33 nm  f=0.0193  <S**2>=0.000
       9 -> 21         0.34482
      10 -> 22         0.12883
      10 -> 23         0.18987
      12 -> 28         0.32953
      12 -> 29        -0.12578
      12 -> 31         0.33664

 Excited State  62:      Singlet-A     15.8574 eV   78.19 nm  f=0.0274  <S**2>=0.000
       6 -> 15        -0.11913
       9 -> 22        -0.39369
      11 -> 28        -0.12937
      11 -> 30        -0.15338
      12 -> 32         0.49428

 Excited State  63:      Singlet-A     15.8925 eV   78.01 nm  f=0.0119  <S**2>=0.000
       9 -> 22         0.34041
       9 -> 23         0.23672
      11 -> 27         0.16558
      11 -> 28         0.21233
      11 -> 31        -0.28145
      11 -> 34         0.11573
      12 -> 32         0.33337

 Excited State  64:      Singlet-A     15.9314 eV   77.82 nm  f=0.1269  <S**2>=0.000
       8 -> 16         0.15530
       8 -> 18         0.17137
       9 -> 21        -0.20291
      10 -> 22         0.30876
      10 -> 23         0.44710
      12 -> 28        -0.18669

 Excited State  65:      Singlet-A     15.9890 eV   77.54 nm  f=0.0323  <S**2>=0.000
       8 -> 18         0.21569
       8 -> 19         0.18439
       8 -> 20         0.21716
       9 -> 21         0.36220
      10 -> 23        -0.11118
      12 -> 28        -0.27293
      12 -> 29        -0.16151
      12 -> 31        -0.26271

 Excited State  66:      Singlet-A     16.0070 eV   77.46 nm  f=0.0033  <S**2>=0.000
       8 -> 17         0.27057
      10 -> 21         0.58154
      10 -> 24        -0.13529
      10 -> 26         0.11515

 Excited State  67:      Singlet-A     16.1724 eV   76.66 nm  f=0.0263  <S**2>=0.000
       7 -> 13        -0.26405
       7 -> 14         0.54495
       9 -> 21         0.14092
       9 -> 24        -0.12874
      11 -> 32         0.11271

 Excited State  68:      Singlet-A     16.2261 eV   76.41 nm  f=0.0271  <S**2>=0.000
       7 -> 16         0.11269
       7 -> 18        -0.10431
       8 -> 18         0.42310
       9 -> 21        -0.22034
      10 -> 22         0.13700
      10 -> 23        -0.23928
      11 -> 32         0.21093
      12 -> 28         0.15468
      12 -> 29         0.13997

 Excited State  69:      Singlet-A     16.2719 eV   76.20 nm  f=0.1093  <S**2>=0.000
       7 -> 14        -0.13459
       8 -> 18        -0.13403
       9 -> 21        -0.12222
       9 -> 24        -0.24189
      10 -> 22        -0.10631
      10 -> 23         0.16902
      11 -> 32         0.55170

 Excited State  70:      Singlet-A     16.4173 eV   75.52 nm  f=0.0244  <S**2>=0.000
       9 -> 20        -0.11544
       9 -> 22        -0.23941
       9 -> 23         0.10646
      11 -> 28         0.16009
      11 -> 30         0.50086
      11 -> 31         0.11996
      11 -> 33        -0.23968
      11 -> 34         0.12842

 Excited State  71:      Singlet-A     16.4263 eV   75.48 nm  f=0.0282  <S**2>=0.000
       8 -> 16        -0.16185
       8 -> 18        -0.33107
       8 -> 19         0.29322
       8 -> 20         0.19585
      10 -> 22         0.39430
      10 -> 23        -0.15623
      12 -> 30        -0.10919

 Excited State  72:      Singlet-A     16.5094 eV   75.10 nm  f=0.0144  <S**2>=0.000
       7 -> 16         0.13811
       8 -> 18        -0.13441
       8 -> 19        -0.25091
       8 -> 20         0.44827
       8 -> 23         0.13657
       9 -> 24         0.10660
      10 -> 23         0.10815
      12 -> 30         0.28949

 Excited State  73:      Singlet-A     16.6424 eV   74.50 nm  f=0.0488  <S**2>=0.000
       7 -> 14        -0.10070
       7 -> 16        -0.11401
       8 -> 19         0.14981
       8 -> 20        -0.22875
      12 -> 30         0.54962
      12 -> 31        -0.10632
      12 -> 33         0.11508

 Excited State  74:      Singlet-A     16.7100 eV   74.20 nm  f=0.0065  <S**2>=0.000
       6 -> 15        -0.22578
       7 -> 17        -0.14618
       8 -> 21        -0.11308
      10 -> 24         0.57781
      10 -> 26        -0.10433

 Excited State  75:      Singlet-A     16.7217 eV   74.15 nm  f=0.0058  <S**2>=0.000
       6 -> 13         0.20563
       7 -> 16        -0.15760
       9 -> 24         0.53898
      11 -> 32         0.26607

 Excited State  76:      Singlet-A     16.8201 eV   73.71 nm  f=0.0057  <S**2>=0.000
       6 -> 15        -0.17191
       9 -> 22        -0.11418
       9 -> 27         0.11201
      10 -> 24        -0.11098
      11 -> 29         0.17798
      11 -> 30         0.21580
      11 -> 33         0.53546

 Excited State  77:      Singlet-A     16.9483 eV   73.15 nm  f=0.1585  <S**2>=0.000
       6 -> 15         0.55339
       9 -> 20         0.10540
       9 -> 22        -0.10342
       9 -> 23         0.14222
      10 -> 24         0.20113
      11 -> 30         0.13956
      11 -> 33         0.14305
      12 -> 32         0.10560

 Excited State  78:      Singlet-A     17.1040 eV   72.49 nm  f=0.0741  <S**2>=0.000
       6 -> 13        -0.29116
       9 -> 24         0.19885
      12 -> 30        -0.13513
      12 -> 33         0.51642

 Excited State  79:      Singlet-A     17.1511 eV   72.29 nm  f=0.0284  <S**2>=0.000
       6 -> 13         0.49346
       6 -> 14         0.11378
       7 -> 14        -0.10408
       7 -> 16         0.32080
       7 -> 18        -0.17090
       8 -> 19         0.11183
      12 -> 33         0.17154

 Excited State  80:      Singlet-A     17.3060 eV   71.64 nm  f=0.0894  <S**2>=0.000
       6 -> 13        -0.24810
       7 -> 16         0.33913
       7 -> 18        -0.17740
       8 -> 20        -0.15269
       9 -> 24         0.16782
      12 -> 27         0.10605
      12 -> 33        -0.28521
      12 -> 34         0.22542

 Excited State  81:      Singlet-A     17.3795 eV   71.34 nm  f=0.0000  <S**2>=0.000
       8 -> 21         0.63644
       8 -> 24        -0.12052
      10 -> 21         0.13915
      10 -> 24         0.10726
      10 -> 26         0.10511

 Excited State  82:      Singlet-A     17.4510 eV   71.05 nm  f=0.0994  <S**2>=0.000
       6 -> 13        -0.10276
       7 -> 19         0.18114
       7 -> 20         0.16611
       8 -> 18         0.11715
       8 -> 22         0.37816
       8 -> 23         0.43050
      10 -> 27        -0.10582

 Excited State  83:      Singlet-A     17.6997 eV   70.05 nm  f=0.0000  <S**2>=0.000
       6 -> 15        -0.11180
       7 -> 17        -0.17169
       8 -> 24        -0.20539
       9 -> 25         0.55321
      10 -> 24        -0.14657
      11 -> 34        -0.11903

 Excited State  84:      Singlet-A     17.8022 eV   69.65 nm  f=0.2253  <S**2>=0.000
       7 -> 16        -0.13828
       7 -> 20        -0.17395
       8 -> 22        -0.38317
       8 -> 23         0.38668
      10 -> 25         0.14924
      10 -> 27        -0.19663
      12 -> 34         0.10020

 Excited State  85:      Singlet-A     17.8088 eV   69.62 nm  f=0.0010  <S**2>=0.000
       7 -> 17         0.41759
       7 -> 21         0.17037
       8 -> 24         0.29378

 The electronic state is 1-A.
 Alpha  occ. eigenvalues --  -19.44093 -14.65149 -10.55484  -1.17793  -1.04540
 Alpha  occ. eigenvalues --   -0.76031  -0.69292  -0.61057  -0.54394  -0.54215
 Alpha  occ. eigenvalues --   -0.39588  -0.38388
 Alpha virt. eigenvalues --    0.04379   0.07299   0.09500   0.11093   0.13142
 Alpha virt. eigenvalues --    0.13592   0.14789   0.18295   0.21431   0.21604
 Alpha virt. eigenvalues --    0.23302   0.25097   0.29618   0.30637   0.31901

 Mulliken charges:
               1
     1  N    0.213629
     2  C    0.243753
     3  O   -0.265831
     4  H   -0.073612
     5  H   -0.027121
     6  H   -0.090817
 Sum of Mulliken charges =  -0.00000

 Dipole moment (field-independent basis, Debye):
    X=              4.0280    Y=              0.9880    Z=              0.0000  Tot=              4.1474
 Quadrupole moment (field-independent basis, Debye-Ang):
   XX=            -18.2394   YY=            -15.3625   ZZ=            -18.9619
   XY=             -1.3523   XZ=              0.0000   YZ=             -0.0000

 Normal termination of Gaussian 16 at Mon Mar 21 20:15:25 2022.
