 Gaussian 16, Revision C.01,
 Gaussian 16:  EM64L-G16RevC.01  3-Jul-2019

 -------------------------------------------------------------------
 #P TD(Nstates=10000) m11/Gen SCF(maxcycles=100) Int(Grid=ultrafine)
 -------------------------------------------------------------------

 ---------------------
 xGDB7_00001_tier4.com
 ---------------------
 Symbolic Z-matrix:
 Charge =  0 Multiplicity = 1

                         Standard orientation:
 ---------------------------------------------------------------------
 Center     Atomic      Atomic             Coordinates (Angstroms)
 Number     Number       Type             X           Y           Z
 ---------------------------------------------------------------------
      1          6           0       -1.122844   -0.452320    0.000000
      2          6           0        0.000000    0.553997    0.000000
      3          9           0        1.225284   -0.098236    0.000000
      4          1           0       -2.083314    0.066805    0.000000
      5          1           0       -1.072796   -1.085651    0.886148
      6          1           0       -1.072796   -1.085651   -0.886148
      7          1           0       -0.030794    1.189278    0.888716
      8          1           0       -0.030794    1.189278   -0.888716
 ---------------------------------------------------------------------

 SCF Done:  E(RM11) =  -178.849283989     A.U. after   14 cycles

 Excitation energies and oscillator strengths:

 Excited State   1:      Singlet-A"     8.9568 eV  138.42 nm  f=0.0042  <S**2>=0.000
      13 -> 14         0.65989
      13 -> 15         0.17250
 This state for optimization and/or second-order correction.
 Total Energy, E(TD-HF/TD-DFT) =  -178.520126981
 Copying the excited state density for this state as the 1-particle RhoCI density.

 Excited State   2:      Singlet-A'     9.2759 eV  133.66 nm  f=0.0070  <S**2>=0.000
      12 -> 14         0.66108
      12 -> 15         0.15779

 Excited State   3:      Singlet-A"     9.8221 eV  126.23 nm  f=0.0238  <S**2>=0.000
      10 -> 14         0.19430
      13 -> 14        -0.18307
      13 -> 15         0.52124
      13 -> 17        -0.25355
      13 -> 19        -0.20244
      13 -> 23         0.15662

 Excited State   4:      Singlet-A'    10.1498 eV  122.15 nm  f=0.0251  <S**2>=0.000
      12 -> 14        -0.19732
      12 -> 15         0.49691
      12 -> 17        -0.30819
      12 -> 19        -0.22383
      12 -> 23         0.18325

 Excited State   5:      Singlet-A"    10.2814 eV  120.59 nm  f=0.0496  <S**2>=0.000
      13 -> 15         0.36017
      13 -> 17         0.48606
      13 -> 19         0.21013
      13 -> 23        -0.15841

 Excited State   6:      Singlet-A'    10.4817 eV  118.29 nm  f=0.0566  <S**2>=0.000
      11 -> 14         0.58710
      11 -> 15        -0.18747
      12 -> 15        -0.21060
      12 -> 17        -0.19981

 Excited State   7:      Singlet-A'    10.6131 eV  116.82 nm  f=0.0418  <S**2>=0.000
      11 -> 14         0.28031
      12 -> 15         0.36594
      12 -> 17         0.39688
      12 -> 19         0.14501
      12 -> 23        -0.13184
      13 -> 16         0.21891

 Excited State   8:      Singlet-A'    10.7844 eV  114.97 nm  f=0.1626  <S**2>=0.000
      12 -> 15        -0.14315
      12 -> 17        -0.14316
      13 -> 16         0.64695

 Excited State   9:      Singlet-A"    10.8166 eV  114.62 nm  f=0.0419  <S**2>=0.000
      12 -> 16         0.68810

 Excited State  10:      Singlet-A"    11.0359 eV  112.35 nm  f=0.0050  <S**2>=0.000
      10 -> 14         0.60446
      13 -> 15        -0.14507
      13 -> 17        -0.10861
      13 -> 19         0.19237
      13 -> 23        -0.11254

 Excited State  11:      Singlet-A"    11.4245 eV  108.52 nm  f=0.0001  <S**2>=0.000
      10 -> 17         0.11883
      13 -> 18         0.63663
      13 -> 22        -0.15128

 Excited State  12:      Singlet-A'    11.5527 eV  107.32 nm  f=0.0657  <S**2>=0.000
      11 -> 14         0.13480
      11 -> 15         0.54101
      11 -> 22        -0.10816
      12 -> 17        -0.18653
      12 -> 18         0.17002
      12 -> 19         0.21938
      12 -> 23        -0.13094

 Excited State  13:      Singlet-A"    11.5877 eV  107.00 nm  f=0.0691  <S**2>=0.000
      10 -> 14        -0.22322
      10 -> 18        -0.10372
      13 -> 15         0.15226
      13 -> 17        -0.36472
      13 -> 19         0.45204
      13 -> 23        -0.14512

 Excited State  14:      Singlet-A'    11.6256 eV  106.65 nm  f=0.0045  <S**2>=0.000
       9 -> 14         0.11960
      11 -> 14        -0.10175
      11 -> 15        -0.26859
      12 -> 17        -0.29655
      12 -> 18        -0.19711
      12 -> 19         0.42975
      12 -> 22         0.13862
      12 -> 23        -0.11875

 Excited State  15:      Singlet-A'    11.6739 eV  106.21 nm  f=0.0259  <S**2>=0.000
      11 -> 14        -0.11364
      11 -> 15        -0.23518
      12 -> 18         0.60765
      12 -> 23        -0.10524

 Excited State  16:      Singlet-A"    11.7046 eV  105.93 nm  f=0.0276  <S**2>=0.000
      10 -> 15         0.55604
      13 -> 18         0.11568
      13 -> 22         0.32837

 Excited State  17:      Singlet-A"    11.9295 eV  103.93 nm  f=0.0096  <S**2>=0.000
      10 -> 15         0.10130
      11 -> 16        -0.13214
      12 -> 20         0.65777
      12 -> 36        -0.10704

 Excited State  18:      Singlet-A'    12.0592 eV  102.81 nm  f=0.0015  <S**2>=0.000
      13 -> 20         0.66013

 Excited State  19:      Singlet-A"    12.3255 eV  100.59 nm  f=0.0356  <S**2>=0.000
      11 -> 16         0.62762
      11 -> 21         0.23447
      12 -> 20         0.13193

 Excited State  20:      Singlet-A'    12.4138 eV   99.88 nm  f=0.0090  <S**2>=0.000
       9 -> 14         0.14289
      10 -> 16         0.39497
      11 -> 17         0.20872
      11 -> 18        -0.19658
      12 -> 19        -0.10186
      12 -> 22         0.23532
      13 -> 21        -0.35691

 Excited State  21:      Singlet-A"    12.4426 eV   99.64 nm  f=0.0068  <S**2>=0.000
      10 -> 15        -0.19630
      10 -> 17         0.41934
      10 -> 19         0.11696
      10 -> 23        -0.14670
      13 -> 17        -0.10539
      13 -> 22         0.38410
      13 -> 23         0.17516

 Excited State  22:      Singlet-A"    12.5585 eV   98.73 nm  f=0.0019  <S**2>=0.000
      10 -> 15         0.19086
      10 -> 17         0.21823
      10 -> 19        -0.10892
      13 -> 19         0.31249
      13 -> 22        -0.20913
      13 -> 23         0.43116

 Excited State  23:      Singlet-A'    12.5722 eV   98.62 nm  f=0.0121  <S**2>=0.000
       9 -> 14         0.36949
       9 -> 15         0.15218
      10 -> 16        -0.20733
      11 -> 17         0.11062
      11 -> 18         0.16121
      11 -> 19         0.17862
      12 -> 19        -0.21089
      12 -> 22         0.29114
      13 -> 21         0.21297

 Excited State  24:      Singlet-A'    12.6171 eV   98.27 nm  f=0.0838  <S**2>=0.000
       9 -> 14        -0.10062
       9 -> 15        -0.10502
      11 -> 17         0.46222
      11 -> 19         0.31264
      11 -> 23        -0.17627
      12 -> 19         0.11735
      12 -> 22        -0.20166

 Excited State  25:      Singlet-A"    12.7421 eV   97.30 nm  f=0.0001  <S**2>=0.000
       9 -> 16        -0.12150
      10 -> 15         0.18323
      10 -> 17         0.18760
      10 -> 18         0.11206
      10 -> 19         0.24196
      10 -> 23        -0.15444
      12 -> 21         0.37329
      12 -> 24        -0.10647
      13 -> 22        -0.23138
      13 -> 23        -0.17870

 Excited State  26:      Singlet-A"    12.8018 eV   96.85 nm  f=0.0075  <S**2>=0.000
       9 -> 16        -0.14621
      10 -> 15        -0.13524
      10 -> 17        -0.20457
      10 -> 19        -0.11482
      10 -> 23         0.14059
      12 -> 21         0.50230
      13 -> 22         0.22895

 Excited State  27:      Singlet-A'    12.8119 eV   96.77 nm  f=0.0009  <S**2>=0.000
       9 -> 14         0.48282
      11 -> 18        -0.12754
      12 -> 17         0.11621
      12 -> 22        -0.39711

 Excited State  28:      Singlet-A'    12.8819 eV   96.25 nm  f=0.2390  <S**2>=0.000
       9 -> 17         0.10027
      10 -> 16         0.18291
      11 -> 18         0.36273
      11 -> 19         0.15207
      11 -> 23        -0.10840
      12 -> 18         0.10796
      12 -> 19         0.19150
      12 -> 23         0.41024

 Excited State  29:      Singlet-A'    13.1416 eV   94.34 nm  f=0.0737  <S**2>=0.000
       9 -> 17         0.10271
      10 -> 16        -0.27522
      11 -> 18        -0.33517
      11 -> 23         0.12159
      12 -> 19         0.11043
      12 -> 22         0.25124
      12 -> 23         0.33559
      13 -> 24        -0.14877

 Excited State  30:      Singlet-A"    13.1507 eV   94.28 nm  f=0.0176  <S**2>=0.000
      10 -> 19        -0.20077
      11 -> 20         0.57716
      11 -> 24         0.17826
      13 -> 23        -0.10529
      13 -> 25         0.10558
      13 -> 26         0.11876

 Excited State  31:      Singlet-A"    13.1703 eV   94.14 nm  f=0.0071  <S**2>=0.000
       7 -> 14         0.11056
      10 -> 17        -0.25253
      10 -> 18         0.44785
      10 -> 19         0.23382
      11 -> 20         0.12126
      13 -> 18         0.18232
      13 -> 22         0.11316
      13 -> 23         0.19495

 Excited State  32:      Singlet-A'    13.2349 eV   93.68 nm  f=0.0067  <S**2>=0.000
      10 -> 16         0.35590
      11 -> 18        -0.17089
      13 -> 21         0.52305

 Excited State  33:      Singlet-A"    13.2589 eV   93.51 nm  f=0.0178  <S**2>=0.000
       7 -> 14        -0.11470
      10 -> 18        -0.26435
      10 -> 19         0.30731
      10 -> 22        -0.17030
      12 -> 21        -0.16419
      12 -> 24        -0.18758
      13 -> 25         0.38997

 Excited State  34:      Singlet-A'    13.3794 eV   92.67 nm  f=0.1524  <S**2>=0.000
       8 -> 14         0.11014
       9 -> 17        -0.14662
       9 -> 19        -0.11224
       9 -> 23         0.12242
      10 -> 16        -0.12079
      10 -> 20        -0.32290
      11 -> 19         0.19797
      11 -> 22         0.11582
      13 -> 21        -0.10619
      13 -> 24         0.42160
      13 -> 27         0.10577

 Excited State  35:      Singlet-A'    13.4285 eV   92.33 nm  f=0.0338  <S**2>=0.000
      10 -> 20         0.11810
      11 -> 17        -0.34445
      11 -> 18        -0.17239
      11 -> 19         0.46086
      11 -> 25        -0.11618
      12 -> 25         0.11614
      13 -> 24        -0.13505

 Excited State  36:      Singlet-A"    13.4626 eV   92.10 nm  f=0.0246  <S**2>=0.000
      10 -> 18        -0.20044
      10 -> 19         0.28403
      11 -> 20         0.15585
      12 -> 21         0.10254
      12 -> 24         0.46665
      12 -> 27         0.14382
      13 -> 26        -0.14527

 Excited State  37:      Singlet-A'    13.6276 eV   90.98 nm  f=0.0180  <S**2>=0.000
       8 -> 14        -0.23318
       8 -> 15        -0.11063
       9 -> 14        -0.15348
       9 -> 15         0.35509
       9 -> 17        -0.15758
       9 -> 19        -0.16545
       9 -> 23         0.11261
      11 -> 22        -0.30070
      11 -> 25        -0.14213
      12 -> 25        -0.14804
      13 -> 24        -0.14563

 Excited State  38:      Singlet-A"    13.7571 eV   90.12 nm  f=0.2023  <S**2>=0.000
      10 -> 17         0.15234
      10 -> 18         0.22128
      10 -> 19        -0.11020
      10 -> 22        -0.21723
      11 -> 20        -0.20557
      12 -> 24         0.37878
      13 -> 25         0.30684

 Excited State  39:      Singlet-A'    13.8375 eV   89.60 nm  f=0.0952  <S**2>=0.000
       8 -> 14         0.22064
       9 -> 15         0.50487
       9 -> 17         0.11733
      10 -> 20         0.11510
      11 -> 22         0.25595
      11 -> 25         0.10428
      13 -> 24        -0.10044

 Excited State  40:      Singlet-A'    13.9079 eV   89.15 nm  f=0.0354  <S**2>=0.000
       8 -> 14         0.32454
       9 -> 17        -0.22965
       9 -> 19        -0.10945
       9 -> 23         0.11545
      10 -> 20         0.19232
      11 -> 22        -0.20310
      12 -> 25         0.31741
      12 -> 29        -0.10230

 Excited State  41:      Singlet-A"    14.0022 eV   88.55 nm  f=0.0312  <S**2>=0.000
       7 -> 14         0.56489
       7 -> 15         0.19338
      10 -> 18        -0.13029
      13 -> 25         0.21025
      13 -> 26         0.10388

 Excited State  42:      Singlet-A'    14.0078 eV   88.51 nm  f=0.0898  <S**2>=0.000
       9 -> 15         0.11421
       9 -> 17         0.29018
      10 -> 20         0.27007
      10 -> 21         0.13808
      11 -> 22        -0.18243
      12 -> 26         0.10422
      13 -> 24         0.35597
      13 -> 27         0.20024

 Excited State  43:      Singlet-A'    14.0462 eV   88.27 nm  f=0.1066  <S**2>=0.000
       8 -> 14         0.38710
       9 -> 17         0.16963
      10 -> 20        -0.23415
      11 -> 22        -0.33591
      12 -> 25        -0.17622
      12 -> 28         0.10543
      13 -> 24        -0.10201

 Excited State  44:      Singlet-A"    14.0743 eV   88.09 nm  f=0.0429  <S**2>=0.000
       7 -> 14         0.10007
       8 -> 16        -0.16620
      11 -> 16        -0.21858
      11 -> 21         0.59617
      11 -> 27        -0.10382

 Excited State  45:      Singlet-A'    14.2383 eV   87.08 nm  f=0.0521  <S**2>=0.000
       8 -> 14        -0.12349
      10 -> 20        -0.35390
      10 -> 21         0.15756
      11 -> 17        -0.13074
      11 -> 23        -0.13316
      12 -> 25         0.42405
      13 -> 24        -0.15182

 Excited State  46:      Singlet-A"    14.2783 eV   86.83 nm  f=0.0060  <S**2>=0.000
       9 -> 16         0.64144
      12 -> 21         0.18970
      12 -> 27        -0.13374

 Excited State  47:      Singlet-A"    14.3976 eV   86.11 nm  f=0.0982  <S**2>=0.000
       7 -> 14        -0.20935
      10 -> 17        -0.14207
      10 -> 22         0.36273
      10 -> 23        -0.24050
      10 -> 25         0.10487
      12 -> 27        -0.10160
      13 -> 23         0.16084
      13 -> 25         0.18894
      13 -> 26         0.26677
      13 -> 31        -0.11003

 Excited State  48:      Singlet-A"    14.4870 eV   85.58 nm  f=0.0201  <S**2>=0.000
      10 -> 18        -0.16033
      10 -> 22        -0.32721
      11 -> 24         0.10159
      13 -> 25        -0.22710
      13 -> 26         0.41940
      13 -> 28         0.14414

 Excited State  49:      Singlet-A'    14.5611 eV   85.15 nm  f=0.1978  <S**2>=0.000
       8 -> 14         0.14998
       8 -> 15        -0.12371
       8 -> 17         0.12496
       9 -> 17        -0.19071
       9 -> 19         0.20837
      10 -> 21         0.34988
      12 -> 25        -0.10799
      12 -> 26        -0.22564
      13 -> 27         0.27850

 Excited State  50:      Singlet-A'    14.6328 eV   84.73 nm  f=0.0634  <S**2>=0.000
       8 -> 17         0.11052
       9 -> 17        -0.22117
       9 -> 18         0.21717
      12 -> 23         0.10161
      12 -> 26         0.49159
      12 -> 28         0.20513
      12 -> 31        -0.11237

 Excited State  51:      Singlet-A"    14.7615 eV   83.99 nm  f=0.0000  <S**2>=0.000
       7 -> 14        -0.15000
       7 -> 15         0.25954
       7 -> 19        -0.13401
       7 -> 23         0.11215
      10 -> 22         0.18072
      10 -> 23         0.39978
      10 -> 25        -0.17686
      13 -> 26         0.19720
      13 -> 28         0.19787

 Excited State  52:      Singlet-A'    14.8629 eV   83.42 nm  f=0.0026  <S**2>=0.000
       8 -> 15         0.35952
       8 -> 19        -0.14160
       9 -> 17         0.14388
      10 -> 21         0.10685
      11 -> 18         0.10731
      11 -> 23         0.15538
      11 -> 25        -0.19087
      13 -> 24        -0.14947
      13 -> 27         0.33287

 Excited State  53:      Singlet-A"    14.8681 eV   83.39 nm  f=0.0052  <S**2>=0.000
       7 -> 14        -0.11057
       7 -> 15         0.33265
       7 -> 17        -0.28976
       7 -> 19        -0.22206
       7 -> 23         0.15471
      10 -> 22        -0.13253
      10 -> 23        -0.21703
      10 -> 25        -0.10816
      11 -> 24         0.21350
      13 -> 26        -0.16780

 Excited State  54:      Singlet-A'    14.9028 eV   83.20 nm  f=0.0162  <S**2>=0.000
       8 -> 14         0.11026
       8 -> 15        -0.27096
       8 -> 17         0.25315
       8 -> 19         0.11440
       9 -> 17         0.18726
       9 -> 18        -0.11060
       9 -> 19        -0.16431
      10 -> 21        -0.23336
      11 -> 23         0.28383
      13 -> 27         0.18249

 Excited State  55:      Singlet-A"    14.9208 eV   83.10 nm  f=0.0010  <S**2>=0.000
       9 -> 16         0.13733
       9 -> 21         0.12901
      11 -> 24         0.13109
      12 -> 24        -0.14627
      12 -> 27         0.60620

 Excited State  56:      Singlet-A"    15.0840 eV   82.20 nm  f=0.0290  <S**2>=0.000
       7 -> 15         0.15568
       7 -> 17         0.32373
       7 -> 19         0.14935
       7 -> 22         0.10174
       7 -> 23        -0.12455
      10 -> 23         0.10530
      10 -> 25        -0.10868
      11 -> 24         0.40876
      11 -> 27         0.12084
      12 -> 27        -0.10183
      13 -> 26        -0.11229

 Excited State  57:      Singlet-A'    15.0859 eV   82.19 nm  f=0.0558  <S**2>=0.000
       8 -> 15         0.32267
       8 -> 17         0.34754
       9 -> 17        -0.10814
       9 -> 19         0.20285
      11 -> 23         0.22250
      11 -> 25        -0.12362
      12 -> 25         0.13439
      13 -> 27        -0.15255

 Excited State  58:      Singlet-A'    15.1458 eV   81.86 nm  f=0.0363  <S**2>=0.000
       8 -> 15        -0.11656
       9 -> 17         0.10985
       9 -> 18         0.26308
       9 -> 19        -0.16362
       9 -> 22        -0.15246
      10 -> 21         0.31226
      10 -> 24        -0.10879
      11 -> 18         0.10061
      11 -> 23         0.27707
      13 -> 27        -0.29757

 Excited State  59:      Singlet-A'    15.2244 eV   81.44 nm  f=0.0014  <S**2>=0.000
       9 -> 18         0.43313
      10 -> 21        -0.24379
      12 -> 26        -0.33049
      12 -> 28         0.20790
      13 -> 27         0.17070

 Excited State  60:      Singlet-A"    15.2377 eV   81.37 nm  f=0.0475  <S**2>=0.000
       7 -> 14        -0.12170
       7 -> 15         0.29809
       7 -> 17         0.15027
       7 -> 19         0.10137
       9 -> 20         0.14924
      10 -> 22        -0.16751
      10 -> 23        -0.15544
      11 -> 24        -0.24404
      11 -> 27        -0.10676
      13 -> 25         0.15241
      13 -> 26        -0.13087
      13 -> 28         0.23056
      13 -> 29         0.19880

 Excited State  61:      Singlet-A"    15.3683 eV   80.68 nm  f=0.0138  <S**2>=0.000
       7 -> 15        -0.22147
       7 -> 17        -0.11567
       8 -> 16         0.32268
       9 -> 20         0.33611
      10 -> 23         0.12257
      11 -> 24         0.20952
      13 -> 26        -0.11193
      13 -> 28         0.25467

 Excited State  62:      Singlet-A'    15.3782 eV   80.62 nm  f=0.1749  <S**2>=0.000
       8 -> 17         0.32593
       9 -> 19        -0.17867
      10 -> 21         0.14235
      10 -> 24         0.28256
      11 -> 17        -0.14115
      11 -> 23        -0.25629
      11 -> 25        -0.12208
      12 -> 28        -0.13249
      12 -> 29        -0.14276

 Excited State  63:      Singlet-A"    15.4273 eV   80.37 nm  f=0.0359  <S**2>=0.000
       8 -> 16         0.48081
       9 -> 20        -0.40056
      11 -> 21         0.10726
      12 -> 24        -0.12971
      13 -> 29         0.12267

 Excited State  64:      Singlet-A'    15.4747 eV   80.12 nm  f=0.0221  <S**2>=0.000
       8 -> 15         0.22034
       8 -> 17         0.17966
       9 -> 17         0.11592
       9 -> 18        -0.12462
       9 -> 19        -0.13576
      10 -> 21         0.10947
      10 -> 24        -0.17336
      11 -> 19         0.12471
      11 -> 22        -0.17564
      11 -> 23        -0.11072
      11 -> 25         0.36484
      11 -> 26         0.20898

 Excited State  65:      Singlet-A"    15.5095 eV   79.94 nm  f=0.0575  <S**2>=0.000
       7 -> 15         0.11353
       7 -> 17         0.13472
       8 -> 16         0.25286
       9 -> 20         0.35562
      13 -> 26         0.15467
      13 -> 28        -0.32998
      13 -> 29        -0.19224
      13 -> 31         0.10697

 Excited State  66:      Singlet-A'    15.5869 eV   79.54 nm  f=0.0037  <S**2>=0.000
       8 -> 15         0.11000
       8 -> 17        -0.10891
       9 -> 22         0.10647
       9 -> 23        -0.12432
      10 -> 24         0.39401
      10 -> 27         0.12719
      11 -> 22        -0.10109
      11 -> 23         0.17854
      11 -> 25         0.22889
      11 -> 26         0.23726
      12 -> 28        -0.17734
      13 -> 30         0.11907

 Excited State  67:      Singlet-A'    15.6500 eV   79.22 nm  f=0.0625  <S**2>=0.000
       7 -> 16        -0.30862
       9 -> 18        -0.24732
       9 -> 22        -0.12813
       9 -> 23         0.12307
      10 -> 24         0.24092
      12 -> 28         0.34045
      12 -> 29         0.14646

 Excited State  68:      Singlet-A"    15.6793 eV   79.08 nm  f=0.1642  <S**2>=0.000
       7 -> 17        -0.18105
      10 -> 25        -0.32959
      13 -> 25         0.10129
      13 -> 28        -0.23643
      13 -> 29         0.42478

 Excited State  69:      Singlet-A"    15.7019 eV   78.96 nm  f=0.0013  <S**2>=0.000
       7 -> 15         0.16324
      10 -> 19         0.14438
      10 -> 23         0.18084

 The electronic state is 1-A'.
 Alpha  occ. eigenvalues --  -25.03332 -10.51503 -10.43898  -1.30403  -0.89982
 Alpha  occ. eigenvalues --   -0.75933  -0.62779  -0.62426  -0.58034  -0.51913
 Alpha  occ. eigenvalues --   -0.50674  -0.45736  -0.44766
 Alpha virt. eigenvalues --    0.04958   0.07726   0.12066   0.12109   0.15012
 Alpha virt. eigenvalues --    0.16281   0.16494   0.18424   0.19125   0.21158
 Alpha virt. eigenvalues --    0.22919   0.24496   0.26151   0.27240   0.31417

 Mulliken charges:
               1
     1  C    0.034847
     2  C    0.333976
     3  F   -0.424121
     4  H    0.056137
     5  H    0.051542
     6  H    0.051542
     7  H   -0.051962
     8  H   -0.051962
 Sum of Mulliken charges =   0.00000

 Dipole moment (field-independent basis, Debye):
    X=             -1.9294    Y=              0.7729    Z=              0.0000  Tot=              2.0784
 Quadrupole moment (field-independent basis, Debye-Ang):
   XX=            -21.0713   YY=            -18.2030   ZZ=            -18.2522
   XY=              0.3646   XZ=              0.0000   YZ=              0.0000

 Normal termination of Gaussian 16 at Mon Mar 21 20:12:00 2022.
