 Gaussian 16, Revision C.01,
 Gaussian 16:  EM64L-G16RevC.01  3-Jul-2019

 -------------------------------------------------------------------
 #P TD(Nstates=10000) m11/Gen SCF(maxcycles=100) Int(Grid=ultrafine)
 -------------------------------------------------------------------

 ---------------------
 xGDB7_00001_tier4.com
 ---------------------
 Symbolic Z-matrix:
 Charge =  0 Multiplicity = 1

                         Standard orientation:
 ---------------------------------------------------------------------
 Center     Atomic      Atomic             Coordinates (Angstroms)
 Number     Number       Type             X           Y           Z
 ---------------------------------------------------------------------
      1          6           0       -0.049078    0.702042   -0.000000
      2          7           0       -0.049078   -0.754243    0.000000
      3          1           0        0.946109    1.166603   -0.000000
      4          1           0       -0.587574    1.062597    0.877770
      5          1           0       -0.587574    1.062597   -0.877770
      6          1           0        0.433525   -1.112175    0.812504
      7          1           0        0.433525   -1.112175   -0.812504
 ---------------------------------------------------------------------

 SCF Done:  E(RM11) =  -95.7295504784     A.U. after   14 cycles

 Excitation energies and oscillator strengths:

 Excited State   1:      Singlet-A'     6.1599 eV  201.28 nm  f=0.0073  <S**2>=0.000
       9 -> 10         0.62846
       9 -> 11         0.29538
 This state for optimization and/or second-order correction.
 Total Energy, E(TD-HF/TD-DFT) =  -95.5031796232
 Copying the excited state density for this state as the 1-particle RhoCI density.

 Excited State   2:      Singlet-A'     7.4859 eV  165.62 nm  f=0.0363  <S**2>=0.000
       9 -> 10        -0.29341
       9 -> 11         0.62668

 Excited State   3:      Singlet-A"     7.7764 eV  159.44 nm  f=0.0067  <S**2>=0.000
       9 -> 12         0.68302

 Excited State   4:      Singlet-A'     8.8895 eV  139.47 nm  f=0.0779  <S**2>=0.000
       9 -> 13         0.66387
       9 -> 15        -0.17897

 Excited State   5:      Singlet-A"     9.1971 eV  134.81 nm  f=0.0001  <S**2>=0.000
       9 -> 14         0.66615
       9 -> 17        -0.17720

 Excited State   6:      Singlet-A'     9.5589 eV  129.70 nm  f=0.0130  <S**2>=0.000
       9 -> 13         0.15718
       9 -> 15         0.65523
       9 -> 18         0.11030

 Excited State   7:      Singlet-A"     9.6875 eV  127.98 nm  f=0.0170  <S**2>=0.000
       8 -> 10         0.68670

 Excited State   8:      Singlet-A'     9.8239 eV  126.21 nm  f=0.0281  <S**2>=0.000
       9 -> 16         0.62324
       9 -> 18        -0.22882
       9 -> 20        -0.14765

 Excited State   9:      Singlet-A"    10.3158 eV  120.19 nm  f=0.0010  <S**2>=0.000
       9 -> 12         0.10768
       9 -> 14         0.16572
       9 -> 17         0.65426

 Excited State  10:      Singlet-A'    10.7439 eV  115.40 nm  f=0.0469  <S**2>=0.000
       7 -> 10         0.63955
       9 -> 16         0.12238
       9 -> 18         0.14855
       9 -> 20         0.12629

 Excited State  11:      Singlet-A"    10.8852 eV  113.90 nm  f=0.0820  <S**2>=0.000
       5 -> 10         0.10115
       8 -> 11         0.66983
       8 -> 15        -0.10655

 Excited State  12:      Singlet-A'    11.1931 eV  110.77 nm  f=0.0064  <S**2>=0.000
       7 -> 10        -0.23323
       9 -> 15        -0.11248
       9 -> 16         0.21859
       9 -> 18         0.32817
       9 -> 20         0.43634
       9 -> 22        -0.12299
       9 -> 23         0.11321

 Excited State  13:      Singlet-A"    11.3028 eV  109.69 nm  f=0.0094  <S**2>=0.000
       9 -> 19         0.67385

 Excited State  14:      Singlet-A'    11.3559 eV  109.18 nm  f=0.0324  <S**2>=0.000
       6 -> 10        -0.26325
       8 -> 12        -0.18897
       9 -> 18         0.43401
       9 -> 20        -0.36581
       9 -> 22         0.12255

 Excited State  15:      Singlet-A'    11.8073 eV  105.01 nm  f=0.0574  <S**2>=0.000
       6 -> 10         0.47306
       7 -> 11        -0.39970
       8 -> 12        -0.24737

 Excited State  16:      Singlet-A'    11.8153 eV  104.94 nm  f=0.1353  <S**2>=0.000
       6 -> 10         0.12181
       7 -> 11        -0.13541
       8 -> 12         0.61004
       8 -> 14         0.12022
       9 -> 18         0.18043
       9 -> 20        -0.11975

 Excited State  17:      Singlet-A"    12.0310 eV  103.05 nm  f=0.0365  <S**2>=0.000
       8 -> 13         0.68048
       8 -> 29        -0.11471

 Excited State  18:      Singlet-A'    12.1519 eV  102.03 nm  f=0.0728  <S**2>=0.000
       6 -> 10         0.38137
       7 -> 11         0.51758
       9 -> 20        -0.11641
       9 -> 22         0.11095

 Excited State  19:      Singlet-A"    12.5269 eV   98.97 nm  f=0.0164  <S**2>=0.000
       7 -> 12         0.64136
       9 -> 21        -0.20390

 Excited State  20:      Singlet-A'    12.5362 eV   98.90 nm  f=0.1359  <S**2>=0.000
       8 -> 14         0.31289
       9 -> 18        -0.12023
       9 -> 20         0.21482
       9 -> 22         0.50543
       9 -> 24         0.16657

 Excited State  21:      Singlet-A'    12.7569 eV   97.19 nm  f=0.1307  <S**2>=0.000
       6 -> 11        -0.20008
       7 -> 13        -0.13892
       8 -> 14         0.49030
       8 -> 17        -0.19799
       9 -> 22        -0.31616

 Excited State  22:      Singlet-A"    12.8414 eV   96.55 nm  f=0.0043  <S**2>=0.000
       5 -> 10         0.17420
       5 -> 11         0.18227
       7 -> 12         0.15309
       8 -> 15         0.37724
       8 -> 16         0.10516
       8 -> 20        -0.10552
       9 -> 21         0.44180

 Excited State  23:      Singlet-A'    12.9864 eV   95.47 nm  f=0.0883  <S**2>=0.000
       6 -> 10        -0.10112
       6 -> 11         0.60173
       7 -> 15        -0.10638
       8 -> 14         0.17351
       9 -> 23        -0.12598
       9 -> 24        -0.15829

 Excited State  24:      Singlet-A"    13.0090 eV   95.31 nm  f=0.1182  <S**2>=0.000
       5 -> 11         0.11561
       8 -> 15         0.49374
       9 -> 21        -0.43728

 Excited State  25:      Singlet-A"    13.0432 eV   95.06 nm  f=0.0538  <S**2>=0.000
       5 -> 10         0.15089
       5 -> 11         0.11549
       7 -> 12        -0.13451
       8 -> 16         0.58729
       8 -> 18        -0.19391
       9 -> 21        -0.14983

 Excited State  26:      Singlet-A'    13.2876 eV   93.31 nm  f=0.0654  <S**2>=0.000
       6 -> 11        -0.10730
       7 -> 13         0.51825
       7 -> 15        -0.14252
       8 -> 17        -0.14466
       9 -> 23        -0.36120

 Excited State  27:      Singlet-A"    13.3810 eV   92.66 nm  f=0.0063  <S**2>=0.000
       5 -> 10         0.10535
       6 -> 12         0.29489
       7 -> 14         0.58886

 Excited State  28:      Singlet-A'    13.4124 eV   92.44 nm  f=0.1782  <S**2>=0.000
       7 -> 13         0.35832
       8 -> 17        -0.12252
       9 -> 20        -0.15040
       9 -> 23         0.51400
       9 -> 24        -0.14384

 Excited State  29:      Singlet-A"    13.4658 eV   92.07 nm  f=0.0292  <S**2>=0.000
       5 -> 10         0.52244
       5 -> 11         0.12832
       6 -> 12        -0.27349
       8 -> 11        -0.13383
       8 -> 15        -0.16746
       8 -> 16        -0.24539

 Excited State  30:      Singlet-A'    13.5929 eV   91.21 nm  f=0.0498  <S**2>=0.000
       6 -> 11         0.12531
       6 -> 13        -0.16280
       7 -> 15        -0.12004
       8 -> 17         0.17084
       9 -> 22        -0.22260
       9 -> 23         0.12657
       9 -> 24         0.52963
       9 -> 30         0.10323

 Excited State  31:      Singlet-A"    13.7535 eV   90.15 nm  f=0.1603  <S**2>=0.000
       5 -> 10         0.24685
       5 -> 11         0.11547
       6 -> 12         0.52209
       7 -> 14        -0.28788
       7 -> 17         0.13294
       8 -> 20         0.10697

 Excited State  32:      Singlet-A'    13.9142 eV   89.11 nm  f=0.0167  <S**2>=0.000
       6 -> 13        -0.27761
       7 -> 15        -0.23764
       8 -> 14         0.13318
       8 -> 17         0.47717
       9 -> 24        -0.24115

 Excited State  33:      Singlet-A'    14.2181 eV   87.20 nm  f=0.0494  <S**2>=0.000
       6 -> 11        -0.10693
       6 -> 13         0.45049
       7 -> 15        -0.44724
       7 -> 16        -0.17501

 Excited State  34:      Singlet-A'    14.3069 eV   86.66 nm  f=0.1677  <S**2>=0.000
       6 -> 11        -0.11412
       7 -> 16        -0.16117
       8 -> 17        -0.15650
       9 -> 25         0.56334
       9 -> 30        -0.14515
       9 -> 32        -0.13117

 Excited State  35:      Singlet-A"    14.3613 eV   86.33 nm  f=0.0002  <S**2>=0.000
       5 -> 13         0.15994
       6 -> 14         0.24541
       8 -> 16         0.17190
       8 -> 18         0.56489

 Excited State  36:      Singlet-A"    14.4376 eV   85.88 nm  f=0.0244  <S**2>=0.000
       5 -> 11        -0.14312
       6 -> 14         0.29377
       6 -> 17        -0.12640
       7 -> 17        -0.12819
       8 -> 18        -0.24508
       8 -> 20        -0.16293
       9 -> 26         0.38143
       9 -> 27         0.16889
       9 -> 28         0.19887
       9 -> 31         0.10060

 Excited State  37:      Singlet-A'    14.4944 eV   85.54 nm  f=0.0517  <S**2>=0.000
       7 -> 13        -0.17071
       7 -> 15        -0.28980
       7 -> 16         0.53067
       7 -> 18        -0.11989
       8 -> 14        -0.12802
       8 -> 17        -0.16875

 Excited State  38:      Singlet-A"    14.5261 eV   85.35 nm  f=0.0347  <S**2>=0.000
       5 -> 10        -0.16604
       5 -> 11         0.40888
       6 -> 12        -0.10155
       6 -> 14        -0.16120
       8 -> 20         0.23468
       8 -> 22        -0.10549
       9 -> 26         0.21578
       9 -> 27         0.16948
       9 -> 28         0.22831
       9 -> 31         0.13499

 Excited State  39:      Singlet-A"    14.5748 eV   85.07 nm  f=0.0239  <S**2>=0.000
       5 -> 10        -0.14058
       5 -> 11         0.28016
       6 -> 14         0.47524
       6 -> 17        -0.10112
       7 -> 17         0.19429
       8 -> 18        -0.10224
       9 -> 27        -0.14333
       9 -> 28        -0.15578

 Excited State  40:      Singlet-A'    14.6496 eV   84.63 nm  f=0.1296  <S**2>=0.000
       5 -> 12         0.19642
       6 -> 13         0.33054
       7 -> 13         0.10665
       7 -> 15         0.18701
       7 -> 16         0.26016
       8 -> 14         0.13784
       8 -> 17         0.25388
       8 -> 19        -0.14338
       9 -> 24         0.10515
       9 -> 25         0.24136
       9 -> 30        -0.12077

 Excited State  41:      Singlet-A"    14.8576 eV   83.45 nm  f=0.0366  <S**2>=0.000
       5 -> 10         0.13556
       5 -> 11        -0.29284
       6 -> 12        -0.12101
       7 -> 14         0.14890
       7 -> 17         0.48640
       8 -> 15         0.11352
       8 -> 20         0.23434

 Excited State  42:      Singlet-A'    15.1040 eV   82.09 nm  f=0.1260  <S**2>=0.000
       6 -> 15         0.12607
       6 -> 16        -0.15734
       7 -> 18        -0.10691
       7 -> 20        -0.10661
       8 -> 17         0.11176
       8 -> 19         0.59344

 Excited State  43:      Singlet-A"    15.1207 eV   82.00 nm  f=0.1428  <S**2>=0.000
       5 -> 11        -0.10991
       6 -> 14         0.20668
       7 -> 17        -0.32925
       7 -> 19         0.11097
       8 -> 20         0.36361
       9 -> 26        -0.28453
       9 -> 27         0.23798

 Excited State  44:      Singlet-A'    15.1746 eV   81.71 nm  f=0.0213  <S**2>=0.000
       5 -> 12        -0.26130
       6 -> 15         0.54444
       6 -> 16         0.10889
       7 -> 16        -0.11599
       7 -> 18        -0.18995
       7 -> 20        -0.10829

 Excited State  45:      Singlet-A"    15.1903 eV   81.62 nm  f=0.1255  <S**2>=0.000
       7 -> 17        -0.17474
       7 -> 19         0.11724
       8 -> 20         0.25485
       8 -> 22        -0.13467
       9 -> 26         0.40556
       9 -> 27        -0.15880
       9 -> 28        -0.35011
       9 -> 31        -0.13268

 Excited State  46:      Singlet-A'    15.2169 eV   81.48 nm  f=0.0719  <S**2>=0.000
       6 -> 16        -0.19172
       8 -> 19        -0.12855
       9 -> 24        -0.16918
       9 -> 25         0.10857
       9 -> 29         0.21958
       9 -> 30         0.53342
       9 -> 33        -0.11782

 Excited State  47:      Singlet-A"    15.3239 eV   80.91 nm  f=0.0174  <S**2>=0.000
       8 -> 20        -0.14285
       9 -> 14         0.10384
       9 -> 27         0.54502
       9 -> 28        -0.35568
       9 -> 31        -0.10771

 Excited State  48:      Singlet-A'    15.4223 eV   80.39 nm  f=0.1202  <S**2>=0.000
       5 -> 12         0.23120
       6 -> 15         0.29379
       6 -> 16        -0.30537
       7 -> 18         0.33382
       8 -> 19        -0.13765
       9 -> 29        -0.31023

 Excited State  49:      Singlet-A'    15.5943 eV   79.51 nm  f=0.2652  <S**2>=0.000
       5 -> 12        -0.22774
       6 -> 13         0.10401
       6 -> 16         0.26230
       6 -> 18        -0.14354
       7 -> 16         0.17159
       7 -> 18         0.46853
       8 -> 19         0.14587
       9 -> 30         0.17453

 Excited State  50:      Singlet-A'    15.6986 eV   78.98 nm  f=0.0136  <S**2>=0.000
       6 -> 15         0.11388
       6 -> 16        -0.25570
       7 -> 18         0.19427
       9 -> 29         0.52287
       9 -> 30        -0.21285

 Excited State  51:      Singlet-A"    15.7870 eV   78.54 nm  f=0.0050  <S**2>=0.000
       6 -> 14         0.12153
       6 -> 17         0.60521
       7 -> 19        -0.25622
       9 -> 26         0.11819

 Excited State  52:      Singlet-A"    15.9145 eV   77.91 nm  f=0.0176  <S**2>=0.000
       5 -> 13         0.48294
       5 -> 15        -0.19367
       6 -> 17        -0.14743
       7 -> 19        -0.27388
       8 -> 18        -0.13344
       8 -> 22        -0.13623
       8 -> 23         0.21217

 Excited State  53:      Singlet-A'    15.9177 eV   77.89 nm  f=0.0830  <S**2>=0.000
       5 -> 12        -0.33935
       5 -> 14         0.18279
       6 -> 16        -0.20515
       7 -> 15         0.17676
       7 -> 20         0.36509
       8 -> 21        -0.11470
       9 -> 29        -0.17496

 Excited State  54:      Singlet-A'    16.0444 eV   77.28 nm  f=0.0756  <S**2>=0.000
       5 -> 12         0.24361
       6 -> 15         0.14350
       6 -> 16         0.28235
       6 -> 18         0.19440
       7 -> 20         0.44471
       9 -> 32         0.14480

 Excited State  55:      Singlet-A"    16.0675 eV   77.16 nm  f=0.0336  <S**2>=0.000
       5 -> 13         0.33979
       5 -> 18         0.11222
       6 -> 17         0.14577
       7 -> 19         0.36024
       8 -> 22         0.37886
       8 -> 23         0.13203

 Excited State  56:      Singlet-A"    16.2102 eV   76.49 nm  f=0.2001  <S**2>=0.000
       5 -> 16        -0.12185
       6 -> 17        -0.11216
       7 -> 19        -0.35260
       8 -> 20         0.25517
       8 -> 22         0.43492
       8 -> 25         0.10204
       9 -> 31        -0.16200

 Excited State  57:      Singlet-A'    16.3337 eV   75.91 nm  f=0.1462  <S**2>=0.000
       5 -> 12        -0.16716
       5 -> 14        -0.40073
       5 -> 17         0.20030
       6 -> 20         0.16861
       7 -> 20         0.10567
       8 -> 21         0.41505

 Excited State  58:      Singlet-A"    16.4980 eV   75.15 nm  f=0.0521  <S**2>=0.000
       5 -> 13        -0.24877
       5 -> 15        -0.21025
       5 -> 16        -0.11739
       8 -> 23         0.47855
       8 -> 24        -0.26433
       9 -> 31        -0.12068

 Excited State  59:      Singlet-A'    16.5850 eV   74.76 nm  f=0.0196  <S**2>=0.000
       5 -> 12        -0.15404
       5 -> 14        -0.24708
       6 -> 18         0.48864
       7 -> 20        -0.15212
       8 -> 21        -0.24774
       9 -> 32         0.14691

 Excited State  60:      Singlet-A"    16.6650 eV   74.40 nm  f=0.0103  <S**2>=0.000
       5 -> 15        -0.20153
       6 -> 19         0.25805
       7 -> 19        -0.13580
       9 -> 28        -0.24244
       9 -> 31         0.52248

 Excited State  61:      Singlet-A'    16.6979 eV   74.25 nm  f=0.0211  <S**2>=0.000
       5 -> 14         0.31597
       6 -> 15        -0.10207
       6 -> 20        -0.13311
       7 -> 20        -0.13414
       8 -> 21         0.31499
       9 -> 25         0.12666
       9 -> 30         0.11794
       9 -> 32         0.36046
       9 -> 33         0.19797

 Excited State  62:      Singlet-A'    16.7729 eV   73.92 nm  f=0.0906  <S**2>=0.000
       5 -> 14        -0.16855
       6 -> 18        -0.32190
       6 -> 20         0.17560
       8 -> 21        -0.30727
       9 -> 25         0.13079
       9 -> 30         0.10461
       9 -> 32         0.33103
       9 -> 33         0.20408
       9 -> 34        -0.11401

 Excited State  63:      Singlet-A"    16.8512 eV   73.58 nm  f=0.0003  <S**2>=0.000
       5 -> 15        -0.39138
       5 -> 16        -0.24240
       8 -> 24         0.47482

 Excited State  64:      Singlet-A'    16.9166 eV   73.29 nm  f=0.0456  <S**2>=0.000
       5 -> 14         0.18274
       6 -> 16         0.14065
       6 -> 18         0.11141
       6 -> 20         0.48223
       7 -> 20        -0.17893
       7 -> 22        -0.24196
       9 -> 33        -0.16564
       9 -> 34        -0.11059

 Excited State  65:      Singlet-A"    16.9350 eV   73.21 nm  f=0.0853  <S**2>=0.000
       5 -> 15         0.26685
       5 -> 16         0.18900
       5 -> 18         0.16497
       8 -> 23         0.38440
       8 -> 24         0.38074

 Excited State  66:      Singlet-A"    17.0506 eV   72.72 nm  f=0.0022  <S**2>=0.000
       5 -> 16         0.17549
       6 -> 19         0.54853
       7 -> 21         0.11400
       9 -> 28         0.14272
       9 -> 31        -0.24529

 Excited State  67:      Singlet-A"    17.2996 eV   71.67 nm  f=0.0733  <S**2>=0.000
       5 -> 15        -0.26586
       5 -> 16         0.50414
       5 -> 18        -0.15641
       6 -> 19        -0.23429
       7 -> 21        -0.11623
       8 -> 22         0.13755

 Excited State  68:      Singlet-A'    17.4036 eV   71.24 nm  f=0.1001  <S**2>=0.000
       4 -> 10        -0.11541
       5 -> 17        -0.19996
       6 -> 18         0.10959
       6 -> 22        -0.10340
       7 -> 22         0.50179
       7 -> 25         0.11050
       9 -> 32         0.16496
       9 -> 33        -0.15522
       9 -> 34        -0.18575

 Excited State  69:      Singlet-A'    17.5135 eV   70.79 nm  f=0.0316  <S**2>=0.000
       5 -> 17        -0.14558
       6 -> 18         0.12944
       6 -> 20         0.10193
       7 -> 23         0.13362
       9 -> 32        -0.31470
       9 -> 33         0.49789
       9 -> 34        -0.18300

 Excited State  70:      Singlet-A"    17.5319 eV   70.72 nm  f=0.0291  <S**2>=0.000
       6 -> 19        -0.14155
       7 -> 21         0.64791

 Excited State  71:      Singlet-A'    17.6926 eV   70.08 nm  f=0.0301  <S**2>=0.000
       5 -> 14         0.12337
       5 -> 17         0.54266
       5 -> 19         0.10299
       7 -> 22         0.10024
       7 -> 24        -0.15951
       8 -> 21        -0.15535
       9 -> 34        -0.24873

 Excited State  72:      Singlet-A"    17.7573 eV   69.82 nm  f=0.0025  <S**2>=0.000
       5 -> 15        -0.11417
       5 -> 18         0.13906
       8 -> 22        -0.21395
       8 -> 25         0.59240

 Excited State  73:      Singlet-A'    17.7680 eV   69.78 nm  f=0.0005  <S**2>=0.000
       7 -> 20        -0.13522
       7 -> 23         0.55704
       7 -> 24        -0.28896
       9 -> 32         0.10134
       9 -> 36        -0.11046

 Excited State  74:      Singlet-A'    17.9145 eV   69.21 nm  f=0.0064  <S**2>=0.000
       6 -> 20         0.24850
       7 -> 22         0.16560
       7 -> 24        -0.25102
       9 -> 33         0.15198
       9 -> 34         0.51697

 Excited State  75:      Singlet-A'    18.0265 eV   68.78 nm  f=0.1235  <S**2>=0.000
       4 -> 10        -0.30094
       5 -> 17         0.17552
       6 -> 22        -0.21649
       7 -> 23         0.23403
       7 -> 24         0.42533
       8 -> 27         0.10499
       9 -> 34         0.14020

 Excited State  76:      Singlet-A"    18.0511 eV   68.69 nm  f=0.0004  <S**2>=0.000
       5 -> 15        -0.11917
       5 -> 16         0.17292
       5 -> 18         0.48107
       5 -> 20         0.10885
       6 -> 21         0.11491
       7 -> 21        -0.10668
       8 -> 23        -0.13642
       8 -> 25        -0.11581
       9 -> 35         0.11016
       9 -> 37         0.29377

 Excited State  77:      Singlet-A"    18.1578 eV   68.28 nm  f=0.0087  <S**2>=0.000
       5 -> 18        -0.32876
       6 -> 21         0.16421
       8 -> 25         0.13119
       9 -> 35         0.29140
       9 -> 37         0.45582

 Excited State  78:      Singlet-A'    18.2363 eV   67.99 nm  f=0.0012  <S**2>=0.000
       4 -> 10         0.48794
       5 -> 19         0.15591
       7 -> 22         0.10711
       7 -> 24         0.16175
       8 -> 26         0.35570
       9 -> 36         0.17892

 Excited State  79:      Singlet-A'    18.2833 eV   67.81 nm  f=0.0221  <S**2>=0.000
       4 -> 10        -0.26541
       5 -> 17        -0.11977
       6 -> 22         0.10343
       7 -> 22        -0.10680
       8 -> 26         0.53872
       8 -> 28        -0.18913
       9 -> 36        -0.15179

 Excited State  80:      Singlet-A'    18.3455 eV   67.58 nm  f=0.0022  <S**2>=0.000
       6 -> 20         0.23915
       6 -> 22         0.35258
       6 -> 23        -0.16934
       6 -> 24         0.15431
       7 -> 24         0.19080
       8 -> 27         0.15143
       9 -> 36        -0.35132

 The electronic state is 1-A'.
 Alpha  occ. eigenvalues --  -14.59335 -10.45265  -1.00513  -0.78503  -0.61163
 Alpha  occ. eigenvalues --   -0.55571  -0.51696  -0.47595  -0.34829
 Alpha virt. eigenvalues --    0.05598   0.10183   0.13345   0.15935   0.17385
 Alpha virt. eigenvalues --    0.19090   0.20654   0.21002   0.25044   0.26925
 Alpha virt. eigenvalues --    0.27114   0.31048   0.31636   0.33737   0.34962

 Mulliken charges:
               1
     1  C    0.390392
     2  N   -0.271790
     3  H   -0.008172
     4  H   -0.066779
     5  H   -0.066779
     6  H    0.011563
     7  H    0.011563
 Sum of Mulliken charges =  -0.00000

 Dipole moment (field-independent basis, Debye):
    X=              1.3209    Y=              0.4131    Z=             -0.0000  Tot=              1.3840
 Quadrupole moment (field-independent basis, Debye-Ang):
   XX=            -15.0567   YY=            -14.3725   ZZ=            -12.6553
   XY=             -2.1547   XZ=              0.0000   YZ=             -0.0000

 Normal termination of Gaussian 16 at Mon Mar 21 20:16:14 2022.
