 Gaussian 16, Revision C.01,
 Gaussian 16:  EM64L-G16RevC.01  3-Jul-2019

 -------------------------------------------------------------------
 #P TD(Nstates=10000) m11/Gen SCF(maxcycles=100) Int(Grid=ultrafine)
 -------------------------------------------------------------------

 ---------------------
 xGDB7_00001_tier4.com
 ---------------------
 Symbolic Z-matrix:
 Charge =  0 Multiplicity = 1

                         Standard orientation:
 ---------------------------------------------------------------------
 Center     Atomic      Atomic             Coordinates (Angstroms)
 Number     Number       Type             X           Y           Z
 ---------------------------------------------------------------------
      1          6           0        0.000000    1.267731   -0.259082
      2          6           0       -0.000000   -0.000000    0.585552
      3          6           0       -0.000000   -1.267731   -0.259082
      4          1           0        0.000000    2.164308    0.363087
      5          1           0       -0.881453    1.307675   -0.903652
      6          1           0        0.881453    1.307675   -0.903652
      7          1           0       -0.874532    0.000000    1.242055
      8          1           0        0.874532   -0.000000    1.242055
      9          1           0       -0.881453   -1.307675   -0.903652
     10          1           0       -0.000000   -2.164308    0.363087
     11          1           0        0.881453   -1.307675   -0.903652
 ---------------------------------------------------------------------

 SCF Done:  E(RM11) =  -118.958509936     A.U. after   13 cycles

 Excitation energies and oscillator strengths:

 Excited State   1:      Singlet-B1     8.8048 eV  140.81 nm  f=0.0007  <S**2>=0.000
      13 -> 14         0.66667
      13 -> 16         0.15168
 This state for optimization and/or second-order correction.
 Total Energy, E(TD-HF/TD-DFT) =  -118.634937797
 Copying the excited state density for this state as the 1-particle RhoCI density.

 Excited State   2:      Singlet-B2     9.0915 eV  136.37 nm  f=0.0312  <S**2>=0.000
      11 -> 14         0.68179

 Excited State   3:      Singlet-A1     9.1572 eV  135.40 nm  f=0.0039  <S**2>=0.000
       9 -> 15        -0.10476
      12 -> 14         0.66963
      12 -> 16         0.11614

 Excited State   4:      Singlet-A2     9.5778 eV  129.45 nm  f=0.0000  <S**2>=0.000
      10 -> 14        -0.29409
      13 -> 15         0.62460

 Excited State   5:      Singlet-B1     9.8122 eV  126.36 nm  f=0.1233  <S**2>=0.000
      10 -> 15         0.10683
      13 -> 14        -0.13567
      13 -> 16         0.66419

 Excited State   6:      Singlet-B2     9.8134 eV  126.34 nm  f=0.0023  <S**2>=0.000
       9 -> 14        -0.26199
      11 -> 16         0.13424
      12 -> 15         0.62698

 Excited State   7:      Singlet-A1     9.9747 eV  124.30 nm  f=0.0249  <S**2>=0.000
       8 -> 14         0.14289
      11 -> 15         0.65240
      12 -> 16         0.16859

 Excited State   8:      Singlet-B2    10.1415 eV  122.25 nm  f=0.0266  <S**2>=0.000
      11 -> 16         0.67465
      12 -> 15        -0.13393

 Excited State   9:      Singlet-A1    10.2002 eV  121.55 nm  f=0.1053  <S**2>=0.000
      11 -> 15        -0.15222
      12 -> 14        -0.12138
      12 -> 16         0.64877
      13 -> 17        -0.11756

 Excited State  10:      Singlet-A2    10.5506 eV  117.51 nm  f=0.0000  <S**2>=0.000
      10 -> 14         0.56950
      10 -> 18         0.11431
      11 -> 17        -0.19337
      13 -> 15         0.28697

 Excited State  11:      Singlet-A1    10.7053 eV  115.82 nm  f=0.2320  <S**2>=0.000
      12 -> 16         0.10157
      13 -> 17         0.66309
      13 -> 19         0.12116

 Excited State  12:      Singlet-B1    10.7963 eV  114.84 nm  f=0.1140  <S**2>=0.000
      10 -> 15         0.14950
      12 -> 17         0.59182
      12 -> 19         0.10722
      13 -> 18         0.29012

 Excited State  13:      Singlet-A2    10.8448 eV  114.33 nm  f=0.0000  <S**2>=0.000
      10 -> 14         0.16452
      11 -> 17         0.65999

 Excited State  14:      Singlet-B1    10.8515 eV  114.26 nm  f=0.0116  <S**2>=0.000
      10 -> 15         0.25381
      12 -> 17        -0.31595
      13 -> 18         0.53417
      13 -> 21        -0.13896

 Excited State  15:      Singlet-B2    11.1572 eV  111.12 nm  f=0.1242  <S**2>=0.000
       8 -> 15         0.13480
       9 -> 14         0.53969
       9 -> 18         0.10760
      11 -> 18        -0.29900
      12 -> 15         0.23889

 Excited State  16:      Singlet-A1    11.1758 eV  110.94 nm  f=0.0091  <S**2>=0.000
       9 -> 15         0.25991
      12 -> 18         0.61434
      12 -> 21        -0.11209

 Excited State  17:      Singlet-B2    11.2380 eV  110.33 nm  f=0.0625  <S**2>=0.000
       9 -> 14         0.30579
       9 -> 16         0.12189
      11 -> 18         0.57189

 Excited State  18:      Singlet-A2    11.3516 eV  109.22 nm  f=0.0000  <S**2>=0.000
      10 -> 14         0.14240
      10 -> 16         0.56041
      13 -> 20         0.34439

 Excited State  19:      Singlet-B1    11.3780 eV  108.97 nm  f=0.0209  <S**2>=0.000
       7 -> 14         0.11305
      10 -> 15         0.53760
      13 -> 14         0.12572
      13 -> 16        -0.10370
      13 -> 18        -0.19574
      13 -> 21         0.31852

 Excited State  20:      Singlet-A2    11.5901 eV  106.97 nm  f=0.0000  <S**2>=0.000
      11 -> 19         0.67548
      11 -> 41        -0.10569

 Excited State  21:      Singlet-B1    11.6083 eV  106.81 nm  f=0.0153  <S**2>=0.000
      12 -> 17        -0.11789
      12 -> 19         0.65908
      12 -> 41        -0.10739
      13 -> 21        -0.10581

 Excited State  22:      Singlet-A1    11.6570 eV  106.36 nm  f=0.0158  <S**2>=0.000
       9 -> 15        -0.13668
      12 -> 21        -0.23359
      13 -> 19         0.60694

 Excited State  23:      Singlet-A1    11.7757 eV  105.29 nm  f=0.0000  <S**2>=0.000
       8 -> 14         0.22553
       9 -> 15         0.45348
      11 -> 20         0.18300
      12 -> 14         0.10814
      12 -> 18        -0.18428
      12 -> 21         0.24112
      12 -> 24         0.10776
      13 -> 19         0.23047

 Excited State  24:      Singlet-B2    11.7999 eV  105.07 nm  f=0.0525  <S**2>=0.000
       9 -> 16         0.48752
      10 -> 17        -0.16969
      11 -> 18        -0.12946
      12 -> 20         0.38821
      13 -> 22         0.11619

 Excited State  25:      Singlet-B1    11.8601 eV  104.54 nm  f=0.0994  <S**2>=0.000
       7 -> 14        -0.11672
      10 -> 15        -0.21622
      13 -> 18         0.22052
      13 -> 21         0.55043
      13 -> 24         0.12540

 Excited State  26:      Singlet-B2    11.9236 eV  103.98 nm  f=0.1576  <S**2>=0.000
       8 -> 15        -0.13147
      10 -> 17         0.11873
      11 -> 21         0.61716
      11 -> 24         0.18245

 Excited State  27:      Singlet-A2    12.0905 eV  102.55 nm  f=0.0000  <S**2>=0.000
      10 -> 16        -0.31034
      10 -> 18        -0.31598
      12 -> 23         0.12765
      13 -> 20         0.47729
      13 -> 25        -0.10812

 Excited State  28:      Singlet-B2    12.1235 eV  102.27 nm  f=0.2036  <S**2>=0.000
       9 -> 16         0.25935
      10 -> 17         0.49436
      10 -> 19        -0.13915
      11 -> 18        -0.10208
      11 -> 21        -0.10518
      13 -> 22        -0.30419
      13 -> 23        -0.10174

 Excited State  29:      Singlet-A1    12.1471 eV  102.07 nm  f=0.0980  <S**2>=0.000
       8 -> 14        -0.20404
       8 -> 16        -0.20465
       9 -> 15        -0.14342
      11 -> 20         0.58421

 Excited State  30:      Singlet-A2    12.1475 eV  102.07 nm  f=0.0000  <S**2>=0.000
       9 -> 17         0.47800
      12 -> 22        -0.47042

 Excited State  31:      Singlet-A1    12.2145 eV  101.51 nm  f=0.0340  <S**2>=0.000
       8 -> 14        -0.31061
      11 -> 20        -0.17182
      12 -> 18         0.17628
      12 -> 21         0.48409
      12 -> 24         0.19185

 Excited State  32:      Singlet-A2    12.3601 eV  100.31 nm  f=0.0000  <S**2>=0.000
       7 -> 15        -0.20236
      10 -> 16        -0.15010
      10 -> 18         0.42935
      10 -> 21         0.11290
      10 -> 24         0.12753
      13 -> 20         0.25456
      13 -> 25         0.35030

 Excited State  33:      Singlet-B2    12.3681 eV  100.25 nm  f=0.0082  <S**2>=0.000
       9 -> 16        -0.12190
      10 -> 19         0.27572
      12 -> 20         0.21788
      13 -> 22        -0.32663
      13 -> 23         0.46893

 Excited State  34:      Singlet-B1    12.3930 eV  100.04 nm  f=0.0033  <S**2>=0.000
       7 -> 14        -0.13955
       7 -> 16        -0.15810
       8 -> 17         0.17197
      10 -> 20         0.23337
      11 -> 22         0.39968
      13 -> 24         0.40326

 Excited State  35:      Singlet-B2    12.4514 eV   99.57 nm  f=0.1372  <S**2>=0.000
       9 -> 16        -0.28294
       9 -> 18        -0.26952
      10 -> 17         0.14747
      10 -> 19        -0.13234
      12 -> 20         0.43205
      12 -> 25        -0.17967
      13 -> 22         0.10578
      13 -> 23        -0.19259

 Excited State  36:      Singlet-A1    12.5041 eV   99.16 nm  f=0.0048  <S**2>=0.000
       8 -> 14         0.45365
       8 -> 18         0.14537
       9 -> 15        -0.35302
      11 -> 25        -0.10734
      12 -> 18         0.11524
      12 -> 21         0.24233

 Excited State  37:      Singlet-B1    12.5104 eV   99.11 nm  f=0.0300  <S**2>=0.000
       7 -> 16         0.12100
       8 -> 17         0.16551
      10 -> 20        -0.18218
      11 -> 22         0.48984
      13 -> 24        -0.37082

 Excited State  38:      Singlet-A2    12.5387 eV   98.88 nm  f=0.0000  <S**2>=0.000
       9 -> 19         0.25640
      10 -> 16         0.12817
      10 -> 21         0.12693
      12 -> 22        -0.18890
      12 -> 23         0.53915
      13 -> 20        -0.15587

 Excited State  39:      Singlet-B1    12.5797 eV   98.56 nm  f=0.0127  <S**2>=0.000
       8 -> 19        -0.14981
      11 -> 23         0.65928

 Excited State  40:      Singlet-B2    12.8113 eV   96.78 nm  f=0.0110  <S**2>=0.000
       8 -> 15        -0.15394
       9 -> 16        -0.21191
       9 -> 18         0.28767
      10 -> 17        -0.16710
      11 -> 21        -0.13700
      12 -> 20         0.21692
      12 -> 25         0.32518
      13 -> 22        -0.21717
      13 -> 23        -0.23612

 Excited State  41:      Singlet-A2    12.9153 eV   96.00 nm  f=0.0000  <S**2>=0.000
      10 -> 16         0.10085
      10 -> 18        -0.23477
      10 -> 21         0.48969
      10 -> 24         0.13536
      12 -> 22         0.12931
      12 -> 23        -0.18686
      13 -> 20        -0.10080
      13 -> 25         0.22514
      13 -> 27        -0.18229

 Excited State  42:      Singlet-A1    12.9238 eV   95.93 nm  f=0.0013  <S**2>=0.000
       8 -> 14         0.14077
       8 -> 16        -0.16487
       9 -> 20         0.18544
      11 -> 25         0.26653
      12 -> 21        -0.17620
      12 -> 24         0.48805

 Excited State  43:      Singlet-B2    12.9331 eV   95.87 nm  f=0.0358  <S**2>=0.000
       9 -> 16        -0.10126
       9 -> 18         0.18249
      10 -> 17         0.33945
      11 -> 24         0.20594
      12 -> 25         0.20508
      13 -> 22         0.40960
      13 -> 23         0.22803

 Excited State  44:      Singlet-B2    12.9667 eV   95.62 nm  f=0.1075  <S**2>=0.000
       8 -> 20        -0.12785
       9 -> 18        -0.15253
      11 -> 21        -0.16239
      11 -> 24         0.59157
      12 -> 25        -0.15731
      13 -> 22        -0.12773

 Excited State  45:      Singlet-B1    13.0252 eV   95.19 nm  f=0.0839  <S**2>=0.000
       7 -> 14         0.62125
      10 -> 15        -0.15811
      13 -> 24         0.21455

 Excited State  46:      Singlet-A2    13.2006 eV   93.92 nm  f=0.0000  <S**2>=0.000
       9 -> 17         0.40372
      10 -> 21        -0.17184
      10 -> 24        -0.15511
      12 -> 22         0.36981
      12 -> 23         0.16606
      13 -> 25         0.23017
      13 -> 30         0.12015

 Excited State  47:      Singlet-A1    13.2322 eV   93.70 nm  f=0.0008  <S**2>=0.000
       7 -> 17        -0.13413
       8 -> 14         0.10138
       8 -> 16        -0.29338
       9 -> 15        -0.11958
      10 -> 22        -0.22730
      11 -> 25         0.37959
      12 -> 24        -0.25493
      13 -> 26         0.25921

 Excited State  48:      Singlet-B2    13.2445 eV   93.61 nm  f=0.0242  <S**2>=0.000
       8 -> 15        -0.22535
       9 -> 18        -0.30820
       9 -> 21         0.34927
      12 -> 20        -0.11146
      12 -> 25         0.21554
      12 -> 27        -0.31730

 Excited State  49:      Singlet-A2    13.2823 eV   93.35 nm  f=0.0000  <S**2>=0.000
       9 -> 17        -0.24563
       9 -> 19        -0.14292
      10 -> 18        -0.16400
      10 -> 21        -0.17820
      10 -> 24        -0.22698
      12 -> 22        -0.25335
      13 -> 25         0.31016
      13 -> 27        -0.21822
      13 -> 30         0.19407

 Excited State  50:      Singlet-B2    13.3086 eV   93.16 nm  f=0.0561  <S**2>=0.000
       8 -> 15         0.48778
      10 -> 19         0.31853
      12 -> 25         0.20622
      13 -> 23        -0.20951

 Excited State  51:      Singlet-B2    13.4138 eV   92.43 nm  f=0.0647  <S**2>=0.000
       8 -> 15        -0.29379
       9 -> 21        -0.17897
      10 -> 17         0.10273
      10 -> 19         0.46673
      12 -> 25        -0.19180
      13 -> 23        -0.21604

 Excited State  52:      Singlet-A1    13.4207 eV   92.38 nm  f=0.0004  <S**2>=0.000
       8 -> 16         0.50490
      10 -> 22        -0.18898
      11 -> 20         0.16770
      11 -> 25         0.22686
      12 -> 24         0.15314
      13 -> 26         0.20970

 Excited State  53:      Singlet-B1    13.5260 eV   91.66 nm  f=0.0000  <S**2>=0.000
       7 -> 14        -0.12447
       7 -> 16         0.25276
       7 -> 21        -0.10311
       9 -> 22        -0.15478
       9 -> 23         0.10076
      10 -> 20        -0.27105
      12 -> 26         0.26924
      12 -> 29         0.13277
      13 -> 24         0.21881
      13 -> 28         0.29412
      13 -> 31         0.11947

 Excited State  54:      Singlet-B1    13.5387 eV   91.58 nm  f=0.0175  <S**2>=0.000
       7 -> 16        -0.24044
       7 -> 18         0.13935
       8 -> 17        -0.12284
       9 -> 22        -0.22610
      10 -> 20         0.29846
      12 -> 26         0.37503
      13 -> 21         0.12008
      13 -> 24        -0.19698
      13 -> 28         0.10503

 Excited State  55:      Singlet-A2    13.6164 eV   91.06 nm  f=0.0000  <S**2>=0.000
       7 -> 15        -0.15639
       8 -> 22         0.10165
       8 -> 23        -0.10858
       9 -> 19         0.34775
      10 -> 24        -0.12318
      11 -> 26         0.32404
      12 -> 23        -0.21280
      13 -> 25        -0.14926
      13 -> 27        -0.28806
      13 -> 30         0.10629

 Excited State  56:      Singlet-A2    13.6635 eV   90.74 nm  f=0.0000  <S**2>=0.000
       7 -> 15         0.25753
       9 -> 19         0.30111
      10 -> 18        -0.16501
      10 -> 21        -0.13445
      11 -> 26         0.16623
      11 -> 29         0.10770
      12 -> 23        -0.12587
      13 -> 25         0.29932
      13 -> 27         0.31390

 Excited State  57:      Singlet-A1    13.7119 eV   90.42 nm  f=0.0322  <S**2>=0.000
       8 -> 14         0.11731
       8 -> 18        -0.24723
       8 -> 21         0.13280
      11 -> 25        -0.11990
      11 -> 27         0.49526
      11 -> 30        -0.12819
      12 -> 28        -0.14774
      13 -> 29        -0.20997

 Excited State  58:      Singlet-B1    13.7604 eV   90.10 nm  f=0.0919  <S**2>=0.000
       7 -> 18         0.13347
       8 -> 17         0.22480
       9 -> 22         0.23930
       9 -> 23         0.15690
      10 -> 20         0.14309
      11 -> 22        -0.10614
      12 -> 26        -0.19983
      12 -> 29         0.31232
      13 -> 28         0.34204

 Excited State  59:      Singlet-A1    13.8638 eV   89.43 nm  f=0.3311  <S**2>=0.000
       7 -> 19        -0.10175
       8 -> 16        -0.12851
       8 -> 21         0.12523
      10 -> 23         0.26109
      11 -> 25        -0.14683
      11 -> 27         0.12125
      12 -> 24         0.11243
      12 -> 31         0.11322
      13 -> 26         0.35364
      13 -> 29         0.37945

 Excited State  60:      Singlet-A2    13.8794 eV   89.33 nm  f=0.0000  <S**2>=0.000
       7 -> 15        -0.17047
       9 -> 19        -0.34871
      11 -> 26         0.48718
      11 -> 29         0.11688
      12 -> 23         0.14794
      13 -> 27         0.15633

 Excited State  61:      Singlet-A2    13.9483 eV   88.89 nm  f=0.0000  <S**2>=0.000
       7 -> 15         0.53977
       9 -> 19        -0.12061
      10 -> 18         0.20772
      11 -> 26         0.19188
      13 -> 27        -0.24218

 Excited State  62:      Singlet-B2    14.0048 eV   88.53 nm  f=0.0412  <S**2>=0.000
       9 -> 21        -0.34243
       9 -> 24        -0.23604
      11 -> 28         0.39531
      11 -> 31         0.17673
      12 -> 25         0.16014
      12 -> 27        -0.12646
      12 -> 30         0.18459

 Excited State  63:      Singlet-B1    14.0167 eV   88.45 nm  f=0.0226  <S**2>=0.000
       7 -> 16         0.52435
      10 -> 20         0.36764
      10 -> 25        -0.15772

 Excited State  64:      Singlet-A1    14.0468 eV   88.27 nm  f=0.0064  <S**2>=0.000
       8 -> 16        -0.14741
       9 -> 20        -0.15014
      10 -> 22        -0.15407
      11 -> 25        -0.21128
      12 -> 24         0.17124
      12 -> 28         0.37932
      12 -> 31         0.10265
      13 -> 26         0.14653
      13 -> 29        -0.34245

 Excited State  65:      Singlet-A2    14.0847 eV   88.03 nm  f=0.0000  <S**2>=0.000
      10 -> 21         0.10584
      10 -> 24        -0.15732
      11 -> 26        -0.13789
      11 -> 29         0.62193

 Excited State  66:      Singlet-B2    14.1080 eV   87.88 nm  f=0.0323  <S**2>=0.000
       9 -> 18        -0.33392
      12 -> 25         0.25772
      12 -> 27         0.49897

 Excited State  67:      Singlet-A1    14.1469 eV   87.64 nm  f=0.0008  <S**2>=0.000
      11 -> 25         0.12840
      11 -> 27         0.27535
      12 -> 24        -0.12559
      12 -> 28         0.47002
      12 -> 31         0.12160
      13 -> 26        -0.25020
      13 -> 29         0.12645

 Excited State  68:      Singlet-B1    14.1723 eV   87.48 nm  f=0.0524  <S**2>=0.000
       8 -> 17         0.52195
      11 -> 22        -0.17429
      12 -> 26         0.34289
      13 -> 28        -0.16616

 Excited State  69:      Singlet-A1    14.3209 eV   86.58 nm  f=0.0094  <S**2>=0.000
       7 -> 17         0.19496
       8 -> 16         0.10058
       8 -> 18         0.17006
       9 -> 20         0.34881
      10 -> 22         0.28206
      12 -> 24        -0.11627
      12 -> 28         0.10229
      13 -> 26         0.30124
      13 -> 29        -0.22836

 Excited State  70:      Singlet-A2    14.3503 eV   86.40 nm  f=0.0000  <S**2>=0.000
       7 -> 20        -0.12372
      10 -> 21        -0.26434
      10 -> 24         0.49061
      11 -> 29         0.18585
      13 -> 20        -0.10841
      13 -> 27        -0.24635
      13 -> 34         0.10529

 Excited State  71:      Singlet-B1    14.3505 eV   86.40 nm  f=0.1863  <S**2>=0.000
       8 -> 17        -0.14549
      10 -> 25        -0.13598
      12 -> 29         0.47182
      13 -> 28        -0.41228

 Excited State  72:      Singlet-B2    14.4522 eV   85.79 nm  f=0.2342  <S**2>=0.000
       9 -> 18         0.13016
       9 -> 21         0.23993
       9 -> 24         0.19808
      10 -> 19         0.10532
      11 -> 28         0.52028
      12 -> 25        -0.18825
      12 -> 27         0.15037

 Excited State  73:      Singlet-A1    14.4839 eV   85.60 nm  f=0.0162  <S**2>=0.000
       7 -> 17        -0.11393
       7 -> 19        -0.15280
      10 -> 23         0.55183
      11 -> 25         0.11044
      13 -> 26        -0.20207
      13 -> 29        -0.24862

 Excited State  74:      Singlet-B1    14.5807 eV   85.03 nm  f=0.0058  <S**2>=0.000
       7 -> 18         0.19455
       8 -> 17        -0.10715
       8 -> 19        -0.27941
       9 -> 23         0.33785
      10 -> 20        -0.10972
      10 -> 25        -0.27796
      10 -> 27        -0.11693
      12 -> 26        -0.14901
      12 -> 29        -0.27361

 Excited State  75:      Singlet-A1    14.6564 eV   84.59 nm  f=0.0265  <S**2>=0.000
       7 -> 17        -0.18794
       8 -> 21        -0.10507
       9 -> 20        -0.37807
      10 -> 22         0.47868
      11 -> 25         0.14364

 Excited State  76:      Singlet-A1    14.7375 eV   84.13 nm  f=0.0069  <S**2>=0.000
       8 -> 18         0.47056
       9 -> 20        -0.17739
       9 -> 25        -0.26156
      10 -> 22        -0.13608
      11 -> 27         0.25440
      12 -> 28        -0.14306

 Excited State  77:      Singlet-B1    14.7832 eV   83.87 nm  f=0.2023  <S**2>=0.000
       7 -> 18        -0.12443
       8 -> 17        -0.15246
       8 -> 19        -0.15016
       9 -> 22         0.41384
       9 -> 23         0.20233
      10 -> 20         0.11086
      10 -> 25         0.32376
      12 -> 26         0.19527
      12 -> 29        -0.11117

 Excited State  78:      Singlet-B2    14.8281 eV   83.61 nm  f=0.0807  <S**2>=0.000
       8 -> 20        -0.21540
       9 -> 21        -0.31136
       9 -> 24         0.48646
      12 -> 27        -0.19556
      12 -> 30        -0.12234
      12 -> 34         0.10982

 Excited State  79:      Singlet-B1    14.8540 eV   83.47 nm  f=0.0000  <S**2>=0.000
       7 -> 21         0.19638
       8 -> 19         0.17853
       9 -> 22         0.25496
      10 -> 25        -0.26928
      10 -> 27         0.23644
      12 -> 26         0.14922
      13 -> 31         0.37413

 Excited State  80:      Singlet-B1    14.9712 eV   82.82 nm  f=0.3602  <S**2>=0.000
       7 -> 18        -0.26580
       8 -> 19        -0.35415

 The electronic state is 1-A1.
 Alpha  occ. eigenvalues --  -10.42938 -10.42210 -10.42206  -0.91492  -0.80739
 Alpha  occ. eigenvalues --   -0.70497  -0.57467  -0.55139  -0.50869  -0.48893
 Alpha  occ. eigenvalues --   -0.44059  -0.43929  -0.42953
 Alpha virt. eigenvalues --    0.05723   0.07722   0.08815   0.13441   0.15019
 Alpha virt. eigenvalues --    0.16190   0.17637   0.17662   0.18767   0.21481
 Alpha virt. eigenvalues --    0.21859   0.22999   0.23935   0.25256   0.25944

 Mulliken charges:
               1
     1  C    0.271518
     2  C   -0.492662
     3  C    0.271518
     4  H    0.011006
     5  H    0.001402
     6  H    0.001402
     7  H   -0.038996
     8  H   -0.038996
     9  H    0.001402
    10  H    0.011006
    11  H    0.001402
 Sum of Mulliken charges =   0.00000

 Dipole moment (field-independent basis, Debye):
    X=             -0.0000    Y=             -0.0000    Z=              0.0849  Tot=              0.0849
 Quadrupole moment (field-independent basis, Debye-Ang):
   XX=            -21.4285   YY=            -22.1897   ZZ=            -21.8953
   XY=             -0.0000   XZ=              0.0000   YZ=             -0.0000

 Normal termination of Gaussian 16 at Mon Mar 21 04:09:30 2022.
