 Gaussian 16, Revision C.01,
 Gaussian 16:  EM64L-G16RevC.01  3-Jul-2019

 -------------------------------------------------------------------
 #P TD(Nstates=10000) m11/Gen SCF(maxcycles=100) Int(Grid=ultrafine)
 -------------------------------------------------------------------

 ---------------------
 xGDB7_00001_tier4.com
 ---------------------
 Symbolic Z-matrix:
 Charge =  0 Multiplicity = 1

                         Standard orientation:
 ---------------------------------------------------------------------
 Center     Atomic      Atomic             Coordinates (Angstroms)
 Number     Number       Type             X           Y           Z
 ---------------------------------------------------------------------
      1          8           0        0.000000   -0.000000    0.116015
      2          1           0        0.000000    0.761895   -0.464058
      3          1           0       -0.000000   -0.761895   -0.464058
 ---------------------------------------------------------------------

 SCF Done:  E(RM11) =  -76.3476217679     A.U. after   12 cycles

 Excitation energies and oscillator strengths:

 Excited State   1:      Singlet-B1     7.7103 eV  160.80 nm  f=0.0448  <S**2>=0.000
       5 ->  6         0.68326
       5 -> 13        -0.11806
       5 -> 16        -0.10166
 This state for optimization and/or second-order correction.
 Total Energy, E(TD-HF/TD-DFT) =  -76.0642748551
 Copying the excited state density for this state as the 1-particle RhoCI density.

 Excited State   2:      Singlet-A2     8.9861 eV  137.97 nm  f=0.0000  <S**2>=0.000
       5 ->  7         0.67139
       5 -> 10         0.17563
       5 -> 17        -0.12387

 Excited State   3:      Singlet-A1     9.7630 eV  126.99 nm  f=0.0781  <S**2>=0.000
       4 ->  6         0.67501
       4 -> 16        -0.11245

 Excited State   4:      Singlet-B1    10.5031 eV  118.05 nm  f=0.0044  <S**2>=0.000
       5 ->  8         0.68372
       5 -> 13         0.12745

 Excited State   5:      Singlet-B2    11.0176 eV  112.53 nm  f=0.0046  <S**2>=0.000
       4 ->  7         0.68657
       4 -> 10         0.10158
       4 -> 17        -0.10414

 Excited State   6:      Singlet-A1    11.4381 eV  108.40 nm  f=0.0014  <S**2>=0.000
       4 ->  8        -0.21267
       5 ->  9         0.65476

 Excited State   7:      Singlet-A2    11.5485 eV  107.36 nm  f=0.0000  <S**2>=0.000
       5 ->  7        -0.19383
       5 -> 10         0.66264
       5 -> 17        -0.11904

 Excited State   8:      Singlet-B1    12.5104 eV   99.11 nm  f=0.0091  <S**2>=0.000
       4 ->  9        -0.42105
       5 -> 11         0.55599

 Excited State   9:      Singlet-B1    12.5548 eV   98.75 nm  f=0.0318  <S**2>=0.000
       4 ->  9         0.54335
       4 -> 14        -0.10901
       5 -> 11         0.41886

 Excited State  10:      Singlet-A1    13.2045 eV   93.90 nm  f=0.0399  <S**2>=0.000
       3 ->  7         0.16978
       4 ->  6        -0.12193
       4 ->  8         0.63276
       4 -> 11        -0.10070
       5 ->  9         0.18539

 Excited State  11:      Singlet-B2    13.3852 eV   92.63 nm  f=0.0251  <S**2>=0.000
       3 ->  6         0.63152
       4 -> 10        -0.20933
       5 -> 12        -0.18686

 Excited State  12:      Singlet-B2    13.7174 eV   90.38 nm  f=0.0014  <S**2>=0.000
       4 ->  7         0.11000
       4 -> 10        -0.48105
       5 -> 12         0.49020

 Excited State  13:      Singlet-B1    13.9970 eV   88.58 nm  f=0.0601  <S**2>=0.000
       5 ->  6         0.13442
       5 ->  8        -0.11912
       5 -> 13         0.67390

 Excited State  14:      Singlet-B2    14.4184 eV   85.99 nm  f=0.3923  <S**2>=0.000
       3 ->  6         0.27966
       4 -> 10         0.43799
       5 -> 12         0.46240

 Excited State  15:      Singlet-A1    14.5796 eV   85.04 nm  f=0.0275  <S**2>=0.000
       3 ->  7         0.18127
       4 -> 11         0.63714
       5 -> 14        -0.16766

 Excited State  16:      Singlet-A1    14.9457 eV   82.96 nm  f=0.0659  <S**2>=0.000
       3 ->  7        -0.23920
       4 -> 11         0.20774
       4 -> 13         0.11198
       5 ->  9         0.14202
       5 -> 14         0.58633

 Excited State  17:      Singlet-A2    15.5648 eV   79.66 nm  f=0.0000  <S**2>=0.000
       4 -> 12         0.69767

 Excited State  18:      Singlet-A1    15.6001 eV   79.48 nm  f=0.0035  <S**2>=0.000
       3 ->  7         0.45530
       4 ->  8        -0.16659
       4 -> 11        -0.15063
       4 -> 13         0.43906
       5 -> 14         0.17038

 Excited State  19:      Singlet-B1    16.2409 eV   76.34 nm  f=0.1652  <S**2>=0.000
       5 -> 16         0.69153

 Excited State  20:      Singlet-A2    16.4009 eV   75.60 nm  f=0.0000  <S**2>=0.000
       3 ->  9         0.61013
       3 -> 14        -0.10503
       5 -> 15        -0.16406
       5 -> 17        -0.27909

 Excited State  21:      Singlet-B2    16.5252 eV   75.03 nm  f=0.0420  <S**2>=0.000
       3 ->  8         0.69489
       3 -> 13         0.10591

 Excited State  22:      Singlet-A2    16.5317 eV   75.00 nm  f=0.0000  <S**2>=0.000
       3 ->  9         0.32970
       5 -> 15         0.37979
       5 -> 17         0.46765

 Excited State  23:      Singlet-A1    16.8103 eV   73.75 nm  f=0.0405  <S**2>=0.000
       3 ->  7        -0.40111
       3 -> 10         0.25438
       4 -> 13         0.44758
       5 -> 14        -0.20104

 Excited State  24:      Singlet-B1    16.9217 eV   73.27 nm  f=0.0941  <S**2>=0.000
       4 ->  9         0.11015
       4 -> 14         0.68947

 Excited State  25:      Singlet-A2    17.2686 eV   71.80 nm  f=0.0000  <S**2>=0.000
       5 -> 15         0.56733
       5 -> 17        -0.40408

 Excited State  26:      Singlet-A1    18.2421 eV   67.97 nm  f=0.2037  <S**2>=0.000
       3 -> 10         0.50626
       4 -> 13        -0.11483
       4 -> 16        -0.45264
       5 -> 14         0.10812

 Excited State  27:      Singlet-B2    18.5243 eV   66.93 nm  f=0.2175  <S**2>=0.000
       3 -> 11         0.62320
       3 -> 13         0.12618
       4 -> 15        -0.10852
       4 -> 17        -0.24918

 Excited State  28:      Singlet-A1    18.8174 eV   65.89 nm  f=0.1395  <S**2>=0.000
       3 -> 10         0.39055
       4 -> 13        -0.20881
       4 -> 16         0.51429
       5 -> 14         0.12896

 Excited State  29:      Singlet-B2    18.8242 eV   65.86 nm  f=0.0145  <S**2>=0.000
       3 -> 11         0.25063
       4 -> 15         0.53572
       4 -> 17         0.35269

 Excited State  30:      Singlet-B2    19.4755 eV   63.66 nm  f=0.0162  <S**2>=0.000
       3 -> 11         0.16735
       3 -> 13        -0.17787
       4 -> 15        -0.43730
       4 -> 17         0.48170

 Excited State  31:      Singlet-B1    19.5608 eV   63.38 nm  f=0.0758  <S**2>=0.000
       3 -> 12         0.68880
       5 -> 19         0.13227

 Excited State  32:      Singlet-B2    19.6718 eV   63.03 nm  f=0.0038  <S**2>=0.000
       3 ->  6         0.10795
       3 -> 13         0.64515
       4 -> 17         0.21233

 Excited State  33:      Singlet-A2    20.4955 eV   60.49 nm  f=0.0000  <S**2>=0.000
       3 ->  9         0.11946
       3 -> 14         0.68374
       5 -> 18         0.10880

 Excited State  34:      Singlet-A2    20.7943 eV   59.62 nm  f=0.0000  <S**2>=0.000
       3 -> 14        -0.10705
       5 -> 18         0.68956

 Excited State  35:      Singlet-B1    21.3289 eV   58.13 nm  f=0.2141  <S**2>=0.000
       3 -> 12        -0.13119
       4 -> 20        -0.11911
       5 -> 19         0.66910

 Excited State  36:      Singlet-A1    22.1669 eV   55.93 nm  f=0.0584  <S**2>=0.000
       3 -> 15         0.10833
       4 -> 19         0.28237
       4 -> 21         0.10944
       5 -> 20         0.61275

 Excited State  37:      Singlet-B2    22.4315 eV   55.27 nm  f=0.0119  <S**2>=0.000
       3 -> 16         0.62273
       4 -> 18         0.25320
       5 -> 22        -0.16580

 Excited State  38:      Singlet-B1    22.7316 eV   54.54 nm  f=0.0000  <S**2>=0.000
       4 -> 20        -0.13867
       5 -> 21         0.68671

 Excited State  39:      Singlet-B2    22.8515 eV   54.26 nm  f=0.0108  <S**2>=0.000
       3 -> 16        -0.30021
       4 -> 18         0.48252
       5 -> 22        -0.40728

 Excited State  40:      Singlet-A1    22.8973 eV   54.15 nm  f=0.0131  <S**2>=0.000
       3 -> 15        -0.47596
       4 -> 19         0.49276
       5 -> 20        -0.14119

 Excited State  41:      Singlet-A1    23.2542 eV   53.32 nm  f=0.0153  <S**2>=0.000
       3 -> 15         0.49215
       4 -> 19         0.40230
       4 -> 21        -0.11957
       5 -> 20        -0.25013

 Excited State  42:      Singlet-B2    23.6177 eV   52.50 nm  f=0.3193  <S**2>=0.000
       3 -> 19        -0.12671
       4 -> 18         0.41913
       5 -> 22         0.52293

 Excited State  43:      Singlet-B1    23.9951 eV   51.67 nm  f=0.2615  <S**2>=0.000
       4 -> 20         0.67431
       5 -> 19         0.11757
       5 -> 21         0.13683

 Excited State  44:      Singlet-A1    24.4061 eV   50.80 nm  f=0.1163  <S**2>=0.000
       2 ->  6        -0.10564
       3 -> 17         0.66869

 Excited State  45:      Singlet-A2    24.7807 eV   50.03 nm  f=0.0000  <S**2>=0.000
       4 -> 22         0.70135

 Excited State  46:      Singlet-A1    24.8976 eV   49.80 nm  f=0.2456  <S**2>=0.000
       2 ->  6        -0.16384
       3 -> 18        -0.15358
       4 -> 21         0.64706
       5 -> 20        -0.11115

 Excited State  47:      Singlet-A1    26.7884 eV   46.28 nm  f=0.0158  <S**2>=0.000
       2 ->  6         0.65214
       3 -> 17         0.11174
       3 -> 18        -0.17740
       4 -> 21         0.10545

 Excited State  48:      Singlet-B2    27.4025 eV   45.25 nm  f=0.1492  <S**2>=0.000
       2 ->  7        -0.18312
       3 -> 19         0.65215
       3 -> 21         0.14076

 Excited State  49:      Singlet-A1    27.7219 eV   44.72 nm  f=0.2753  <S**2>=0.000
       2 ->  6         0.13752
       2 ->  8         0.14621
       3 -> 18         0.64387
       4 -> 21         0.16268

 Excited State  50:      Singlet-B2    27.8009 eV   44.60 nm  f=0.0008  <S**2>=0.000
       2 ->  7         0.64976
       2 -> 10         0.13835
       3 -> 19         0.13992
       3 -> 21         0.16070

 Excited State  51:      Singlet-A2    28.1517 eV   44.04 nm  f=0.0000  <S**2>=0.000
       3 -> 20         0.70264

 Excited State  52:      Singlet-B1    29.0668 eV   42.65 nm  f=0.1328  <S**2>=0.000
       2 ->  9         0.47282
       2 -> 14        -0.10194
       3 -> 22         0.50750

 Excited State  53:      Singlet-A1    29.4267 eV   42.13 nm  f=0.0198  <S**2>=0.000
       2 ->  8         0.67320
       2 -> 11        -0.10639
       3 -> 18        -0.13006

 Excited State  54:      Singlet-B2    29.6898 eV   41.76 nm  f=0.2856  <S**2>=0.000
       2 ->  7        -0.12888
       3 -> 19        -0.15609
       3 -> 21         0.66070

 Excited State  55:      Singlet-B1    29.8045 eV   41.60 nm  f=0.1225  <S**2>=0.000
       2 ->  9         0.50198
       3 -> 22        -0.47999

 Excited State  56:      Singlet-B2    30.4227 eV   40.75 nm  f=0.0081  <S**2>=0.000
       2 ->  7        -0.13387
       2 -> 10         0.68239

 Excited State  57:      Singlet-A1    31.1246 eV   39.83 nm  f=0.0018  <S**2>=0.000
       2 ->  8         0.10878
       2 -> 11         0.69372

 Excited State  58:      Singlet-B1    31.1804 eV   39.76 nm  f=0.0008  <S**2>=0.000
       5 -> 23         0.69382

 Excited State  59:      Singlet-A2    32.1600 eV   38.55 nm  f=0.0000  <S**2>=0.000
       2 -> 12         0.70162

 Excited State  60:      Singlet-A1    32.5975 eV   38.03 nm  f=0.0039  <S**2>=0.000
       2 -> 13         0.65178
       4 -> 23        -0.22997

 Excited State  61:      Singlet-B1    33.3827 eV   37.14 nm  f=0.0055  <S**2>=0.000
       2 ->  9         0.10437
       2 -> 14         0.68939

 Excited State  62:      Singlet-A1    33.6910 eV   36.80 nm  f=0.0189  <S**2>=0.000
       2 -> 13         0.21797
       2 -> 16        -0.16323
       4 -> 23         0.63209
       5 -> 25         0.12429

 Excited State  63:      Singlet-A2    33.9146 eV   36.56 nm  f=0.0000  <S**2>=0.000
       5 -> 24         0.70129

 Excited State  64:      Singlet-B2    35.3443 eV   35.08 nm  f=0.0040  <S**2>=0.000
       2 -> 15         0.59722
       2 -> 17         0.26313
       3 -> 23        -0.12052
       4 -> 24         0.22730

 Excited State  65:      Singlet-A1    35.5723 eV   34.85 nm  f=0.0078  <S**2>=0.000
       2 -> 16         0.66247
       4 -> 23         0.12897
       5 -> 25         0.17670

 Excited State  66:      Singlet-B2    36.0219 eV   34.42 nm  f=0.0005  <S**2>=0.000
       2 -> 15        -0.23593
       3 -> 23        -0.11981
       4 -> 24         0.64566

 Excited State  67:      Singlet-B2    36.0735 eV   34.37 nm  f=0.0054  <S**2>=0.000
       2 -> 10         0.10065
       2 -> 15        -0.28877
       2 -> 17         0.61891
       3 -> 23        -0.12059

 Excited State  68:      Singlet-B1    37.3440 eV   33.20 nm  f=0.0043  <S**2>=0.000
       4 -> 25        -0.18644
       5 -> 26         0.67640

 Excited State  69:      Singlet-B2    37.8629 eV   32.75 nm  f=0.0618  <S**2>=0.000
       2 -> 17         0.15162
       3 -> 23         0.66546
       4 -> 24         0.14227

 Excited State  70:      Singlet-A1    38.0688 eV   32.57 nm  f=0.0119  <S**2>=0.000
       2 -> 19        -0.16300
       3 -> 24         0.22083
       4 -> 26        -0.33345
       5 -> 25         0.53479

 Excited State  71:      Singlet-B1    38.7855 eV   31.97 nm  f=0.0020  <S**2>=0.000
       4 -> 25         0.67671
       5 -> 26         0.18121

 Excited State  72:      Singlet-A1    39.9432 eV   31.04 nm  f=0.0021  <S**2>=0.000
       2 -> 19         0.64596
       3 -> 24        -0.10853
       4 -> 26        -0.22944

 Excited State  73:      Singlet-B2    40.0151 eV   30.98 nm  f=0.0000  <S**2>=0.000
       2 -> 18         0.69868

 Excited State  74:      Singlet-A1    40.3183 eV   30.75 nm  f=0.0191  <S**2>=0.000
       2 -> 19         0.21578
       3 -> 24         0.56102
       4 -> 26         0.35729

 Excited State  75:      Singlet-B1    41.2615 eV   30.05 nm  f=0.0014  <S**2>=0.000
       2 -> 20         0.69919

 Excited State  76:      Singlet-A2    41.8567 eV   29.62 nm  f=0.0000  <S**2>=0.000
       2 -> 22         0.67904
       3 -> 25         0.18511

 Excited State  77:      Singlet-A1    42.1207 eV   29.44 nm  f=0.0107  <S**2>=0.000
       2 -> 21         0.69983

 Excited State  78:      Singlet-A2    42.8505 eV   28.93 nm  f=0.0000  <S**2>=0.000
       2 -> 22        -0.18462
       3 -> 25         0.67868

 Excited State  79:      Singlet-B2    43.9710 eV   28.20 nm  f=0.0588  <S**2>=0.000
       3 -> 26         0.69641

 Excited State  80:      Singlet-A2    45.7963 eV   27.07 nm  f=0.0000  <S**2>=0.000
       5 -> 27         0.70384

 Excited State  81:      Singlet-A1    46.1851 eV   26.85 nm  f=0.0186  <S**2>=0.000
       2 -> 16        -0.11940
       2 -> 23        -0.22170
       3 -> 24        -0.31649
       3 -> 27         0.17053
       4 -> 26         0.40732
       5 -> 25         0.32690

 Excited State  82:      Singlet-B2    48.2467 eV   25.70 nm  f=0.0616  <S**2>=0.000
       4 -> 27         0.69323
       5 -> 29         0.10948

 Excited State  83:      Singlet-B1    49.0917 eV   25.26 nm  f=0.0840  <S**2>=0.000
       5 -> 28         0.70239

 Excited State  84:      Singlet-A1    50.6483 eV   24.48 nm  f=0.1023  <S**2>=0.000
       2 -> 23         0.63536
       3 -> 27         0.25815

 Excited State  85:      Singlet-A1    50.9105 eV   24.35 nm  f=0.0071  <S**2>=0.000
       3 -> 27         0.10528
       4 -> 28         0.69261

 Excited State  86:      Singlet-B2    51.5775 eV   24.04 nm  f=0.1117  <S**2>=0.000
       4 -> 27        -0.10046
       5 -> 29         0.69214

 Excited State  87:      Singlet-B2    53.0264 eV   23.38 nm  f=0.0548  <S**2>=0.000
       2 -> 24         0.70210

 Excited State  88:      Singlet-A2    53.0509 eV   23.37 nm  f=0.0000  <S**2>=0.000
       4 -> 29         0.70616

 Excited State  89:      Singlet-A1    54.6779 eV   22.68 nm  f=0.0037  <S**2>=0.000
       2 -> 23        -0.18048
       2 -> 26         0.19365
       3 -> 27         0.55926
       4 -> 26        -0.12361
       5 -> 25        -0.13103
       5 -> 30         0.24134

 Excited State  90:      Singlet-B2    55.1726 eV   22.47 nm  f=0.0087  <S**2>=0.000
       3 -> 28         0.69985

 Excited State  91:      Singlet-A1    55.5172 eV   22.33 nm  f=0.0563  <S**2>=0.000
       3 -> 27        -0.21851
       5 -> 30         0.65754

 Excited State  92:      Singlet-B1    56.1546 eV   22.08 nm  f=0.1244  <S**2>=0.000
       2 -> 25         0.70079

 Excited State  93:      Singlet-B1    57.1352 eV   21.70 nm  f=0.0020  <S**2>=0.000
       3 -> 29        -0.46545
       4 -> 30         0.52004
       5 -> 32        -0.10714

 Excited State  94:      Singlet-A1    57.1723 eV   21.69 nm  f=0.0820  <S**2>=0.000
       2 -> 26         0.66900
       3 -> 27        -0.13958

 Excited State  95:      Singlet-B1    57.6911 eV   21.49 nm  f=0.0841  <S**2>=0.000
       3 -> 29         0.29672
       4 -> 30         0.37470
       5 -> 32         0.51724

 Excited State  96:      Singlet-A2    57.8878 eV   21.42 nm  f=0.0000  <S**2>=0.000
       5 -> 31         0.70411

 Excited State  97:      Singlet-B1    58.6791 eV   21.13 nm  f=0.2991  <S**2>=0.000
       3 -> 29        -0.43158
       4 -> 30        -0.29239
       5 -> 32         0.46869

 Excited State  98:      Singlet-B2    60.4967 eV   20.49 nm  f=0.0145  <S**2>=0.000
       4 -> 31         0.70344

 Excited State  99:      Singlet-A1    61.0514 eV   20.31 nm  f=0.2317  <S**2>=0.000
       4 -> 32         0.69226

 Excited State 100:      Singlet-A2    61.2835 eV   20.23 nm  f=0.0000  <S**2>=0.000
       3 -> 30         0.70294

 Excited State 101:      Singlet-B2    64.5906 eV   19.20 nm  f=0.0941  <S**2>=0.000
       3 -> 32         0.69900

 Excited State 102:      Singlet-A1    64.5921 eV   19.19 nm  f=0.0053  <S**2>=0.000
       3 -> 31         0.70094

 Excited State 103:      Singlet-B2    65.4617 eV   18.94 nm  f=0.0534  <S**2>=0.000
       2 -> 27         0.70057

 Excited State 104:      Singlet-A2    65.6155 eV   18.90 nm  f=0.0000  <S**2>=0.000
       5 -> 33         0.70544

 Excited State 105:      Singlet-B2    68.7256 eV   18.04 nm  f=0.0076  <S**2>=0.000
       4 -> 33         0.69433

 Excited State 106:      Singlet-A1    69.8198 eV   17.76 nm  f=0.0071  <S**2>=0.000
       2 -> 28         0.67804
       3 -> 33        -0.10558

 Excited State 107:      Singlet-A2    69.9996 eV   17.71 nm  f=0.0000  <S**2>=0.000
       2 -> 29         0.70643

 Excited State 108:      Singlet-B1    70.1076 eV   17.68 nm  f=0.1392  <S**2>=0.000
       5 -> 34         0.69614

 Excited State 109:      Singlet-A1    70.9334 eV   17.48 nm  f=0.0076  <S**2>=0.000
       3 -> 33        -0.21515
       4 -> 34         0.67111

 Excited State 110:      Singlet-B1    73.9659 eV   16.76 nm  f=0.0281  <S**2>=0.000
       2 -> 30         0.70465

 Excited State 111:      Singlet-A1    74.0443 eV   16.74 nm  f=0.0218  <S**2>=0.000
       2 -> 28         0.11589
       3 -> 33         0.65607
       4 -> 34         0.20038

 Excited State 112:      Singlet-B2    75.9699 eV   16.32 nm  f=0.0114  <S**2>=0.000
       2 -> 31         0.17823
       3 -> 34         0.67549

 Excited State 113:      Singlet-B2    76.9902 eV   16.10 nm  f=0.0005  <S**2>=0.000
       2 -> 31         0.68363
       3 -> 34        -0.17499

 Excited State 114:      Singlet-A1    77.2955 eV   16.04 nm  f=0.0042  <S**2>=0.000
       2 -> 32         0.70530

 Excited State 115:      Singlet-B2    85.3209 eV   14.53 nm  f=0.0117  <S**2>=0.000
       2 -> 33         0.70093

 Excited State 116:      Singlet-A1    86.6123 eV   14.31 nm  f=0.1599  <S**2>=0.000
       2 -> 34         0.11004
       4 -> 37        -0.21459
       5 -> 35         0.65877

 Excited State 117:      Singlet-B1    87.9045 eV   14.10 nm  f=0.0856  <S**2>=0.000
       3 -> 36        -0.14822
       4 -> 35         0.66073
       5 -> 37         0.17405

 Excited State 118:      Singlet-A2    88.9100 eV   13.94 nm  f=0.0000  <S**2>=0.000
       4 -> 36         0.70589

 Excited State 119:      Singlet-A1    88.9143 eV   13.94 nm  f=0.0012  <S**2>=0.000
       2 -> 34         0.69508
       5 -> 35        -0.11950

 Excited State 120:      Singlet-B2    89.0139 eV   13.93 nm  f=0.2026  <S**2>=0.000
       3 -> 37         0.11649
       5 -> 36         0.68633

 Excited State 121:      Singlet-B1    90.6392 eV   13.68 nm  f=0.0160  <S**2>=0.000
       3 -> 36         0.21104
       4 -> 35        -0.12533
       5 -> 37         0.66196

 Excited State 122:      Singlet-A2    91.3505 eV   13.57 nm  f=0.0000  <S**2>=0.000
       3 -> 35         0.70597

 Excited State 123:      Singlet-A1    95.6351 eV   12.96 nm  f=0.2918  <S**2>=0.000
       4 -> 37         0.67006
       5 -> 35         0.20367

 Excited State 124:      Singlet-B1    95.6430 eV   12.96 nm  f=0.1607  <S**2>=0.000
       3 -> 36         0.63797
       4 -> 35         0.16192
       5 -> 37        -0.16444
       5 -> 38         0.18961

 Excited State 125:      Singlet-B2    97.9706 eV   12.66 nm  f=0.0612  <S**2>=0.000
       3 -> 37         0.69266
       5 -> 36        -0.10565

 Excited State 126:      Singlet-B1   103.7810 eV   11.95 nm  f=0.2579  <S**2>=0.000
       2 -> 35        -0.22470
       3 -> 36        -0.15113
       5 -> 38         0.64207

 Excited State 127:      Singlet-A1   104.1408 eV   11.91 nm  f=0.0046  <S**2>=0.000
       4 -> 38         0.70381

 Excited State 128:      Singlet-B1   105.4415 eV   11.76 nm  f=0.0661  <S**2>=0.000
       2 -> 35         0.66786
       5 -> 38         0.21350

 Excited State 129:      Singlet-A2   106.5387 eV   11.64 nm  f=0.0000  <S**2>=0.000
       2 -> 36         0.70528

 Excited State 130:      Singlet-B2   109.3390 eV   11.34 nm  f=0.0477  <S**2>=0.000
       3 -> 38         0.69041
       4 -> 39         0.13375

 Excited State 131:      Singlet-A1   110.8150 eV   11.19 nm  f=0.0104  <S**2>=0.000
       2 -> 37         0.70413

 Excited State 132:      Singlet-A2   112.5630 eV   11.01 nm  f=0.0000  <S**2>=0.000
       5 -> 39         0.70529

 Excited State 133:      Singlet-B2   115.9998 eV   10.69 nm  f=0.1636  <S**2>=0.000
       3 -> 38        -0.12757
       4 -> 39         0.69158

 Excited State 134:      Singlet-A1   120.6582 eV   10.28 nm  f=0.0801  <S**2>=0.000
       2 -> 38         0.12455
       3 -> 39         0.69282

 Excited State 135:      Singlet-A1   121.3740 eV   10.22 nm  f=0.0183  <S**2>=0.000
       2 -> 38         0.69547
       3 -> 39        -0.12473

 Excited State 136:      Singlet-B2   132.2917 eV    9.37 nm  f=0.0009  <S**2>=0.000
       2 -> 39         0.70645

 The electronic state is 1-A1.
 Alpha  occ. eigenvalues --  -19.47006  -1.13856  -0.66258  -0.51453  -0.44422
 Alpha virt. eigenvalues --    0.04569   0.07850   0.13864   0.14261   0.20266
 Alpha virt. eigenvalues --    0.22511   0.26519   0.30185   0.32906   0.38248
 Alpha virt. eigenvalues --    0.40100   0.43342   0.58068   0.59176   0.63723

 Mulliken charges:
               1
     1  O   -0.321482
     2  H    0.160741
     3  H    0.160741
 Sum of Mulliken charges =  -0.00000

 Dipole moment (field-independent basis, Debye):
    X=             -0.0000    Y=             -0.0000    Z=             -1.9749  Tot=              1.9749
 Quadrupole moment (field-independent basis, Debye-Ang):
   XX=             -7.7678   YY=             -4.4267   ZZ=             -6.4557
   XY=              0.0000   XZ=              0.0000   YZ=              0.0000

 Normal termination of Gaussian 16 at Mon Mar 21 20:08:59 2022.
