 Gaussian 16, Revision C.01,
 Gaussian 16:  EM64L-G16RevC.01  3-Jul-2019

 -------------------------------------------------------------------
 #P TD(Nstates=10000) m11/Gen SCF(maxcycles=100) Int(Grid=ultrafine)
 -------------------------------------------------------------------

 ---------------------
 xGDB7_00001_tier4.com
 ---------------------
 Symbolic Z-matrix:
 Charge =  0 Multiplicity = 1

                         Standard orientation:
 ---------------------------------------------------------------------
 Center     Atomic      Atomic             Coordinates (Angstroms)
 Number     Number       Type             X           Y           Z
 ---------------------------------------------------------------------
      1          6           0        0.630149   -0.000001   -0.000003
      2          9           0       -0.748512    0.000002    0.000001
      3          1           0        0.985250    0.897475   -0.509314
      4          1           0        0.985222   -0.889832   -0.522562
      5          1           0        0.985245   -0.007652    1.031883
 ---------------------------------------------------------------------

 SCF Done:  E(RM11) =  -139.586699660     A.U. after   14 cycles

 Excitation energies and oscillator strengths:

 Excited State   1:      Singlet-A      9.2692 eV  133.76 nm  f=0.0193  <S**2>=0.000
       9 -> 10         0.65291
       9 -> 11        -0.18850
       9 -> 14         0.14459
 This state for optimization and/or second-order correction.
 Total Energy, E(TD-HF/TD-DFT) =  -139.246064026
 Copying the excited state density for this state as the 1-particle RhoCI density.

 Excited State   2:      Singlet-A      9.2692 eV  133.76 nm  f=0.0193  <S**2>=0.000
       8 -> 10         0.65291
       8 -> 11        -0.18851
       8 -> 14         0.14459

 Excited State   3:      Singlet-A     10.0861 eV  122.93 nm  f=0.0184  <S**2>=0.000
       9 -> 10         0.23471
       9 -> 11         0.57475
       9 -> 14        -0.27291
       9 -> 20         0.16629

 Excited State   4:      Singlet-A     10.0862 eV  122.93 nm  f=0.0184  <S**2>=0.000
       8 -> 10         0.23472
       8 -> 11         0.57474
       8 -> 14        -0.27291
       8 -> 20         0.16630

 Excited State   5:      Singlet-A     11.2416 eV  110.29 nm  f=0.0000  <S**2>=0.000
       8 -> 13         0.48815
       9 -> 12         0.48840

 Excited State   6:      Singlet-A     11.3869 eV  108.88 nm  f=0.0389  <S**2>=0.000
       8 -> 13         0.48249
       9 -> 12        -0.48224

 Excited State   7:      Singlet-A     11.3870 eV  108.88 nm  f=0.0390  <S**2>=0.000
       8 -> 12         0.48233
       9 -> 13         0.48239

 Excited State   8:      Singlet-A     11.7085 eV  105.89 nm  f=0.0899  <S**2>=0.000
       8 -> 12         0.48453
       9 -> 13        -0.48447

 Excited State   9:      Singlet-A     11.9634 eV  103.64 nm  f=0.0447  <S**2>=0.000
       6 -> 10        -0.12362
       6 -> 11         0.11877
       9 -> 11         0.31554
       9 -> 14         0.58113
       9 -> 20        -0.10303

 Excited State  10:      Singlet-A     11.9634 eV  103.64 nm  f=0.0447  <S**2>=0.000
       5 -> 10        -0.12362
       5 -> 11         0.11877
       8 -> 11         0.31554
       8 -> 14         0.58113
       8 -> 20        -0.10303

 Excited State  11:      Singlet-A     12.3946 eV  100.03 nm  f=0.0000  <S**2>=0.000
       8 -> 15        -0.10080
       8 -> 16         0.34581
       8 -> 17         0.15375
       8 -> 18         0.28541
       9 -> 15        -0.34576
       9 -> 16        -0.10077
       9 -> 17        -0.28548
       9 -> 18         0.15379

 Excited State  12:      Singlet-A     12.8705 eV   96.33 nm  f=0.1085  <S**2>=0.000
       8 -> 16         0.39448
       8 -> 17         0.21422
       8 -> 18         0.14185
       9 -> 15         0.39449
       9 -> 17         0.14184
       9 -> 18        -0.21425

 Excited State  13:      Singlet-A     12.8705 eV   96.33 nm  f=0.1085  <S**2>=0.000
       8 -> 15        -0.39439
       8 -> 17        -0.14179
       8 -> 18         0.21417
       9 -> 16         0.39457
       9 -> 17         0.21430
       9 -> 18         0.14193

 Excited State  14:      Singlet-A     12.9963 eV   95.40 nm  f=0.0001  <S**2>=0.000
       7 -> 10         0.23014
       8 -> 15         0.22611
       8 -> 17         0.34921
       8 -> 18        -0.18814
       9 -> 16         0.22592
       9 -> 17         0.18804
       9 -> 18         0.34906

 Excited State  15:      Singlet-A     13.0676 eV   94.88 nm  f=0.0000  <S**2>=0.000
       5 -> 13        -0.10552
       6 -> 12        -0.10555
       8 -> 16         0.30253
       8 -> 17        -0.17260
       8 -> 18        -0.32041
       9 -> 15        -0.30267
       9 -> 17         0.32055
       9 -> 18        -0.17271

 Excited State  16:      Singlet-A     13.2659 eV   93.46 nm  f=0.0156  <S**2>=0.000
       6 -> 10         0.47542
       8 -> 15        -0.19956
       8 -> 17         0.14115
       8 -> 18        -0.21368
       9 -> 14         0.11312
       9 -> 16         0.19952
       9 -> 17        -0.21365
       9 -> 18        -0.14132

 Excited State  17:      Singlet-A     13.2659 eV   93.46 nm  f=0.0156  <S**2>=0.000
       5 -> 10         0.47537
       8 -> 14         0.11312
       8 -> 16        -0.19961
       8 -> 17         0.21370
       8 -> 18         0.14136
       9 -> 15        -0.19951
       9 -> 17         0.14115
       9 -> 18        -0.21369

 Excited State  18:      Singlet-A     13.3235 eV   93.06 nm  f=0.0230  <S**2>=0.000
       7 -> 10         0.60938
       7 -> 11        -0.14490
       8 -> 17        -0.17691
       9 -> 18        -0.17678

 Excited State  19:      Singlet-A     13.4583 eV   92.12 nm  f=0.1029  <S**2>=0.000
       6 -> 10         0.45423
       8 -> 15         0.16156
       8 -> 17        -0.20596
       8 -> 18         0.25123
       9 -> 16        -0.16152
       9 -> 17         0.25117
       9 -> 18         0.20596

 Excited State  20:      Singlet-A     13.4583 eV   92.12 nm  f=0.1029  <S**2>=0.000
       5 -> 10         0.45428
       8 -> 16         0.16151
       8 -> 17        -0.25120
       8 -> 18        -0.20601
       9 -> 15         0.16150
       9 -> 17        -0.20590
       9 -> 18         0.25116

 Excited State  21:      Singlet-A     13.9441 eV   88.92 nm  f=0.0219  <S**2>=0.000
       6 -> 11         0.52771
       6 -> 14        -0.28738
       6 -> 20         0.17249
       9 -> 19         0.11800
       9 -> 20         0.23575

 Excited State  22:      Singlet-A     13.9442 eV   88.91 nm  f=0.0219  <S**2>=0.000
       5 -> 11         0.52771
       5 -> 14        -0.28738
       5 -> 20         0.17248
       8 -> 19         0.11800
       8 -> 20         0.23575

 Excited State  23:      Singlet-A     14.0120 eV   88.48 nm  f=0.0074  <S**2>=0.000
       7 -> 10        -0.11214
       7 -> 11         0.24243
       7 -> 14        -0.17691
       8 -> 15         0.36226
       8 -> 16         0.10559
       8 -> 17        -0.17926
       9 -> 15        -0.10557
       9 -> 16         0.36224
       9 -> 18        -0.17933

 Excited State  24:      Singlet-A     14.6104 eV   84.86 nm  f=0.4841  <S**2>=0.000
       7 -> 10         0.21056
       7 -> 11         0.59781
       8 -> 15        -0.17586
       9 -> 16        -0.17586

 Excited State  25:      Singlet-A     14.9138 eV   83.13 nm  f=0.0002  <S**2>=0.000
       6 -> 10        -0.16664
       6 -> 11        -0.23031
       7 -> 13        -0.20965
       9 -> 14         0.17564
       9 -> 19         0.32362
       9 -> 20         0.43797

 Excited State  26:      Singlet-A     14.9138 eV   83.13 nm  f=0.0002  <S**2>=0.000
       5 -> 10        -0.16665
       5 -> 11        -0.23030
       7 -> 12         0.20972
       8 -> 14         0.17564
       8 -> 19         0.32363
       8 -> 20         0.43795

 Excited State  27:      Singlet-A     15.2446 eV   81.33 nm  f=0.1117  <S**2>=0.000
       5 -> 14        -0.10510
       7 -> 12         0.62914
       8 -> 19        -0.23252

 Excited State  28:      Singlet-A     15.2446 eV   81.33 nm  f=0.1117  <S**2>=0.000
       6 -> 14         0.10510
       7 -> 13         0.62910
       9 -> 19         0.23251

 Excited State  29:      Singlet-A     15.3248 eV   80.90 nm  f=0.0000  <S**2>=0.000
       5 -> 13         0.47695
       6 -> 12         0.47716
       8 -> 16         0.10298
       9 -> 15        -0.10301

 Excited State  30:      Singlet-A     15.4764 eV   80.11 nm  f=0.0396  <S**2>=0.000
       5 -> 12         0.22262
       5 -> 13         0.40201
       6 -> 12        -0.40187
       6 -> 13         0.22261
       7 -> 13         0.14288

 Excited State  31:      Singlet-A     15.4764 eV   80.11 nm  f=0.0396  <S**2>=0.000
       5 -> 12         0.40196
       5 -> 13        -0.22274
       6 -> 12         0.22265
       6 -> 13         0.40195
       7 -> 12        -0.14255

 Excited State  32:      Singlet-A     15.6473 eV   79.24 nm  f=0.0398  <S**2>=0.000
       6 -> 11         0.25708
       6 -> 14         0.33646
       7 -> 13        -0.14305
       9 -> 19         0.38830
       9 -> 20        -0.25806
       9 -> 23         0.15774

 Excited State  33:      Singlet-A     15.6473 eV   79.24 nm  f=0.0398  <S**2>=0.000
       5 -> 11         0.25709
       5 -> 14         0.33646
       7 -> 12         0.14315
       8 -> 19         0.38832
       8 -> 20        -0.25809
       8 -> 23         0.15776

 Excited State  34:      Singlet-A     16.0586 eV   77.21 nm  f=0.0029  <S**2>=0.000
       5 -> 12         0.45991
       6 -> 13        -0.45986
       7 -> 14        -0.12296

 Excited State  35:      Singlet-A     16.3313 eV   75.92 nm  f=0.0000  <S**2>=0.000
       5 -> 15        -0.14579
       5 -> 16         0.32497
       5 -> 18         0.21686
       6 -> 15        -0.32496
       6 -> 16        -0.14580
       6 -> 17        -0.21694
       8 -> 21         0.21955
       9 -> 22         0.21954

 Excited State  36:      Singlet-A     16.4069 eV   75.57 nm  f=0.0215  <S**2>=0.000
       6 -> 11         0.21203
       6 -> 14         0.40564
       7 -> 16        -0.20872
       9 -> 19        -0.33586
       9 -> 20         0.27481

 Excited State  37:      Singlet-A     16.4070 eV   75.57 nm  f=0.0215  <S**2>=0.000
       5 -> 11         0.21202
       5 -> 14         0.40562
       7 -> 15        -0.20880
       8 -> 19        -0.33583
       8 -> 20         0.27480

 Excited State  38:      Singlet-A     16.4233 eV   75.49 nm  f=0.0554  <S**2>=0.000
       5 -> 15        -0.18364
       5 -> 17        -0.11196
       6 -> 16        -0.18370
       6 -> 18        -0.11195
       7 -> 11         0.16692
       7 -> 14         0.56691

 Excited State  39:      Singlet-A     16.5522 eV   74.91 nm  f=0.0081  <S**2>=0.000
       6 -> 14         0.18828
       7 -> 15        -0.15987
       7 -> 16         0.45902
       7 -> 17         0.16674
       7 -> 18         0.35180
       7 -> 25        -0.10916

 Excited State  40:      Singlet-A     16.5522 eV   74.90 nm  f=0.0081  <S**2>=0.000
       5 -> 14         0.18834
       7 -> 15         0.45891
       7 -> 16         0.15983
       7 -> 17         0.35183
       7 -> 18        -0.16674
       7 -> 26         0.10915

 Excited State  41:      Singlet-A     16.7400 eV   74.06 nm  f=0.0535  <S**2>=0.000
       5 -> 16        -0.28181
       6 -> 15        -0.28176
       7 -> 15        -0.12705
       8 -> 21        -0.30972
       8 -> 22         0.22595
       9 -> 21         0.22604
       9 -> 22         0.30987

 Excited State  42:      Singlet-A     16.7401 eV   74.06 nm  f=0.0535  <S**2>=0.000
       5 -> 15        -0.28179
       6 -> 16         0.28184
       7 -> 16        -0.12686
       8 -> 21         0.22598
       8 -> 22         0.30974
       9 -> 21         0.30988
       9 -> 22        -0.22603

 Excited State  43:      Singlet-A     16.8331 eV   73.65 nm  f=0.0000  <S**2>=0.000
       5 -> 17        -0.10256
       5 -> 18        -0.27583
       6 -> 17         0.27593
       6 -> 18        -0.10261
       8 -> 21         0.35505
       8 -> 22        -0.13273
       9 -> 21         0.13263
       9 -> 22         0.35494

 Excited State  44:      Singlet-A     16.9604 eV   73.10 nm  f=0.1510  <S**2>=0.000
       5 -> 15        -0.22570
       5 -> 17        -0.26551
       5 -> 18         0.13134
       6 -> 16         0.22574
       6 -> 17         0.13152
       6 -> 18         0.26597
       8 -> 22        -0.22101
       8 -> 26        -0.10016
       9 -> 21        -0.22175
       9 -> 23        -0.15522
       9 -> 25        -0.10012

 Excited State  45:      Singlet-A     16.9604 eV   73.10 nm  f=0.1510  <S**2>=0.000
       5 -> 16         0.22577
       5 -> 17         0.13153
       5 -> 18         0.26573
       6 -> 15         0.22565
       6 -> 17         0.26576
       6 -> 18        -0.13138
       8 -> 21        -0.22139
       8 -> 23         0.15515
       8 -> 25        -0.10016
       9 -> 22         0.22138
       9 -> 26         0.10014

 Excited State  46:      Singlet-A     16.9939 eV   72.96 nm  f=0.3291  <S**2>=0.000
       5 -> 17         0.24713
       6 -> 18         0.24666
       8 -> 21         0.14146
       8 -> 22         0.37840
       9 -> 21        -0.37787
       9 -> 22         0.14119

 Excited State  47:      Singlet-A     17.0978 eV   72.51 nm  f=0.0252  <S**2>=0.000
       5 -> 18         0.10031
       6 -> 17         0.10041
       7 -> 15        -0.11183
       8 -> 20        -0.10054
       8 -> 23        -0.40556
       9 -> 20         0.10719
       9 -> 23         0.43241

 Excited State  48:      Singlet-A     17.0978 eV   72.51 nm  f=0.0252  <S**2>=0.000
       5 -> 17        -0.10026
       6 -> 18         0.10046
       7 -> 16         0.11183
       8 -> 20         0.10720
       8 -> 23         0.43240
       9 -> 20         0.10053
       9 -> 23         0.40556

 Excited State  49:      Singlet-A     17.1266 eV   72.39 nm  f=0.0575  <S**2>=0.000
       5 -> 12         0.14839
       5 -> 15         0.15104
       5 -> 17         0.29761
       5 -> 18        -0.11072
       6 -> 13        -0.14837
       6 -> 16         0.15088
       6 -> 17         0.11057
       6 -> 18         0.29749
       7 -> 14         0.26101
       8 -> 22        -0.20590
       9 -> 21         0.20592

 Excited State  50:      Singlet-A     17.3105 eV   71.62 nm  f=0.0253  <S**2>=0.000
       5 -> 16         0.11928
       6 -> 15         0.11938
       7 -> 15        -0.36838
       7 -> 16        -0.10040
       7 -> 17         0.44312
       7 -> 18        -0.24883
       8 -> 23         0.14537

 Excited State  51:      Singlet-A     17.3105 eV   71.62 nm  f=0.0253  <S**2>=0.000
       5 -> 15         0.11924
       6 -> 16        -0.11916
       7 -> 15         0.10040
       7 -> 16        -0.36841
       7 -> 17         0.24888
       7 -> 18         0.44324
       9 -> 23         0.14529

 Excited State  52:      Singlet-A     17.3704 eV   71.38 nm  f=0.0000  <S**2>=0.000
       5 -> 15         0.13348
       5 -> 16        -0.29750
       5 -> 17         0.10572
       5 -> 18         0.28434
       6 -> 15         0.29766
       6 -> 16         0.13353
       6 -> 17        -0.28443
       6 -> 18         0.10578
       8 -> 21         0.19105
       9 -> 22         0.19117

 Excited State  53:      Singlet-A     17.5656 eV   70.58 nm  f=0.0490  <S**2>=0.000
       5 -> 16         0.25742
       5 -> 17        -0.24945
       5 -> 18        -0.19108
       6 -> 15         0.25732
       6 -> 17        -0.19081
       6 -> 18         0.24943
       7 -> 17        -0.18969
       7 -> 18         0.11627
       8 -> 21        -0.13562
       8 -> 22         0.10157
       8 -> 25         0.12324
       9 -> 21         0.10155
       9 -> 22         0.13554
       9 -> 26        -0.12319

 Excited State  54:      Singlet-A     17.5657 eV   70.58 nm  f=0.0490  <S**2>=0.000
       5 -> 15         0.25740
       5 -> 17        -0.19088
       5 -> 18         0.24955
       6 -> 16        -0.25740
       6 -> 17         0.24950
       6 -> 18         0.19109
       7 -> 17        -0.11619
       7 -> 18        -0.18949
       8 -> 21         0.10159
       8 -> 22         0.13560
       8 -> 26        -0.12318
       9 -> 21         0.13557
       9 -> 22        -0.10154
       9 -> 25        -0.12320

 Excited State  55:      Singlet-A     17.7541 eV   69.83 nm  f=0.0097  <S**2>=0.000
       5 -> 15         0.34309
       5 -> 16         0.15392
       5 -> 17        -0.19985
       6 -> 15        -0.15388
       6 -> 16         0.34301
       6 -> 18        -0.19986
       7 -> 14         0.17290
       7 -> 20         0.17743
       8 -> 22         0.11518
       9 -> 21        -0.11513

 Excited State  56:      Singlet-A     17.8986 eV   69.27 nm  f=0.0000  <S**2>=0.000
       8 -> 25         0.47126
       9 -> 26         0.47134

 Excited State  57:      Singlet-A     18.0347 eV   68.75 nm  f=0.0000  <S**2>=0.000
       9 -> 24         0.68388

 Excited State  58:      Singlet-A     18.0348 eV   68.75 nm  f=0.0000  <S**2>=0.000
       8 -> 24         0.68389

 Excited State  59:      Singlet-A     18.2029 eV   68.11 nm  f=0.0507  <S**2>=0.000
       5 -> 17        -0.10265
       5 -> 18         0.12511
       6 -> 17         0.12511
       6 -> 18         0.10266
       8 -> 24        -0.11624
       8 -> 25         0.14020
       8 -> 26         0.42525
       9 -> 25         0.42544
       9 -> 26        -0.14023

 Excited State  60:      Singlet-A     18.2030 eV   68.11 nm  f=0.0507  <S**2>=0.000
       5 -> 17         0.12512
       5 -> 18         0.10269
       6 -> 17         0.10264
       6 -> 18        -0.12510
       8 -> 25         0.42537
       8 -> 26        -0.14020
       9 -> 24        -0.11629
       9 -> 25        -0.14023
       9 -> 26        -0.42530

 Excited State  61:      Singlet-A     18.4125 eV   67.34 nm  f=0.0418  <S**2>=0.000
       8 -> 26         0.46531
       9 -> 25        -0.46511

 Excited State  62:      Singlet-A     18.7746 eV   66.04 nm  f=0.0255  <S**2>=0.000
       6 -> 11        -0.10525
       6 -> 14         0.19200
       6 -> 19         0.35723
       6 -> 20         0.50255
       6 -> 23        -0.11126
       9 -> 23         0.15459

 Excited State  63:      Singlet-A     18.7746 eV   66.04 nm  f=0.0255  <S**2>=0.000
       5 -> 11        -0.10525
       5 -> 14         0.19200
       5 -> 19         0.35724
       5 -> 20         0.50255
       5 -> 23        -0.11125
       8 -> 23         0.15460

 Excited State  64:      Singlet-A     19.1919 eV   64.60 nm  f=0.0000  <S**2>=0.000
       8 -> 27        -0.28263
       8 -> 28        -0.39579
       9 -> 27         0.39606
       9 -> 28        -0.28249

 Excited State  65:      Singlet-A     19.2154 eV   64.52 nm  f=0.0138  <S**2>=0.000
       4 -> 10         0.60956
       4 -> 11        -0.10354
       4 -> 14         0.12294
       7 -> 19         0.11837
       7 -> 20         0.15248
       8 -> 27        -0.10880
       9 -> 28        -0.10885

 Excited State  66:      Singlet-A     19.2894 eV   64.28 nm  f=0.0566  <S**2>=0.000
       8 -> 27        -0.42385
       8 -> 28         0.24079
       9 -> 27         0.24103
       9 -> 28         0.42463

 Excited State  67:      Singlet-A     19.2895 eV   64.28 nm  f=0.0566  <S**2>=0.000
       8 -> 27         0.24138
       8 -> 28         0.42402
       9 -> 27         0.42447
       9 -> 28        -0.24045

 Excited State  68:      Singlet-A     19.3195 eV   64.18 nm  f=0.0330  <S**2>=0.000
       4 -> 10         0.28301
       4 -> 11         0.10181
       7 -> 19        -0.20055
       8 -> 27         0.32874
       8 -> 28        -0.23534
       9 -> 27         0.23372
       9 -> 28         0.32850

 Excited State  69:      Singlet-A     19.8429 eV   62.48 nm  f=0.0295  <S**2>=0.000
       4 -> 11         0.15004
       4 -> 14        -0.13814
       7 -> 19         0.62515
       8 -> 27         0.10931
       9 -> 28         0.10932

 Excited State  70:      Singlet-A     19.8592 eV   62.43 nm  f=0.0226  <S**2>=0.000
       6 -> 19        -0.12853
       6 -> 20         0.16412
       9 -> 29         0.62335
       9 -> 30        -0.18791

 Excited State  71:      Singlet-A     19.8593 eV   62.43 nm  f=0.0226  <S**2>=0.000
       5 -> 19        -0.12853
       5 -> 20         0.16416
       8 -> 29         0.62333
       8 -> 30        -0.18796

 Excited State  72:      Singlet-A     19.9144 eV   62.26 nm  f=0.0092  <S**2>=0.000
       6 -> 19         0.54101
       6 -> 20        -0.33471
       6 -> 23         0.14280
       9 -> 29         0.22416

 Excited State  73:      Singlet-A     19.9145 eV   62.26 nm  f=0.0092  <S**2>=0.000
       5 -> 19         0.54099
       5 -> 20        -0.33471
       5 -> 23         0.14280
       8 -> 29         0.22420

 Excited State  74:      Singlet-A     20.1811 eV   61.44 nm  f=0.0650  <S**2>=0.000
       4 -> 11         0.52926
       4 -> 14        -0.27254
       7 -> 19        -0.11311
       7 -> 23        -0.16869
       8 -> 27        -0.10873
       9 -> 28        -0.10874

 Excited State  75:      Singlet-A     20.2596 eV   61.20 nm  f=0.0630  <S**2>=0.000
       4 -> 10        -0.10521
       5 -> 15        -0.11452
       6 -> 16        -0.11451
       7 -> 20         0.53972
       7 -> 23        -0.17030
       8 -> 27         0.10211
       8 -> 31        -0.15529
       9 -> 28         0.10212
       9 -> 32        -0.15528

 Excited State  76:      Singlet-A     20.5404 eV   60.36 nm  f=0.0574  <S**2>=0.000
       6 -> 23        -0.33667
       9 -> 29         0.16033

 The electronic state is 1-A.
 Alpha  occ. eigenvalues --  -25.03933 -10.51504  -1.31095  -0.83282  -0.61696
 Alpha  occ. eigenvalues --   -0.61695  -0.61505  -0.46961  -0.46961
 Alpha virt. eigenvalues --    0.04680   0.11737   0.13285   0.13285   0.16793
 Alpha virt. eigenvalues --    0.19800   0.19800   0.20842   0.20842   0.30373
 Alpha virt. eigenvalues --    0.33434   0.34494   0.34494   0.36099   0.38291

 Mulliken charges:
               1
     1  C    0.489311
     2  F   -0.461268
     3  H   -0.009336
     4  H   -0.009350
     5  H   -0.009357
 Sum of Mulliken charges =  -0.00000

 Dipole moment (field-independent basis, Debye):
    X=              1.9637    Y=             -0.0000    Z=              0.0000  Tot=              1.9637
 Quadrupole moment (field-independent basis, Debye-Ang):
   XX=            -12.7415   YY=            -11.9035   ZZ=            -11.9036
   XY=              0.0000   XZ=              0.0000   YZ=              0.0000

 Normal termination of Gaussian 16 at Mon Mar 21 20:16:15 2022.
