 Gaussian 16, Revision C.01,
 Gaussian 16:  EM64L-G16RevC.01  3-Jul-2019

 -------------------------------------------------------------------
 #P TD(Nstates=10000) m11/Gen SCF(maxcycles=100) Int(Grid=ultrafine)
 -------------------------------------------------------------------

 ---------------------
 xGDB7_00001_tier4.com
 ---------------------
 Symbolic Z-matrix:
 Charge =  0 Multiplicity = 1

                         Standard orientation:
 ---------------------------------------------------------------------
 Center     Atomic      Atomic             Coordinates (Angstroms)
 Number     Number       Type             X           Y           Z
 ---------------------------------------------------------------------
      1          9           0        0.000000    0.000000    0.091801
      2          1           0        0.000000    0.000000   -0.826212
 ---------------------------------------------------------------------

 SCF Done:  E(RM11) =  -100.349699579     A.U. after   12 cycles

 Excitation energies and oscillator strengths:

 Excited state symmetry could not be determined.
 Excited State   1:      Singlet-?Sym   10.1944 eV  121.62 nm  f=0.0242  <S**2>=0.000
       4 ->  6        -0.41769
       5 ->  6         0.53796
       5 -> 13         0.11151
 This state for optimization and/or second-order correction.
 Total Energy, E(TD-HF/TD-DFT) =  -99.9750633733
 Copying the excited state density for this state as the 1-particle RhoCI density.

 Excited state symmetry could not be determined.
 Excited State   2:      Singlet-?Sym   10.1944 eV  121.62 nm  f=0.0242  <S**2>=0.000
       4 ->  6         0.53796
       4 -> 13         0.11151
       5 ->  6         0.41769

 Excited state symmetry could not be determined.
 Excited State   3:      Singlet-?Sym   13.6509 eV   90.83 nm  f=0.0000  <S**2>=0.000
       4 ->  8        -0.48956
       5 ->  9         0.48956

 Excited state symmetry could not be determined.
 Excited State   4:      Singlet-?Sym   13.8028 eV   89.83 nm  f=0.0181  <S**2>=0.000
       4 ->  7         0.46203
       4 -> 12         0.11001
       5 ->  7         0.49949
       5 -> 12         0.11893

 Excited state symmetry could not be determined.
 Excited State   5:      Singlet-?Sym   13.8028 eV   89.83 nm  f=0.0181  <S**2>=0.000
       4 ->  7         0.49949
       4 -> 12         0.11893
       5 ->  7        -0.46203
       5 -> 12        -0.11001

 Excited State   6:      Singlet-SG    14.0428 eV   88.29 nm  f=0.1064  <S**2>=0.000
       3 ->  6         0.63496
       3 -> 13         0.12404
       4 ->  9         0.15776
       4 -> 10         0.11277
       5 ->  8         0.15776
       5 -> 11         0.11277

 Excited state symmetry could not be determined.
 Excited State   7:      Singlet-?Sym   14.3283 eV   86.53 nm  f=0.0000  <S**2>=0.000
       4 ->  8         0.48710
       4 -> 11         0.10934
       5 ->  9         0.48710
       5 -> 10         0.10934

 Excited state symmetry could not be determined.
 Excited State   8:      Singlet-?Sym   14.3283 eV   86.53 nm  f=0.0000  <S**2>=0.000
       4 ->  9        -0.48710
       4 -> 10        -0.10934
       5 ->  8         0.48710
       5 -> 11         0.10934

 Excited state symmetry could not be determined.
 Excited State   9:      Singlet-?Sym   16.0343 eV   77.32 nm  f=0.0044  <S**2>=0.000
       3 ->  6        -0.16735
       3 ->  7        -0.23896
       3 -> 12        -0.14077
       4 ->  9         0.43906
       5 ->  8         0.43906

 Excited state symmetry could not be determined.
 Excited State  10:      Singlet-?Sym   16.0353 eV   77.32 nm  f=0.0774  <S**2>=0.000
       5 ->  6         0.11600
       5 ->  7        -0.13870
       5 -> 12         0.66480
       5 -> 13        -0.12188

 Excited state symmetry could not be determined.
 Excited State  11:      Singlet-?Sym   16.0353 eV   77.32 nm  f=0.0774  <S**2>=0.000
       4 ->  6         0.11600
       4 ->  7        -0.13870
       4 -> 12         0.66480
       4 -> 13        -0.12188

 Excited state symmetry could not be determined.
 Excited State  12:      Singlet-?Sym   16.2951 eV   76.09 nm  f=0.0000  <S**2>=0.000
       4 -> 11        -0.48886
       5 -> 10         0.48886

 Excited state symmetry could not be determined.
 Excited State  13:      Singlet-?Sym   16.7077 eV   74.21 nm  f=0.0000  <S**2>=0.000
       4 ->  8        -0.10936
       4 -> 11         0.48554
       5 ->  9        -0.10936
       5 -> 10         0.48554

 Excited state symmetry could not be determined.
 Excited State  14:      Singlet-?Sym   16.7077 eV   74.21 nm  f=0.0000  <S**2>=0.000
       4 ->  9        -0.10936
       4 -> 10         0.48554
       5 ->  8         0.10936
       5 -> 11        -0.48554

 Excited state symmetry could not be determined.
 Excited State  15:      Singlet-?Sym   17.3278 eV   71.55 nm  f=0.2529  <S**2>=0.000
       3 ->  6        -0.11882
       3 ->  7        -0.21390
       3 -> 12        -0.15002
       4 -> 10         0.45418
       5 -> 11         0.45418

 Excited state symmetry could not be determined.
 Excited State  16:      Singlet-?Sym   17.4833 eV   70.92 nm  f=0.0013  <S**2>=0.000
       3 ->  9         0.69025
       3 -> 10         0.12241

 Excited state symmetry could not be determined.
 Excited State  17:      Singlet-?Sym   17.4833 eV   70.92 nm  f=0.0013  <S**2>=0.000
       3 ->  8         0.69025
       3 -> 11         0.12241

 Excited State  18:      Singlet-SG    18.1813 eV   68.19 nm  f=0.0292  <S**2>=0.000
       3 ->  6        -0.20010
       3 ->  7         0.61921
       4 ->  9         0.13948
       4 -> 10         0.11775
       5 ->  8         0.13948
       5 -> 11         0.11775

 Excited state symmetry could not be determined.
 Excited State  19:      Singlet-?Sym   18.5196 eV   66.95 nm  f=0.0398  <S**2>=0.000
       4 ->  6        -0.10539
       4 -> 12         0.12326
       4 -> 13         0.62241
       5 -> 13        -0.26148

 Excited state symmetry could not be determined.
 Excited State  20:      Singlet-?Sym   18.5196 eV   66.95 nm  f=0.0398  <S**2>=0.000
       4 -> 13         0.26148
       5 ->  6        -0.10539
       5 -> 12         0.12326
       5 -> 13         0.62241

 Excited state symmetry could not be determined.
 Excited State  21:      Singlet-?Sym   20.2887 eV   61.11 nm  f=0.0543  <S**2>=0.000
       3 ->  9        -0.12560
       3 -> 10         0.66908
       3 -> 11         0.15897

 Excited state symmetry could not be determined.
 Excited State  22:      Singlet-?Sym   20.2887 eV   61.11 nm  f=0.0543  <S**2>=0.000
       3 ->  8        -0.12560
       3 -> 10        -0.15897
       3 -> 11         0.66908

 Excited State  23:      Singlet-SG    20.7213 eV   59.83 nm  f=0.0953  <S**2>=0.000
       3 -> 12         0.66196
       3 -> 13         0.11516

 Excited State  24:      Singlet-SG    23.2665 eV   53.29 nm  f=0.0590  <S**2>=0.000
       3 -> 13         0.67658

 Excited state symmetry could not be determined.
 Excited State  25:      Singlet-?Sym   24.1413 eV   51.36 nm  f=0.0000  <S**2>=0.000
       4 -> 15         0.49748
       5 -> 14         0.49748

 Excited state symmetry could not be determined.
 Excited State  26:      Singlet-?Sym   24.1413 eV   51.36 nm  f=0.0000  <S**2>=0.000
       4 -> 14         0.49748
       5 -> 15        -0.49748

 Excited state symmetry could not be determined.
 Excited State  27:      Singlet-?Sym   25.4713 eV   48.68 nm  f=0.4671  <S**2>=0.000
       4 -> 14         0.37419
       4 -> 15        -0.31285
       5 -> 14         0.31285
       5 -> 15         0.37419

 Excited state symmetry could not be determined.
 Excited State  28:      Singlet-?Sym   25.4713 eV   48.68 nm  f=0.4671  <S**2>=0.000
       4 -> 14        -0.31285
       4 -> 15        -0.37419
       5 -> 14         0.37419
       5 -> 15        -0.31285

 Excited state symmetry could not be determined.
 Excited State  29:      Singlet-?Sym   26.7119 eV   46.42 nm  f=0.1289  <S**2>=0.000
       4 -> 16         0.67626
       5 -> 16        -0.12668

 Excited state symmetry could not be determined.
 Excited State  30:      Singlet-?Sym   26.7119 eV   46.42 nm  f=0.1289  <S**2>=0.000
       4 -> 16         0.12668
       5 -> 16         0.67626

 Excited state symmetry could not be determined.
 Excited State  31:      Singlet-?Sym   27.9809 eV   44.31 nm  f=0.0000  <S**2>=0.000
       3 -> 15         0.61844
       4 -> 17        -0.24120
       5 -> 18         0.24120

 Excited state symmetry could not be determined.
 Excited State  32:      Singlet-?Sym   27.9809 eV   44.31 nm  f=0.0000  <S**2>=0.000
       3 -> 14         0.61845
       4 -> 18         0.24120
       5 -> 17         0.24120

 Excited state symmetry could not be determined.
 Excited State  33:      Singlet-?Sym   28.6533 eV   43.27 nm  f=0.0000  <S**2>=0.000
       3 -> 15         0.34262
       4 -> 17         0.43533
       5 -> 18        -0.43533

 Excited state symmetry could not be determined.
 Excited State  34:      Singlet-?Sym   28.6533 eV   43.27 nm  f=0.0000  <S**2>=0.000
       3 -> 14        -0.34262
       4 -> 18         0.43533
       5 -> 17         0.43533

 Excited state symmetry could not be determined.
 Excited State  35:      Singlet-?Sym   28.6957 eV   43.21 nm  f=0.0000  <S**2>=0.000
       4 -> 18        -0.49864
       5 -> 17         0.49864

 Excited state symmetry could not be determined.
 Excited State  36:      Singlet-?Sym   29.0360 eV   42.70 nm  f=0.1503  <S**2>=0.000
       3 -> 16         0.32718
       4 -> 17         0.43133
       5 -> 18         0.43133

 Excited State  37:      Singlet-SG    31.1186 eV   39.84 nm  f=0.1720  <S**2>=0.000
       2 ->  6         0.62064
       3 -> 16        -0.30653

 Excited State  38:      Singlet-SG    31.7586 eV   39.04 nm  f=0.4329  <S**2>=0.000
       2 ->  6         0.29384
       2 ->  7         0.12152
       3 -> 16         0.53211
       4 -> 17        -0.23376
       5 -> 18        -0.23376

 Excited state symmetry could not be determined.
 Excited State  39:      Singlet-?Sym   32.5930 eV   38.04 nm  f=0.2816  <S**2>=0.000
       2 ->  9        -0.11564
       3 -> 17         0.53249
       3 -> 18        -0.42709

 Excited state symmetry could not be determined.
 Excited State  40:      Singlet-?Sym   32.5930 eV   38.04 nm  f=0.2816  <S**2>=0.000
       2 ->  8        -0.11564
       3 -> 17         0.42709
       3 -> 18         0.53249

 Excited State  41:      Singlet-SG    34.6408 eV   35.79 nm  f=0.0183  <S**2>=0.000
       2 ->  7         0.68348
       2 -> 12         0.11135

 Excited state symmetry could not be determined.
 Excited State  42:      Singlet-?Sym   34.9074 eV   35.52 nm  f=0.0063  <S**2>=0.000
       2 ->  8        -0.10512
       2 ->  9         0.66176
       2 -> 10         0.14795
       3 -> 17         0.14652

 Excited state symmetry could not be determined.
 Excited State  43:      Singlet-?Sym   34.9074 eV   35.52 nm  f=0.0063  <S**2>=0.000
       2 ->  8         0.66176
       2 ->  9         0.10512
       2 -> 11         0.14795
       3 -> 18         0.14652

 Excited State  44:      Singlet-SG    36.6712 eV   33.81 nm  f=0.0082  <S**2>=0.000
       2 ->  7        -0.10770
       2 -> 12         0.69025

 Excited state symmetry could not be determined.
 Excited State  45:      Singlet-?Sym   36.8628 eV   33.63 nm  f=0.0005  <S**2>=0.000
       2 ->  9         0.10841
       2 -> 10        -0.43382
       2 -> 11        -0.20208
       4 -> 19         0.45486
       5 -> 19         0.21188

 Excited state symmetry could not be determined.
 Excited State  46:      Singlet-?Sym   36.8628 eV   33.63 nm  f=0.0005  <S**2>=0.000
       2 ->  8         0.10841
       2 -> 10         0.20208
       2 -> 11        -0.43382
       4 -> 19        -0.21188
       5 -> 19         0.45486

 Excited state symmetry could not be determined.
 Excited State  47:      Singlet-?Sym   37.0387 eV   33.47 nm  f=0.0072  <S**2>=0.000
       2 -> 10         0.45130
       2 -> 11         0.19860
       4 -> 19         0.44889
       5 -> 19         0.19754

 Excited state symmetry could not be determined.
 Excited State  48:      Singlet-?Sym   37.0387 eV   33.47 nm  f=0.0072  <S**2>=0.000
       2 -> 10        -0.19860
       2 -> 11         0.45130
       4 -> 19        -0.19754
       5 -> 19         0.44889

 Excited State  49:      Singlet-SG    39.5298 eV   31.36 nm  f=0.0150  <S**2>=0.000
       2 -> 13         0.65282
       3 -> 19         0.23752

 Excited State  50:      Singlet-SG    41.1972 eV   30.10 nm  f=0.0051  <S**2>=0.000
       2 -> 13        -0.20956
       3 -> 19         0.62481
       4 -> 21        -0.17078
       5 -> 20        -0.17078

 Excited state symmetry could not be determined.
 Excited State  51:      Singlet-?Sym   42.1488 eV   29.42 nm  f=0.0000  <S**2>=0.000
       4 -> 20         0.49925
       5 -> 21        -0.49925

 Excited state symmetry could not be determined.
 Excited State  52:      Singlet-?Sym   42.8946 eV   28.90 nm  f=0.0000  <S**2>=0.000
       2 -> 14        -0.18275
       4 -> 20         0.48188
       5 -> 21         0.48188

 Excited state symmetry could not be determined.
 Excited State  53:      Singlet-?Sym   42.8947 eV   28.90 nm  f=0.0000  <S**2>=0.000
       2 -> 15        -0.18276
       4 -> 21        -0.48188
       5 -> 20         0.48188

 Excited state symmetry could not be determined.
 Excited State  54:      Singlet-?Sym   45.5415 eV   27.22 nm  f=0.0000  <S**2>=0.000
       2 -> 14         0.68276
       4 -> 20         0.12981
       5 -> 21         0.12981

 Excited state symmetry could not be determined.
 Excited State  55:      Singlet-?Sym   45.5415 eV   27.22 nm  f=0.0000  <S**2>=0.000
       2 -> 15         0.68275
       4 -> 21        -0.12982
       5 -> 20         0.12982

 Excited state symmetry could not be determined.
 Excited State  56:      Singlet-?Sym   46.4967 eV   26.67 nm  f=0.0000  <S**2>=0.000
       3 -> 20         0.48268
       3 -> 21         0.49645

 Excited state symmetry could not be determined.
 Excited State  57:      Singlet-?Sym   46.4967 eV   26.67 nm  f=0.0000  <S**2>=0.000
       3 -> 20         0.49645
       3 -> 21        -0.48268

 Excited State  58:      Singlet-SG    47.4100 eV   26.15 nm  f=0.0000  <S**2>=0.000
       2 -> 16         0.67694
       3 -> 22         0.10145

 Excited state symmetry could not be determined.
 Excited State  59:      Singlet-?Sym   48.3871 eV   25.62 nm  f=0.0270  <S**2>=0.000
       2 -> 17        -0.16130
       2 -> 18         0.10076
       4 -> 22         0.57019
       5 -> 22        -0.35617

 Excited state symmetry could not be determined.
 Excited State  60:      Singlet-?Sym   48.3871 eV   25.62 nm  f=0.0270  <S**2>=0.000
       2 -> 17        -0.10076
       2 -> 18        -0.16130
       4 -> 22         0.35617
       5 -> 22         0.57019

 Excited state symmetry could not be determined.
 Excited State  61:      Singlet-?Sym   49.8200 eV   24.89 nm  f=0.0168  <S**2>=0.000
       2 -> 17         0.52123
       2 -> 18         0.42819
       4 -> 22         0.13894
       5 -> 22         0.11414

 Excited state symmetry could not be determined.
 Excited State  62:      Singlet-?Sym   49.8200 eV   24.89 nm  f=0.0168  <S**2>=0.000
       2 -> 17        -0.42819
       2 -> 18         0.52123
       4 -> 22        -0.11414
       5 -> 22         0.13894

 Excited State  63:      Singlet-SG    49.8473 eV   24.87 nm  f=0.0804  <S**2>=0.000
       2 -> 13         0.10271
       2 -> 16        -0.18297
       3 -> 19        -0.15231
       3 -> 22         0.44933
       4 -> 21        -0.33177
       5 -> 20        -0.33177

 Excited State  64:      Singlet-SG    56.4056 eV   21.98 nm  f=0.0019  <S**2>=0.000
       2 -> 19        -0.33898
       2 -> 22         0.10763
       3 -> 22         0.44334
       4 -> 21         0.22183
       4 -> 24         0.16945
       5 -> 20         0.22183
       5 -> 23         0.16945

 Excited state symmetry could not be determined.
 Excited State  65:      Singlet-?Sym   58.0911 eV   21.34 nm  f=0.0000  <S**2>=0.000
       4 -> 23         0.49970
       5 -> 24         0.49970

 Excited state symmetry could not be determined.
 Excited State  66:      Singlet-?Sym   58.0911 eV   21.34 nm  f=0.0000  <S**2>=0.000
       4 -> 24        -0.49970
       5 -> 23         0.49970

 Excited state symmetry could not be determined.
 Excited State  67:      Singlet-?Sym   58.0960 eV   21.34 nm  f=0.0000  <S**2>=0.000
       4 -> 23         0.49974
       5 -> 24        -0.49974

 Excited State  68:      Singlet-SG    58.4372 eV   21.22 nm  f=0.1051  <S**2>=0.000
       2 -> 19         0.59506
       3 -> 22         0.13660
       3 -> 25        -0.10212
       4 -> 21         0.10790
       4 -> 24         0.19691
       5 -> 20         0.10790
       5 -> 23         0.19691

 Excited state symmetry could not be determined.
 Excited State  69:      Singlet-?Sym   59.1946 eV   20.95 nm  f=0.0476  <S**2>=0.000
       2 -> 19        -0.12519
       2 -> 22        -0.11177
       3 -> 22        -0.22444
       3 -> 25         0.18195
       4 -> 21        -0.12345
       4 -> 24         0.41984
       5 -> 20        -0.12345
       5 -> 23         0.41984

 Excited state symmetry could not be determined.
 Excited State  70:      Singlet-?Sym   59.9815 eV   20.67 nm  f=0.0196  <S**2>=0.000
       3 -> 24        -0.10712
       4 -> 25         0.66202
       5 -> 25        -0.19701

 Excited state symmetry could not be determined.
 Excited State  71:      Singlet-?Sym   59.9815 eV   20.67 nm  f=0.0196  <S**2>=0.000
       3 -> 23        -0.10712
       4 -> 25         0.19701
       5 -> 25         0.66202

 Excited state symmetry could not be determined.
 Excited State  72:      Singlet-?Sym   62.6133 eV   19.80 nm  f=0.1027  <S**2>=0.000
       3 -> 23         0.63282
       3 -> 24        -0.28370

 Excited state symmetry could not be determined.
 Excited State  73:      Singlet-?Sym   62.6133 eV   19.80 nm  f=0.1027  <S**2>=0.000
       3 -> 23         0.28370
       3 -> 24         0.63282

 Excited state symmetry could not be determined.
 Excited State  74:      Singlet-?Sym   64.5781 eV   19.20 nm  f=0.2298  <S**2>=0.000
       2 -> 20        -0.44524
       2 -> 21         0.53160

 Excited state symmetry could not be determined.
 Excited State  75:      Singlet-?Sym   64.5781 eV   19.20 nm  f=0.2298  <S**2>=0.000
       2 -> 20         0.53160
       2 -> 21         0.44524

 Excited State  76:      Singlet-SG    64.8473 eV   19.12 nm  f=0.0197  <S**2>=0.000
       2 -> 22         0.16228
       3 -> 25         0.65895

 Excited State  77:      Singlet-SG    71.3583 eV   17.37 nm  f=0.0680  <S**2>=0.000
       2 -> 22         0.64362
       2 -> 25         0.13915
       3 -> 22        -0.10261
       3 -> 25        -0.10471
       3 -> 26        -0.12991
       4 -> 21        -0.10028
       5 -> 20        -0.10028

 Excited state symmetry could not be determined.
 Excited State  78:      Singlet-?Sym   71.7160 eV   17.29 nm  f=0.0139  <S**2>=0.000
       4 -> 26         0.57205
       5 -> 26        -0.41022

 Excited state symmetry could not be determined.
 Excited State  79:      Singlet-?Sym   71.7160 eV   17.29 nm  f=0.0139  <S**2>=0.000
       4 -> 26         0.41022
       5 -> 26         0.57205

 Excited State  80:      Singlet-SG    76.9295 eV   16.12 nm  f=0.0231  <S**2>=0.000
       2 -> 22         0.10847
       3 -> 26         0.68452

 Excited state symmetry could not be determined.
 Excited State  81:      Singlet-?Sym   79.0907 eV   15.68 nm  f=0.0022  <S**2>=0.000
       2 -> 23         0.70660

 Excited state symmetry could not be determined.
 Excited State  82:      Singlet-?Sym   79.0907 eV   15.68 nm  f=0.0022  <S**2>=0.000
       2 -> 24         0.70660

 Excited State  83:      Singlet-SG    83.4671 eV   14.85 nm  f=0.0354  <S**2>=0.000
       2 -> 22        -0.11125
       2 -> 25         0.68081

 Excited State  84:      Singlet-SG    92.8315 eV   13.36 nm  f=0.0149  <S**2>=0.000
       2 -> 26         0.70462

 Excited state symmetry could not be determined.
 Excited State  85:      Singlet-?Sym   95.4602 eV   12.99 nm  f=0.0000  <S**2>=0.000
       4 -> 28        -0.49110
       5 -> 27         0.49111

 Excited state symmetry could not be determined.
 Excited State  86:      Singlet-?Sym   95.4602 eV   12.99 nm  f=0.0000  <S**2>=0.000
       4 -> 27         0.49111
       5 -> 28         0.49110

 Excited state symmetry could not be determined.
 Excited State  87:      Singlet-?Sym   99.4655 eV   12.47 nm  f=0.0000  <S**2>=0.000
       3 -> 27         0.68976
       4 -> 30         0.10973
       5 -> 29        -0.10973

 Excited state symmetry could not be determined.
 Excited State  88:      Singlet-?Sym   99.4655 eV   12.47 nm  f=0.0000  <S**2>=0.000
       3 -> 28         0.68976
       4 -> 29        -0.10973
       5 -> 30        -0.10973

 Excited state symmetry could not be determined.
 Excited State  89:      Singlet-?Sym   99.9723 eV   12.40 nm  f=0.3020  <S**2>=0.000
       3 -> 29        -0.30433
       3 -> 30        -0.14264
       4 -> 27        -0.18588
       4 -> 28         0.39658
       5 -> 27         0.39657
       5 -> 28         0.18588

 Excited state symmetry could not be determined.
 Excited State  90:      Singlet-?Sym   99.9723 eV   12.40 nm  f=0.3020  <S**2>=0.000
       3 -> 29         0.14264
       3 -> 30        -0.30433
       4 -> 27        -0.39657
       4 -> 28        -0.18588
       5 -> 27        -0.18588
       5 -> 28         0.39658

 Excited state symmetry could not be determined.
 Excited State  91:      Singlet-?Sym  100.1588 eV   12.38 nm  f=0.0000  <S**2>=0.000
       4 -> 29         0.49989
       5 -> 30        -0.49989

 Excited state symmetry could not be determined.
 Excited State  92:      Singlet-?Sym  100.8630 eV   12.29 nm  f=0.0000  <S**2>=0.000
       3 -> 28         0.15485
       4 -> 29         0.48730
       5 -> 30         0.48730

 Excited state symmetry could not be determined.
 Excited State  93:      Singlet-?Sym  100.8630 eV   12.29 nm  f=0.0000  <S**2>=0.000
       3 -> 27         0.15485
       4 -> 30        -0.48730
       5 -> 29         0.48730

 Excited state symmetry could not be determined.
 Excited State  94:      Singlet-?Sym  106.2349 eV   11.67 nm  f=0.5365  <S**2>=0.000
       4 -> 30         0.49305
       5 -> 29         0.49305

 Excited state symmetry could not be determined.
 Excited State  95:      Singlet-?Sym  108.9827 eV   11.38 nm  f=0.5975  <S**2>=0.000
       3 -> 29         0.52283
       3 -> 30         0.33273
       4 -> 27        -0.12480
       4 -> 28         0.19610
       5 -> 27         0.19610
       5 -> 28         0.12480

 Excited state symmetry could not be determined.
 Excited State  96:      Singlet-?Sym  108.9827 eV   11.38 nm  f=0.5975  <S**2>=0.000
       3 -> 29        -0.33273
       3 -> 30         0.52283
       4 -> 27        -0.19610
       4 -> 28        -0.12480
       5 -> 27        -0.12480
       5 -> 28         0.19610

 Excited state symmetry could not be determined.
 Excited State  97:      Singlet-?Sym  117.6520 eV   10.54 nm  f=0.0000  <S**2>=0.000
       2 -> 27         0.70637

 Excited state symmetry could not be determined.
 Excited State  98:      Singlet-?Sym  117.6520 eV   10.54 nm  f=0.0000  <S**2>=0.000
       2 -> 28         0.70637

 Excited state symmetry could not be determined.
 Excited State  99:      Singlet-?Sym  122.7886 eV   10.10 nm  f=0.0178  <S**2>=0.000
       2 -> 29         0.15015

 The electronic state is 1-SG.
 Alpha  occ. eigenvalues --  -25.05475  -1.32024  -0.68464  -0.55641  -0.55641
 Alpha virt. eigenvalues --    0.04824   0.16712   0.18652   0.18652   0.26801
 Alpha virt. eigenvalues --    0.26801   0.28252   0.38660   0.64969   0.64969
 Alpha virt. eigenvalues --    0.70318   0.79261   0.79261   1.11408   1.40160

 Mulliken charges:
               1
     1  F   -0.275169
     2  H    0.275169
 Sum of Mulliken charges =  -0.00000

 Dipole moment (field-independent basis, Debye):
    X=              0.0000    Y=              0.0000    Z=             -1.8885  Tot=              1.8885
 Quadrupole moment (field-independent basis, Debye-Ang):
   XX=             -5.8961   YY=             -5.8961   ZZ=             -3.7712
   XY=              0.0000   XZ=              0.0000   YZ=              0.0000

 Normal termination of Gaussian 16 at Mon Mar 21 20:09:01 2022.
