 Gaussian 16, Revision C.01,
 Gaussian 16:  EM64L-G16RevC.01  3-Jul-2019

 -------------------------------------------------------------------
 #P TD(Nstates=10000) m11/Gen SCF(maxcycles=100) Int(Grid=ultrafine)
 -------------------------------------------------------------------

 ---------------------
 xGDB7_00001_tier4.com
 ---------------------
 Symbolic Z-matrix:
 Charge =  0 Multiplicity = 1

                         Standard orientation:
 ---------------------------------------------------------------------
 Center     Atomic      Atomic             Coordinates (Angstroms)
 Number     Number       Type             X           Y           Z
 ---------------------------------------------------------------------
      1          6           0        0.000000    0.000000   -1.173653
      2          6           0        0.000000    0.000000    0.280989
      3          7           0        0.000000    0.000000    1.427442
      4          1           0        0.000000    1.024088   -1.545371
      5          1           0       -0.886886   -0.512044   -1.545371
      6          1           0        0.886886   -0.512044   -1.545371
 ---------------------------------------------------------------------

 SCF Done:  E(RM11) =  -132.573753016     A.U. after   14 cycles

 Excitation energies and oscillator strengths:

 Excited state symmetry could not be determined.
 Excited State   1:      Singlet-?Sym    7.3021 eV  169.79 nm  f=0.0000  <S**2>=0.000
      10 -> 15         0.43460
      10 -> 17        -0.20428
      11 -> 14         0.43460
      11 -> 16        -0.20428
 This state for optimization and/or second-order correction.
 Total Energy, E(TD-HF/TD-DFT) =  -132.305406523
 Copying the excited state density for this state as the 1-particle RhoCI density.

 Excited state symmetry could not be determined.
 Excited State   2:      Singlet-?Sym    8.5711 eV  144.65 nm  f=0.0025  <S**2>=0.000
      10 -> 14         0.44841
      10 -> 16        -0.18647
      11 -> 15         0.44841
      11 -> 17        -0.18647

 Excited state symmetry could not be determined.
 Excited State   3:      Singlet-?Sym    8.5712 eV  144.65 nm  f=0.0025  <S**2>=0.000
      10 -> 15        -0.44840
      10 -> 17         0.18647
      11 -> 14         0.44840
      11 -> 16        -0.18647

 Excited State   4:      Singlet-E      8.6444 eV  143.43 nm  f=0.0040  <S**2>=0.000
      11 -> 12         0.65371
      11 -> 13         0.22704

 Excited State   5:      Singlet-E      8.6445 eV  143.43 nm  f=0.0040  <S**2>=0.000
      10 -> 12         0.65370
      10 -> 13         0.22701

 Excited State   6:      Singlet-E      9.2909 eV  133.45 nm  f=0.0173  <S**2>=0.000
       9 -> 14         0.62080
       9 -> 16        -0.28563
       9 -> 19         0.11327

 Excited State   7:      Singlet-E      9.2909 eV  133.45 nm  f=0.0173  <S**2>=0.000
       9 -> 15         0.62080
       9 -> 17        -0.28563
       9 -> 18         0.11327

 Excited State   8:      Singlet-A1     9.8077 eV  126.42 nm  f=0.0443  <S**2>=0.000
       9 -> 12         0.61278
       9 -> 13         0.32642

 Excited State   9:      Singlet-E     10.3778 eV  119.47 nm  f=0.0729  <S**2>=0.000
       7 -> 12        -0.11837
      11 -> 12        -0.22725
      11 -> 13         0.64905

 Excited State  10:      Singlet-E     10.3778 eV  119.47 nm  f=0.0729  <S**2>=0.000
       8 -> 12        -0.11836
      10 -> 12        -0.22723
      10 -> 13         0.64906

 Excited state symmetry could not be determined.
 Excited State  11:      Singlet-?Sym   11.0971 eV  111.73 nm  f=0.7098  <S**2>=0.000
       9 -> 12         0.16830
       9 -> 13        -0.19835
       9 -> 24        -0.10590
      10 -> 14         0.43406
      11 -> 15        -0.43405

 Excited state symmetry could not be determined.
 Excited State  12:      Singlet-?Sym   11.6626 eV  106.31 nm  f=0.0000  <S**2>=0.000
       7 -> 14         0.15205
       8 -> 15         0.15204
      10 -> 15         0.22819
      10 -> 17         0.34410
      10 -> 18        -0.21693
      11 -> 14         0.22821
      11 -> 16         0.34414
      11 -> 19        -0.21694

 Excited State  13:      Singlet-A1    11.6950 eV  106.01 nm  f=0.0495  <S**2>=0.000
       9 -> 12        -0.28266
       9 -> 13         0.54510
       9 -> 20        -0.10071
      10 -> 14         0.14841
      10 -> 16         0.12707
      11 -> 15        -0.14838
      11 -> 17        -0.12700

 Excited state symmetry could not be determined.
 Excited State  14:      Singlet-?Sym   11.7772 eV  105.27 nm  f=0.0346  <S**2>=0.000
       8 -> 12         0.11405
      10 -> 15         0.19465
      10 -> 17         0.39254
      10 -> 18        -0.17912
      11 -> 14        -0.19463
      11 -> 16        -0.39250
      11 -> 19         0.17912

 Excited state symmetry could not be determined.
 Excited State  15:      Singlet-?Sym   11.7772 eV  105.27 nm  f=0.0346  <S**2>=0.000
       7 -> 12        -0.11403
      10 -> 14         0.19463
      10 -> 16         0.39251
      10 -> 19        -0.17910
      11 -> 15         0.19465
      11 -> 17         0.39253
      11 -> 18        -0.17914

 Excited State  16:      Singlet-E     12.1501 eV  102.04 nm  f=0.0832  <S**2>=0.000
       8 -> 12         0.66043
      10 -> 13         0.10747
      10 -> 18         0.10204
      11 -> 19        -0.10212

 Excited State  17:      Singlet-E     12.1501 eV  102.04 nm  f=0.0832  <S**2>=0.000
       7 -> 12         0.66042
      10 -> 19        -0.10212
      11 -> 13         0.10747
      11 -> 18        -0.10214

 Excited state symmetry could not be determined.
 Excited State  18:      Singlet-?Sym   12.1985 eV  101.64 nm  f=0.0000  <S**2>=0.000
      10 -> 17         0.25397
      10 -> 18         0.40400
      11 -> 16         0.25396
      11 -> 19         0.40389

 Excited State  19:      Singlet-E     12.3295 eV  100.56 nm  f=0.0142  <S**2>=0.000
       8 -> 13         0.11018
      10 -> 17        -0.11125
      10 -> 18        -0.24809
      10 -> 20         0.52859
      10 -> 24         0.10704
      11 -> 16         0.11121
      11 -> 19         0.24801

 Excited State  20:      Singlet-E     12.3295 eV  100.56 nm  f=0.0142  <S**2>=0.000
       7 -> 13         0.11013
      10 -> 16         0.11140
      10 -> 19         0.24827
      11 -> 17         0.11137
      11 -> 18         0.24833
      11 -> 20         0.52832
      11 -> 24         0.10698

 Excited State  21:      Singlet-E     12.3925 eV  100.05 nm  f=0.0034  <S**2>=0.000
       7 -> 12        -0.13033
      10 -> 16        -0.16478
      10 -> 19        -0.35339
      11 -> 17        -0.16564
      11 -> 18        -0.35449
      11 -> 20         0.35625

 Excited State  22:      Singlet-E     12.3926 eV  100.05 nm  f=0.0034  <S**2>=0.000
       8 -> 12        -0.13028
      10 -> 17         0.16528
      10 -> 18         0.35406
      10 -> 20         0.35585
      11 -> 16        -0.16536
      11 -> 19        -0.35421

 Excited state symmetry could not be determined.
 Excited State  23:      Singlet-?Sym   12.4257 eV   99.78 nm  f=0.0231  <S**2>=0.000
      10 -> 16         0.27903
      10 -> 19         0.39206
      11 -> 17        -0.27855
      11 -> 18        -0.39101

 Excited state symmetry could not be determined.
 Excited State  24:      Singlet-?Sym   12.5337 eV   98.92 nm  f=0.5919  <S**2>=0.000
       9 -> 13        -0.16570
       9 -> 24         0.15868
      10 -> 14        -0.11408
      10 -> 16         0.35011
      10 -> 19        -0.24988
      11 -> 15         0.11408
      11 -> 17        -0.35010
      11 -> 18         0.24990

 Excited state symmetry could not be determined.
 Excited State  25:      Singlet-?Sym   12.8430 eV   96.54 nm  f=0.0000  <S**2>=0.000
       7 -> 14         0.44904
       8 -> 15         0.44904
      10 -> 17        -0.11698
      10 -> 18         0.12579
      11 -> 16        -0.11696
      11 -> 19         0.12581

 Excited state symmetry could not be determined.
 Excited State  26:      Singlet-?Sym   13.1081 eV   94.59 nm  f=0.0271  <S**2>=0.000
       6 -> 14         0.15303
       7 -> 14        -0.43320
       8 -> 13        -0.10089
       8 -> 15         0.43321
       9 -> 16         0.10883
      10 -> 22         0.10676
      11 -> 21        -0.10676

 Excited state symmetry could not be determined.
 Excited State  27:      Singlet-?Sym   13.1081 eV   94.59 nm  f=0.0271  <S**2>=0.000
       6 -> 15         0.15303
       7 -> 13         0.10089
       7 -> 15         0.43321
       8 -> 14         0.43320
       9 -> 17         0.10882
      10 -> 21         0.10675
      11 -> 22         0.10673

 Excited State  28:      Singlet-A1    13.2543 eV   93.54 nm  f=0.0655  <S**2>=0.000
       6 -> 12         0.67594

 Excited State  29:      Singlet-E     13.2994 eV   93.23 nm  f=0.0138  <S**2>=0.000
       7 -> 15        -0.11496
       8 -> 14        -0.11495
       9 -> 15         0.28925
       9 -> 17         0.50960
       9 -> 18        -0.29618

 Excited State  30:      Singlet-E     13.2994 eV   93.23 nm  f=0.0138  <S**2>=0.000
       7 -> 14         0.11496
       8 -> 15        -0.11497
       9 -> 14         0.28925
       9 -> 16         0.50960
       9 -> 19        -0.29618

 Excited State  31:      Singlet-A1    13.6739 eV   90.67 nm  f=0.1738  <S**2>=0.000
       6 -> 13         0.13209
       7 -> 15         0.21891
       8 -> 14        -0.21895
       9 -> 13         0.12478
       9 -> 20         0.52849
       9 -> 23         0.21565

 Excited State  32:      Singlet-E     13.7629 eV   90.09 nm  f=0.0030  <S**2>=0.000
       7 -> 13         0.45793
       9 -> 17         0.17744
       9 -> 18         0.42879
       9 -> 22        -0.11099
      11 -> 24        -0.15312

 Excited State  33:      Singlet-E     13.7629 eV   90.09 nm  f=0.0030  <S**2>=0.000
       8 -> 13         0.45781
       9 -> 16        -0.17751
       9 -> 19        -0.42890
       9 -> 21         0.11102
      10 -> 24        -0.15309

 Excited State  34:      Singlet-E     13.7898 eV   89.91 nm  f=0.0120  <S**2>=0.000
       8 -> 13         0.42132
       9 -> 16         0.26866
       9 -> 19         0.39305
       9 -> 21        -0.13496
      10 -> 24        -0.16834

 Excited State  35:      Singlet-E     13.7898 eV   89.91 nm  f=0.0120  <S**2>=0.000
       7 -> 13         0.42121
       9 -> 17        -0.26870
       9 -> 18        -0.39318
       9 -> 22         0.13499
      11 -> 24        -0.16828

 Excited state symmetry could not be determined.
 Excited State  36:      Singlet-?Sym   13.8573 eV   89.47 nm  f=0.0626  <S**2>=0.000
       6 -> 13         0.10136
       7 -> 15         0.37552
       8 -> 14        -0.37550
       9 -> 20        -0.32044
       9 -> 23        -0.11071
       9 -> 24        -0.15567

 Excited state symmetry could not be determined.
 Excited State  37:      Singlet-?Sym   14.0414 eV   88.30 nm  f=0.0000  <S**2>=0.000
       7 -> 16         0.11439
       8 -> 17         0.11351
      10 -> 22         0.45164
      11 -> 21         0.45587

 Excited state symmetry could not be determined.
 Excited State  38:      Singlet-?Sym   14.0446 eV   88.28 nm  f=0.0073  <S**2>=0.000
       6 -> 15        -0.19926
      10 -> 21         0.41348
      11 -> 22         0.41336
      11 -> 24         0.15960

 Excited state symmetry could not be determined.
 Excited State  39:      Singlet-?Sym   14.0447 eV   88.28 nm  f=0.0073  <S**2>=0.000
       6 -> 14        -0.19921
      10 -> 22         0.41575
      10 -> 24        -0.15955
      11 -> 21        -0.41115

 Excited State  40:      Singlet-E     14.1216 eV   87.80 nm  f=0.0194  <S**2>=0.000
       6 -> 14         0.42821
       8 -> 13         0.20852
      10 -> 20        -0.18298
      10 -> 22         0.17262
      10 -> 24         0.32946
      11 -> 21        -0.17257

 Excited State  41:      Singlet-E     14.1216 eV   87.80 nm  f=0.0194  <S**2>=0.000
       6 -> 15         0.42821
       7 -> 13        -0.20846
      10 -> 21         0.17271
      11 -> 20         0.18294
      11 -> 22         0.17263
      11 -> 24        -0.32943

 Excited State  42:      Singlet-E     14.4577 eV   85.76 nm  f=0.0000  <S**2>=0.000
       6 -> 14        -0.38280
       7 -> 19        -0.13979
       8 -> 13         0.12308
       8 -> 18         0.13977
      10 -> 23         0.11069
      10 -> 24         0.47712

 Excited State  43:      Singlet-E     14.4577 eV   85.76 nm  f=0.0000  <S**2>=0.000
       6 -> 15         0.38278
       7 -> 13         0.12310
       7 -> 18        -0.13978
       8 -> 19        -0.13978
      11 -> 23         0.11069
      11 -> 24         0.47713

 Excited state symmetry could not be determined.
 Excited State  44:      Singlet-?Sym   14.5642 eV   85.13 nm  f=0.0101  <S**2>=0.000
       6 -> 13         0.19718
       6 -> 20         0.13153
       9 -> 23        -0.17896
       9 -> 24         0.16294
      10 -> 16        -0.10356
      10 -> 21        -0.38321
      11 -> 17         0.10355
      11 -> 22         0.38339

 Excited State  45:      Singlet-E     14.6438 eV   84.67 nm  f=0.0034  <S**2>=0.000
       7 -> 16         0.11611
       8 -> 17        -0.11612
       8 -> 20        -0.22974
      10 -> 23         0.60653

 Excited State  46:      Singlet-E     14.6439 eV   84.67 nm  f=0.0034  <S**2>=0.000
       7 -> 17         0.11617
       7 -> 20        -0.22972
       8 -> 16         0.11609
      11 -> 23         0.60652

 Excited state symmetry could not be determined.
 Excited State  47:      Singlet-?Sym   14.7915 eV   83.82 nm  f=0.0000  <S**2>=0.000
       7 -> 16         0.45869
       8 -> 17         0.45871

 Excited state symmetry could not be determined.
 Excited State  48:      Singlet-?Sym   14.9138 eV   83.13 nm  f=0.0456  <S**2>=0.000
       7 -> 16         0.43934
       8 -> 17        -0.43930
      10 -> 23        -0.16870

 Excited state symmetry could not be determined.
 Excited State  49:      Singlet-?Sym   14.9138 eV   83.13 nm  f=0.0456  <S**2>=0.000
       7 -> 17         0.43932
       8 -> 16         0.43931
      11 -> 23        -0.16875

 Excited State  50:      Singlet-E     15.0621 eV   82.32 nm  f=0.0566  <S**2>=0.000
       9 -> 16         0.14219
       9 -> 19         0.11476
       9 -> 21         0.60418
       9 -> 27         0.12023
       9 -> 31         0.16577
       9 -> 32        -0.17439

 Excited State  51:      Singlet-E     15.0621 eV   82.32 nm  f=0.0566  <S**2>=0.000
       9 -> 17         0.14219
       9 -> 18         0.11476
       9 -> 22         0.60419
       9 -> 26         0.12023
       9 -> 30         0.16577
       9 -> 33        -0.17439

 Excited state symmetry could not be determined.
 Excited State  52:      Singlet-?Sym   15.0676 eV   82.29 nm  f=0.0000  <S**2>=0.000
       7 -> 19         0.43863
       8 -> 18         0.43854
      10 -> 26         0.16362
      11 -> 27         0.16361

 Excited State  53:      Singlet-A1    15.1337 eV   81.93 nm  f=0.0022  <S**2>=0.000
       6 -> 13         0.52437
       7 -> 17         0.26918
       8 -> 16        -0.26921

 Excited state symmetry could not be determined.
 Excited State  54:      Singlet-?Sym   15.3428 eV   80.81 nm  f=0.0015  <S**2>=0.000
       6 -> 13         0.20556
       7 -> 18         0.41671
       8 -> 19        -0.41665
      10 -> 27        -0.17329
      11 -> 26         0.17331

 Excited State  55:      Singlet-E     15.4469 eV   80.26 nm  f=0.0646  <S**2>=0.000
       6 -> 15        -0.14377
       6 -> 17        -0.18153
       7 -> 18        -0.20077
       7 -> 20         0.48072
       7 -> 24         0.15660
       7 -> 29        -0.11405
       8 -> 19        -0.20090
      11 -> 23         0.20645

 Excited State  56:      Singlet-E     15.4469 eV   80.26 nm  f=0.0646  <S**2>=0.000
       6 -> 14         0.14376
       6 -> 16         0.18154
       7 -> 19        -0.20083
       8 -> 18         0.20083
       8 -> 20         0.48071
       8 -> 24         0.15660
       8 -> 29        -0.11406
      10 -> 23         0.20647

 Excited State  57:      Singlet-A1    15.6794 eV   79.07 nm  f=0.0028  <S**2>=0.000
       6 -> 13         0.10655
       9 -> 20        -0.15686
       9 -> 23         0.36252
       9 -> 24        -0.33826
      10 -> 21        -0.18046
      10 -> 27         0.16514
      11 -> 22         0.18043
      11 -> 26        -0.16515

 Excited State  58:      Singlet-E     15.8595 eV   78.18 nm  f=0.2807  <S**2>=0.000
       6 -> 14         0.17733
       6 -> 16         0.38878
       6 -> 19        -0.13176
       7 -> 19        -0.22896
       8 -> 18         0.22896
       8 -> 20        -0.34863
      10 -> 23        -0.11463

 Excited State  59:      Singlet-E     15.8595 eV   78.18 nm  f=0.2807  <S**2>=0.000
       6 -> 15         0.17732
       6 -> 17         0.38877
       6 -> 18        -0.13176
       7 -> 18         0.22897
       7 -> 20         0.34864
       8 -> 19         0.22897
      11 -> 23         0.11462

 Excited State  60:      Singlet-A1    15.8939 eV   78.01 nm  f=0.1307  <S**2>=0.000
       6 -> 13         0.17120
       7 -> 17        -0.20406
       8 -> 16         0.20406
       9 -> 20        -0.22839
       9 -> 23         0.34013
       9 -> 24         0.38408

 Excited State  61:      Singlet-E     16.1221 eV   76.90 nm  f=0.0777  <S**2>=0.000
       6 -> 16         0.37674
       6 -> 19        -0.14962
       7 -> 19         0.32292
       8 -> 18        -0.32472
      10 -> 26         0.18921
      11 -> 27        -0.18501

 Excited State  62:      Singlet-E     16.1221 eV   76.90 nm  f=0.0776  <S**2>=0.000
       6 -> 17         0.37675
       6 -> 18        -0.14961
       7 -> 18        -0.32380
       8 -> 19        -0.32383
      10 -> 27         0.18711
      11 -> 26         0.18717

 Excited state symmetry could not be determined.
 Excited State  63:      Singlet-?Sym   16.1350 eV   76.84 nm  f=0.0000  <S**2>=0.000
       7 -> 19        -0.17968
       8 -> 18        -0.17644
      10 -> 26         0.42542
      11 -> 27         0.42698

 Excited State  64:      Singlet-A1    16.1580 eV   76.73 nm  f=0.0020  <S**2>=0.000
       6 -> 13        -0.18744
       7 -> 15         0.13085
       7 -> 17         0.26431
       8 -> 14        -0.13087
       8 -> 16        -0.26431
       9 -> 23         0.28825
      10 -> 21        -0.11853
      10 -> 27        -0.23276
      11 -> 22         0.11853
      11 -> 26         0.23276

 Excited state symmetry could not be determined.
 Excited State  65:      Singlet-?Sym   16.3035 eV   76.05 nm  f=0.0000  <S**2>=0.000
       6 -> 13         0.12029
       7 -> 17        -0.16212
       7 -> 18        -0.20167
       8 -> 16         0.16211
       8 -> 19         0.20163
       9 -> 23        -0.12673
       9 -> 24        -0.20666
      10 -> 19        -0.10085
      10 -> 27        -0.25013
      10 -> 31         0.20719
      10 -> 32        -0.11161
      11 -> 18         0.10086
      11 -> 26         0.25021
      11 -> 30        -0.20716
      11 -> 33         0.11160

 Excited State  66:      Singlet-E     16.4918 eV   75.18 nm  f=0.0157  <S**2>=0.000
       6 -> 16         0.23798
       6 -> 19         0.59544
       9 -> 27         0.15321

 Excited State  67:      Singlet-E     16.4918 eV   75.18 nm  f=0.0157  <S**2>=0.000
       6 -> 17         0.23788
       6 -> 18         0.59546
       9 -> 26         0.15324

 Excited state symmetry could not be determined.
 Excited State  68:      Singlet-?Sym   16.5572 eV   74.88 nm  f=0.4720  <S**2>=0.000
       6 -> 17        -0.23234
      10 -> 27         0.41324
      11 -> 26         0.41317

 Excited state symmetry could not be determined.
 Excited State  69:      Singlet-?Sym   16.5573 eV   74.88 nm  f=0.4722  <S**2>=0.000
       6 -> 16         0.23224
      10 -> 26        -0.41303
      11 -> 27         0.41344

 Excited state symmetry could not be determined.
 Excited State  70:      Singlet-?Sym   16.8355 eV   73.64 nm  f=0.0000  <S**2>=0.000
       7 -> 21        -0.15088
       8 -> 22        -0.15090
      10 -> 22        -0.10271
      10 -> 26         0.12521
      10 -> 30         0.40695
      10 -> 33        -0.14828
      11 -> 21        -0.10271
      11 -> 27         0.12499
      11 -> 31         0.40699
      11 -> 32        -0.14828

 Excited state symmetry could not be determined.
 Excited State  71:      Singlet-?Sym   16.9966 eV   72.95 nm  f=0.1545  <S**2>=0.000
       6 -> 19        -0.19411
       7 -> 21         0.13115
       8 -> 22        -0.13116
      10 -> 25         0.23324
      10 -> 30         0.37755
      10 -> 33        -0.13288
      11 -> 31        -0.37749
      11 -> 32         0.13287

 Excited state symmetry could not be determined.
 Excited State  72:      Singlet-?Sym   16.9968 eV   72.95 nm  f=0.1545  <S**2>=0.000
       6 -> 18        -0.19396
       7 -> 22        -0.13102
       8 -> 21        -0.13112
      10 -> 31         0.37741
      10 -> 32        -0.13279
      11 -> 25        -0.23426
      11 -> 30         0.37728
      11 -> 33        -0.13276

 Excited State  73:      Singlet-E     17.0317 eV   72.80 nm  f=0.0000  <S**2>=0.000
       8 -> 23        -0.14447
      10 -> 25         0.61844
      10 -> 29        -0.12139
      10 -> 30        -0.12153
      11 -> 31         0.12149

 Excited State  74:      Singlet-E     17.0317 eV   72.80 nm  f=0.0000  <S**2>=0.000
       7 -> 23        -0.14447
      10 -> 31         0.12214
      11 -> 25         0.61806
      11 -> 29        -0.12141
      11 -> 30         0.12213

 Excited State  75:      Singlet-E     17.3266 eV   71.56 nm  f=0.0010  <S**2>=0.000
       6 -> 18        -0.14607
       9 -> 18         0.13159
       9 -> 26         0.60628
       9 -> 30        -0.15252
       9 -> 33         0.10408
       9 -> 37        -0.10384
       9 -> 38        -0.11130

 Excited State  76:      Singlet-E     17.3266 eV   71.56 nm  f=0.0010  <S**2>=0.000
       6 -> 19        -0.14607
       9 -> 19         0.13160
       9 -> 27         0.60628
       9 -> 31        -0.15252
       9 -> 32         0.10408
       9 -> 36        -0.10384
       9 -> 39         0.11130

 Excited State  77:      Singlet-E     17.4284 eV   71.14 nm  f=0.0100  <S**2>=0.000
       8 -> 29         0.11177
      10 -> 24         0.10265
      10 -> 29         0.61084
      10 -> 35        -0.17609

 The electronic state is 1-A1.
 Alpha  occ. eigenvalues --  -14.61933 -10.49463 -10.48867  -1.04290  -0.91211
 Alpha  occ. eigenvalues --   -0.63135  -0.58619  -0.58619  -0.48233  -0.44783
 Alpha  occ. eigenvalues --   -0.44783
 Alpha virt. eigenvalues --    0.03450   0.08663   0.11100   0.11100   0.15816
 Alpha virt. eigenvalues --    0.15816   0.17931   0.17931   0.20242   0.26583
 Alpha virt. eigenvalues --    0.26583   0.27978   0.30027   0.35035   0.35064

 Mulliken charges:
               1
     1  C    0.087044
     2  C   -0.528518
     3  N    0.134961
     4  H    0.102171
     5  H    0.102171
     6  H    0.102171
 Sum of Mulliken charges =  -0.00000

 Dipole moment (field-independent basis, Debye):
    X=             -0.0000    Y=             -0.0000    Z=             -4.0890  Tot=              4.0890
 Quadrupole moment (field-independent basis, Debye-Ang):
   XX=            -17.5529   YY=            -17.5529   ZZ=            -20.8458
   XY=             -0.0000   XZ=              0.0000   YZ=              0.0000

 Normal termination of Gaussian 16 at Mon Mar 21 20:17:04 2022.
