 Gaussian 16, Revision C.01,
 Gaussian 16:  EM64L-G16RevC.01  3-Jul-2019

 -------------------------------------------------------------------
 #P TD(Nstates=10000) m11/Gen SCF(maxcycles=100) Int(Grid=ultrafine)
 -------------------------------------------------------------------

 ---------------------
 xGDB7_00001_tier4.com
 ---------------------
 Symbolic Z-matrix:
 Charge =  0 Multiplicity = 1

                         Standard orientation:
 ---------------------------------------------------------------------
 Center     Atomic      Atomic             Coordinates (Angstroms)
 Number     Number       Type             X           Y           Z
 ---------------------------------------------------------------------
      1          6           0       -1.208422   -0.239069   -0.021917
      2          6           0        0.083893    0.553452    0.046734
      3          8           0        1.233467   -0.256002   -0.105864
      4          1           0       -2.071999    0.425135    0.051700
      5          1           0       -1.270670   -0.957756    0.799731
      6          1           0       -1.270625   -0.788280   -0.962327
      7          1           0        0.130030    1.119197    0.986112
      8          1           0        0.125951    1.277026   -0.768547
      9          1           0        1.236751   -0.913605    0.591341
 ---------------------------------------------------------------------

 SCF Done:  E(RM11) =  -154.844750816     A.U. after   14 cycles

 Excitation energies and oscillator strengths:

 Excited State   1:      Singlet-A      7.0477 eV  175.92 nm  f=0.0070  <S**2>=0.000
      13 -> 14         0.59683
      13 -> 15         0.30859
      13 -> 18         0.10313
 This state for optimization and/or second-order correction.
 Total Energy, E(TD-HF/TD-DFT) =  -154.585751931
 Copying the excited state density for this state as the 1-particle RhoCI density.

 Excited State   2:      Singlet-A      8.2424 eV  150.42 nm  f=0.0130  <S**2>=0.000
      13 -> 14        -0.26958
      13 -> 15         0.54204
      13 -> 16        -0.31290

 Excited State   3:      Singlet-A      8.5958 eV  144.24 nm  f=0.0114  <S**2>=0.000
      12 -> 14         0.63986
      12 -> 15         0.15423

 Excited State   4:      Singlet-A      8.7667 eV  141.43 nm  f=0.0043  <S**2>=0.000
      13 -> 14        -0.15324
      13 -> 15         0.22730
      13 -> 16         0.50635
      13 -> 17        -0.32589
      13 -> 19        -0.13752

 Excited State   5:      Singlet-A      8.9493 eV  138.54 nm  f=0.0572  <S**2>=0.000
      13 -> 15         0.10665
      13 -> 16         0.31166
      13 -> 17         0.59697

 Excited State   6:      Singlet-A      9.3919 eV  132.01 nm  f=0.0133  <S**2>=0.000
      10 -> 14         0.11115
      11 -> 14         0.23043
      12 -> 14        -0.17225
      12 -> 15         0.58004
      12 -> 16        -0.15403

 Excited State   7:      Singlet-A      9.7414 eV  127.28 nm  f=0.0123  <S**2>=0.000
      13 -> 14        -0.14833
      13 -> 18         0.56853
      13 -> 19        -0.24920
      13 -> 20         0.13650
      13 -> 22         0.16120

 Excited State   8:      Singlet-A      9.8532 eV  125.83 nm  f=0.0617  <S**2>=0.000
      10 -> 14         0.19526
      11 -> 14         0.12558
      12 -> 14        -0.11354
      12 -> 16         0.62365

 Excited State   9:      Singlet-A      9.9759 eV  124.28 nm  f=0.0228  <S**2>=0.000
      10 -> 14         0.12143
      13 -> 16         0.14987
      13 -> 18         0.20802
      13 -> 19         0.52242
      13 -> 20         0.21517
      13 -> 25        -0.11282

 Excited State  10:      Singlet-A     10.0359 eV  123.54 nm  f=0.0734  <S**2>=0.000
      10 -> 14        -0.10692
      11 -> 14         0.58443
      12 -> 15        -0.23371
      13 -> 19        -0.10365

 Excited State  11:      Singlet-A     10.2832 eV  120.57 nm  f=0.0175  <S**2>=0.000
      10 -> 14        -0.29906
      11 -> 15        -0.12062
      12 -> 15         0.10589
      12 -> 17         0.53517
      12 -> 18        -0.11177
      13 -> 20        -0.10339

 Excited State  12:      Singlet-A     10.3500 eV  119.79 nm  f=0.0089  <S**2>=0.000
      10 -> 14         0.40719
      11 -> 15         0.14895
      12 -> 15        -0.15412
      12 -> 16        -0.13888
      12 -> 17         0.19095
      13 -> 20        -0.39592

 Excited State  13:      Singlet-A     10.4739 eV  118.37 nm  f=0.0401  <S**2>=0.000
      10 -> 14         0.21915
      11 -> 15         0.13284
      12 -> 17         0.28333
      12 -> 18        -0.12328
      12 -> 20        -0.10560
      13 -> 15        -0.10089
      13 -> 18        -0.20725
      13 -> 19        -0.11780
      13 -> 20         0.41396
      13 -> 23         0.12080

 Excited State  14:      Singlet-A     10.7696 eV  115.12 nm  f=0.0097  <S**2>=0.000
      10 -> 16        -0.13956
      11 -> 16        -0.13062
      13 -> 19         0.19438
      13 -> 20        -0.10107
      13 -> 21         0.43443
      13 -> 22         0.31596
      13 -> 23         0.11432
      13 -> 25         0.13443
      13 -> 30        -0.14731

 Excited State  15:      Singlet-A     10.8293 eV  114.49 nm  f=0.0167  <S**2>=0.000
      10 -> 14        -0.20052
      10 -> 15         0.11073
      11 -> 15         0.48932
      12 -> 18        -0.24154
      12 -> 19         0.19774
      13 -> 23        -0.14130

 Excited State  16:      Singlet-A     10.9466 eV  113.26 nm  f=0.0157  <S**2>=0.000
      11 -> 15         0.11020
      11 -> 16         0.18342
      13 -> 20        -0.11060
      13 -> 21        -0.19854
      13 -> 23         0.54706
      13 -> 24        -0.10694
      13 -> 27         0.12241

 Excited State  17:      Singlet-A     11.0193 eV  112.52 nm  f=0.0212  <S**2>=0.000
      11 -> 15         0.19000
      11 -> 16         0.36759
      12 -> 17         0.12656
      12 -> 18         0.24990
      12 -> 19        -0.36071
      13 -> 21         0.13668
      13 -> 23        -0.14186

 Excited State  18:      Singlet-A     11.0744 eV  111.96 nm  f=0.0594  <S**2>=0.000
       9 -> 14        -0.11185
      10 -> 15         0.38513
      10 -> 16         0.16939
      11 -> 15        -0.13650
      11 -> 16         0.16984
      12 -> 18        -0.34803
      12 -> 19        -0.14839
      13 -> 21         0.17275
      13 -> 23         0.10044

 Excited State  19:      Singlet-A     11.1354 eV  111.34 nm  f=0.0059  <S**2>=0.000
      10 -> 15         0.26259
      11 -> 16        -0.18354
      12 -> 19        -0.18007
      13 -> 21        -0.34366
      13 -> 22         0.39101

 Excited State  20:      Singlet-A     11.2600 eV  110.11 nm  f=0.0922  <S**2>=0.000
      10 -> 16        -0.21058
      11 -> 15        -0.22125
      11 -> 16         0.41088
      12 -> 18        -0.14344
      12 -> 19         0.17018
      13 -> 21        -0.12072
      13 -> 22         0.29147
      13 -> 23        -0.15592

 Excited State  21:      Singlet-A     11.3827 eV  108.92 nm  f=0.0363  <S**2>=0.000
      10 -> 15         0.39606
      10 -> 16        -0.28022
      12 -> 18         0.29185
      12 -> 19         0.20767
      13 -> 19        -0.13429
      13 -> 22        -0.15529

 Excited State  22:      Singlet-A     11.5050 eV  107.77 nm  f=0.0766  <S**2>=0.000
       9 -> 14        -0.15278
      10 -> 16         0.43841
      11 -> 16         0.10403
      12 -> 18         0.19843
      12 -> 19         0.28214
      12 -> 21        -0.11183
      12 -> 22        -0.13796
      13 -> 22         0.14718

 Excited State  23:      Singlet-A     11.6493 eV  106.43 nm  f=0.0055  <S**2>=0.000
      10 -> 15         0.12334
      10 -> 16         0.15007
      12 -> 20         0.23735
      13 -> 22        -0.12550
      13 -> 23        -0.12905
      13 -> 24        -0.12295
      13 -> 25         0.37922
      13 -> 26         0.20698
      13 -> 27         0.12977

 Excited State  24:      Singlet-A     11.7219 eV  105.77 nm  f=0.0156  <S**2>=0.000
       9 -> 14        -0.20081
      10 -> 16        -0.13055
      12 -> 20         0.54828
      13 -> 26        -0.10815

 Excited State  25:      Singlet-A     11.7928 eV  105.14 nm  f=0.0840  <S**2>=0.000
       8 -> 14         0.10873
      11 -> 17         0.55722
      11 -> 18        -0.26219
      11 -> 21        -0.16163
      12 -> 21         0.11659

 Excited State  26:      Singlet-A     11.9667 eV  103.61 nm  f=0.0166  <S**2>=0.000
       9 -> 14         0.48718
      10 -> 17         0.11406
      12 -> 20         0.16857
      12 -> 22        -0.26061
      12 -> 23        -0.11312
      13 -> 25        -0.16642

 Excited State  27:      Singlet-A     12.0447 eV  102.94 nm  f=0.0425  <S**2>=0.000
       9 -> 15         0.15445
      10 -> 17         0.42841
      10 -> 21        -0.16294
      12 -> 19         0.10072
      12 -> 21         0.38171
      12 -> 22         0.14135

 Excited State  28:      Singlet-A     12.0778 eV  102.65 nm  f=0.0593  <S**2>=0.000
       8 -> 14         0.10092
       9 -> 14         0.23546
      10 -> 16         0.11708
      10 -> 17        -0.13475
      10 -> 18         0.19912
      11 -> 17         0.14027
      11 -> 18         0.13645
      12 -> 19         0.12353
      12 -> 22         0.27782
      12 -> 23         0.23967
      13 -> 24         0.24280
      13 -> 26        -0.11719

 Excited State  29:      Singlet-A     12.0975 eV  102.49 nm  f=0.0033  <S**2>=0.000
       9 -> 14        -0.13777
      10 -> 17         0.15194
      10 -> 18        -0.10726
      12 -> 22        -0.16094
      13 -> 21        -0.15807
      13 -> 24         0.42333
      13 -> 25         0.23517
      13 -> 26        -0.12679

 Excited State  30:      Singlet-A     12.1810 eV  101.78 nm  f=0.0201  <S**2>=0.000
      10 -> 17         0.21602
      11 -> 18         0.17456
      12 -> 20        -0.12826
      12 -> 21        -0.13974
      12 -> 22        -0.20492
      12 -> 23         0.47082
      13 -> 24        -0.17209

 Excited State  31:      Singlet-A     12.3762 eV  100.18 nm  f=0.0137  <S**2>=0.000
       8 -> 14         0.29016
      10 -> 17         0.22696
      10 -> 18        -0.12698
      11 -> 18         0.14304
      11 -> 19         0.17867
      11 -> 25        -0.10345
      12 -> 21        -0.23949
      12 -> 22         0.20616
      12 -> 23        -0.19109
      13 -> 24        -0.21015

 Excited State  32:      Singlet-A     12.4016 eV   99.97 nm  f=0.0137  <S**2>=0.000
       8 -> 14         0.26550
       9 -> 15         0.15489
      10 -> 17        -0.14665
      10 -> 18         0.14137
      11 -> 17        -0.14601
      11 -> 19         0.21441
      12 -> 21         0.26635
      12 -> 22        -0.25365
      13 -> 27        -0.12859
      13 -> 28        -0.10682

 Excited State  33:      Singlet-A     12.4942 eV   99.23 nm  f=0.0746  <S**2>=0.000
      11 -> 17         0.10292
      11 -> 18         0.42226
      11 -> 19        -0.28926
      11 -> 20        -0.16746
      11 -> 23        -0.16496
      12 -> 21         0.10594
      12 -> 22        -0.11198
      12 -> 23        -0.19939
      13 -> 26         0.10533
      13 -> 27        -0.10608

 Excited State  34:      Singlet-A     12.5585 eV   98.73 nm  f=0.0553  <S**2>=0.000
       8 -> 14        -0.17761
       8 -> 15         0.10414
       9 -> 14        -0.10048
       9 -> 15         0.19524
      11 -> 17         0.13527
      11 -> 18         0.17507
      11 -> 19         0.25679
      11 -> 20         0.21014
      11 -> 21        -0.13839
      11 -> 22        -0.12724
      13 -> 25        -0.19022
      13 -> 26         0.16833
      13 -> 27         0.11280
      13 -> 28         0.17082

 Excited State  35:      Singlet-A     12.6231 eV   98.22 nm  f=0.0040  <S**2>=0.000
       8 -> 14        -0.30198
      10 -> 18         0.34421
      10 -> 23        -0.16413
      11 -> 19         0.19524
      11 -> 20        -0.11029
      12 -> 23        -0.11517
      13 -> 25         0.18685
      13 -> 28        -0.11713

 Excited State  36:      Singlet-A     12.6328 eV   98.14 nm  f=0.0364  <S**2>=0.000
       8 -> 14         0.19465
       9 -> 15         0.12250
      10 -> 18         0.26802
      10 -> 19        -0.14816
      10 -> 20        -0.12536
      10 -> 23        -0.13216
      11 -> 18        -0.12987
      11 -> 19        -0.19648
      11 -> 20         0.12459
      12 -> 21        -0.21501
      13 -> 26         0.22705
      13 -> 27        -0.14794
      13 -> 28         0.13287

 Excited State  37:      Singlet-A     12.6989 eV   97.63 nm  f=0.0288  <S**2>=0.000
       9 -> 15         0.14066
      11 -> 19        -0.18898
      11 -> 20         0.38129
      12 -> 24         0.11332
      12 -> 25        -0.13293
      13 -> 24        -0.14432
      13 -> 25         0.18210
      13 -> 26        -0.25189
      13 -> 28        -0.12007

 Excited State  38:      Singlet-A     12.7809 eV   97.01 nm  f=0.0261  <S**2>=0.000
       9 -> 15        -0.15610
       9 -> 16         0.12252
      10 -> 18         0.16774
      10 -> 19         0.47820
      10 -> 20        -0.12728
      10 -> 25        -0.19189
      12 -> 25         0.12398
      13 -> 27         0.15141

 Excited State  39:      Singlet-A     12.8263 eV   96.66 nm  f=0.0235  <S**2>=0.000
       9 -> 15         0.36194
      10 -> 19         0.19441
      10 -> 20         0.26106
      10 -> 21        -0.15577
      11 -> 20        -0.23621
      11 -> 21         0.10551
      12 -> 21        -0.15128
      13 -> 27        -0.13123
      13 -> 28         0.15130

 Excited State  40:      Singlet-A     12.8853 eV   96.22 nm  f=0.0183  <S**2>=0.000
       8 -> 14         0.12106
       8 -> 15         0.10303
       9 -> 15         0.11619
      10 -> 18         0.15298
      11 -> 20        -0.14612
      12 -> 25        -0.22679
      13 -> 23        -0.10079
      13 -> 26        -0.20566
      13 -> 27         0.40178
      13 -> 29        -0.12811

 Excited State  41:      Singlet-A     12.9737 eV   95.57 nm  f=0.0460  <S**2>=0.000
       8 -> 14         0.11064
       8 -> 15        -0.11091
       9 -> 15        -0.20021
       9 -> 16         0.24419
      10 -> 18         0.10839
      10 -> 19        -0.10303
      10 -> 20         0.21841
      11 -> 20         0.16415
      12 -> 21         0.10018
      12 -> 22         0.11220
      12 -> 24         0.22145
      12 -> 25        -0.13344
      12 -> 26        -0.14316
      12 -> 27        -0.14861
      13 -> 25        -0.10322
      13 -> 28         0.16664

 Excited State  42:      Singlet-A     13.0267 eV   95.18 nm  f=0.0644  <S**2>=0.000
       9 -> 16        -0.11158
      10 -> 20         0.22046
      10 -> 22        -0.11357
      11 -> 22        -0.21397
      12 -> 24         0.13532
      12 -> 25        -0.22485
      13 -> 24         0.11214
      13 -> 26         0.28901
      13 -> 28        -0.27041
      13 -> 30         0.11745

 Excited State  43:      Singlet-A     13.1243 eV   94.47 nm  f=0.0399  <S**2>=0.000
       8 -> 15        -0.11271
       9 -> 15         0.20922
       9 -> 16         0.35176
      10 -> 22         0.15802
      11 -> 17         0.10092
      11 -> 21         0.20326
      13 -> 27         0.14993
      13 -> 28        -0.28279

 Excited State  44:      Singlet-A     13.1546 eV   94.25 nm  f=0.0280  <S**2>=0.000
       8 -> 15         0.27692
       8 -> 16        -0.16792
       9 -> 16         0.33695
      10 -> 21         0.13439
      11 -> 21        -0.18292
      11 -> 22        -0.29084
      12 -> 24         0.11440
      13 -> 27        -0.10378

 Excited State  45:      Singlet-A     13.1774 eV   94.09 nm  f=0.0118  <S**2>=0.000
       8 -> 17        -0.15442
       9 -> 15        -0.12468
       9 -> 17         0.12396
      10 -> 17        -0.13364
      10 -> 20        -0.21999
      10 -> 21        -0.12971
      11 -> 21         0.26952
      11 -> 22        -0.23213
      12 -> 24        -0.11628
      12 -> 25        -0.12105
      13 -> 26        -0.11382
      13 -> 27        -0.10488
      13 -> 28         0.24253

 Excited State  46:      Singlet-A     13.3014 eV   93.21 nm  f=0.0155  <S**2>=0.000
       9 -> 16        -0.26074
      10 -> 20         0.20155
      10 -> 22         0.17607
      11 -> 20         0.12224
      11 -> 21         0.17669
      11 -> 22        -0.23276
      12 -> 25         0.28932

 Excited State  47:      Singlet-A     13.3701 eV   92.73 nm  f=0.0596  <S**2>=0.000
       8 -> 15        -0.27393
       9 -> 17        -0.10423
       9 -> 20         0.12410
      10 -> 20        -0.25101
      10 -> 21         0.22597
      10 -> 22         0.12490
      11 -> 20        -0.11980
      11 -> 22        -0.15701
      12 -> 24         0.32379
      13 -> 29         0.11882

 Excited State  48:      Singlet-A     13.4694 eV   92.05 nm  f=0.0321  <S**2>=0.000
       8 -> 15         0.41792
      10 -> 18        -0.12332
      10 -> 20        -0.14821
      10 -> 22         0.17469
      11 -> 21         0.22122
      11 -> 22         0.15925
      12 -> 24         0.23927
      12 -> 27        -0.11703
      12 -> 28         0.11210

 Excited State  49:      Singlet-A     13.5369 eV   91.59 nm  f=0.0428  <S**2>=0.000
       8 -> 16        -0.19077
      10 -> 21         0.20955
      10 -> 22         0.21363
      10 -> 23         0.19057
      11 -> 23         0.33331
      12 -> 24        -0.20496
      12 -> 25        -0.14031
      12 -> 27        -0.10728
      12 -> 28        -0.12302

 Excited State  50:      Singlet-A     13.5705 eV   91.36 nm  f=0.0070  <S**2>=0.000
       8 -> 16         0.26225
       9 -> 18        -0.10637
      10 -> 19         0.15871
      10 -> 21         0.29146
      10 -> 23        -0.10453
      11 -> 23        -0.15433
      12 -> 25        -0.23587
      12 -> 26         0.16473
      12 -> 27         0.13600
      13 -> 29         0.16574

 Excited State  51:      Singlet-A     13.6923 eV   90.55 nm  f=0.0179  <S**2>=0.000
       9 -> 17         0.49595
       9 -> 18        -0.13115
       9 -> 19         0.14313
       9 -> 21        -0.11210
      10 -> 17         0.10902
      10 -> 23         0.16141
      11 -> 21        -0.14362
      13 -> 29         0.11157

 Excited State  52:      Singlet-A     13.7453 eV   90.20 nm  f=0.0872  <S**2>=0.000
       7 -> 14        -0.17376
       8 -> 16        -0.15326
       9 -> 17        -0.16824
      10 -> 21        -0.10800
      10 -> 23         0.10004
      11 -> 22         0.11378
      11 -> 23         0.16356
      11 -> 24        -0.10012
      12 -> 27         0.21348
      13 -> 27         0.11213
      13 -> 29         0.38023

 Excited State  53:      Singlet-A     13.8151 eV   89.75 nm  f=0.1319  <S**2>=0.000
       7 -> 14         0.22187
       8 -> 16         0.24968
       9 -> 17        -0.22167
      10 -> 21        -0.24633
      10 -> 22         0.17968
      10 -> 23         0.23238
      11 -> 22        -0.11770
      11 -> 24        -0.12740
      11 -> 25         0.14130

 Excited State  54:      Singlet-A     13.8801 eV   89.33 nm  f=0.0216  <S**2>=0.000
       7 -> 14        -0.17438
       9 -> 18         0.16971
      11 -> 21        -0.10261
      11 -> 22        -0.11966
      11 -> 23        -0.13847
      12 -> 24        -0.20992
      12 -> 27        -0.28159
      12 -> 28        -0.10787
      12 -> 29         0.10581
      13 -> 29         0.30216

 Excited State  55:      Singlet-A     13.9041 eV   89.17 nm  f=0.0509  <S**2>=0.000
       7 -> 14         0.43006
       8 -> 16        -0.20714
      11 -> 22         0.11786
      11 -> 23        -0.15982
      12 -> 27        -0.11965
      13 -> 27         0.12031
      13 -> 29         0.24496
      13 -> 30         0.12420

 Excited State  56:      Singlet-A     14.0128 eV   88.48 nm  f=0.0339  <S**2>=0.000
       8 -> 16         0.33309
       9 -> 19        -0.12587
      11 -> 19        -0.11913
      11 -> 22        -0.12923
      11 -> 23         0.33255
      12 -> 26         0.14655
      12 -> 27        -0.14143
      13 -> 27         0.11055
      13 -> 29         0.11858
      13 -> 30         0.17788

 Excited State  57:      Singlet-A     14.0223 eV   88.42 nm  f=0.0194  <S**2>=0.000
       7 -> 14        -0.17595
      10 -> 22        -0.12210
      10 -> 23         0.36301
      11 -> 18        -0.13843
      11 -> 23        -0.19185
      12 -> 27        -0.11440
      12 -> 28        -0.11968
      13 -> 25         0.10633
      13 -> 30         0.24615

 Excited State  58:      Singlet-A     14.0957 eV   87.96 nm  f=0.1458  <S**2>=0.000
       9 -> 18         0.10550
      10 -> 23         0.16282
      12 -> 24         0.17849
      12 -> 26         0.50333
      13 -> 30        -0.18666

 Excited State  59:      Singlet-A     14.1598 eV   87.56 nm  f=0.0793  <S**2>=0.000
       7 -> 14        -0.14331
       8 -> 17        -0.16222
      10 -> 21        -0.15610
      10 -> 22         0.31041
      11 -> 21        -0.20597
      12 -> 26         0.19371
      13 -> 29        -0.15253
      13 -> 30         0.29148

 Excited State  60:      Singlet-A     14.2910 eV   86.76 nm  f=0.0827  <S**2>=0.000
       8 -> 17         0.29396
       8 -> 20        -0.16262
       9 -> 20         0.13154
      10 -> 22         0.11109
      11 -> 24         0.29939
      11 -> 25        -0.21126
      11 -> 26        -0.14065
      12 -> 27         0.20468
      12 -> 28        -0.10343

 Excited State  61:      Singlet-A     14.3556 eV   86.37 nm  f=0.0214  <S**2>=0.000
       8 -> 18         0.10535
       9 -> 18         0.38767

 The electronic state is 1-A.
 Alpha  occ. eigenvalues --  -19.46052 -10.48403 -10.43232  -1.14843  -0.88166
 Alpha  occ. eigenvalues --   -0.75449  -0.62763  -0.57580  -0.55449  -0.49669
 Alpha  occ. eigenvalues --   -0.48498  -0.43792  -0.39189
 Alpha virt. eigenvalues --    0.04800   0.07474   0.08114   0.10729   0.13776
 Alpha virt. eigenvalues --    0.14490   0.16252   0.17293   0.18235   0.19759
 Alpha virt. eigenvalues --    0.22723   0.23393   0.25461   0.26206   0.27589

 Mulliken charges:
               1
     1  C    0.177127
     2  C    0.063492
     3  O   -0.373470
     4  H    0.058279
     5  H   -0.009422
     6  H    0.031274
     7  H   -0.046649
     8  H   -0.100728
     9  H    0.200098
 Sum of Mulliken charges =  -0.00000

 Dipole moment (field-independent basis, Debye):
    X=             -1.3976    Y=             -0.1454    Z=              1.1936  Tot=              1.8437
 Quadrupole moment (field-independent basis, Debye-Ang):
   XX=            -22.6437   YY=            -18.6764   ZZ=            -19.3471
   XY=             -0.9525   XZ=              1.8089   YZ=             -1.4992

 Normal termination of Gaussian 16 at Mon Mar 21 20:16:17 2022.
