 Gaussian 16, Revision C.01,
 Gaussian 16:  EM64L-G16RevC.01  3-Jul-2019

 -------------------------------------------------------------------
 #P TD(Nstates=10000) m11/Gen SCF(maxcycles=100) Int(Grid=ultrafine)
 -------------------------------------------------------------------

 ---------------------
 xGDB7_00001_tier4.com
 ---------------------
 Symbolic Z-matrix:
 Charge =  0 Multiplicity = 1

                         Standard orientation:
 ---------------------------------------------------------------------
 Center     Atomic      Atomic             Coordinates (Angstroms)
 Number     Number       Type             X           Y           Z
 ---------------------------------------------------------------------
      1          7           0        1.111035   -0.177046   -0.052467
      2          6           0       -0.122009    0.419593    0.001774
      3          7           0       -1.267607   -0.121443    0.008098
      4          1           0        1.920558    0.367802    0.180104
      5          1           0        1.180700   -1.165617    0.115308
      6          1           0       -0.065701    1.508813    0.004046
      7          1           0       -1.207497   -1.139126    0.000481
 ---------------------------------------------------------------------

 SCF Done:  E(RM11) =  -149.818714774     A.U. after   16 cycles

 Excitation energies and oscillator strengths:

 Excited State   1:      Singlet-A      6.0965 eV  203.37 nm  f=0.0067  <S**2>=0.000
      11 -> 16         0.65381
      12 -> 13         0.13572
      12 -> 16        -0.12264
 This state for optimization and/or second-order correction.
 Total Energy, E(TD-HF/TD-DFT) =  -149.594671070
 Copying the excited state density for this state as the 1-particle RhoCI density.

 Excited State   2:      Singlet-A      6.3245 eV  196.04 nm  f=0.0009  <S**2>=0.000
      11 -> 16        -0.13617
      12 -> 13         0.66329
      12 -> 14         0.11981

 Excited State   3:      Singlet-A      7.1031 eV  174.55 nm  f=0.0824  <S**2>=0.000
      11 -> 13        -0.13840
      12 -> 13        -0.10321
      12 -> 14         0.51754
      12 -> 15        -0.12206
      12 -> 16        -0.39757

 Excited State   4:      Singlet-A      7.2105 eV  171.95 nm  f=0.0562  <S**2>=0.000
      11 -> 13         0.31318
      12 -> 14         0.33682
      12 -> 15        -0.25797
      12 -> 16         0.42437

 Excited State   5:      Singlet-A      7.3041 eV  169.75 nm  f=0.1473  <S**2>=0.000
      11 -> 13         0.52455
      11 -> 15        -0.29339
      12 -> 15         0.16126
      12 -> 16        -0.28420

 Excited State   6:      Singlet-A      7.7463 eV  160.06 nm  f=0.0341  <S**2>=0.000
      10 -> 13         0.11945
      12 -> 14         0.26987
      12 -> 15         0.59492
      12 -> 16         0.18009

 Excited State   7:      Singlet-A      8.0443 eV  154.13 nm  f=0.0596  <S**2>=0.000
      11 -> 13        -0.14838
      11 -> 14         0.60315
      11 -> 15        -0.23850
      11 -> 17         0.17147

 Excited State   8:      Singlet-A      8.7951 eV  140.97 nm  f=0.0305  <S**2>=0.000
      11 -> 13         0.25580
      11 -> 14         0.29426
      11 -> 15         0.49291
      11 -> 17        -0.16253
      12 -> 16        -0.11720
      12 -> 17        -0.15258

 Excited State   9:      Singlet-A      8.8680 eV  139.81 nm  f=0.0124  <S**2>=0.000
      10 -> 14        -0.11812
      10 -> 15         0.10140
      11 -> 15         0.11540
      12 -> 17         0.63384

 Excited State  10:      Singlet-A      9.2705 eV  133.74 nm  f=0.0037  <S**2>=0.000
      12 -> 18         0.66122

 Excited State  11:      Singlet-A     10.0288 eV  123.63 nm  f=0.0001  <S**2>=0.000
       9 -> 16         0.62650
      12 -> 19        -0.22947

 Excited State  12:      Singlet-A     10.0656 eV  123.18 nm  f=0.0101  <S**2>=0.000
       9 -> 16         0.23506
      10 -> 14         0.12647
      12 -> 19         0.60340
      12 -> 20        -0.12211

 Excited State  13:      Singlet-A     10.1015 eV  122.74 nm  f=0.0077  <S**2>=0.000
      11 -> 15         0.21538
      11 -> 17         0.59753
      11 -> 18        -0.11847
      11 -> 19         0.11946

 Excited State  14:      Singlet-A     10.3363 eV  119.95 nm  f=0.0351  <S**2>=0.000
      10 -> 13         0.65116
      12 -> 15        -0.11592

 Excited State  15:      Singlet-A     10.4110 eV  119.09 nm  f=0.0029  <S**2>=0.000
      10 -> 16         0.11005
      11 -> 17         0.11333
      11 -> 18         0.46710
      11 -> 19        -0.14933
      12 -> 20         0.38255
      12 -> 21        -0.12442

 Excited State  16:      Singlet-A     10.4136 eV  119.06 nm  f=0.0396  <S**2>=0.000
      10 -> 16         0.15144
      11 -> 17        -0.10673
      11 -> 18        -0.33501
      11 -> 19         0.20443
      12 -> 19         0.13426
      12 -> 20         0.49500

 Excited State  17:      Singlet-A     10.7570 eV  115.26 nm  f=0.0521  <S**2>=0.000
       9 -> 13        -0.24846
      10 -> 14        -0.16406
      10 -> 16         0.50250
      12 -> 20        -0.15802
      12 -> 21         0.29419

 Excited State  18:      Singlet-A     10.8417 eV  114.36 nm  f=0.1408  <S**2>=0.000
       9 -> 13         0.17409
      10 -> 16        -0.16711
      11 -> 19        -0.28929
      11 -> 20         0.11139
      12 -> 20         0.13351
      12 -> 21         0.50658

 Excited State  19:      Singlet-A     10.9831 eV  112.89 nm  f=0.0112  <S**2>=0.000
       9 -> 13        -0.14304
      11 -> 19        -0.34991
      11 -> 20        -0.35144
      11 -> 21         0.37526
      11 -> 24         0.17549

 Excited State  20:      Singlet-A     11.0926 eV  111.77 nm  f=0.0165  <S**2>=0.000
      10 -> 14         0.31666
      10 -> 15        -0.10983
      10 -> 16         0.10287
      11 -> 19        -0.16747
      11 -> 21        -0.10239
      12 -> 22         0.51447

 Excited State  21:      Singlet-A     11.1537 eV  111.16 nm  f=0.0041  <S**2>=0.000
       9 -> 13         0.28463
      11 -> 18         0.23405
      11 -> 19         0.31397
      11 -> 20        -0.30235
      11 -> 21         0.17818
      12 -> 21         0.21935
      12 -> 22         0.18093

 Excited State  22:      Singlet-A     11.2307 eV  110.40 nm  f=0.0114  <S**2>=0.000
       9 -> 13        -0.12199
      10 -> 14         0.48823
      10 -> 15        -0.10586
      12 -> 17         0.17007
      12 -> 21         0.10871
      12 -> 22        -0.31311
      12 -> 23        -0.20183

 Excited State  23:      Singlet-A     11.2672 eV  110.04 nm  f=0.0502  <S**2>=0.000
       9 -> 13         0.49864
      10 -> 15        -0.10142
      10 -> 16         0.31197
      11 -> 19        -0.16806
      12 -> 21        -0.15374
      12 -> 22        -0.12070
      12 -> 23        -0.10381

 Excited State  24:      Singlet-A     11.5401 eV  107.44 nm  f=0.0560  <S**2>=0.000
      10 -> 14         0.12454
      11 -> 20         0.29658
      11 -> 21         0.37115
      11 -> 22        -0.32767
      11 -> 26        -0.12348
      12 -> 23         0.25000

 Excited State  25:      Singlet-A     11.5844 eV  107.03 nm  f=0.0773  <S**2>=0.000
      10 -> 15        -0.10826
      10 -> 18         0.10602
      11 -> 20        -0.14712
      11 -> 21        -0.14301
      11 -> 22         0.19795
      12 -> 22        -0.14263
      12 -> 23         0.54847

 Excited State  26:      Singlet-A     11.7376 eV  105.63 nm  f=0.0419  <S**2>=0.000
      10 -> 15         0.16043
      11 -> 18         0.10785
      11 -> 20         0.24095
      11 -> 21         0.26225
      11 -> 22         0.47607
      11 -> 23         0.17629

 Excited State  27:      Singlet-A     11.8146 eV  104.94 nm  f=0.0136  <S**2>=0.000
      10 -> 14         0.15340
      10 -> 15         0.59127
      10 -> 16         0.15931
      11 -> 22        -0.10119
      12 -> 19        -0.10240

 Excited State  28:      Singlet-A     12.0531 eV  102.86 nm  f=0.1949  <S**2>=0.000
       9 -> 14         0.60244
       9 -> 15        -0.20660
      12 -> 24        -0.19975

 Excited State  29:      Singlet-A     12.1880 eV  101.73 nm  f=0.1483  <S**2>=0.000
      11 -> 18         0.13415
      11 -> 22        -0.21247
      11 -> 23         0.52037
      11 -> 25        -0.17128
      12 -> 24         0.25281

 Excited State  30:      Singlet-A     12.4132 eV   99.88 nm  f=0.0431  <S**2>=0.000
       9 -> 14         0.24487
       9 -> 15         0.47454
       9 -> 16         0.10349
      11 -> 23        -0.16420
      12 -> 24         0.32118

 Excited State  31:      Singlet-A     12.5521 eV   98.78 nm  f=0.0403  <S**2>=0.000
      10 -> 15         0.10708
      10 -> 18         0.16385
      12 -> 22        -0.10514
      12 -> 23         0.10535
      12 -> 25         0.46558
      12 -> 26         0.35818
      12 -> 27        -0.17107

 Excited State  32:      Singlet-A     12.7803 eV   97.01 nm  f=0.0698  <S**2>=0.000
       8 -> 13         0.13596
       9 -> 15        -0.37136
       9 -> 18         0.10618
      11 -> 23        -0.21612
      12 -> 24         0.45325

 Excited State  33:      Singlet-A     12.9194 eV   95.97 nm  f=0.0191  <S**2>=0.000
       8 -> 16         0.36891
      10 -> 17         0.46658
      10 -> 18        -0.10351
      12 -> 26        -0.11237
      12 -> 28        -0.11135

 Excited State  34:      Singlet-A     13.0104 eV   95.30 nm  f=0.0017  <S**2>=0.000
       7 -> 16         0.16041
       8 -> 16         0.49069
      10 -> 17        -0.38848
      11 -> 24         0.11431

 Excited State  35:      Singlet-A     13.0967 eV   94.67 nm  f=0.0214  <S**2>=0.000
       8 -> 16        -0.16445
      10 -> 18        -0.21087
      11 -> 20         0.13124
      11 -> 24         0.42783
      11 -> 32         0.10233
      12 -> 25         0.26534
      12 -> 26        -0.15221
      12 -> 27         0.21157

 Excited State  36:      Singlet-A     13.1588 eV   94.22 nm  f=0.0807  <S**2>=0.000
      10 -> 17         0.17198
      10 -> 18         0.13792
      11 -> 20         0.11643
      11 -> 24         0.39274
      12 -> 25        -0.32694
      12 -> 26         0.31964

 Excited State  37:      Singlet-A     13.2443 eV   93.61 nm  f=0.0440  <S**2>=0.000
      10 -> 18         0.43840
      11 -> 24         0.17692
      12 -> 23        -0.10309
      12 -> 26        -0.36983
      12 -> 27        -0.22128

 Excited State  38:      Singlet-A     13.6157 eV   91.06 nm  f=0.1268  <S**2>=0.000
      10 -> 18         0.29180
      10 -> 19        -0.32715
      10 -> 20         0.12966
      11 -> 24        -0.13524
      11 -> 25        -0.12335
      11 -> 26         0.12463
      12 -> 27         0.39390
      12 -> 31        -0.10626

 Excited State  39:      Singlet-A     13.6783 eV   90.64 nm  f=0.1285  <S**2>=0.000
       8 -> 13         0.13845
       8 -> 14         0.10176
       9 -> 17         0.27877
       9 -> 18        -0.13087
      11 -> 23         0.12301
      11 -> 25         0.49044
      11 -> 26         0.22214

 Excited State  40:      Singlet-A     13.7750 eV   90.01 nm  f=0.0301  <S**2>=0.000
       8 -> 14         0.13862
       9 -> 17         0.40713
       9 -> 18        -0.26911
      11 -> 23        -0.13268
      11 -> 25        -0.34515

 Excited State  41:      Singlet-A     13.8923 eV   89.25 nm  f=0.0285  <S**2>=0.000
       9 -> 18         0.19872
      11 -> 21         0.14931
      11 -> 25        -0.15823
      11 -> 26         0.55433
      12 -> 27        -0.10779

 Excited State  42:      Singlet-A     14.0036 eV   88.54 nm  f=0.0676  <S**2>=0.000
       8 -> 13         0.55516
       9 -> 15         0.15753
       9 -> 18         0.12136
      10 -> 19         0.15615
      11 -> 26        -0.15193

 Excited State  43:      Singlet-A     14.0509 eV   88.24 nm  f=0.0538  <S**2>=0.000
       8 -> 13        -0.21271
       9 -> 17         0.31701
       9 -> 18         0.43567
      10 -> 19         0.22294
      10 -> 20         0.10519
      11 -> 26        -0.10669

 Excited State  44:      Singlet-A     14.0948 eV   87.96 nm  f=0.0262  <S**2>=0.000
       9 -> 17        -0.12021
       9 -> 18        -0.21556
      10 -> 18         0.16921
      10 -> 19         0.43565
      10 -> 20        -0.19280
      12 -> 27         0.18930
      12 -> 29        -0.17856
      12 -> 33         0.10706

 Excited State  45:      Singlet-A     14.3125 eV   86.63 nm  f=0.0487  <S**2>=0.000
       7 -> 13         0.43863
       7 -> 15         0.11044
      10 -> 20         0.40119
      12 -> 26        -0.11039
      12 -> 28        -0.18950

 Excited State  46:      Singlet-A     14.3221 eV   86.57 nm  f=0.0061  <S**2>=0.000
       7 -> 16         0.17760
       8 -> 13        -0.10126
       9 -> 18        -0.11605
      10 -> 17         0.14512
      10 -> 20         0.18952
      10 -> 21        -0.14012
      12 -> 28         0.48740
      12 -> 30         0.11161
      12 -> 31        -0.10963

 Excited State  47:      Singlet-A     14.4103 eV   86.04 nm  f=0.0546  <S**2>=0.000
       7 -> 13         0.32837
       7 -> 14         0.14918
       8 -> 13         0.10578
       8 -> 14        -0.11576
       8 -> 15        -0.11132
       9 -> 17         0.11887
       9 -> 18         0.11940
       9 -> 19         0.26583
      10 -> 20        -0.26408
      11 -> 27         0.11548
      12 -> 28         0.26688

 Excited State  48:      Singlet-A     14.5428 eV   85.25 nm  f=0.0223  <S**2>=0.000
       7 -> 16         0.41273
       8 -> 16        -0.14083
      10 -> 21         0.14184
      10 -> 22        -0.13180
      11 -> 27         0.23769
      12 -> 29        -0.30245
      12 -> 32        -0.12193

 Excited State  49:      Singlet-A     14.5623 eV   85.14 nm  f=0.0185  <S**2>=0.000
       7 -> 13         0.13666
       7 -> 16         0.42246
       8 -> 16        -0.10687
      10 -> 20        -0.13751
      10 -> 22         0.11680
      10 -> 23        -0.11067
      12 -> 28        -0.18489
      12 -> 29         0.33581
      12 -> 31         0.11968

 Excited State  50:      Singlet-A     14.6131 eV   84.84 nm  f=0.0691  <S**2>=0.000
       8 -> 15         0.10495
      10 -> 20         0.14297
      10 -> 22         0.20385
      11 -> 27         0.33634
      12 -> 29         0.32130
      12 -> 30        -0.29394

 Excited State  51:      Singlet-A     14.6398 eV   84.69 nm  f=0.0248  <S**2>=0.000
       9 -> 20        -0.17324
      10 -> 22        -0.11275
      11 -> 27         0.24425
      12 -> 27        -0.11252
      12 -> 30         0.47470

 Excited State  52:      Singlet-A     14.7653 eV   83.97 nm  f=0.0204  <S**2>=0.000
       7 -> 13        -0.10607
       9 -> 19         0.39382
       9 -> 20         0.21578
      10 -> 20         0.10032
      10 -> 21        -0.35630
      11 -> 27         0.12678
      12 -> 31         0.15580

 Excited State  53:      Singlet-A     14.8177 eV   83.67 nm  f=0.0411  <S**2>=0.000
       8 -> 14         0.38947
       9 -> 17        -0.10442
       9 -> 19        -0.19171
       9 -> 20        -0.33973
      10 -> 21        -0.15803
      11 -> 27         0.11714
      12 -> 31         0.17912

 Excited State  54:      Singlet-A     14.8758 eV   83.35 nm  f=0.0358  <S**2>=0.000
       8 -> 14         0.37519
       8 -> 15        -0.14687
       9 -> 20         0.32640
      10 -> 21         0.33838
      12 -> 29         0.11681
      12 -> 30         0.11641

 Excited State  55:      Singlet-A     14.9121 eV   83.14 nm  f=0.0649  <S**2>=0.000
       7 -> 13         0.17896
       8 -> 15         0.12304
       9 -> 17         0.15981
       9 -> 19        -0.32054
       9 -> 20         0.36649
      10 -> 19        -0.11650
      10 -> 21        -0.16383
      12 -> 31         0.24202

 Excited State  56:      Singlet-A     14.9801 eV   82.77 nm  f=0.0318  <S**2>=0.000
      10 -> 20         0.14282
      10 -> 21         0.26143
      10 -> 22         0.10238
      11 -> 27        -0.11200
      12 -> 28         0.16471
      12 -> 31         0.52100

 Excited State  57:      Singlet-A     15.1139 eV   82.03 nm  f=0.0141  <S**2>=0.000
       8 -> 15         0.10099
      10 -> 22        -0.25609
      11 -> 28         0.38967
      11 -> 30         0.17316
      11 -> 31         0.14941
      11 -> 32         0.10030
      12 -> 27         0.15055
      12 -> 29         0.11548
      12 -> 32        -0.25731

 Excited State  58:      Singlet-A     15.1634 eV   81.77 nm  f=0.1138  <S**2>=0.000
       8 -> 14         0.15579
       8 -> 15         0.13322
       9 -> 19         0.14046
      10 -> 22         0.30038
      11 -> 28         0.30840
      11 -> 30         0.15230
      11 -> 31         0.12370
      12 -> 27        -0.16092
      12 -> 29        -0.11978
      12 -> 32         0.16623
      12 -> 33         0.13454

 Excited State  59:      Singlet-A     15.3472 eV   80.79 nm  f=0.0139  <S**2>=0.000
       7 -> 14        -0.13582
       8 -> 15        -0.12124
       9 -> 21         0.59420

 Excited State  60:      Singlet-A     15.4055 eV   80.48 nm  f=0.0115  <S**2>=0.000
       8 -> 15         0.12620
       9 -> 21         0.10169
      10 -> 22        -0.12213
      11 -> 27         0.14976
      11 -> 29         0.43044
      11 -> 31         0.35101
      12 -> 32         0.15680
      12 -> 33        -0.10070

 Excited State  61:      Singlet-A     15.4769 eV   80.11 nm  f=0.1777  <S**2>=0.000
       7 -> 14         0.17042
       8 -> 15         0.33140
       9 -> 21         0.22274
       9 -> 22         0.13124
      10 -> 22        -0.13996
      10 -> 23         0.10683
      11 -> 29        -0.19938
      11 -> 31        -0.21107
      12 -> 32         0.20139
      12 -> 33        -0.13103

 Excited State  62:      Singlet-A     15.5168 eV   79.90 nm  f=0.0363  <S**2>=0.000
       8 -> 15         0.18590
      11 -> 24        -0.10613
      11 -> 27        -0.11330
      11 -> 28        -0.31047
      11 -> 30         0.34716
      11 -> 32         0.32435
      11 -> 34         0.13768
      12 -> 32        -0.11819

 Excited State  63:      Singlet-A     15.6069 eV   79.44 nm  f=0.0496  <S**2>=0.000
       7 -> 13        -0.13727
       7 -> 14         0.45413
       7 -> 15        -0.12092
       7 -> 17        -0.10170
       8 -> 14        -0.13712
       8 -> 15        -0.24413
       9 -> 22         0.16824
      11 -> 28        -0.11402
      11 -> 30         0.19064

 Excited State  64:      Singlet-A     15.6483 eV   79.23 nm  f=0.0175  <S**2>=0.000
       7 -> 14        -0.24841
       8 -> 15        -0.13698
       9 -> 22         0.14484
       9 -> 23         0.15700
      10 -> 22        -0.15294
      10 -> 23        -0.13664
      11 -> 29        -0.10771
      11 -> 30         0.32692
      11 -> 32        -0.17370
      12 -> 32         0.23583
      12 -> 35        -0.10703

 Excited State  65:      Singlet-A     15.7018 eV   78.96 nm  f=0.0070  <S**2>=0.000
       7 -> 14        -0.15777
       8 -> 15        -0.15620
       9 -> 22         0.10756
      10 -> 22        -0.10886
      10 -> 23         0.26180
      11 -> 28         0.14952
      11 -> 30        -0.10259
      11 -> 32         0.39085
      11 -> 33        -0.11606
      12 -> 32         0.19395
      12 -> 33        -0.17995

 Excited State  66:      Singlet-A     15.7207 eV   78.87 nm  f=0.0027  <S**2>=0.000
      10 -> 23         0.48456
      10 -> 27         0.12825
      11 -> 30         0.12405
      11 -> 32        -0.19656
      12 -> 29         0.11915
      12 -> 32        -0.14171
      12 -> 34         0.22549

 Excited State  67:      Singlet-A     15.8671 eV   78.14 nm  f=0.0859  <S**2>=0.000
       9 -> 22         0.19883
      10 -> 23        -0.19468
      10 -> 25        -0.12788
      10 -> 26        -0.14943
      11 -> 32         0.15258
      12 -> 33         0.24945
      12 -> 34         0.45818

 Excited State  68:      Singlet-A     15.9544 eV   77.71 nm  f=0.0236  <S**2>=0.000
       8 -> 18        -0.14839
       9 -> 22         0.34787
       9 -> 23         0.30072
      10 -> 22         0.18720
      11 -> 29         0.14935
      12 -> 30         0.10635
      12 -> 32        -0.17539
      12 -> 33        -0.21695
      12 -> 35         0.11305

 Excited State  69:      Singlet-A     16.0315 eV   77.34 nm  f=0.0086  <S**2>=0.000
       7 -> 15         0.24554
       8 -> 17         0.12202
       8 -> 18        -0.11112
       9 -> 23         0.22405
      10 -> 22        -0.20216
      11 -> 29         0.19459
      11 -> 31        -0.15439
      12 -> 30        -0.13826
      12 -> 33         0.28048
      12 -> 34        -0.15835
      12 -> 36         0.11479

 Excited State  70:      Singlet-A     16.1100 eV   76.96 nm  f=0.0296  <S**2>=0.000
       9 -> 22         0.12270
      10 -> 24         0.10562
      11 -> 28        -0.15196
      11 -> 29        -0.33064
      11 -> 30        -0.21278
      11 -> 31         0.42557
      12 -> 33         0.11736

 Excited State  71:      Singlet-A     16.1721 eV   76.67 nm  f=0.0166  <S**2>=0.000
       7 -> 14         0.10963
       7 -> 15         0.40184
       8 -> 17         0.15678
       9 -> 22        -0.13673
      10 -> 24         0.10122
      11 -> 29        -0.13292
      12 -> 32         0.12598
      12 -> 33        -0.19021
      12 -> 34         0.21203
      12 -> 35        -0.15727
      12 -> 36        -0.12023

 Excited State  72:      Singlet-A     16.3145 eV   76.00 nm  f=0.0805  <S**2>=0.000
       7 -> 15        -0.28168
       8 -> 18        -0.10045
       9 -> 22        -0.31990
       9 -> 23         0.41048
      11 -> 33         0.13165
      11 -> 36         0.11221

 Excited State  73:      Singlet-A     16.4947 eV   75.17 nm  f=0.0212  <S**2>=0.000

 The electronic state is 1-A.
 Alpha  occ. eigenvalues --  -14.64037 -14.58081 -10.51444  -1.08333  -0.97820
 Alpha  occ. eigenvalues --   -0.74949  -0.66620  -0.63452  -0.52615  -0.50168
 Alpha  occ. eigenvalues --   -0.37654  -0.35576
 Alpha virt. eigenvalues --    0.04982   0.08242   0.09920   0.10591   0.15353
 Alpha virt. eigenvalues --    0.17617   0.20134   0.21006   0.22713   0.24281
 Alpha virt. eigenvalues --    0.25739   0.28221   0.30288   0.30898   0.33988

 Mulliken charges:
               1
     1  N    0.106099
     2  C    0.232120
     3  N   -0.026801
     4  H   -0.045783
     5  H   -0.059254
     6  H   -0.189437
     7  H   -0.016944
 Sum of Mulliken charges =  -0.00000

 Dipole moment (field-independent basis, Debye):
    X=              3.5428    Y=             -0.7468    Z=              0.5872  Tot=              3.6680
 Quadrupole moment (field-independent basis, Debye-Ang):
   XX=            -20.7702   YY=            -14.5423   ZZ=            -20.7784
   XY=              1.3798   XZ=              1.1965   YZ=             -0.1629

 Normal termination of Gaussian 16 at Mon Mar 21 20:19:19 2022.
