 Gaussian 16, Revision C.01,
 Gaussian 16:  EM64L-G16RevC.01  3-Jul-2019

 -------------------------------------------------------------------
 #P TD(Nstates=10000) m11/Gen SCF(maxcycles=100) Int(Grid=ultrafine)
 -------------------------------------------------------------------

 ---------------------
 xGDB7_00001_tier4.com
 ---------------------
 Symbolic Z-matrix:
 Charge =  0 Multiplicity = 1

                         Standard orientation:
 ---------------------------------------------------------------------
 Center     Atomic      Atomic             Coordinates (Angstroms)
 Number     Number       Type             X           Y           Z
 ---------------------------------------------------------------------
      1          7           0       -0.000002   -0.000000   -0.110463
      2          1           0       -0.147185    0.930214    0.257758
      3          1           0       -0.731998   -0.592574    0.257757
      4          1           0        0.879196   -0.337638    0.257728
 ---------------------------------------------------------------------

 SCF Done:  E(RM11) =  -56.4864299173     A.U. after   13 cycles

 Excitation energies and oscillator strengths:

 Excited State   1:      Singlet-A      7.0002 eV  177.12 nm  f=0.0750  <S**2>=0.000
       5 ->  6         0.69357
       5 -> 16        -0.11122
 This state for optimization and/or second-order correction.
 Total Energy, E(TD-HF/TD-DFT) =  -56.2291790672
 Copying the excited state density for this state as the 1-particle RhoCI density.

 Excited State   2:      Singlet-A      8.8086 eV  140.75 nm  f=0.0105  <S**2>=0.000
       5 ->  7         0.54811
       5 ->  8         0.40916
       5 ->  9         0.10223
       5 -> 17        -0.12926

 Excited State   3:      Singlet-A      8.8087 eV  140.75 nm  f=0.0105  <S**2>=0.000
       5 ->  7        -0.40916
       5 ->  8         0.54811
       5 -> 10         0.10222
       5 -> 18        -0.12924

 Excited State   4:      Singlet-A     10.4184 eV  119.00 nm  f=0.0019  <S**2>=0.000
       5 ->  8        -0.10155
       5 ->  9         0.67693
       5 -> 13         0.10216

 Excited State   5:      Singlet-A     10.4184 eV  119.00 nm  f=0.0019  <S**2>=0.000
       5 ->  7         0.10154
       5 -> 10         0.67693
       5 -> 12        -0.10216

 Excited State   6:      Singlet-A     11.4619 eV  108.17 nm  f=0.0146  <S**2>=0.000
       3 ->  7        -0.12054
       4 ->  8        -0.12054
       5 -> 11         0.66828

 Excited State   7:      Singlet-A     12.1171 eV  102.32 nm  f=0.0003  <S**2>=0.000
       4 ->  6         0.47498
       5 -> 12         0.25278
       5 -> 13        -0.43203

 Excited State   8:      Singlet-A     12.1171 eV  102.32 nm  f=0.0003  <S**2>=0.000
       3 ->  6         0.47489
       5 -> 12        -0.43212
       5 -> 13        -0.25278

 Excited State   9:      Singlet-A     12.2497 eV  101.21 nm  f=0.2244  <S**2>=0.000
       5 -> 11         0.12739
       5 -> 14         0.67495

 Excited State  10:      Singlet-A     12.3800 eV  100.15 nm  f=0.2697  <S**2>=0.000
       4 ->  6         0.50338
       5 -> 12        -0.22076
       5 -> 13         0.41186

 Excited State  11:      Singlet-A     12.3800 eV  100.15 nm  f=0.2697  <S**2>=0.000
       3 ->  6         0.50347
       5 -> 12         0.41176
       5 -> 13         0.22076

 Excited State  12:      Singlet-A     13.9308 eV   89.00 nm  f=0.0000  <S**2>=0.000
       3 ->  8        -0.48222
       4 ->  7         0.48235

 Excited State  13:      Singlet-A     14.3089 eV   86.65 nm  f=0.0650  <S**2>=0.000
       3 ->  7        -0.46613
       3 ->  8        -0.14663
       4 ->  7        -0.14657
       4 ->  8         0.46613

 Excited State  14:      Singlet-A     14.3090 eV   86.65 nm  f=0.0650  <S**2>=0.000
       3 ->  7        -0.14659
       3 ->  8         0.46619
       4 ->  7         0.46607
       4 ->  8         0.14661

 Excited State  15:      Singlet-A     15.1170 eV   82.02 nm  f=0.0608  <S**2>=0.000
       5 ->  6         0.10952
       5 -> 16         0.69314

 Excited State  16:      Singlet-A     15.5070 eV   79.95 nm  f=0.0000  <S**2>=0.000
       5 -> 15         0.69628

 Excited State  17:      Singlet-A     15.5807 eV   79.58 nm  f=0.0000  <S**2>=0.000
       3 ->  9         0.45333
       3 -> 10         0.14770
       4 ->  9        -0.14773
       4 -> 10         0.45337
       5 -> 15         0.12254

 Excited State  18:      Singlet-A     15.7253 eV   78.84 nm  f=0.0348  <S**2>=0.000
       3 -> 10         0.13193
       4 ->  9         0.13198
       5 -> 17         0.64397
       5 -> 18         0.14156

 Excited State  19:      Singlet-A     15.7255 eV   78.84 nm  f=0.0348  <S**2>=0.000
       3 ->  9         0.13200
       4 -> 10        -0.13202
       5 -> 17        -0.14155
       5 -> 18         0.64395

 Excited State  20:      Singlet-A     15.8820 eV   78.07 nm  f=0.0363  <S**2>=0.000
       3 ->  7         0.30550
       3 ->  9         0.11135
       3 -> 10        -0.34173
       4 ->  8         0.30548
       4 ->  9         0.34179
       4 -> 10         0.11135
       5 -> 11         0.13100
       5 -> 14        -0.11149

 Excited State  21:      Singlet-A     16.0900 eV   77.06 nm  f=0.0078  <S**2>=0.000
       3 -> 10         0.19664
       3 -> 11         0.21102
       4 ->  9         0.19678
       4 -> 11         0.56470

 Excited State  22:      Singlet-A     16.0901 eV   77.06 nm  f=0.0078  <S**2>=0.000
       3 ->  9        -0.19669
       3 -> 11         0.56469
       4 -> 10         0.19666
       4 -> 11        -0.21104

 Excited State  23:      Singlet-A     16.1580 eV   76.73 nm  f=0.0206  <S**2>=0.000
       3 ->  7         0.34606
       3 ->  9        -0.10474
       3 -> 10         0.32157
       4 ->  8         0.34604
       4 ->  9        -0.32151
       4 -> 10        -0.10479

 Excited State  24:      Singlet-A     16.4455 eV   75.39 nm  f=0.3861  <S**2>=0.000
       3 ->  9        -0.29208
       3 -> 10        -0.29179
       4 ->  9        -0.29173
       4 -> 10         0.29207
       4 -> 11         0.30679
       4 -> 14        -0.14824
       5 -> 18         0.12604

 Excited State  25:      Singlet-A     16.4455 eV   75.39 nm  f=0.3861  <S**2>=0.000
       3 ->  9         0.29178
       3 -> 10        -0.29210
       3 -> 11         0.30682
       3 -> 14        -0.14824
       4 ->  9        -0.29203
       4 -> 10        -0.29174
       5 -> 17         0.12604

 Excited State  26:      Singlet-A     17.4590 eV   71.01 nm  f=0.0005  <S**2>=0.000
       3 -> 12        -0.41729
       3 -> 13         0.15301
       4 -> 12         0.15341
       4 -> 13         0.41754
       4 -> 14         0.26224

 Excited State  27:      Singlet-A     17.4590 eV   71.01 nm  f=0.0004  <S**2>=0.000
       3 -> 12         0.15335
       3 -> 13         0.41713
       3 -> 14        -0.26202
       4 -> 12         0.41783
       4 -> 13        -0.15313

 Excited State  28:      Singlet-A     17.5109 eV   70.80 nm  f=0.0000  <S**2>=0.000
       3 -> 12        -0.20398
       3 -> 13         0.44338
       4 -> 12        -0.44290
       4 -> 13        -0.20386

 Excited State  29:      Singlet-A     17.5409 eV   70.68 nm  f=0.0434  <S**2>=0.000
       3 -> 12         0.16907
       3 -> 13        -0.10457
       4 -> 11         0.17795
       4 -> 12        -0.10413
       4 -> 13        -0.16886
       4 -> 14         0.56880
       5 -> 19         0.10684
       5 -> 20        -0.16985

 Excited State  30:      Singlet-A     17.5410 eV   70.68 nm  f=0.0434  <S**2>=0.000
       3 -> 11         0.17793
       3 -> 12         0.10418
       3 -> 13         0.16902
       3 -> 14         0.56889
       4 -> 12         0.16857
       4 -> 13        -0.10446
       5 -> 19        -0.16990
       5 -> 20        -0.10685

 Excited State  31:      Singlet-A     17.7458 eV   69.87 nm  f=0.2236  <S**2>=0.000
       3 -> 12         0.43637
       3 -> 13         0.20083
       4 -> 12        -0.20075
       4 -> 13         0.43628
       5 -> 21         0.11345

 Excited State  32:      Singlet-A     18.4270 eV   67.28 nm  f=0.1137  <S**2>=0.000
       4 -> 14         0.21233
       5 -> 19        -0.42616
       5 -> 20         0.49197

 Excited State  33:      Singlet-A     18.4270 eV   67.28 nm  f=0.1137  <S**2>=0.000
       3 -> 14         0.21235
       5 -> 19         0.49196
       5 -> 20         0.42615

 Excited State  34:      Singlet-A     20.3962 eV   60.79 nm  f=0.0840  <S**2>=0.000
       5 -> 22         0.67481

 Excited State  35:      Singlet-A     20.3963 eV   60.79 nm  f=0.0841  <S**2>=0.000
       5 -> 23         0.67477

 Excited State  36:      Singlet-A     20.3980 eV   60.78 nm  f=0.2710  <S**2>=0.000
       5 -> 21         0.65891

 Excited State  37:      Singlet-A     20.5532 eV   60.32 nm  f=0.0255  <S**2>=0.000
       4 ->  6         0.10025
       4 -> 16         0.68601

 Excited State  38:      Singlet-A     20.5533 eV   60.32 nm  f=0.0255  <S**2>=0.000
       3 ->  6         0.10025
       3 -> 16         0.68601

 Excited State  39:      Singlet-A     20.8787 eV   59.38 nm  f=0.0002  <S**2>=0.000
       4 -> 15         0.69237

 Excited State  40:      Singlet-A     20.8788 eV   59.38 nm  f=0.0002  <S**2>=0.000
       3 -> 15         0.69237

 Excited State  41:      Singlet-A     21.0552 eV   58.89 nm  f=0.0000  <S**2>=0.000
       3 -> 17        -0.28148
       3 -> 18        -0.39317
       4 -> 17         0.39321
       4 -> 18        -0.28152

 Excited State  42:      Singlet-A     21.7341 eV   57.05 nm  f=0.1325  <S**2>=0.000
       3 -> 17        -0.45971
       4 -> 15        -0.13143
       4 -> 18         0.45971

 Excited State  43:      Singlet-A     21.7342 eV   57.05 nm  f=0.1325  <S**2>=0.000
       3 -> 15         0.13142
       3 -> 18         0.45973
       4 -> 17         0.45970

 Excited State  44:      Singlet-A     22.7050 eV   54.61 nm  f=0.0413  <S**2>=0.000
       2 ->  6         0.50852
       3 -> 17        -0.25696
       3 -> 18         0.18397
       4 -> 17        -0.18394
       4 -> 18        -0.25693
       5 -> 21        -0.13423

 Excited State  45:      Singlet-A     23.8696 eV   51.94 nm  f=0.0829  <S**2>=0.000
       2 ->  6         0.47237
       3 -> 17         0.26844
       3 -> 18        -0.19219
       4 -> 17         0.19218
       4 -> 18         0.26844
       5 -> 27         0.10380

 Excited State  46:      Singlet-A     24.0024 eV   51.65 nm  f=0.0000  <S**2>=0.000
       3 -> 19         0.32479
       3 -> 20        -0.37210
       4 -> 19         0.37232
       4 -> 20         0.32495

 Excited State  47:      Singlet-A     24.1565 eV   51.33 nm  f=0.0505  <S**2>=0.000
       3 -> 19         0.37710
       3 -> 20        -0.29848
       4 -> 19        -0.29827
       4 -> 20        -0.37693

 Excited State  48:      Singlet-A     24.1565 eV   51.33 nm  f=0.0505  <S**2>=0.000
       3 -> 19         0.29830
       3 -> 20         0.37699
       4 -> 19         0.37703
       4 -> 20        -0.29846

 Excited State  49:      Singlet-A     24.3925 eV   50.83 nm  f=0.0492  <S**2>=0.000
       3 -> 19         0.36251
       3 -> 20         0.31642
       4 -> 19        -0.31630
       4 -> 20         0.36241

 Excited State  50:      Singlet-A     24.9142 eV   49.76 nm  f=0.0282  <S**2>=0.000
       2 ->  7         0.58032
       2 ->  8         0.34545

 Excited State  51:      Singlet-A     24.9143 eV   49.76 nm  f=0.0282  <S**2>=0.000
       2 ->  7        -0.34545
       2 ->  8         0.58032

 Excited State  52:      Singlet-A     25.3412 eV   48.93 nm  f=0.0003  <S**2>=0.000
       3 -> 22        -0.14007
       3 -> 23         0.11040
       4 -> 21         0.65222
       4 -> 22         0.11042
       4 -> 23         0.14009

 Excited State  53:      Singlet-A     25.3413 eV   48.93 nm  f=0.0003  <S**2>=0.000
       3 -> 21         0.65222
       3 -> 22        -0.11042
       3 -> 23        -0.14007
       4 -> 22        -0.14009
       4 -> 23         0.11042

 Excited State  54:      Singlet-A     25.7731 eV   48.11 nm  f=0.0000  <S**2>=0.000
       3 -> 22         0.25152
       3 -> 23        -0.42608
       4 -> 22         0.42611
       4 -> 23         0.25152

 Excited State  55:      Singlet-A     26.2701 eV   47.20 nm  f=0.3325  <S**2>=0.000
       2 -> 11        -0.28447
       2 -> 14         0.13976
       3 -> 22         0.37015
       3 -> 23         0.21850
       4 -> 22        -0.21853
       4 -> 23         0.37023

 Excited State  56:      Singlet-A     26.4051 eV   46.95 nm  f=0.1022  <S**2>=0.000
       2 ->  9         0.61797
       2 -> 13         0.11064
       3 -> 22         0.19711
       4 -> 23        -0.19701

 Excited State  57:      Singlet-A     26.4052 eV   46.95 nm  f=0.1022  <S**2>=0.000
       2 -> 10         0.61798
       2 -> 12        -0.11064
       3 -> 23        -0.19707
       4 -> 22        -0.19702

 Excited State  58:      Singlet-A     26.8499 eV   46.18 nm  f=0.2912  <S**2>=0.000
       2 ->  8         0.12275
       2 ->  9        -0.31139
       2 -> 13         0.10332
       3 -> 22         0.37308
       4 -> 21         0.18661
       4 -> 23        -0.37307

 Excited State  59:      Singlet-A     26.8499 eV   46.18 nm  f=0.2912  <S**2>=0.000
       2 ->  7         0.12275
       2 -> 10         0.31137
       2 -> 12         0.10333
       3 -> 21         0.18661
       3 -> 23         0.37310
       4 -> 22         0.37306

 Excited State  60:      Singlet-A     26.9797 eV   45.95 nm  f=0.0508  <S**2>=0.000
       2 -> 11         0.57604
       3 -> 22         0.15432
       4 -> 23         0.15425
       5 -> 24         0.27691

 Excited State  61:      Singlet-A     27.5232 eV   45.05 nm  f=0.0038  <S**2>=0.000
       2 -> 11        -0.27088
       2 -> 14        -0.16054
       5 -> 24         0.62259

 Excited State  62:      Singlet-A     28.1963 eV   43.97 nm  f=0.0235  <S**2>=0.000
       2 -> 12         0.68251

 Excited State  63:      Singlet-A     28.1963 eV   43.97 nm  f=0.0234  <S**2>=0.000
       2 -> 13         0.68251

 Excited State  64:      Singlet-A     28.7993 eV   43.05 nm  f=0.0282  <S**2>=0.000
       2 -> 14         0.66638
       5 -> 24         0.15161

 Excited State  65:      Singlet-A     31.0860 eV   39.88 nm  f=0.0033  <S**2>=0.000
       5 -> 25         0.68908
       5 -> 26        -0.11299

 Excited State  66:      Singlet-A     31.0863 eV   39.88 nm  f=0.0033  <S**2>=0.000
       5 -> 25         0.11299
       5 -> 26         0.68908

 Excited State  67:      Singlet-A     31.3732 eV   39.52 nm  f=0.0000  <S**2>=0.000
       2 -> 15         0.70534

 Excited State  68:      Singlet-A     31.5016 eV   39.36 nm  f=0.0165  <S**2>=0.000
       2 -> 16         0.67346
       5 -> 27        -0.17343

 Excited State  69:      Singlet-A     32.1518 eV   38.56 nm  f=0.0000  <S**2>=0.000
       2 -> 17         0.62666
       2 -> 18         0.18900
       3 -> 24        -0.12780
       4 -> 24        -0.16586

 Excited State  70:      Singlet-A     32.1519 eV   38.56 nm  f=0.0000  <S**2>=0.000
       2 -> 17        -0.18900
       2 -> 18         0.62665
       3 -> 24         0.16586
       4 -> 24        -0.12781

 Excited State  71:      Singlet-A     33.5389 eV   36.97 nm  f=0.1168  <S**2>=0.000
       2 -> 17         0.17943
       2 -> 18         0.13268
       3 -> 24         0.20458
       4 -> 24         0.63261

 Excited State  72:      Singlet-A     33.5389 eV   36.97 nm  f=0.1168  <S**2>=0.000
       2 -> 17         0.13267
       2 -> 18        -0.17944
       3 -> 24         0.63261
       4 -> 24        -0.20458

 Excited State  73:      Singlet-A     34.0500 eV   36.41 nm  f=0.0047  <S**2>=0.000
       2 -> 16         0.11469
       3 -> 25         0.16588
       3 -> 26         0.17005
       4 -> 25         0.17004
       4 -> 26        -0.16590
       5 -> 27         0.58904

 Excited State  74:      Singlet-A     34.7616 eV   35.67 nm  f=0.0002  <S**2>=0.000
       2 -> 19         0.69108

 Excited State  75:      Singlet-A     34.7616 eV   35.67 nm  f=0.0002  <S**2>=0.000
       2 -> 20         0.69108

 Excited State  76:      Singlet-A     36.2010 eV   34.25 nm  f=0.0284  <S**2>=0.000
       2 -> 21         0.69674

 Excited State  77:      Singlet-A     36.4959 eV   33.97 nm  f=0.0000  <S**2>=0.000
       3 -> 25        -0.35547
       3 -> 26         0.34678
       4 -> 25         0.34687
       4 -> 26         0.35553

 Excited State  78:      Singlet-A     36.6090 eV   33.87 nm  f=0.0029  <S**2>=0.000
       2 -> 22         0.60160
       2 -> 23         0.24561
       3 -> 25         0.16347
       3 -> 27        -0.11260
       4 -> 26         0.16344

 Excited State  79:      Singlet-A     36.6090 eV   33.87 nm  f=0.0029  <S**2>=0.000
       2 -> 22        -0.24564
       2 -> 23         0.60161
       3 -> 26         0.16346
       4 -> 25        -0.16339
       4 -> 27        -0.11260

 Excited State  80:      Singlet-A     37.0168 eV   33.49 nm  f=0.0295  <S**2>=0.000
       2 -> 22        -0.18753
       2 -> 23        -0.15354
       3 -> 25         0.38866
       3 -> 26         0.22283
       4 -> 25        -0.22285
       4 -> 26         0.38866
       5 -> 28        -0.12393
       5 -> 29        -0.12426

 Excited State  81:      Singlet-A     37.0168 eV   33.49 nm  f=0.0295  <S**2>=0.000
       2 -> 22         0.15349
       2 -> 23        -0.18746
       3 -> 25        -0.22289
       3 -> 26         0.38868
       4 -> 25        -0.38866
       4 -> 26        -0.22281
       5 -> 28        -0.12432
       5 -> 29         0.12394

 Excited State  82:      Singlet-A     37.5796 eV   32.99 nm  f=0.0015  <S**2>=0.000
       2 -> 23         0.10670
       3 -> 27         0.32397
       4 -> 27         0.60589

 Excited State  83:      Singlet-A     37.5800 eV   32.99 nm  f=0.0015  <S**2>=0.000
       2 -> 22         0.10663
       3 -> 27         0.60587
       4 -> 27        -0.32395

 Excited State  84:      Singlet-A     38.2031 eV   32.45 nm  f=0.0803  <S**2>=0.000
       3 -> 26         0.11174
       4 -> 25        -0.11174
       5 -> 28         0.67209

 Excited State  85:      Singlet-A     38.2034 eV   32.45 nm  f=0.0803  <S**2>=0.000
       3 -> 25         0.11170
       4 -> 26         0.11168
       5 -> 29         0.67207

 Excited State  86:      Singlet-A     39.8153 eV   31.14 nm  f=0.0245  <S**2>=0.000
       2 -> 16        -0.11876
       2 -> 24        -0.19304
       3 -> 25         0.28487
       3 -> 26         0.29202
       3 -> 29        -0.11590
       4 -> 25         0.29196
       4 -> 26        -0.28487
       4 -> 28        -0.11591
       5 -> 27        -0.23876

 Excited State  87:      Singlet-A     42.0324 eV   29.50 nm  f=0.0336  <S**2>=0.000
       5 -> 30         0.70262

 Excited State  88:      Singlet-A     43.3900 eV   28.57 nm  f=0.0000  <S**2>=0.000
       3 -> 28         0.40314
       3 -> 29        -0.29453
       4 -> 28        -0.29460
       4 -> 29        -0.40311

 Excited State  89:      Singlet-A     43.7930 eV   28.31 nm  f=0.0699  <S**2>=0.000
       2 -> 24         0.59370
       3 -> 28        -0.15573
       3 -> 29        -0.21315
       4 -> 28        -0.21322
       4 -> 29         0.15582

 Excited State  90:      Singlet-A     44.1927 eV   28.06 nm  f=0.0402  <S**2>=0.000
       3 -> 28         0.18711
       3 -> 29         0.45801
       4 -> 28        -0.45793
       4 -> 29         0.18715

 Excited State  91:      Singlet-A     44.1928 eV   28.06 nm  f=0.0402  <S**2>=0.000
       3 -> 28         0.45798
       3 -> 29        -0.18712
       4 -> 28         0.18714
       4 -> 29         0.45796

 Excited State  92:      Singlet-A     47.4368 eV   26.14 nm  f=0.0144  <S**2>=0.000
       2 -> 25         0.47450
       2 -> 26        -0.24131
       3 -> 30         0.13710
       4 -> 30         0.43969

 Excited State  93:      Singlet-A     47.4370 eV   26.14 nm  f=0.0144  <S**2>=0.000
       2 -> 25         0.24145
       2 -> 26         0.47446
       3 -> 30         0.43961
       4 -> 30        -0.13724

 Excited State  94:      Singlet-A     47.6258 eV   26.03 nm  f=0.0361  <S**2>=0.000
       2 -> 24         0.31537
       2 -> 30        -0.10365
       3 -> 28         0.23065
       3 -> 29         0.31565
       4 -> 28         0.31564
       4 -> 29        -0.23064
       5 -> 27        -0.17636

 Excited State  95:      Singlet-A     47.6685 eV   26.01 nm  f=0.0236  <S**2>=0.000
       2 -> 25        -0.41269
       2 -> 26         0.20706
       3 -> 30         0.16148
       4 -> 30         0.50709

 Excited State  96:      Singlet-A     47.6686 eV   26.01 nm  f=0.0236  <S**2>=0.000
       2 -> 25        -0.20691
       2 -> 26        -0.41274
       3 -> 30         0.50715
       4 -> 30        -0.16135

 Excited State  97:      Singlet-A     48.6553 eV   25.48 nm  f=0.0908  <S**2>=0.000
       2 -> 27         0.70040

 Excited State  98:      Singlet-A     51.4324 eV   24.11 nm  f=0.0000  <S**2>=0.000
       5 -> 31         0.70689

 Excited State  99:      Singlet-A     51.9875 eV   23.85 nm  f=0.0411  <S**2>=0.000
       5 -> 32         0.69619

 Excited State 100:      Singlet-A     51.9876 eV   23.85 nm  f=0.0411  <S**2>=0.000
       5 -> 33         0.69619

 Excited State 101:      Singlet-A     54.6661 eV   22.68 nm  f=0.0535  <S**2>=0.000
       2 -> 28         0.70073

 Excited State 102:      Singlet-A     54.6663 eV   22.68 nm  f=0.0535  <S**2>=0.000
       2 -> 29         0.70072

 Excited State 103:      Singlet-A     56.7896 eV   21.83 nm  f=0.0097  <S**2>=0.000
       3 -> 32        -0.15423
       4 -> 33        -0.15423
       5 -> 34         0.66013

 Excited State 104:      Singlet-A     57.1140 eV   21.71 nm  f=0.0000  <S**2>=0.000
       3 -> 32         0.23437
       3 -> 33        -0.44056
       4 -> 32         0.44098
       4 -> 33         0.23440

 Excited State 105:      Singlet-A     57.2826 eV   21.64 nm  f=0.0984  <S**2>=0.000
       3 -> 31        -0.13112
       3 -> 33         0.41871
       4 -> 31        -0.29320
       4 -> 32         0.41829
       5 -> 35         0.13964

 Excited State 106:      Singlet-A     57.2827 eV   21.64 nm  f=0.0984  <S**2>=0.000
       3 -> 31         0.29278
       3 -> 32         0.41863
       4 -> 31        -0.13122
       4 -> 33        -0.41858

 The electronic state is 1-A.
 Alpha  occ. eigenvalues --  -14.59457  -0.97758  -0.58050  -0.58049  -0.38155
 Alpha virt. eigenvalues --    0.07746   0.14627   0.14627   0.21434   0.21435
 Alpha virt. eigenvalues --    0.24042   0.27628   0.27628   0.29068   0.38726
 Alpha virt. eigenvalues --    0.40007   0.44361   0.44362   0.53439   0.53439

 Mulliken charges:
               1
     1  N   -0.003473
     2  H    0.001157
     3  H    0.001160
     4  H    0.001156
 Sum of Mulliken charges =  -0.00000

 Dipole moment (field-independent basis, Debye):
    X=              0.0000    Y=             -0.0000    Z=              1.6108  Tot=              1.6108
 Quadrupole moment (field-independent basis, Debye-Ang):
   XX=             -6.2978   YY=             -6.2978   ZZ=             -9.2323
   XY=              0.0000   XZ=             -0.0001   YZ=              0.0000

 Normal termination of Gaussian 16 at Mon Mar 21 20:08:55 2022.
