 Gaussian 16, Revision C.01,
 Gaussian 16:  EM64L-G16RevC.01  3-Jul-2019

 -------------------------------------------------------------------
 #P TD(Nstates=10000) m11/Gen SCF(maxcycles=100) Int(Grid=ultrafine)
 -------------------------------------------------------------------

 ---------------------
 xGDB7_00001_tier4.com
 ---------------------
 Symbolic Z-matrix:
 Charge =  0 Multiplicity = 1

                         Standard orientation:
 ---------------------------------------------------------------------
 Center     Atomic      Atomic             Coordinates (Angstroms)
 Number     Number       Type             X           Y           Z
 ---------------------------------------------------------------------
      1          6           0        0.000000    0.000000   -0.524273
      2          8           0        0.000000    0.000000    0.670793
      3          1           0        0.000000    0.939221   -1.110351
      4          1           0       -0.000000   -0.939221   -1.110351
 ---------------------------------------------------------------------

 SCF Done:  E(RM11) =  -114.365468006     A.U. after   13 cycles

 Excitation energies and oscillator strengths:

 Excited State   1:      Singlet-A2     3.7324 eV  332.18 nm  f=0.0000  <S**2>=0.000
       8 ->  9         0.69956
 This state for optimization and/or second-order correction.
 Total Energy, E(TD-HF/TD-DFT) =  -114.228304680
 Copying the excited state density for this state as the 1-particle RhoCI density.

 Excited State   2:      Singlet-B2     7.2663 eV  170.63 nm  f=0.0151  <S**2>=0.000
       8 -> 10         0.68926
       8 -> 14         0.10490

 Excited State   3:      Singlet-A1     8.8009 eV  140.88 nm  f=0.0887  <S**2>=0.000
       8 -> 11         0.69501

 Excited State   4:      Singlet-B2     8.8319 eV  140.38 nm  f=0.0638  <S**2>=0.000
       8 -> 12         0.64503
       8 -> 14         0.25573

 Excited State   5:      Singlet-A2     8.9218 eV  138.97 nm  f=0.0000  <S**2>=0.000
       8 -> 13         0.70095

 Excited State   6:      Singlet-B1     8.9768 eV  138.12 nm  f=0.0004  <S**2>=0.000
       6 ->  9         0.69613

 Excited State   7:      Singlet-B2     9.7566 eV  127.08 nm  f=0.0015  <S**2>=0.000
       8 -> 12        -0.26554
       8 -> 14         0.63857

 Excited State   8:      Singlet-A1     9.7943 eV  126.59 nm  f=0.0956  <S**2>=0.000
       7 ->  9         0.64722
       8 -> 15        -0.23074

 Excited State   9:      Singlet-A2    10.2321 eV  121.17 nm  f=0.0000  <S**2>=0.000
       5 ->  9         0.69337

 Excited State  10:      Singlet-B2    10.7155 eV  115.71 nm  f=0.0861  <S**2>=0.000
       8 -> 16         0.69373

 Excited State  11:      Singlet-B1    10.9977 eV  112.74 nm  f=0.0342  <S**2>=0.000
       7 -> 10         0.69114

 Excited State  12:      Singlet-A1    11.6023 eV  106.86 nm  f=0.2499  <S**2>=0.000
       6 -> 10        -0.20299
       7 ->  9         0.19825
       7 -> 13        -0.13336
       8 -> 15         0.61615

 Excited State  13:      Singlet-B1    12.0695 eV  102.73 nm  f=0.0203  <S**2>=0.000
       8 -> 17         0.68637
       8 -> 24         0.13972

 Excited State  14:      Singlet-A2    12.2850 eV  100.92 nm  f=0.0000  <S**2>=0.000
       7 -> 11         0.68923
       8 -> 18        -0.11369

 Excited State  15:      Singlet-A1    12.5187 eV   99.04 nm  f=0.0340  <S**2>=0.000
       6 -> 10         0.61748
       6 -> 14         0.12608
       7 -> 13        -0.27463
       8 -> 15         0.13515

 Excited State  16:      Singlet-B1    12.5661 eV   98.67 nm  f=0.0296  <S**2>=0.000
       7 -> 12         0.66764
       7 -> 14         0.17780

 Excited State  17:      Singlet-A2    12.7907 eV   96.93 nm  f=0.0000  <S**2>=0.000
       7 -> 11         0.11521
       8 -> 18         0.67788

 Excited State  18:      Singlet-A1    13.3014 eV   93.21 nm  f=0.0169  <S**2>=0.000
       6 -> 10         0.23193
       6 -> 12        -0.15021
       7 -> 13         0.60727
       8 -> 15         0.16534

 Excited State  19:      Singlet-B2    13.4511 eV   92.17 nm  f=0.1062  <S**2>=0.000
       5 -> 10         0.67753
       8 -> 19        -0.10770

 Excited State  20:      Singlet-B1    13.5849 eV   91.27 nm  f=0.0224  <S**2>=0.000
       7 -> 12        -0.18640
       7 -> 14         0.66398

 Excited State  21:      Singlet-B2    13.6392 eV   90.90 nm  f=0.0413  <S**2>=0.000
       6 -> 11         0.69166

 Excited State  22:      Singlet-B1    13.9977 eV   88.57 nm  f=0.0244  <S**2>=0.000
       6 -> 13         0.69238

 Excited State  23:      Singlet-A1    13.9978 eV   88.57 nm  f=0.1410  <S**2>=0.000
       6 -> 12         0.61351
       6 -> 14         0.25164
       7 -> 13         0.11352

 Excited State  24:      Singlet-B2    14.1655 eV   87.53 nm  f=0.0222  <S**2>=0.000
       5 -> 10         0.11355
       5 -> 12         0.11202
       5 -> 14         0.13149
       6 -> 11        -0.10045
       8 -> 19         0.64623

 Excited State  25:      Singlet-B1    14.2384 eV   87.08 nm  f=0.0257  <S**2>=0.000
       4 ->  9         0.30733
       7 -> 16         0.60922

 Excited State  26:      Singlet-A2    14.4958 eV   85.53 nm  f=0.0000  <S**2>=0.000
       7 -> 15         0.68807
       7 -> 23        -0.11246

 Excited State  27:      Singlet-A1    14.8166 eV   83.68 nm  f=0.2419  <S**2>=0.000
       6 -> 12        -0.10901
       8 -> 20         0.68079

 Excited State  28:      Singlet-B2    15.0935 eV   82.14 nm  f=0.1128  <S**2>=0.000
       7 -> 17        -0.10536
       8 -> 21         0.60141
       8 -> 22         0.30867
       8 -> 26        -0.10456

 Excited State  29:      Singlet-A1    15.1555 eV   81.81 nm  f=0.0287  <S**2>=0.000
       5 -> 11        -0.15381
       6 -> 10        -0.10597
       6 -> 12        -0.23339
       6 -> 14         0.61832

 Excited State  30:      Singlet-B1    15.4962 eV   80.01 nm  f=0.2213  <S**2>=0.000
       4 ->  9         0.60283
       5 -> 17        -0.10358
       7 -> 16        -0.29989
       8 -> 24        -0.14089

 Excited State  31:      Singlet-B2    15.4967 eV   80.01 nm  f=0.0000  <S**2>=0.000
       5 -> 12         0.53374
       5 -> 14         0.35771
       5 -> 16        -0.13816
       8 -> 19        -0.17717

 Excited State  32:      Singlet-A2    15.5897 eV   79.53 nm  f=0.0000  <S**2>=0.000
       5 -> 13         0.68820

 Excited State  33:      Singlet-A1    15.5999 eV   79.48 nm  f=0.0000  <S**2>=0.000
       5 -> 11         0.64960
       6 -> 14         0.12384
       6 -> 16         0.12433
       7 -> 13        -0.10608

 Excited State  34:      Singlet-A1    15.8081 eV   78.43 nm  f=0.0110  <S**2>=0.000
       5 -> 11        -0.11765
       6 -> 16         0.66720
       6 -> 22         0.10157

 Excited State  35:      Singlet-B2    15.8628 eV   78.16 nm  f=0.0083  <S**2>=0.000
       6 -> 15         0.51563
       7 -> 17         0.42486
       8 -> 21         0.11982

 Excited State  36:      Singlet-B2    15.8974 eV   77.99 nm  f=0.0088  <S**2>=0.000
       5 -> 14        -0.11375
       5 -> 16        -0.13402
       6 -> 15        -0.40191
       7 -> 17         0.40628
       8 -> 21         0.19210
       8 -> 22        -0.26549

 Excited State  37:      Singlet-B2    16.1326 eV   76.85 nm  f=0.1828  <S**2>=0.000
       5 -> 12         0.10973
       6 -> 15        -0.17193
       7 -> 17         0.29308
       8 -> 21        -0.21037
       8 -> 22         0.53214
       8 -> 26         0.12301

 Excited State  38:      Singlet-A1    16.2531 eV   76.28 nm  f=0.1048  <S**2>=0.000
       8 -> 23         0.66782

 Excited State  39:      Singlet-B2    16.4832 eV   75.22 nm  f=0.1403  <S**2>=0.000
       5 -> 12        -0.35679
       5 -> 14         0.50887
       7 -> 17         0.12070
       8 -> 22        -0.11212
       8 -> 26         0.23434

 Excited State  40:      Singlet-B1    16.6068 eV   74.66 nm  f=0.1976  <S**2>=0.000
       4 ->  9         0.13053
       8 -> 17        -0.13746
       8 -> 24         0.66837

 Excited State  41:      Singlet-A1    16.7658 eV   73.95 nm  f=0.0003  <S**2>=0.000
       4 -> 10        -0.18816
       5 -> 11        -0.10603
       5 -> 15         0.23480
       7 -> 18         0.61118

 Excited State  42:      Singlet-B2    16.8814 eV   73.44 nm  f=0.0807  <S**2>=0.000
       5 -> 14        -0.19722
       5 -> 16        -0.32312
       7 -> 17        -0.12610
       8 -> 26         0.53492
       8 -> 28         0.12655

 Excited State  43:      Singlet-A2    17.0938 eV   72.53 nm  f=0.0000  <S**2>=0.000
       8 -> 25         0.69691

 Excited State  44:      Singlet-B2    17.0951 eV   72.53 nm  f=0.1098  <S**2>=0.000
       5 -> 12         0.18994
       5 -> 14        -0.12306
       5 -> 16         0.56386
       8 -> 21         0.12155
       8 -> 26         0.27687

 Excited State  45:      Singlet-A1    17.2102 eV   72.04 nm  f=0.0000  <S**2>=0.000
       4 -> 10         0.57642
       5 -> 15         0.37543

 Excited State  46:      Singlet-A2    17.3007 eV   71.66 nm  f=0.0000  <S**2>=0.000
       6 -> 17         0.68839
       6 -> 24         0.14080

 Excited State  47:      Singlet-A1    17.7306 eV   69.93 nm  f=0.0256  <S**2>=0.000
       4 -> 10        -0.32661
       5 -> 15         0.51166
       7 -> 18        -0.30606

 Excited State  48:      Singlet-B1    17.8734 eV   69.37 nm  f=0.0823  <S**2>=0.000
       4 -> 13         0.12132
       5 -> 17         0.17656
       6 -> 18         0.46626
       7 -> 19         0.45676

 Excited State  49:      Singlet-B1    18.0365 eV   68.74 nm  f=0.0009  <S**2>=0.000
       4 -> 13        -0.12102
       6 -> 18        -0.45646
       7 -> 19         0.49162
       7 -> 21        -0.11077

 Excited State  50:      Singlet-A2    18.3784 eV   67.46 nm  f=0.0000  <S**2>=0.000
       7 -> 20         0.69818

 Excited State  51:      Singlet-B1    18.4767 eV   67.10 nm  f=0.1442  <S**2>=0.000
       4 -> 13         0.10168
       5 -> 17         0.63903
       6 -> 18        -0.16706
       7 -> 19        -0.11169

 Excited State  52:      Singlet-B1    18.6873 eV   66.35 nm  f=0.0891  <S**2>=0.000
       7 -> 21         0.60434
       7 -> 22         0.28243
       7 -> 26        -0.13199

 Excited State  53:      Singlet-B2    18.7835 eV   66.01 nm  f=0.0009  <S**2>=0.000
       4 -> 11         0.66252
       4 -> 15         0.15228
       6 -> 15        -0.10917

 Excited State  54:      Singlet-A2    18.9008 eV   65.60 nm  f=0.0000  <S**2>=0.000
       5 -> 18         0.67996

 Excited State  55:      Singlet-A1    18.9219 eV   65.52 nm  f=0.0381  <S**2>=0.000
       4 -> 12         0.30794
       4 -> 14         0.31382
       6 -> 19        -0.33512
       8 -> 27         0.39054

 Excited State  56:      Singlet-B1    19.3291 eV   64.14 nm  f=0.0000  <S**2>=0.000
       4 -> 13         0.63155
       5 -> 17        -0.12794
       6 -> 18        -0.14860
       7 -> 21         0.15068
       7 -> 22        -0.15059

 Excited State  57:      Singlet-A1    19.3473 eV   64.08 nm  f=0.0564  <S**2>=0.000
       4 -> 12         0.36593
       4 -> 14         0.35813
       6 -> 19         0.23684
       6 -> 26        -0.13503
       8 -> 27        -0.36128

 Excited State  58:      Singlet-A2    19.5270 eV   63.49 nm  f=0.0000  <S**2>=0.000
       7 -> 15         0.12262
       7 -> 23         0.68362

 Excited State  59:      Singlet-B2    19.8112 eV   62.58 nm  f=0.0180  <S**2>=0.000
       4 -> 15         0.15769
       6 -> 20         0.67297

 Excited State  60:      Singlet-A1    19.8289 eV   62.53 nm  f=0.0762  <S**2>=0.000
       4 -> 12         0.30892
       4 -> 14        -0.27110
       4 -> 16        -0.24275
       6 -> 19         0.38454
       6 -> 21        -0.10636
       6 -> 26         0.10366
       7 -> 25        -0.11803
       8 -> 27         0.24016

 Excited State  61:      Singlet-B1    19.8844 eV   62.35 nm  f=0.1403  <S**2>=0.000
       4 -> 13         0.18144
       5 -> 17        -0.11055
       7 -> 21        -0.25151
       7 -> 22         0.59998

 Excited State  62:      Singlet-A1    20.1074 eV   61.66 nm  f=0.0040  <S**2>=0.000
       4 -> 12        -0.19287
       4 -> 14         0.33288
       4 -> 16         0.27809
       5 -> 20         0.13332
       6 -> 19         0.33078
       6 -> 21        -0.15135
       6 -> 22        -0.11155
       7 -> 25        -0.23010
       8 -> 27         0.21202

 Excited State  63:      Singlet-B2    20.1714 eV   61.47 nm  f=0.0636  <S**2>=0.000
       5 -> 19        -0.14244
       7 -> 17        -0.10299
       7 -> 24         0.54437
       8 -> 26        -0.10347
       8 -> 28         0.31803
       8 -> 29         0.16552

 Excited State  64:      Singlet-B2    20.2425 eV   61.25 nm  f=0.0180  <S**2>=0.000
       4 -> 15         0.15294
       5 -> 19        -0.16697
       5 -> 21         0.15827
       7 -> 24        -0.36430
       8 -> 28         0.42312
       8 -> 29         0.25845

 Excited State  65:      Singlet-A1    20.4227 eV   60.71 nm  f=0.0060  <S**2>=0.000
       4 -> 12         0.12637
       4 -> 16         0.25183
       6 -> 21         0.56015
       6 -> 22         0.22079
       7 -> 25        -0.15278

 Excited State  66:      Singlet-B1    20.5942 eV   60.20 nm  f=0.0020  <S**2>=0.000
       7 -> 21         0.14093
       7 -> 26         0.65597
       7 -> 28         0.12764

 Excited State  67:      Singlet-B2    20.6028 eV   60.18 nm  f=0.0841  <S**2>=0.000
       4 -> 15         0.15340
       5 -> 19         0.60050
       5 -> 21        -0.11862
       8 -> 28         0.26758

 Excited State  68:      Singlet-A1    20.6128 eV   60.15 nm  f=0.0017  <S**2>=0.000
       4 -> 12         0.30274
       4 -> 14        -0.21272
       4 -> 16         0.47123
       6 -> 21        -0.14900
       6 -> 22        -0.23867
       7 -> 25         0.17682

 Excited State  69:      Singlet-B2    20.6697 eV   59.98 nm  f=0.0359  <S**2>=0.000
       4 -> 11        -0.14691
       4 -> 15         0.54771
       6 -> 20        -0.13436
       6 -> 23        -0.14478
       7 -> 24         0.12597
       8 -> 28        -0.22000
       8 -> 29         0.18262

 Excited State  70:      Singlet-B2    20.8390 eV   59.50 nm  f=0.0005  <S**2>=0.000
       4 -> 15        -0.10739
       5 -> 19         0.11938
       5 -> 21        -0.20077
       6 -> 23         0.32642
       8 -> 28        -0.14536
       8 -> 29         0.51899

 Excited State  71:      Singlet-A1    20.9210 eV   59.26 nm  f=0.0074  <S**2>=0.000
       4 -> 14        -0.10578
       4 -> 16        -0.12742
       5 -> 20         0.58627
       6 -> 22         0.10703
       8 -> 30        -0.31241

 Excited State  72:      Singlet-A1    21.0519 eV   58.89 nm  f=0.0020  <S**2>=0.000
       4 -> 12        -0.10946
       4 -> 16        -0.10009
       6 -> 19         0.20521
       6 -> 21         0.24486
       6 -> 22        -0.16104
       6 -> 26         0.17838
       7 -> 25         0.50013
       8 -> 27         0.13345
       8 -> 30        -0.14559

 Excited State  73:      Singlet-A1    21.1889 eV   58.51 nm  f=0.0211  <S**2>=0.000
       4 -> 16         0.15497
       6 -> 21        -0.22637
       6 -> 22         0.55365
       6 -> 26         0.11190
       7 -> 25         0.26315

 Excited State  74:      Singlet-B2    21.2403 eV   58.37 nm  f=0.0369  <S**2>=0.000
       4 -> 15         0.23471
       6 -> 23         0.55633
       8 -> 29        -0.24407
       8 -> 32         0.12981

 Excited State  75:      Singlet-A2    21.2987 eV   58.21 nm  f=0.0000  <S**2>=0.000
       4 -> 17        -0.24380
       6 -> 24         0.38081
       8 -> 31         0.51413

 Excited State  76:      Singlet-B2    21.3864 eV   57.97 nm  f=0.0029  <S**2>=0.000
       5 -> 19         0.19120
       5 -> 21         0.54960
       5 -> 22         0.28704
       5 -> 26        -0.10848
       8 -> 28        -0.14471

 Excited State  77:      Singlet-A2    21.4963 eV   57.68 nm  f=0.0000  <S**2>=0.000
       4 -> 17         0.31834
       6 -> 24        -0.40410
       8 -> 31         0.46463

 Excited State  78:      Singlet-A1    21.9386 eV   56.51 nm  f=0.1127  <S**2>=0.000
       5 -> 20         0.33379
       7 -> 25         0.12908
       8 -> 30         0.58603

 Excited State  79:      Singlet-A2    21.9608 eV   56.46 nm  f=0.0000  <S**2>=0.000
       4 -> 17         0.56043
       6 -> 17        -0.12107
       6 -> 24         0.38989

 Excited State  80:      Singlet-B1    22.3176 eV   55.55 nm  f=0.0005  <S**2>=0.000
       5 -> 24         0.10677
       6 -> 25         0.68238

 Excited State  81:      Singlet-A2    22.3398 eV   55.50 nm  f=0.0000  <S**2>=0.000
       7 -> 27         0.68598

 Excited State  82:      Singlet-B2    22.3498 eV   55.47 nm  f=0.2224  <S**2>=0.000
       5 -> 21        -0.30445
       5 -> 22         0.52339
       5 -> 26        -0.12171
       8 -> 32        -0.25049

 Excited State  83:      Singlet-B1    22.5882 eV   54.89 nm  f=0.0137  <S**2>=0.000
       4 -> 18         0.67462

 Excited State  84:      Singlet-A1    22.7219 eV   54.57 nm  f=0.1472  <S**2>=0.000
       5 -> 23         0.64057
       6 -> 26        -0.12683
       6 -> 28        -0.10164

 Excited State  85:      Singlet-B2    22.8108 eV   54.35 nm  f=0.1040  <S**2>=0.000
       5 -> 22         0.31117
       6 -> 27        -0.13195
       8 -> 32         0.59187

 Excited State  86:      Singlet-B1    22.9403 eV   54.05 nm  f=0.1401  <S**2>=0.000
       5 -> 24         0.66114
       6 -> 25        -0.11393
       8 -> 33        -0.15869

 Excited State  87:      Singlet-A1    23.2406 eV   53.35 nm  f=0.3552  <S**2>=0.000
       4 -> 19        -0.16297
       4 -> 21         0.11424
       5 -> 23         0.16494
       6 -> 26         0.54493
       6 -> 28         0.17837
       7 -> 25        -0.12304
       8 -> 27        -0.20552

 Excited State  88:      Singlet-A2    23.5571 eV   52.63 nm  f=0.0000  <S**2>=0.000
       5 -> 25         0.69242

 Excited State  89:      Singlet-B2    23.5842 eV   52.57 nm  f=0.0722  <S**2>=0.000
       5 -> 22         0.10891
       5 -> 26         0.55472
       5 -> 28         0.11625
       6 -> 27         0.37170

 Excited State  90:      Singlet-B2    23.8424 eV   52.00 nm  f=0.1252  <S**2>=0.000
       4 -> 23        -0.10228
       5 -> 26        -0.33074
       6 -> 27         0.53421
       6 -> 30         0.15092
       8 -> 32         0.15729

 Excited State  91:      Singlet-B1    23.8837 eV   51.91 nm  f=0.0283  <S**2>=0.000
       5 -> 24         0.13890
       7 -> 26         0.10187
       7 -> 28        -0.35248
       7 -> 29        -0.31681
       8 -> 33         0.46874

 Excited State  92:      Singlet-B1    24.0693 eV   51.51 nm  f=0.0098  <S**2>=0.000
       3 ->  9        -0.16551
       5 -> 24         0.11144
       7 -> 26        -0.10871
       7 -> 28         0.49409
       8 -> 33         0.42739

 Excited State  93:      Singlet-A1    24.3932 eV   50.83 nm  f=0.0149  <S**2>=0.000
       4 -> 19         0.62835
       5 -> 27         0.18321
       6 -> 26         0.13546
       6 -> 29        -0.11336

 Excited State  94:      Singlet-B2    24.4790 eV   50.65 nm  f=0.0076  <S**2>=0.000
       4 -> 20         0.67564
       6 -> 30         0.14947

 Excited State  95:      Singlet-B1    24.5798 eV   50.44 nm  f=0.1127  <S**2>=0.000
       3 ->  9        -0.10449
       6 -> 31         0.14225
       7 -> 28        -0.28854
       7 -> 29         0.56952
       7 -> 32         0.11300
       8 -> 33         0.17452

 Excited State  96:      Singlet-A1    24.9222 eV   49.75 nm  f=0.0833  <S**2>=0.000
       4 -> 21         0.18784
       4 -> 22         0.19747
       6 -> 26        -0.13643
       6 -> 28         0.40164
       6 -> 29         0.30787
       7 -> 31        -0.35969

 Excited State  97:      Singlet-A2    25.1819 eV   49.24 nm  f=0.0000  <S**2>=0.000
       7 -> 30         0.68359
       8 -> 34        -0.14054

 Excited State  98:      Singlet-A1    25.2763 eV   49.05 nm  f=0.0003  <S**2>=0.000
       4 -> 21         0.53729
       4 -> 22         0.26976
       6 -> 28        -0.24904
       6 -> 32         0.11272
       7 -> 31         0.16782

 Excited State  99:      Singlet-A2    25.3331 eV   48.94 nm  f=0.0000  <S**2>=0.000
       5 -> 31        -0.11511
       7 -> 30         0.13954
       8 -> 34         0.67303

 Excited State 100:      Singlet-A1    25.6937 eV   48.25 nm  f=0.0255  <S**2>=0.000
       4 -> 22         0.36425
       5 -> 27        -0.28257
       6 -> 28         0.31516
       6 -> 29        -0.24297
       7 -> 31         0.29690

 Excited State 101:      Singlet-B2    25.7388 eV   48.17 nm  f=0.0105  <S**2>=0.000
       4 -> 23         0.67434

 Excited State 102:      Singlet-A1    25.7721 eV   48.11 nm  f=0.0073  <S**2>=0.000
       4 -> 19        -0.19537
       4 -> 21        -0.32818
       4 -> 22         0.42307
       5 -> 27         0.31874
       6 -> 28        -0.16610
       7 -> 31        -0.14585

 Excited State 103:      Singlet-A1    25.8936 eV   47.88 nm  f=0.0208  <S**2>=0.000
       4 -> 22        -0.16287
       5 -> 27         0.50045
       6 -> 26        -0.16051
       6 -> 28         0.26354
       7 -> 31         0.31403

 Excited State 104:      Singlet-B1    25.9251 eV   47.82 nm  f=0.0007  <S**2>=0.000
       3 ->  9         0.24421
       6 -> 31        -0.23548
       7 -> 32         0.60389

 Excited State 105:      Singlet-B1    26.1493 eV   47.41 nm  f=0.1443  <S**2>=0.000
       3 ->  9         0.44868
       6 -> 31         0.51652
       7 -> 28         0.10587

 Excited State 106:      Singlet-B2    26.2620 eV   47.21 nm  f=0.1684  <S**2>=0.000
       4 -> 20        -0.12158
       5 -> 28         0.17414
       6 -> 27        -0.13835
       6 -> 30         0.63289

 Excited State 107:      Singlet-A2    26.3978 eV   46.97 nm  f=0.0000  <S**2>=0.000
       4 -> 24         0.68810
       6 -> 33         0.11073

 Excited State 108:      Singlet-B1    26.4691 eV   46.84 nm  f=0.2897  <S**2>=0.000
       3 ->  9         0.39937
       4 -> 25         0.18566
       6 -> 31        -0.33483
       7 -> 29         0.21864
       7 -> 32        -0.31827
       8 -> 33         0.11687

 Excited State 109:      Singlet-A1    26.5491 eV   46.70 nm  f=0.3006  <S**2>=0.000
       4 -> 21        -0.16400
       4 -> 26         0.16901
       5 -> 23         0.10327
       5 -> 30        -0.11400

 The electronic state is 1-A1.
 Alpha  occ. eigenvalues --  -19.48621 -10.54790  -1.19925  -0.76194  -0.63030
 Alpha  occ. eigenvalues --   -0.57898  -0.53100  -0.38904
 Alpha virt. eigenvalues --    0.03824   0.04075   0.10199   0.11630   0.12015
 Alpha virt. eigenvalues --    0.16267   0.19222   0.19904   0.25615   0.27837
 Alpha virt. eigenvalues --    0.32598   0.34077   0.36173   0.39406   0.40117

 Mulliken charges:
               1
     1  C    0.265968
     2  O   -0.263648
     3  H   -0.001160
     4  H   -0.001160
 Sum of Mulliken charges =   0.00000

 Dipole moment (field-independent basis, Debye):
    X=              0.0000    Y=             -0.0000    Z=             -2.5754  Tot=              2.5754
 Quadrupole moment (field-independent basis, Debye-Ang):
   XX=            -11.7035   YY=            -11.5909   ZZ=            -12.2618
   XY=              0.0000   XZ=              0.0000   YZ=              0.0000

 Normal termination of Gaussian 16 at Mon Mar 21 20:04:54 2022.
