 Gaussian 16, Revision C.01,
 Gaussian 16:  EM64L-G16RevC.01  3-Jul-2019

 -------------------------------------------------------------------
 #P TD(Nstates=10000) m11/Gen SCF(maxcycles=100) Int(Grid=ultrafine)
 -------------------------------------------------------------------

 ---------------------
 xGDB7_00001_tier4.com
 ---------------------
 Symbolic Z-matrix:
 Charge =  0 Multiplicity = 1

                         Standard orientation:
 ---------------------------------------------------------------------
 Center     Atomic      Atomic             Coordinates (Angstroms)
 Number     Number       Type             X           Y           Z
 ---------------------------------------------------------------------
      1          6           0        0.000000    0.000000    0.660866
      2          6           0        0.000000    0.000000   -0.660866
      3          1           0        0.000000    0.922586    1.229258
      4          1           0       -0.000000   -0.922586    1.229258
      5          1           0        0.000000    0.922586   -1.229258
      6          1           0       -0.000000   -0.922586   -1.229258
 ---------------------------------------------------------------------

 SCF Done:  E(RM11) =  -78.4666189663     A.U. after   12 cycles

 Excitation energies and oscillator strengths:

 Excited State   1:      Singlet-B3U    7.4701 eV  165.97 nm  f=0.0647  <S**2>=0.000
       8 ->  9         0.69401
 This state for optimization and/or second-order correction.
 Total Energy, E(TD-HF/TD-DFT) =  -78.1920969744
 Copying the excited state density for this state as the 1-particle RhoCI density.

 Excited State   2:      Singlet-B1U    7.8450 eV  158.04 nm  f=0.3647  <S**2>=0.000
       8 -> 11         0.70135

 Excited State   3:      Singlet-B1G    8.0344 eV  154.32 nm  f=0.0000  <S**2>=0.000
       7 -> 11         0.69303

 Excited State   4:      Singlet-B2G    8.1200 eV  152.69 nm  f=0.0000  <S**2>=0.000
       8 -> 10         0.70121

 Excited State   5:      Singlet-B1G    9.2105 eV  134.61 nm  f=0.0000  <S**2>=0.000
       7 -> 11        -0.10437
       8 -> 12         0.68609
       8 -> 25         0.13078

 Excited State   6:      Singlet-B2G    9.4323 eV  131.45 nm  f=0.0000  <S**2>=0.000
       6 -> 11         0.69294
       6 -> 22         0.11501

 Excited State   7:      Singlet-B3G    9.6002 eV  129.15 nm  f=0.0000  <S**2>=0.000
       7 ->  9         0.69010

 Excited State   8:      Singlet-B3U   10.1007 eV  122.75 nm  f=0.0612  <S**2>=0.000
       8 -> 14         0.68406
       8 -> 15        -0.10723

 Excited State   9:      Singlet-B2U   10.2084 eV  121.45 nm  f=0.0926  <S**2>=0.000
       5 ->  9        -0.10353
       7 -> 10         0.69004

 Excited State  10:      Singlet-AU    10.5411 eV  117.62 nm  f=0.0000  <S**2>=0.000
       5 -> 11        -0.12382
       8 -> 13         0.68796

 Excited State  11:      Singlet-B3U   10.9227 eV  113.51 nm  f=0.1914  <S**2>=0.000
       8 -> 14         0.10897
       8 -> 15         0.68322

 Excited State  12:      Singlet-AU    11.3378 eV  109.35 nm  f=0.0000  <S**2>=0.000
       5 -> 11         0.68646
       8 -> 13         0.12847

 Excited State  13:      Singlet-AG    11.3952 eV  108.80 nm  f=0.0000  <S**2>=0.000
       6 ->  9         0.54012
       8 -> 16        -0.43743

 Excited State  14:      Singlet-B2U   11.6117 eV  106.77 nm  f=0.1015  <S**2>=0.000
       8 -> 18         0.68537

 Excited State  15:      Singlet-B1U   11.6344 eV  106.57 nm  f=0.2071  <S**2>=0.000
       7 -> 12         0.68431
       7 -> 25         0.10290

 Excited State  16:      Singlet-AG    11.8005 eV  105.07 nm  f=0.0000  <S**2>=0.000
       6 ->  9         0.42519
       7 -> 13        -0.21061
       8 -> 16         0.50243

 Excited State  17:      Singlet-B2G   12.0379 eV  103.00 nm  f=0.0000  <S**2>=0.000
       8 -> 17         0.69246
       8 -> 33        -0.10429

 Excited State  18:      Singlet-B1G   12.1470 eV  102.07 nm  f=0.0000  <S**2>=0.000
       8 -> 19         0.69048
       8 -> 29        -0.11844

 Excited State  19:      Singlet-B1U   12.1703 eV  101.87 nm  f=0.2119  <S**2>=0.000
       6 -> 10         0.68909

 Excited State  20:      Singlet-B3G   12.1981 eV  101.64 nm  f=0.0000  <S**2>=0.000
       5 -> 10         0.14572
       7 -> 14         0.67851

 Excited State  21:      Singlet-B3G   13.0426 eV   95.06 nm  f=0.0000  <S**2>=0.000
       5 -> 10         0.30937
       7 -> 15         0.61524

 Excited State  22:      Singlet-B2U   13.1819 eV   94.06 nm  f=0.0990  <S**2>=0.000
       5 ->  9         0.66703
       6 -> 12         0.16502
       7 -> 10         0.10015

 Excited State  23:      Singlet-B2U   13.2425 eV   93.63 nm  f=0.2536  <S**2>=0.000
       5 ->  9        -0.17000
       6 -> 12         0.65570
       6 -> 25         0.11442

 Excited State  24:      Singlet-AG    13.4579 eV   92.13 nm  f=0.0000  <S**2>=0.000
       6 -> 14         0.12440
       6 -> 15         0.11427
       7 -> 13         0.65062
       8 -> 16         0.17807

 Excited State  25:      Singlet-AU    13.4706 eV   92.04 nm  f=0.0000  <S**2>=0.000
       7 -> 16         0.69594

 Excited State  26:      Singlet-B2G   13.5547 eV   91.47 nm  f=0.0000  <S**2>=0.000
       7 -> 18        -0.46744
       8 -> 21         0.51487

 Excited State  27:      Singlet-B2G   13.9075 eV   89.15 nm  f=0.0000  <S**2>=0.000
       7 -> 18         0.51412
       8 -> 21         0.46811

 Excited State  28:      Singlet-B3G   13.9305 eV   89.00 nm  f=0.0000  <S**2>=0.000
       5 -> 10         0.41404
       7 -> 15        -0.18324
       8 -> 20         0.52376

 Excited State  29:      Singlet-B3G   13.9372 eV   88.96 nm  f=0.0000  <S**2>=0.000
       5 -> 10        -0.43383
       7 -> 15         0.27136
       8 -> 20         0.46349

 Excited State  30:      Singlet-B1U   14.0731 eV   88.10 nm  f=0.0729  <S**2>=0.000
       7 -> 12        -0.10848
       7 -> 19        -0.15516
       8 -> 22         0.66211

 Excited State  31:      Singlet-AG    14.0928 eV   87.98 nm  f=0.0000  <S**2>=0.000
       6 -> 14         0.65538
       6 -> 15        -0.19654

 Excited State  32:      Singlet-B2U   14.4203 eV   85.98 nm  f=0.6736  <S**2>=0.000
       5 -> 14        -0.11527
       7 -> 17         0.66419

 Excited State  33:      Singlet-B3G   14.5071 eV   85.46 nm  f=0.0000  <S**2>=0.000
       4 -> 12        -0.12615
       6 -> 13         0.67698
       6 -> 32        -0.10941

 Excited State  34:      Singlet-B3U   14.6158 eV   84.83 nm  f=0.1549  <S**2>=0.000
       4 -> 11        -0.20610
       8 -> 23         0.66311

 Excited State  35:      Singlet-B1U   14.7157 eV   84.25 nm  f=0.3841  <S**2>=0.000
       5 -> 13        -0.15572
       7 -> 19         0.66097
       8 -> 22         0.14309

 Excited State  36:      Singlet-AG    15.0084 eV   82.61 nm  f=0.0000  <S**2>=0.000
       5 -> 12        -0.44857
       6 -> 15         0.49999
       7 -> 13        -0.11957

 Excited State  37:      Singlet-B1G   15.2658 eV   81.22 nm  f=0.0000  <S**2>=0.000
       5 -> 16         0.22057
       6 -> 18        -0.25702
       7 -> 22         0.46387
       8 -> 25        -0.39320

 Excited State  38:      Singlet-B1G   15.2826 eV   81.13 nm  f=0.0000  <S**2>=0.000
       5 -> 16         0.15094
       6 -> 18        -0.23228
       7 -> 22         0.28693
       8 -> 12        -0.11659
       8 -> 25         0.56085

 Excited State  39:      Singlet-B3U   15.3150 eV   80.96 nm  f=0.0594  <S**2>=0.000
       4 -> 11         0.25376
       6 -> 16         0.62436
       7 -> 20        -0.11098
       8 -> 23         0.10762

 Excited State  40:      Singlet-B2U   15.4014 eV   80.50 nm  f=0.0128  <S**2>=0.000
       5 -> 14        -0.19845
       5 -> 15        -0.25926
       6 -> 19        -0.10318
       7 -> 21         0.60157

 Excited State  41:      Singlet-B3U   15.5299 eV   79.84 nm  f=0.1047  <S**2>=0.000
       4 -> 11         0.55586
       5 -> 18        -0.14477
       6 -> 16        -0.30666
       7 -> 20        -0.13595
       8 -> 15        -0.10120
       8 -> 23         0.15155
       8 -> 28        -0.13548

 Excited State  42:      Singlet-B1G   15.5947 eV   79.50 nm  f=0.0000  <S**2>=0.000
       5 -> 16         0.10891
       6 -> 18         0.60559
       7 -> 22         0.32682

 Excited State  43:      Singlet-B2G   15.8478 eV   78.23 nm  f=0.0000  <S**2>=0.000
       8 -> 26         0.69071

 Excited State  44:      Singlet-AG    15.8570 eV   78.19 nm  f=0.0000  <S**2>=0.000
       5 -> 12        -0.22232
       6 -> 15        -0.17922
       8 -> 27         0.62784

 Excited State  45:      Singlet-B2U   15.9192 eV   77.88 nm  f=0.0446  <S**2>=0.000
       5 -> 14         0.54252
       5 -> 15        -0.20959
       6 -> 19         0.29932
       7 -> 17         0.17460
       7 -> 21         0.15071

 Excited State  46:      Singlet-AG    16.0019 eV   77.48 nm  f=0.0000  <S**2>=0.000
       5 -> 12         0.46068
       6 -> 14         0.16028
       6 -> 15         0.38401
       8 -> 16        -0.12246
       8 -> 27         0.29478

 Excited State  47:      Singlet-B3U   16.0139 eV   77.42 nm  f=0.3152  <S**2>=0.000
       4 -> 11         0.16714
       5 -> 18         0.19285
       7 -> 20         0.62415
       8 -> 28        -0.15526

 Excited State  48:      Singlet-B1U   16.0912 eV   77.05 nm  f=0.0020  <S**2>=0.000
       6 -> 17         0.67520

 Excited State  49:      Singlet-AU    16.1486 eV   76.78 nm  f=0.0000  <S**2>=0.000
       8 -> 24         0.69892

 Excited State  50:      Singlet-B1U   16.2699 eV   76.20 nm  f=0.0058  <S**2>=0.000
       4 ->  9         0.61984
       5 -> 13        -0.28297
       6 -> 17        -0.10430

 Excited State  51:      Singlet-B2U   16.5284 eV   75.01 nm  f=0.2215  <S**2>=0.000
       5 -> 14        -0.32210
       6 -> 19         0.60456

 Excited State  52:      Singlet-B1U   16.6476 eV   74.48 nm  f=0.0481  <S**2>=0.000
       4 ->  9         0.26674
       5 -> 13         0.59543
       6 -> 21         0.18714
       8 -> 22         0.10260

 Excited State  53:      Singlet-B2U   16.9348 eV   73.21 nm  f=0.0001  <S**2>=0.000
       5 -> 14         0.16224
       5 -> 15         0.59845
       7 -> 21         0.30727

 Excited State  54:      Singlet-AG    16.9355 eV   73.21 nm  f=0.0000  <S**2>=0.000
       4 -> 10         0.68338
       5 -> 12         0.10989

 Excited State  55:      Singlet-B3G   17.0155 eV   72.87 nm  f=0.0000  <S**2>=0.000
       5 -> 17        -0.24020
       7 -> 23         0.62863

 Excited State  56:      Singlet-B2G   17.2100 eV   72.04 nm  f=0.0000  <S**2>=0.000
       4 -> 16         0.16473
       6 -> 11        -0.12142
       6 -> 22         0.65223
       8 -> 33        -0.10864

 Excited State  57:      Singlet-B3U   17.2616 eV   71.83 nm  f=0.0637  <S**2>=0.000
       5 -> 18        -0.31698
       7 -> 20         0.22630
       8 -> 28         0.55608
       8 -> 30        -0.13157

 Excited State  58:      Singlet-B1G   17.2678 eV   71.80 nm  f=0.0000  <S**2>=0.000
       5 -> 16         0.60549
       7 -> 22        -0.27228
       8 -> 29        -0.22399

 Excited State  59:      Singlet-B1U   17.5423 eV   70.68 nm  f=0.2865  <S**2>=0.000
       4 -> 14        -0.12486
       4 -> 15        -0.15705
       5 -> 13        -0.13865
       6 -> 21         0.58433
       7 -> 25         0.25346

 Excited State  60:      Singlet-B1G   17.5820 eV   70.52 nm  f=0.0000  <S**2>=0.000
       5 -> 16         0.21304
       8 -> 19         0.11065
       8 -> 29         0.65778

 Excited State  61:      Singlet-B3U   17.6364 eV   70.30 nm  f=0.2658  <S**2>=0.000
       4 -> 11         0.15744
       5 -> 18         0.51987
       7 -> 20        -0.13509
       8 -> 28         0.36843
       8 -> 30         0.19204

 Excited State  62:      Singlet-AU    17.7186 eV   69.97 nm  f=0.0000  <S**2>=0.000
       4 -> 18         0.15666
       6 -> 20         0.59018
       8 -> 32         0.33611

 Excited State  63:      Singlet-B3G   17.7263 eV   69.94 nm  f=0.0000  <S**2>=0.000
       4 -> 12         0.17747
       5 -> 17         0.60195
       7 -> 23         0.26724
       7 -> 28         0.14419

 Excited State  64:      Singlet-AG    17.8351 eV   69.52 nm  f=0.0000  <S**2>=0.000
       5 -> 19         0.58096
       7 -> 24         0.37402

 Excited State  65:      Singlet-AU    17.8869 eV   69.32 nm  f=0.0000  <S**2>=0.000
       6 -> 20        -0.33485
       8 -> 32         0.59648

 Excited State  66:      Singlet-B3G   17.9136 eV   69.21 nm  f=0.0000  <S**2>=0.000
       4 -> 12         0.63859
       4 -> 25         0.11728
       5 -> 17        -0.19178
       6 -> 13         0.13833

 Excited State  67:      Singlet-B2G   17.9200 eV   69.19 nm  f=0.0000  <S**2>=0.000
       6 -> 22         0.11356
       8 -> 17         0.10060
       8 -> 33         0.67203
       8 -> 37        -0.12909

 Excited State  68:      Singlet-B2U   17.9737 eV   68.98 nm  f=0.0869  <S**2>=0.000
       6 -> 25         0.10408
       8 -> 31         0.67427

 Excited State  69:      Singlet-B3U   17.9888 eV   68.92 nm  f=0.1999  <S**2>=0.000
       5 -> 18        -0.21986
       8 -> 30         0.65399

 Excited State  70:      Singlet-B2U   18.1861 eV   68.18 nm  f=0.0838  <S**2>=0.000
       5 -> 23         0.15602
       7 -> 26         0.67107

 Excited State  71:      Singlet-AU    18.1929 eV   68.15 nm  f=0.0000  <S**2>=0.000
       5 -> 22        -0.22453
       7 -> 27         0.65655

 Excited State  72:      Singlet-B1U   18.2622 eV   67.89 nm  f=0.3638  <S**2>=0.000
       6 -> 21        -0.24142
       7 -> 25         0.63650

 Excited State  73:      Singlet-AG    18.7056 eV   66.28 nm  f=0.0000  <S**2>=0.000
       5 -> 19        -0.34066
       6 -> 23         0.17683
       7 -> 24         0.57764

 Excited State  74:      Singlet-B1U   18.8416 eV   65.80 nm  f=0.0136  <S**2>=0.000
       4 -> 14         0.58618
       4 -> 15        -0.14123
       8 -> 34         0.31320

 Excited State  75:      Singlet-B1U   18.9706 eV   65.36 nm  f=0.0047  <S**2>=0.000
       4 -> 14        -0.30356
       8 -> 34         0.62589

 Excited State  76:      Singlet-B3G   19.0243 eV   65.17 nm  f=0.0000  <S**2>=0.000
       5 -> 21         0.57464
       7 -> 15         0.10320
       7 -> 28         0.35640

 Excited State  77:      Singlet-AG    19.0501 eV   65.08 nm  f=0.0000  <S**2>=0.000
       5 -> 19         0.15484
       6 -> 23         0.65519
       7 -> 24        -0.11242

 Excited State  78:      Singlet-AU    19.2794 eV   64.31 nm  f=0.0000  <S**2>=0.000
       5 -> 11        -0.10629
       5 -> 22         0.64095
       7 -> 27         0.22199

 Excited State  79:      Singlet-B2U   19.3816 eV   63.97 nm  f=0.0238  <S**2>=0.000
       4 -> 13         0.63298
       6 -> 12         0.11620
       6 -> 25        -0.24421

 Excited State  80:      Singlet-B2G   19.4048 eV   63.89 nm  f=0.0000  <S**2>=0.000
       3 -> 11         0.13443
       5 -> 20         0.63331
       7 -> 31         0.23500

 Excited State  81:      Singlet-B3G   19.4975 eV   63.59 nm  f=0.0000  <S**2>=0.000
       4 -> 19         0.18576
       5 -> 21        -0.27754
       6 -> 24         0.20139
       7 -> 28         0.49338
       7 -> 30        -0.26700

 Excited State  82:      Singlet-B2U   19.6079 eV   63.23 nm  f=0.0224  <S**2>=0.000
       4 -> 13         0.24189
       6 -> 25         0.58671
       7 -> 33         0.23531

 Excited State  83:      Singlet-B2G   19.7224 eV   62.86 nm  f=0.0000  <S**2>=0.000
       3 -> 11         0.44185
       5 -> 20        -0.15249
       8 -> 35         0.44283
       8 -> 37        -0.23287

 Excited State  84:      Singlet-B1U   19.7244 eV   62.86 nm  f=0.0111  <S**2>=0.000
       4 -> 14         0.11156
       4 -> 15         0.56495
       6 -> 26         0.30353
       7 -> 29        -0.19573

 Excited State  85:      Singlet-B2G   20.0291 eV   61.90 nm  f=0.0000  <S**2>=0.000
       3 -> 11        -0.31629
       4 -> 16         0.54327
       5 -> 20         0.12493
       6 -> 22        -0.16702
       8 -> 35         0.22480

 Excited State  86:      Singlet-B3G   20.0306 eV   61.90 nm  f=0.0000  <S**2>=0.000
       4 -> 19         0.20470
       5 -> 21         0.25951
       6 -> 24         0.47843
       7 -> 28        -0.27502
       7 -> 30        -0.23190

 Excited State  87:      Singlet-B1U   20.1218 eV   61.62 nm  f=0.1117  <S**2>=0.000
       4 -> 15        -0.30035
       6 -> 21        -0.13964
       6 -> 26         0.60570

 Excited State  88:      Singlet-B3U   20.1558 eV   61.51 nm  f=0.1466  <S**2>=0.000
       4 -> 22        -0.14745
       6 -> 27         0.68430

 Excited State  89:      Singlet-B3G   20.3699 eV   60.87 nm  f=0.0000  <S**2>=0.000
       5 -> 26         0.18050
       6 -> 24         0.36243
       7 -> 30         0.54453

 Excited State  90:      Singlet-AU    20.4358 eV   60.67 nm  f=0.0000  <S**2>=0.000
       4 -> 18         0.67203
       6 -> 20        -0.14951

 Excited State  91:      Singlet-B2G   20.4399 eV   60.66 nm  f=0.0000  <S**2>=0.000
       3 -> 11         0.13535
       4 -> 16         0.23874
       5 -> 20        -0.17687
       7 -> 18         0.11110
       7 -> 31         0.57500
       8 -> 35        -0.19834

 Excited State  92:      Singlet-B1U   20.4759 eV   60.55 nm  f=0.0903  <S**2>=0.000
       4 -> 15         0.16190
       5 -> 24         0.10205
       6 -> 21         0.11555
       7 -> 29         0.64682

 Excited State  93:      Singlet-AG    20.4849 eV   60.52 nm  f=0.0000  <S**2>=0.000
       4 -> 17         0.41506
       6 -> 28         0.36787
       7 -> 32         0.38501

 Excited State  94:      Singlet-B2U   20.7070 eV   59.88 nm  f=0.1242  <S**2>=0.000
       5 -> 23         0.64903
       7 -> 26        -0.16445
       7 -> 35         0.11097

 Excited State  95:      Singlet-B2G   20.7111 eV   59.86 nm  f=0.0000  <S**2>=0.000
       3 -> 11        -0.33589
       4 -> 16        -0.30367
       5 -> 20        -0.12262
       7 -> 31         0.30888
       8 -> 35         0.41134

 Excited State  96:      Singlet-AG    20.7996 eV   59.61 nm  f=0.0000  <S**2>=0.000
       3 ->  9         0.15382
       4 -> 17        -0.44001
       5 -> 25         0.10527
       6 -> 30         0.10233
       7 -> 32         0.48096

 Excited State  97:      Singlet-B1G   20.8593 eV   59.44 nm  f=0.0000  <S**2>=0.000
       5 -> 27         0.33332
       7 -> 34         0.61405

 Excited State  98:      Singlet-B2U   21.1098 eV   58.73 nm  f=0.2154  <S**2>=0.000
       6 -> 25        -0.18676
       6 -> 29        -0.17271
       7 -> 33         0.57937
       7 -> 35         0.11934
       7 -> 37        -0.15235

 Excited State  99:      Singlet-B3G   21.2434 eV   58.36 nm  f=0.0000  <S**2>=0.000
       4 -> 19         0.59510
       5 -> 26         0.11141
       6 -> 24        -0.26078
       8 -> 36        -0.19074

 Excited State 100:      Singlet-AG    21.3078 eV   58.19 nm  f=0.0000  <S**2>=0.000
       3 ->  9        -0.29762
       4 -> 17        -0.27323
       4 -> 21         0.13979
       5 -> 25         0.28521
       6 -> 28         0.43292
       7 -> 32        -0.15287

 Excited State 101:      Singlet-AG    21.3436 eV   58.09 nm  f=0.0000  <S**2>=0.000
       3 ->  9         0.59505
       5 -> 25         0.17586
       6 -> 28         0.17462
       6 -> 30        -0.11877
       7 -> 32        -0.21342

 Excited State 102:      Singlet-AG    21.5535 eV   57.52 nm  f=0.0000  <S**2>=0.000
       4 -> 17         0.16273
       4 -> 21         0.14949
       5 -> 25         0.45355
       6 -> 28        -0.25552
       6 -> 30         0.38438

 Excited State 103:      Singlet-B3G   21.7572 eV   56.99 nm  f=0.0000  <S**2>=0.000
       4 -> 19         0.13610
       6 -> 32        -0.40004
       8 -> 36         0.54263

 Excited State 104:      Singlet-B3G   21.7891 eV   56.90 nm  f=0.0000  <S**2>=0.000
       4 -> 19         0.15753
       5 -> 26        -0.34359
       6 -> 24        -0.10608
       6 -> 32         0.42830
       7 -> 30         0.19017
       8 -> 36         0.31491

 Excited State 105:      Singlet-B1G   21.8366 eV   56.78 nm  f=0.0000  <S**2>=0.000
       4 -> 20         0.33496
       5 -> 27         0.34606
       6 -> 31         0.48261
       7 -> 34        -0.17262

 Excited State 106:      Singlet-B1U   21.9014 eV   56.61 nm  f=0.0103  <S**2>=0.000
       3 -> 10        -0.35202
       5 -> 24         0.58972

 Excited State 107:      Singlet-B2U   21.9229 eV   56.55 nm  f=0.0163  <S**2>=0.000
       5 -> 28        -0.20972
       5 -> 30         0.11218
       6 -> 29         0.55352
       7 -> 35         0.32645
       7 -> 37        -0.11509

 Excited State 108:      Singlet-B1U   21.9616 eV   56.45 nm  f=0.0728  <S**2>=0.000
       3 -> 10         0.54286
       5 -> 24         0.36129
       6 -> 33         0.21306

 Excited State 109:      Singlet-B3G   21.9685 eV   56.44 nm  f=0.0000  <S**2>=0.000
       5 -> 26         0.55159
       6 -> 32         0.30184
       7 -> 30        -0.12830
       8 -> 36         0.22291

 Excited State 110:      Singlet-B2G   21.9974 eV   56.36 nm  f=0.0000  <S**2>=0.000
       3 -> 11         0.17827
       8 -> 33         0.12875
       8 -> 35         0.17157
       8 -> 37         0.63610

 Excited State 111:      Singlet-B1G   22.1048 eV   56.09 nm  f=0.0000  <S**2>=0.000
       4 -> 20        -0.13501
       5 -> 27         0.51168
       6 -> 31        -0.36722
       7 -> 34        -0.27713

 Excited State 112:      Singlet-AG    22.2187 eV   55.80 nm  f=0.0000  <S**2>=0.000
       3 -> 15        -0.11812
       4 -> 21         0.35362
       5 -> 25        -0.36098
       6 -> 28         0.13384
       6 -> 30         0.38211
       8 -> 40         0.17994

 Excited State 113:      Singlet-B3U   22.3920 eV   55.37 nm  f=0.0001  <S**2>=0.000
       4 -> 22         0.66169
       6 -> 27         0.13581

 Excited State 114:      Singlet-B2U   22.4251 eV   55.29 nm  f=0.3141  <S**2>=0.000
       3 -> 12         0.10003
       5 -> 23        -0.13738
       5 -> 28        -0.28252
       6 -> 25         0.10625
       6 -> 29        -0.34492
       7 -> 33        -0.21573
       7 -> 35         0.44194

 Excited State 115:      Singlet-AG    22.4387 eV   55.25 nm  f=0.0000  <S**2>=0.000
       4 -> 21         0.53239
       6 -> 28        -0.20468
       6 -> 30        -0.38388

 Excited State 116:      Singlet-B1U   22.4869 eV   55.14 nm  f=0.1332  <S**2>=0.000
       3 -> 10        -0.24016
       5 -> 32         0.11777
       6 -> 33         0.61592
       6 -> 35        -0.11151

 Excited State 117:      Singlet-B1G   22.7242 eV   54.56 nm  f=0.0000  <S**2>=0.000
       4 -> 20         0.58565

 The electronic state is 1-AG.
 Alpha  occ. eigenvalues --  -10.44004 -10.43902  -0.89526  -0.70065  -0.58940
 Alpha  occ. eigenvalues --   -0.53236  -0.46050  -0.38309
 Alpha virt. eigenvalues --    0.06020   0.07075   0.08496   0.15197   0.17427
 Alpha virt. eigenvalues --    0.17916   0.22570   0.23466   0.24334   0.24658
 Alpha virt. eigenvalues --    0.26673   0.30479   0.30752   0.31556   0.36714

 Mulliken charges:
               1
     1  C    0.002477
     2  C    0.002477
     3  H   -0.001238
     4  H   -0.001238
     5  H   -0.001238
     6  H   -0.001238
 Sum of Mulliken charges =   0.00000

 Dipole moment (field-independent basis, Debye):
    X=              0.0000    Y=              0.0000    Z=              0.0000  Tot=              0.0000
 Quadrupole moment (field-independent basis, Debye-Ang):
   XX=            -15.4528   YY=            -12.3068   ZZ=            -12.1608
   XY=              0.0000   XZ=             -0.0000   YZ=             -0.0000

 Normal termination of Gaussian 16 at Mon Mar 21 04:06:53 2022.
