 Gaussian 16, Revision C.01,
 Gaussian 16:  EM64L-G16RevC.01  3-Jul-2019

 -------------------------------------------------------------------
 #P TD(Nstates=10000) m11/Gen SCF(maxcycles=100) Int(Grid=ultrafine)
 -------------------------------------------------------------------

 ---------------------
 xGDB7_00001_tier4.com
 ---------------------
 Symbolic Z-matrix:
 Charge =  0 Multiplicity = 1

                         Standard orientation:
 ---------------------------------------------------------------------
 Center     Atomic      Atomic             Coordinates (Angstroms)
 Number     Number       Type             X           Y           Z
 ---------------------------------------------------------------------
      1          9           0        0.000000    0.000000    0.688193
      2          9           0        0.000000    0.000000   -0.688193
 ---------------------------------------------------------------------

 SCF Done:  E(RM11) =  -199.302356494     A.U. after   11 cycles

 Excitation energies and oscillator strengths:

 Excited state symmetry could not be determined.
 Excited State   1:      Singlet-?Sym    4.3308 eV  286.29 nm  f=0.0000  <S**2>=0.000
       8 -> 10         0.22483
       9 -> 10         0.65995
       9 -> 11        -0.14693
 This state for optimization and/or second-order correction.
 Total Energy, E(TD-HF/TD-DFT) =  -199.143203680
 Copying the excited state density for this state as the 1-particle RhoCI density.

 Excited state symmetry could not be determined.
 Excited State   2:      Singlet-?Sym    4.3308 eV  286.29 nm  f=0.0000  <S**2>=0.000
       8 -> 10         0.65995
       8 -> 11        -0.14693
       9 -> 10        -0.22483

 Excited state symmetry could not be determined.
 Excited State   3:      Singlet-?Sym    8.5298 eV  145.35 nm  f=0.0000  <S**2>=0.000
       6 -> 10         0.49731
       6 -> 11        -0.10904
       7 -> 10        -0.48046
       7 -> 11         0.10535

 Excited state symmetry could not be determined.
 Excited State   4:      Singlet-?Sym    8.5298 eV  145.35 nm  f=0.0000  <S**2>=0.000
       6 -> 10         0.48046
       6 -> 11        -0.10535
       7 -> 10         0.49731
       7 -> 11        -0.10904

 Excited state symmetry could not be determined.
 Excited State   5:      Singlet-?Sym   12.5076 eV   99.13 nm  f=0.0251  <S**2>=0.000
       6 -> 12        -0.10996
       9 -> 10         0.15332
       9 -> 11         0.67697

 Excited state symmetry could not be determined.
 Excited State   6:      Singlet-?Sym   12.5076 eV   99.13 nm  f=0.0251  <S**2>=0.000
       7 -> 12        -0.10996
       8 -> 10         0.15332
       8 -> 11         0.67697

 Excited state symmetry could not be determined.
 Excited State   7:      Singlet-?Sym   12.8848 eV   96.22 nm  f=0.0000  <S**2>=0.000
       6 -> 11        -0.10331
       8 -> 12        -0.30772
       8 -> 17         0.10367
       9 -> 12         0.58135
       9 -> 17        -0.19585

 Excited state symmetry could not be determined.
 Excited State   8:      Singlet-?Sym   12.8848 eV   96.22 nm  f=0.0000  <S**2>=0.000
       7 -> 11        -0.10331
       8 -> 12         0.58135
       8 -> 17        -0.19585
       9 -> 12         0.30772
       9 -> 17        -0.10367

 Excited State   9:      Singlet-SGU   13.0526 eV   94.99 nm  f=0.3791  <S**2>=0.000
       5 -> 10         0.46283
       8 -> 13        -0.37195
       9 -> 14        -0.37195

 Excited state symmetry could not be determined.
 Excited State  10:      Singlet-?Sym   13.3268 eV   93.03 nm  f=0.0000  <S**2>=0.000
       8 -> 14        -0.49647
       9 -> 13         0.49647

 Excited state symmetry could not be determined.
 Excited State  11:      Singlet-?Sym   13.5625 eV   91.42 nm  f=0.0000  <S**2>=0.000
       8 -> 14         0.49804
       9 -> 13         0.49804

 Excited state symmetry could not be determined.
 Excited State  12:      Singlet-?Sym   13.5627 eV   91.42 nm  f=0.0000  <S**2>=0.000
       8 -> 13        -0.49805
       9 -> 14         0.49805

 Excited state symmetry could not be determined.
 Excited State  13:      Singlet-?Sym   15.0240 eV   82.52 nm  f=0.0000  <S**2>=0.000
       6 -> 13        -0.13128
       7 -> 14         0.13128
       8 -> 15         0.48147
       9 -> 16        -0.48147

 Excited state symmetry could not be determined.
 Excited State  14:      Singlet-?Sym   15.1005 eV   82.11 nm  f=0.0000  <S**2>=0.000
       6 -> 11        -0.16668
       8 -> 17        -0.13091
       9 -> 12         0.18439
       9 -> 17         0.64389

 Excited state symmetry could not be determined.
 Excited State  15:      Singlet-?Sym   15.1005 eV   82.11 nm  f=0.0000  <S**2>=0.000
       7 -> 11        -0.16668
       8 -> 12         0.18439
       8 -> 17         0.64389
       9 -> 17         0.13091

 Excited state symmetry could not be determined.
 Excited State  16:      Singlet-?Sym   15.4037 eV   80.49 nm  f=0.0000  <S**2>=0.000
       8 -> 15         0.48951
       9 -> 16         0.48951

 Excited state symmetry could not be determined.
 Excited State  17:      Singlet-?Sym   15.4038 eV   80.49 nm  f=0.0000  <S**2>=0.000
       8 -> 16        -0.48952
       9 -> 15         0.48952

 Excited State  18:      Singlet-SGU   15.5584 eV   79.69 nm  f=0.2766  <S**2>=0.000
       5 -> 10         0.50775
       5 -> 11         0.16292
       8 -> 13         0.31708
       9 -> 14         0.31708

 Excited state symmetry could not be determined.
 Excited State  19:      Singlet-?Sym   16.1072 eV   76.97 nm  f=0.0000  <S**2>=0.000
       5 -> 12        -0.11821
       8 -> 16         0.49022
       9 -> 15         0.49022

 Excited state symmetry could not be determined.
 Excited State  20:      Singlet-?Sym   16.8001 eV   73.80 nm  f=0.0000  <S**2>=0.000
       6 -> 11         0.11291
       7 -> 10         0.14072
       7 -> 11         0.64492
       8 -> 12         0.17092
       8 -> 17         0.12644

 Excited state symmetry could not be determined.
 Excited State  21:      Singlet-?Sym   16.8001 eV   73.80 nm  f=0.0000  <S**2>=0.000
       6 -> 10         0.14072
       6 -> 11         0.64492
       7 -> 11        -0.11291
       9 -> 12         0.17092
       9 -> 17         0.12644

 Excited state symmetry could not be determined.
 Excited State  22:      Singlet-?Sym   17.1314 eV   72.37 nm  f=0.0885  <S**2>=0.000
       6 -> 12         0.34416
       6 -> 17        -0.10929
       7 -> 12         0.56425
       7 -> 17        -0.17919

 Excited state symmetry could not be determined.
 Excited State  23:      Singlet-?Sym   17.1314 eV   72.37 nm  f=0.0885  <S**2>=0.000
       6 -> 12         0.56425
       6 -> 17        -0.17919
       7 -> 12        -0.34416
       7 -> 17         0.10929

 Excited state symmetry could not be determined.
 Excited State  24:      Singlet-?Sym   17.5783 eV   70.53 nm  f=0.0000  <S**2>=0.000
       6 -> 13        -0.48176
       7 -> 14         0.48176
       8 -> 15        -0.13203
       9 -> 16         0.13203

 Excited state symmetry could not be determined.
 Excited State  25:      Singlet-?Sym   17.8309 eV   69.53 nm  f=0.0000  <S**2>=0.000
       6 -> 14        -0.48981
       7 -> 13         0.48981

 Excited state symmetry could not be determined.
 Excited State  26:      Singlet-?Sym   17.8311 eV   69.53 nm  f=0.0000  <S**2>=0.000
       6 -> 13         0.48981
       7 -> 14         0.48981

 Excited State  27:      Singlet-SGG   18.2213 eV   68.04 nm  f=0.0000  <S**2>=0.000
       5 -> 12         0.51416
       5 -> 17        -0.17248
       6 -> 14        -0.31462
       7 -> 13        -0.31462

 Excited State  28:      Singlet-SGU   18.4269 eV   67.28 nm  f=0.0200  <S**2>=0.000
       5 -> 11         0.63765
       6 -> 15         0.18966
       7 -> 16         0.18966

 Excited state symmetry could not be determined.
 Excited State  29:      Singlet-?Sym   18.7484 eV   66.13 nm  f=0.0248  <S**2>=0.000
       5 -> 13        -0.28000
       5 -> 14         0.64696

 Excited state symmetry could not be determined.
 Excited State  30:      Singlet-?Sym   18.7484 eV   66.13 nm  f=0.0248  <S**2>=0.000
       5 -> 13         0.64696
       5 -> 14         0.28000

 Excited state symmetry could not be determined.
 Excited State  31:      Singlet-?Sym   19.2277 eV   64.48 nm  f=0.0000  <S**2>=0.000
       5 -> 12         0.35905
       5 -> 17        -0.27047
       6 -> 14         0.37685
       7 -> 13         0.37685

 Excited state symmetry could not be determined.
 Excited State  32:      Singlet-?Sym   19.2898 eV   64.27 nm  f=0.0000  <S**2>=0.000
       6 -> 16        -0.49606
       7 -> 15         0.49606

 Excited state symmetry could not be determined.
 Excited State  33:      Singlet-?Sym   19.4232 eV   63.83 nm  f=0.0902  <S**2>=0.000
       6 -> 12         0.20950
       6 -> 17         0.64739
       7 -> 17        -0.15219

 Excited state symmetry could not be determined.
 Excited State  34:      Singlet-?Sym   19.4232 eV   63.83 nm  f=0.0902  <S**2>=0.000
       6 -> 17         0.15219
       7 -> 12         0.20950
       7 -> 17         0.64739

 Excited state symmetry could not be determined.
 Excited State  35:      Singlet-?Sym   19.4489 eV   63.75 nm  f=0.0000  <S**2>=0.000
       6 -> 16         0.49762
       7 -> 15         0.49762

 Excited state symmetry could not be determined.
 Excited State  36:      Singlet-?Sym   19.4490 eV   63.75 nm  f=0.0000  <S**2>=0.000
       6 -> 15         0.49762
       7 -> 16        -0.49762

 Excited state symmetry could not be determined.
 Excited State  37:      Singlet-?Sym   20.1435 eV   61.55 nm  f=0.0041  <S**2>=0.000
       5 -> 10         0.11240
       5 -> 11        -0.24176
       6 -> 15         0.45348
       7 -> 16         0.45348

 Excited state symmetry could not be determined.
 Excited State  38:      Singlet-?Sym   20.5742 eV   60.26 nm  f=0.0000  <S**2>=0.000
       5 -> 15         0.57414
       5 -> 16         0.40927

 Excited state symmetry could not be determined.
 Excited State  39:      Singlet-?Sym   20.5742 eV   60.26 nm  f=0.0000  <S**2>=0.000
       5 -> 15        -0.40927
       5 -> 16         0.57414

 Excited State  40:      Singlet-SGG   20.6537 eV   60.03 nm  f=0.0000  <S**2>=0.000
       5 -> 12         0.30152
       5 -> 17         0.62405

 Excited state symmetry could not be determined.
 Excited State  41:      Singlet-?Sym   21.4778 eV   57.73 nm  f=0.0507  <S**2>=0.000
       9 -> 18         0.69303

 Excited state symmetry could not be determined.
 Excited State  42:      Singlet-?Sym   21.4778 eV   57.73 nm  f=0.0507  <S**2>=0.000
       8 -> 18         0.69303

 Excited state symmetry could not be determined.
 Excited State  43:      Singlet-?Sym   22.5320 eV   55.03 nm  f=0.0000  <S**2>=0.000
       8 -> 19         0.48844
       9 -> 20         0.48748

 Excited state symmetry could not be determined.
 Excited State  44:      Singlet-?Sym   22.5320 eV   55.03 nm  f=0.0000  <S**2>=0.000
       8 -> 20        -0.48748
       9 -> 19         0.48844

 Excited state symmetry could not be determined.
 Excited State  45:      Singlet-?Sym   23.0024 eV   53.90 nm  f=0.0000  <S**2>=0.000
       8 -> 19        -0.41422
       8 -> 20         0.27561
       9 -> 19         0.27507
       9 -> 20         0.41504

 Excited state symmetry could not be determined.
 Excited State  46:      Singlet-?Sym   23.0024 eV   53.90 nm  f=0.0000  <S**2>=0.000
       8 -> 19         0.27507
       8 -> 20         0.41504
       9 -> 19         0.41422
       9 -> 20        -0.27561

 Excited State  47:      Singlet-SGG   24.9144 eV   49.76 nm  f=0.0000  <S**2>=0.000
       4 -> 10         0.67813

 Excited state symmetry could not be determined.
 Excited State  48:      Singlet-?Sym   25.3816 eV   48.85 nm  f=0.0000  <S**2>=0.000
       6 -> 18         0.70001

 Excited state symmetry could not be determined.
 Excited State  49:      Singlet-?Sym   25.3816 eV   48.85 nm  f=0.0000  <S**2>=0.000
       7 -> 18         0.70001

 Excited state symmetry could not be determined.
 Excited State  50:      Singlet-?Sym   26.2362 eV   47.26 nm  f=0.0000  <S**2>=0.000
       6 -> 19         0.36432
       6 -> 20         0.28208
       7 -> 19         0.28218
       7 -> 20        -0.36420
       8 -> 24        -0.15351
       8 -> 25         0.11895
       9 -> 24         0.11889
       9 -> 25         0.15359

 Excited state symmetry could not be determined.
 Excited State  51:      Singlet-?Sym   26.2362 eV   47.26 nm  f=0.0000  <S**2>=0.000
       6 -> 19        -0.28218
       6 -> 20         0.36420
       7 -> 19         0.36432
       7 -> 20         0.28208
       8 -> 24         0.11889
       8 -> 25         0.15359
       9 -> 24         0.15351
       9 -> 25        -0.11895

 Excited State  52:      Singlet-SGU   26.5912 eV   46.63 nm  f=0.3066  <S**2>=0.000
       5 -> 18         0.61686
       8 -> 21         0.23618
       9 -> 22         0.23618

 Excited state symmetry could not be determined.
 Excited State  53:      Singlet-?Sym   26.6154 eV   46.58 nm  f=0.0000  <S**2>=0.000
       8 -> 22         0.49660
       9 -> 21         0.49660

 Excited state symmetry could not be determined.
 Excited State  54:      Singlet-?Sym   26.6158 eV   46.58 nm  f=0.0000  <S**2>=0.000
       8 -> 21         0.49660
       9 -> 22        -0.49660

 Excited state symmetry could not be determined.
 Excited State  55:      Singlet-?Sym   26.7750 eV   46.31 nm  f=0.0000  <S**2>=0.000
       8 -> 22        -0.49718
       9 -> 21         0.49718

 Excited state symmetry could not be determined.
 Excited State  56:      Singlet-?Sym   27.5492 eV   45.00 nm  f=0.6191  <S**2>=0.000
       6 -> 20         0.48058
       7 -> 19        -0.48038

 Excited state symmetry could not be determined.
 Excited State  57:      Singlet-?Sym   27.5492 eV   45.00 nm  f=0.6191  <S**2>=0.000
       6 -> 19         0.48038
       7 -> 20         0.48058

 Excited state symmetry could not be determined.
 Excited State  58:      Singlet-?Sym   28.0383 eV   44.22 nm  f=0.0000  <S**2>=0.000
       5 -> 19         0.70421

 Excited state symmetry could not be determined.
 Excited State  59:      Singlet-?Sym   28.0386 eV   44.22 nm  f=0.0000  <S**2>=0.000
       5 -> 20         0.70420

 Excited state symmetry could not be determined.
 Excited State  60:      Singlet-?Sym   28.2826 eV   43.84 nm  f=0.9138  <S**2>=0.000
       4 -> 12        -0.11588
       5 -> 10        -0.11147
       5 -> 18        -0.33018
       8 -> 21         0.41564
       9 -> 22         0.41564

 Excited state symmetry could not be determined.
 Excited State  61:      Singlet-?Sym   28.8270 eV   43.01 nm  f=0.0546  <S**2>=0.000
       6 -> 26        -0.13455
       9 -> 23         0.68380

 Excited state symmetry could not be determined.
 Excited State  62:      Singlet-?Sym   28.8270 eV   43.01 nm  f=0.0546  <S**2>=0.000
       7 -> 26        -0.13455
       8 -> 23         0.68380

 Excited state symmetry could not be determined.
 Excited State  63:      Singlet-?Sym   29.2352 eV   42.41 nm  f=0.0000  <S**2>=0.000
       6 -> 19         0.18666
       7 -> 20        -0.18668
       8 -> 24         0.44317
       8 -> 25         0.12705
       9 -> 24         0.12723
       9 -> 25        -0.44251

 Excited state symmetry could not be determined.
 Excited State  64:      Singlet-?Sym   29.2352 eV   42.41 nm  f=0.0000  <S**2>=0.000
       6 -> 20        -0.18668
       7 -> 19        -0.18666
       8 -> 24        -0.12723
       8 -> 25         0.44251
       9 -> 24         0.44317
       9 -> 25         0.12705

 Excited state symmetry could not be determined.
 Excited State  65:      Singlet-?Sym   29.4678 eV   42.07 nm  f=0.2257  <S**2>=0.000
       8 -> 24         0.39494
       8 -> 25        -0.28063
       9 -> 24         0.28029
       9 -> 25         0.39542

 Excited state symmetry could not be determined.
 Excited State  66:      Singlet-?Sym   29.4678 eV   42.07 nm  f=0.2257  <S**2>=0.000
       8 -> 24         0.28029
       8 -> 25         0.39542
       9 -> 24        -0.39494
       9 -> 25         0.28063

 Excited state symmetry could not be determined.
 Excited State  67:      Singlet-?Sym   29.9753 eV   41.36 nm  f=0.0000  <S**2>=0.000
       6 -> 22        -0.37195
       7 -> 21         0.37195
       8 -> 27         0.33072
       9 -> 28        -0.33072

 Excited state symmetry could not be determined.
 Excited State  68:      Singlet-?Sym   29.9756 eV   41.36 nm  f=0.0000  <S**2>=0.000
       6 -> 21         0.37189
       7 -> 22         0.37189
       8 -> 28         0.33080
       9 -> 27         0.33080

 Excited state symmetry could not be determined.
 Excited State  69:      Singlet-?Sym   30.1700 eV   41.10 nm  f=0.0000  <S**2>=0.000
       6 -> 21         0.36660
       7 -> 22        -0.36660
       8 -> 28        -0.33897
       9 -> 27         0.33897

 Excited state symmetry could not be determined.
 Excited State  70:      Singlet-?Sym   30.4022 eV   40.78 nm  f=0.0000  <S**2>=0.000
       6 -> 23        -0.30388
       9 -> 26         0.63314

 Excited state symmetry could not be determined.
 Excited State  71:      Singlet-?Sym   30.4022 eV   40.78 nm  f=0.0000  <S**2>=0.000
       7 -> 23        -0.30388
       8 -> 26         0.63314

 Excited State  72:      Singlet-SGG   30.6212 eV   40.49 nm  f=0.0000  <S**2>=0.000
       4 -> 10         0.15117
       4 -> 11         0.60452
       6 -> 22         0.20671
       7 -> 21         0.20671

 Excited State  73:      Singlet-SGU   31.4324 eV   39.44 nm  f=0.0295  <S**2>=0.000
       4 -> 12         0.65431
       4 -> 17        -0.20780

 Excited state symmetry could not be determined.
 Excited State  74:      Singlet-?Sym   31.4491 eV   39.42 nm  f=0.0000  <S**2>=0.000
       4 -> 11        -0.33591
       6 -> 22         0.33899
       7 -> 21         0.33899
       8 -> 27         0.26502
       9 -> 28         0.26502

 Excited state symmetry could not be determined.
 Excited State  75:      Singlet-?Sym   31.6188 eV   39.21 nm  f=0.0000  <S**2>=0.000
       6 -> 21        -0.33846
       7 -> 22         0.33846
       8 -> 28        -0.36355
       9 -> 27         0.36355

 Excited state symmetry could not be determined.
 Excited State  76:      Singlet-?Sym   31.6431 eV   39.18 nm  f=0.0000  <S**2>=0.000
       6 -> 22         0.33189
       7 -> 21        -0.33189
       8 -> 27         0.36979
       9 -> 28        -0.36979

 Excited state symmetry could not be determined.
 Excited State  77:      Singlet-?Sym   31.6434 eV   39.18 nm  f=0.0000  <S**2>=0.000
       6 -> 21        -0.33197
       7 -> 22        -0.33197
       8 -> 28         0.36972
       9 -> 27         0.36972

 Excited state symmetry could not be determined.
 Excited State  78:      Singlet-?Sym   31.6689 eV   39.15 nm  f=0.0000  <S**2>=0.000
       4 -> 13         0.59605
       4 -> 14        -0.35233

 Excited state symmetry could not be determined.
 Excited State  79:      Singlet-?Sym   31.6689 eV   39.15 nm  f=0.0000  <S**2>=0.000
       4 -> 13         0.35233
       4 -> 14         0.59605

 Excited state symmetry could not be determined.
 Excited State  80:      Singlet-?Sym   32.3460 eV   38.33 nm  f=0.3738  <S**2>=0.000
       4 -> 15        -0.20958
       4 -> 16        -0.12909
       5 -> 21         0.34020
       5 -> 22         0.55233

 Excited state symmetry could not be determined.
 Excited State  81:      Singlet-?Sym   32.3460 eV   38.33 nm  f=0.3738  <S**2>=0.000
       4 -> 15         0.12909
       4 -> 16        -0.20958
       5 -> 21         0.55233
       5 -> 22        -0.34020

 Excited State  82:      Singlet-SGU   32.7500 eV   37.86 nm  f=0.0361  <S**2>=0.000
       3 -> 10         0.61176
       4 -> 12        -0.13389
       4 -> 17        -0.22311
       6 -> 28        -0.12790
       7 -> 27        -0.12790

 Excited state symmetry could not be determined.
 Excited State  83:      Singlet-?Sym   32.7614 eV   37.84 nm  f=0.0000  <S**2>=0.000
       6 -> 22        -0.29015
       7 -> 21        -0.29015
       8 -> 27         0.39570
       9 -> 28         0.39570

 Excited state symmetry could not be determined.
 Excited State  84:      Singlet-?Sym   32.8817 eV   37.71 nm  f=0.0000  <S**2>=0.000
       6 -> 24        -0.11013
       6 -> 25         0.48500
       7 -> 24        -0.48464
       7 -> 25        -0.11021

 Excited state symmetry could not be determined.
 Excited State  85:      Singlet-?Sym   32.8817 eV   37.71 nm  f=0.0000  <S**2>=0.000
       6 -> 24         0.48464
       6 -> 25         0.11021
       7 -> 24        -0.11013
       7 -> 25         0.48500

 Excited State  86:      Singlet-SGU   33.2635 eV   37.27 nm  f=0.0708  <S**2>=0.000
       3 -> 10         0.17946
       4 -> 12         0.16089
       4 -> 17         0.57496
       5 -> 23        -0.31623

 Excited state symmetry could not be determined.
 Excited State  87:      Singlet-?Sym   33.3048 eV   37.23 nm  f=0.0000  <S**2>=0.000
       6 -> 24         0.48918
       7 -> 25        -0.48877

 Excited state symmetry could not be determined.
 Excited State  88:      Singlet-?Sym   33.3048 eV   37.23 nm  f=0.0000  <S**2>=0.000
       6 -> 25         0.48877
       7 -> 24         0.48918

 Excited state symmetry could not be determined.
 Excited State  89:      Singlet-?Sym   33.6235 eV   36.87 nm  f=0.0348  <S**2>=0.000
       4 -> 15         0.48540
       4 -> 16        -0.44206
       5 -> 21        -0.15629
       5 -> 22         0.17162

 Excited state symmetry could not be determined.
 Excited State  90:      Singlet-?Sym   33.6235 eV   36.87 nm  f=0.0348  <S**2>=0.000
       4 -> 15         0.44206
       4 -> 16         0.48540
       5 -> 21         0.17162
       5 -> 22         0.15629

 Excited state symmetry could not be determined.
 Excited State  91:      Singlet-?Sym   33.6974 eV   36.79 nm  f=0.0000  <S**2>=0.000
       6 -> 23         0.13511
       7 -> 23         0.61532
       8 -> 26         0.29781

 Excited state symmetry could not be determined.
 Excited State  92:      Singlet-?Sym   33.6974 eV   36.79 nm  f=0.0000  <S**2>=0.000
       6 -> 23         0.61532
       7 -> 23        -0.13511
       9 -> 26         0.29781

 Excited state symmetry could not be determined.
 Excited State  93:      Singlet-?Sym   34.0260 eV   36.44 nm  f=0.0000  <S**2>=0.000
       5 -> 24         0.68188
       6 -> 28        -0.11615
       7 -> 27         0.11615

 Excited state symmetry could not be determined.
 Excited State  94:      Singlet-?Sym   34.0261 eV   36.44 nm  f=0.0000  <S**2>=0.000
       5 -> 25         0.68189
       6 -> 27         0.11612
       7 -> 28         0.11612

 Excited State  95:      Singlet-SGU   34.4040 eV   36.04 nm  f=0.0139  <S**2>=0.000
       4 -> 17         0.25481
       5 -> 23         0.57963
       6 -> 28        -0.19461
       7 -> 27        -0.19461

 Excited state symmetry could not be determined.
 Excited State  96:      Singlet-?Sym   34.9736 eV   35.45 nm  f=0.0000  <S**2>=0.000
       6 -> 27        -0.48973
       7 -> 28         0.48973

 Excited state symmetry could not be determined.
 Excited State  97:      Singlet-?Sym   35.0155 eV   35.41 nm  f=0.0000  <S**2>=0.000
       5 -> 24        -0.17325
       6 -> 28        -0.47587
       7 -> 27         0.47587

 Excited state symmetry could not be determined.
 Excited State  98:      Singlet-?Sym   35.0155 eV   35.41 nm  f=0.0000  <S**2>=0.000
       5 -> 25        -0.17322
       6 -> 27         0.47587
       7 -> 28         0.47587

 Excited state symmetry could not be determined.
 Excited State  99:      Singlet-?Sym   35.4160 eV   35.01 nm  f=0.0521  <S**2>=0.000
       6 -> 26         0.47124

 The electronic state is 1-SGG.
 Alpha  occ. eigenvalues --  -25.17389 -25.17376  -1.51543  -1.22216  -0.74539
 Alpha  occ. eigenvalues --   -0.70226  -0.70226  -0.55487  -0.55487
 Alpha virt. eigenvalues --   -0.03702   0.09518   0.13895   0.16264   0.16264
 Alpha virt. eigenvalues --    0.20388   0.20388   0.23546   0.45857   0.56101
 Alpha virt. eigenvalues --    0.56102   0.71310   0.71310   0.76415   0.77356

 Mulliken charges:
               1
     1  F    0.000000
     2  F    0.000000
 Sum of Mulliken charges =   0.00000

 Dipole moment (field-independent basis, Debye):
    X=              0.0000    Y=              0.0000    Z=              0.0000  Tot=              0.0000
 Quadrupole moment (field-independent basis, Debye-Ang):
   XX=             -9.7875   YY=             -9.7875   ZZ=             -9.0789
   XY=              0.0000   XZ=              0.0000   YZ=              0.0000

 Normal termination of Gaussian 16 at Mon Mar 21 20:04:43 2022.
