 Gaussian 16, Revision C.01,
 Gaussian 16:  EM64L-G16RevC.01  3-Jul-2019

 ----------------------------------------------------------------------
 #P TD(Nstates=10000) lc-whpbe/Gen SCF(maxcycles=100) Int(Grid=ultrafin
 e)
 ----------------------------------------------------------------------

 ---------------------
 xGDB7_00001_tier4.com
 ---------------------
 Symbolic Z-matrix:
 Charge =  0 Multiplicity = 1

                         Standard orientation:
 ---------------------------------------------------------------------
 Center     Atomic      Atomic             Coordinates (Angstroms)
 Number     Number       Type             X           Y           Z
 ---------------------------------------------------------------------
      1          8           0        0.000000   -0.000000    0.116015
      2          1           0        0.000000    0.761895   -0.464058
      3          1           0       -0.000000   -0.761895   -0.464058
 ---------------------------------------------------------------------

 SCF Done:  E(RLC-wHPBE) =  -76.3389910131     A.U. after   11 cycles

 Excitation energies and oscillator strengths:

 Excited State   1:      Singlet-B1     7.9408 eV  156.13 nm  f=0.0566  <S**2>=0.000
       5 ->  6         0.69545
 This state for optimization and/or second-order correction.
 Total Energy, E(TD-HF/TD-DFT) =  -76.0471706593
 Copying the excited state density for this state as the 1-particle RhoCI density.

 Excited State   2:      Singlet-A2     9.8077 eV  126.42 nm  f=0.0000  <S**2>=0.000
       5 ->  7         0.67390
       5 -> 10         0.17730
       5 -> 17        -0.10075

 Excited State   3:      Singlet-A1    10.0123 eV  123.83 nm  f=0.0996  <S**2>=0.000
       4 ->  6         0.68262
       5 ->  8         0.11238

 Excited State   4:      Singlet-B1    11.1949 eV  110.75 nm  f=0.0051  <S**2>=0.000
       5 ->  9         0.69298
       5 -> 13         0.12475

 Excited State   5:      Singlet-A1    11.6303 eV  106.60 nm  f=0.0016  <S**2>=0.000
       4 ->  9        -0.16985
       5 ->  8         0.67060

 Excited State   6:      Singlet-B2    11.9231 eV  103.99 nm  f=0.0103  <S**2>=0.000
       4 ->  7         0.68951
       4 -> 10         0.10113

 Excited State   7:      Singlet-A2    12.1719 eV  101.86 nm  f=0.0000  <S**2>=0.000
       5 ->  7        -0.18567
       5 -> 10         0.67210

 Excited State   8:      Singlet-B1    12.9531 eV   95.72 nm  f=0.0492  <S**2>=0.000
       4 ->  8         0.35055
       5 -> 11         0.60217

 Excited State   9:      Singlet-B1    13.1649 eV   94.18 nm  f=0.0039  <S**2>=0.000
       4 ->  8         0.60464
       5 -> 11        -0.35301

 Excited State  10:      Singlet-A1    13.4776 eV   91.99 nm  f=0.0382  <S**2>=0.000
       3 ->  7         0.11638
       4 ->  6        -0.10248
       4 ->  9         0.66051
       5 ->  8         0.14921

 Excited State  11:      Singlet-B2    13.9154 eV   89.10 nm  f=0.0766  <S**2>=0.000
       3 ->  6         0.67701
       4 -> 10        -0.13908

 Excited State  12:      Singlet-B2    14.1391 eV   87.69 nm  f=0.0109  <S**2>=0.000
       4 -> 10        -0.35655
       5 -> 12         0.59638

 Excited State  13:      Singlet-B1    14.5590 eV   85.16 nm  f=0.0704  <S**2>=0.000
       5 ->  9        -0.11892
       5 -> 13         0.68545

 Excited State  14:      Singlet-B2    14.6767 eV   84.48 nm  f=0.3552  <S**2>=0.000
       3 ->  6         0.17350
       4 -> 10         0.57542
       5 -> 12         0.35615

 Excited State  15:      Singlet-A1    14.9950 eV   82.68 nm  f=0.0609  <S**2>=0.000
       4 -> 11         0.68702

 Excited State  16:      Singlet-A1    15.3663 eV   80.69 nm  f=0.0256  <S**2>=0.000
       3 ->  7        -0.22169
       5 -> 14         0.63855

 Excited State  17:      Singlet-A2    16.2021 eV   76.52 nm  f=0.0000  <S**2>=0.000
       4 -> 12         0.70179

 Excited State  18:      Singlet-A1    16.2203 eV   76.44 nm  f=0.0007  <S**2>=0.000
       3 ->  7         0.49535
       3 -> 10         0.10973
       4 ->  9        -0.12599
       4 -> 13         0.44357
       5 -> 14         0.10437

 Excited State  19:      Singlet-A2    17.2066 eV   72.06 nm  f=0.0000  <S**2>=0.000
       3 ->  8         0.68795
       3 -> 14        -0.13396

 Excited State  20:      Singlet-B1    17.3016 eV   71.66 nm  f=0.0015  <S**2>=0.000
       4 -> 14         0.45990
       5 -> 15         0.52410

 Excited State  21:      Singlet-B2    17.3735 eV   71.36 nm  f=0.0447  <S**2>=0.000
       3 ->  9         0.68858
       3 -> 13         0.14161

 Excited State  22:      Singlet-A1    17.5375 eV   70.70 nm  f=0.0486  <S**2>=0.000
       3 ->  7        -0.42488
       3 -> 10         0.25576
       4 -> 13         0.45776
       5 -> 14        -0.16820

 Excited State  23:      Singlet-B1    17.5841 eV   70.51 nm  f=0.2293  <S**2>=0.000
       4 -> 14         0.52199
       5 -> 15        -0.46361

 Excited State  24:      Singlet-A2    17.6011 eV   70.44 nm  f=0.0000  <S**2>=0.000
       5 -> 16         0.59837
       5 -> 17        -0.34931

 Excited State  25:      Singlet-A2    18.5130 eV   66.97 nm  f=0.0000  <S**2>=0.000
       5 -> 16         0.36320
       5 -> 17         0.59601

 Excited State  26:      Singlet-A1    19.0260 eV   65.17 nm  f=0.2770  <S**2>=0.000
       3 -> 10         0.58192
       4 -> 13        -0.22709
       4 -> 15         0.27620
       5 -> 14         0.12733

 Excited State  27:      Singlet-B2    19.2252 eV   64.49 nm  f=0.2228  <S**2>=0.000
       3 -> 11         0.67657
       4 -> 17        -0.15412

 Excited State  28:      Singlet-A1    19.3987 eV   63.91 nm  f=0.0799  <S**2>=0.000
       3 -> 10        -0.24999
       4 -> 15         0.64201

 Excited State  29:      Singlet-B2    19.6752 eV   63.02 nm  f=0.0021  <S**2>=0.000
       4 -> 16         0.64792
       4 -> 17        -0.24382

 Excited State  30:      Singlet-B1    20.1651 eV   61.48 nm  f=0.1068  <S**2>=0.000
       3 -> 12         0.69782

 Excited State  31:      Singlet-B2    20.4802 eV   60.54 nm  f=0.0020  <S**2>=0.000
       3 ->  9        -0.12928
       3 -> 13         0.65020
       4 -> 16        -0.12424
       4 -> 17        -0.17751

 Excited State  32:      Singlet-B2    20.7862 eV   59.65 nm  f=0.0318  <S**2>=0.000
       3 -> 11         0.12651
       3 -> 13         0.20851
       4 -> 16         0.24085
       4 -> 17         0.60614

 Excited State  33:      Singlet-A2    21.2280 eV   58.41 nm  f=0.0000  <S**2>=0.000
       3 ->  8         0.13322
       3 -> 14         0.68959

 Excited State  34:      Singlet-A2    21.5627 eV   57.50 nm  f=0.0000  <S**2>=0.000
       5 -> 18         0.69735

 Excited State  35:      Singlet-B1    22.3299 eV   55.52 nm  f=0.2089  <S**2>=0.000
       4 -> 20        -0.12189
       5 -> 19         0.68250

 Excited State  36:      Singlet-A1    23.0996 eV   53.67 nm  f=0.0771  <S**2>=0.000
       3 -> 16        -0.10634
       4 -> 19         0.20336
       4 -> 21         0.10065
       5 -> 20         0.65091

 Excited State  37:      Singlet-B2    23.3505 eV   53.10 nm  f=0.0236  <S**2>=0.000
       3 -> 15         0.68300
       4 -> 18         0.14577

 Excited State  38:      Singlet-B2    23.6359 eV   52.46 nm  f=0.0100  <S**2>=0.000
       3 -> 15        -0.13890
       4 -> 18         0.55630
       5 -> 22        -0.40317

 Excited State  39:      Singlet-B1    23.6807 eV   52.36 nm  f=0.0003  <S**2>=0.000
       5 -> 21         0.69728

 Excited State  40:      Singlet-A1    23.7995 eV   52.10 nm  f=0.0252  <S**2>=0.000
       3 -> 16         0.37193
       4 -> 19         0.58145
       5 -> 20        -0.11625

 Excited State  41:      Singlet-A1    24.1173 eV   51.41 nm  f=0.0145  <S**2>=0.000
       3 -> 16         0.56905
       3 -> 17         0.11498
       4 -> 19        -0.32336
       4 -> 21         0.11553
       5 -> 20         0.17139

 Excited State  42:      Singlet-B2    24.5769 eV   50.45 nm  f=0.3399  <S**2>=0.000
       3 -> 19        -0.11665
       4 -> 18         0.38401
       5 -> 22         0.55669

 Excited State  43:      Singlet-B1    25.0355 eV   49.52 nm  f=0.2593  <S**2>=0.000
       4 -> 20         0.68423
       5 -> 19         0.11906

 Excited State  44:      Singlet-A1    25.2042 eV   49.19 nm  f=0.0352  <S**2>=0.000
       2 ->  6        -0.20579
       3 -> 17         0.64872

 Excited State  45:      Singlet-A2    25.7963 eV   48.06 nm  f=0.0000  <S**2>=0.000
       4 -> 22         0.70286

 Excited State  46:      Singlet-A1    26.0086 eV   47.67 nm  f=0.3095  <S**2>=0.000
       2 ->  6        -0.14482
       3 -> 17        -0.13662
       3 -> 18        -0.16334
       4 -> 21         0.64376

 Excited State  47:      Singlet-A1    27.3540 eV   45.33 nm  f=0.0149  <S**2>=0.000
       2 ->  6         0.63621
       3 -> 17         0.15538
       3 -> 18        -0.16625
       4 -> 21         0.12367

 Excited State  48:      Singlet-B2    28.2582 eV   43.88 nm  f=0.1269  <S**2>=0.000
       3 -> 19         0.67668
       3 -> 21         0.13643

 Excited State  49:      Singlet-A1    28.5298 eV   43.46 nm  f=0.2878  <S**2>=0.000
       2 ->  6         0.11583
       2 ->  9         0.12077
       3 -> 18         0.65141
       4 -> 21         0.17462

 Excited State  50:      Singlet-B2    28.8383 eV   42.99 nm  f=0.0150  <S**2>=0.000
       2 ->  7         0.66589
       2 -> 10         0.17179
       3 -> 21         0.11737

 Excited State  51:      Singlet-A2    29.0169 eV   42.73 nm  f=0.0000  <S**2>=0.000
       3 -> 20         0.70209

 Excited State  52:      Singlet-B1    29.9807 eV   41.35 nm  f=0.0911  <S**2>=0.000
       2 ->  8         0.56388
       3 -> 22         0.41003

 Excited State  53:      Singlet-A1    30.2562 eV   40.98 nm  f=0.0093  <S**2>=0.000
       2 ->  9         0.67377
       2 -> 11        -0.11641
       2 -> 13         0.10253
       3 -> 18        -0.10663

 Excited State  54:      Singlet-B2    30.6104 eV   40.50 nm  f=0.2793  <S**2>=0.000
       2 ->  7        -0.10879
       3 -> 19        -0.12526
       3 -> 21         0.67219

 Excited State  55:      Singlet-B1    30.6298 eV   40.48 nm  f=0.1598  <S**2>=0.000
       2 ->  8        -0.39493
       3 -> 22         0.56347
       5 -> 23         0.11107

 Excited State  56:      Singlet-B2    31.2119 eV   39.72 nm  f=0.0130  <S**2>=0.000
       2 ->  7        -0.17277
       2 -> 10         0.67535

 Excited State  57:      Singlet-B1    31.7615 eV   39.04 nm  f=0.0043  <S**2>=0.000
       5 -> 23         0.69280

 Excited State  58:      Singlet-A1    31.9120 eV   38.85 nm  f=0.0021  <S**2>=0.000
       2 ->  9         0.11404
       2 -> 11         0.69091

 Excited State  59:      Singlet-A2    32.8998 eV   37.69 nm  f=0.0000  <S**2>=0.000
       2 -> 12         0.69961

 Excited State  60:      Singlet-A1    33.3719 eV   37.15 nm  f=0.0044  <S**2>=0.000
       2 -> 13         0.64890
       4 -> 23        -0.23954

 Excited State  61:      Singlet-B1    34.0675 eV   36.39 nm  f=0.0100  <S**2>=0.000
       2 ->  8         0.11014
       2 -> 14         0.69053

 Excited State  62:      Singlet-A1    34.2371 eV   36.21 nm  f=0.0277  <S**2>=0.000
       2 -> 13         0.22349
       2 -> 15        -0.11775
       4 -> 23         0.64390

 Excited State  63:      Singlet-A2    34.6959 eV   35.73 nm  f=0.0000  <S**2>=0.000
       5 -> 24         0.70222

 Excited State  64:      Singlet-B2    36.4395 eV   34.02 nm  f=0.0049  <S**2>=0.000
       2 -> 16         0.59277
       2 -> 17        -0.18073
       3 -> 23         0.14363
       4 -> 24        -0.29695

 Excited State  65:      Singlet-A1    36.5200 eV   33.95 nm  f=0.0067  <S**2>=0.000
       2 -> 15         0.67372
       5 -> 25         0.15715

 Excited State  66:      Singlet-B2    36.9882 eV   33.52 nm  f=0.0015  <S**2>=0.000
       2 -> 16         0.28811
       2 -> 17        -0.12514
       4 -> 24         0.62390

 Excited State  67:      Singlet-B2    37.4120 eV   33.14 nm  f=0.0018  <S**2>=0.000
       2 -> 16         0.24079
       2 -> 17         0.64210
       3 -> 23        -0.13698

 Excited State  68:      Singlet-B2    38.5317 eV   32.18 nm  f=0.0606  <S**2>=0.000
       2 -> 17         0.16127
       3 -> 23         0.66910
       4 -> 24         0.13225

 Excited State  69:      Singlet-B1    39.3354 eV   31.52 nm  f=0.0082  <S**2>=0.000
       5 -> 26         0.70411

 Excited State  70:      Singlet-A1    39.7361 eV   31.20 nm  f=0.0092  <S**2>=0.000
       2 -> 19        -0.20025
       3 -> 24         0.26719
       4 -> 26        -0.30262
       5 -> 25         0.53171

 Excited State  71:      Singlet-B2    40.7542 eV   30.42 nm  f=0.0000  <S**2>=0.000
       2 -> 18         0.69930

 Excited State  72:      Singlet-B1    40.8404 eV   30.36 nm  f=0.0014  <S**2>=0.000
       4 -> 25         0.70230

 Excited State  73:      Singlet-A1    40.9008 eV   30.31 nm  f=0.0000  <S**2>=0.000
       2 -> 19         0.67119
       4 -> 26        -0.12942
       5 -> 25         0.13588

 Excited State  74:      Singlet-A1    41.2368 eV   30.07 nm  f=0.0253  <S**2>=0.000
       3 -> 24         0.57060
       4 -> 26         0.40594

 Excited State  75:      Singlet-B1    42.0123 eV   29.51 nm  f=0.0007  <S**2>=0.000
       2 -> 20         0.69855

 Excited State  76:      Singlet-A2    42.8182 eV   28.96 nm  f=0.0000  <S**2>=0.000
       2 -> 22         0.69673
       3 -> 25         0.10344

 Excited State  77:      Singlet-A1    42.9836 eV   28.84 nm  f=0.0099  <S**2>=0.000
       2 -> 21         0.70000

 Excited State  78:      Singlet-A2    44.8313 eV   27.66 nm  f=0.0000  <S**2>=0.000
       2 -> 22        -0.10298
       3 -> 25         0.69875

 Excited State  79:      Singlet-B2    45.6400 eV   27.17 nm  f=0.0635  <S**2>=0.000
       3 -> 26         0.70185

 Excited State  80:      Singlet-A1    47.4228 eV   26.14 nm  f=0.0116  <S**2>=0.000
       2 -> 15        -0.11286
       2 -> 23        -0.25387
       3 -> 24        -0.26723
       3 -> 27         0.16837
       4 -> 26         0.42492
       5 -> 25         0.33548

 Excited State  81:      Singlet-A2    47.5838 eV   26.06 nm  f=0.0000  <S**2>=0.000
       5 -> 27         0.70618

 Excited State  82:      Singlet-B2    49.7687 eV   24.91 nm  f=0.0387  <S**2>=0.000
       4 -> 27         0.68473
       5 -> 29         0.16791

 Excited State  83:      Singlet-B1    50.6494 eV   24.48 nm  f=0.1043  <S**2>=0.000
       5 -> 28         0.70458

 Excited State  84:      Singlet-A1    51.4509 eV   24.10 nm  f=0.0965  <S**2>=0.000
       2 -> 23         0.63493
       3 -> 27         0.22636
       4 -> 26         0.10171
       5 -> 25         0.10866

 Excited State  85:      Singlet-B2    52.0699 eV   23.81 nm  f=0.1323  <S**2>=0.000
       4 -> 27        -0.15814
       5 -> 29         0.67765

 Excited State  86:      Singlet-A1    52.5301 eV   23.60 nm  f=0.0167  <S**2>=0.000
       3 -> 27         0.14171
       4 -> 28         0.69024

 Excited State  87:      Singlet-A2    53.5641 eV   23.15 nm  f=0.0000  <S**2>=0.000
       4 -> 29         0.70674

 Excited State  88:      Singlet-B2    53.8422 eV   23.03 nm  f=0.0501  <S**2>=0.000
       2 -> 24         0.70492

 Excited State  89:      Singlet-A1    55.6193 eV   22.29 nm  f=0.0111  <S**2>=0.000
       2 -> 23        -0.13461
       2 -> 26         0.12065
       3 -> 27         0.45234
       4 -> 26        -0.11057
       4 -> 28        -0.10220
       5 -> 25        -0.11529
       5 -> 30         0.45674

 Excited State  90:      Singlet-A1    56.3155 eV   22.02 nm  f=0.0574  <S**2>=0.000
       3 -> 27        -0.41829
       4 -> 31        -0.12701
       5 -> 30         0.52644

 Excited State  91:      Singlet-B2    56.8712 eV   21.80 nm  f=0.0114  <S**2>=0.000
       3 -> 28         0.69853

 Excited State  92:      Singlet-B1    57.7506 eV   21.47 nm  f=0.0057  <S**2>=0.000
       2 -> 25         0.20903
       3 -> 29        -0.44157
       4 -> 30         0.51089

 Excited State  93:      Singlet-B1    57.8849 eV   21.42 nm  f=0.2292  <S**2>=0.000
       2 -> 25         0.66085
       3 -> 29         0.23742

 Excited State  94:      Singlet-B1    58.2560 eV   21.28 nm  f=0.1090  <S**2>=0.000
       2 -> 25        -0.12910
       3 -> 29         0.41210
       4 -> 30         0.41363
       5 -> 31         0.37119

 Excited State  95:      Singlet-A1    58.6397 eV   21.14 nm  f=0.0953  <S**2>=0.000
       2 -> 26         0.69155

 Excited State  96:      Singlet-A2    58.9577 eV   21.03 nm  f=0.0000  <S**2>=0.000
       5 -> 32         0.70464

 Excited State  97:      Singlet-B1    59.3212 eV   20.90 nm  f=0.1671  <S**2>=0.000
       3 -> 29        -0.27212
       4 -> 30        -0.24631
       5 -> 31         0.59981

 Excited State  98:      Singlet-B2    61.1558 eV   20.27 nm  f=0.0178  <S**2>=0.000
       4 -> 32         0.70449

 Excited State  99:      Singlet-A2    61.7756 eV   20.07 nm  f=0.0000  <S**2>=0.000
       3 -> 30         0.70337

 Excited State 100:      Singlet-A1    61.8143 eV   20.06 nm  f=0.2228  <S**2>=0.000
       4 -> 31         0.68589

 Excited State 101:      Singlet-A1    65.3144 eV   18.98 nm  f=0.0001  <S**2>=0.000
       3 -> 32         0.69592

 Excited State 102:      Singlet-B2    65.3237 eV   18.98 nm  f=0.1063  <S**2>=0.000
       2 -> 27         0.12709
       3 -> 31         0.69074

 Excited State 103:      Singlet-B2    66.9359 eV   18.52 nm  f=0.0380  <S**2>=0.000
       2 -> 27         0.69304
       3 -> 31        -0.12331

 Excited State 104:      Singlet-A2    67.2250 eV   18.44 nm  f=0.0000  <S**2>=0.000
       5 -> 33         0.70514

 Excited State 105:      Singlet-B2    69.9596 eV   17.72 nm  f=0.0117  <S**2>=0.000
       4 -> 33         0.69995

 Excited State 106:      Singlet-A2    70.5088 eV   17.58 nm  f=0.0000  <S**2>=0.000
       2 -> 29         0.70587

 Excited State 107:      Singlet-A1    70.9330 eV   17.48 nm  f=0.0025  <S**2>=0.000
       2 -> 28         0.66331
       3 -> 33        -0.15559
       4 -> 34        -0.13268

 Excited State 108:      Singlet-B1    72.0308 eV   17.21 nm  f=0.1458  <S**2>=0.000
       5 -> 34         0.69806

 Excited State 109:      Singlet-A1    72.6770 eV   17.06 nm  f=0.0091  <S**2>=0.000
       3 -> 33        -0.21697
       4 -> 34         0.66748

 Excited State 110:      Singlet-B1    74.5394 eV   16.63 nm  f=0.0241  <S**2>=0.000
       2 -> 30         0.70564

 Excited State 111:      Singlet-A1    74.7685 eV   16.58 nm  f=0.0297  <S**2>=0.000
       2 -> 28         0.17721
       3 -> 33         0.64559
       4 -> 34         0.18479

 Excited State 112:      Singlet-B2    76.7119 eV   16.16 nm  f=0.0147  <S**2>=0.000
       2 -> 32         0.17691
       3 -> 34         0.67939

 Excited State 113:      Singlet-B2    77.6571 eV   15.97 nm  f=0.0002  <S**2>=0.000
       2 -> 32         0.68353
       3 -> 34        -0.17661

 Excited State 114:      Singlet-A1    78.1642 eV   15.86 nm  f=0.0038  <S**2>=0.000
       2 -> 31         0.70556

 Excited State 115:      Singlet-B2    86.4753 eV   14.34 nm  f=0.0180  <S**2>=0.000
       2 -> 33         0.70516

 Excited State 116:      Singlet-A1    88.4605 eV   14.02 nm  f=0.1633  <S**2>=0.000
       4 -> 37        -0.20593
       5 -> 35         0.67233

 Excited State 117:      Singlet-B1    89.9951 eV   13.78 nm  f=0.0876  <S**2>=0.000
       3 -> 36        -0.18002
       4 -> 35         0.65916
       5 -> 37         0.16669

 Excited State 118:      Singlet-A1    90.1565 eV   13.75 nm  f=0.0128  <S**2>=0.000
       2 -> 34         0.70559

 Excited State 119:      Singlet-A2    90.3901 eV   13.72 nm  f=0.0000  <S**2>=0.000
       4 -> 36         0.70655

 Excited State 120:      Singlet-B2    90.4102 eV   13.71 nm  f=0.2036  <S**2>=0.000
       3 -> 37         0.11884
       5 -> 36         0.68938

 Excited State 121:      Singlet-B1    92.3964 eV   13.42 nm  f=0.0163  <S**2>=0.000
       3 -> 36         0.18946
       4 -> 35        -0.11429
       5 -> 37         0.67065

 Excited State 122:      Singlet-A2    92.5856 eV   13.39 nm  f=0.0000  <S**2>=0.000
       3 -> 35         0.70676

 Excited State 123:      Singlet-B1    96.3910 eV   12.86 nm  f=0.1927  <S**2>=0.000
       3 -> 36         0.63906
       4 -> 35         0.19002
       5 -> 37        -0.13876
       5 -> 38         0.17699

 Excited State 124:      Singlet-A1    97.1721 eV   12.76 nm  f=0.2951  <S**2>=0.000
       4 -> 37         0.67301
       5 -> 35         0.19687

 Excited State 125:      Singlet-B2    99.0486 eV   12.52 nm  f=0.0708  <S**2>=0.000
       3 -> 37         0.69319
       5 -> 36        -0.10780

 Excited State 126:      Singlet-B1   105.9245 eV   11.70 nm  f=0.1888  <S**2>=0.000
       2 -> 35        -0.36191
       3 -> 36        -0.11531
       5 -> 38         0.58723

 Excited State 127:      Singlet-A1   106.3165 eV   11.66 nm  f=0.0100  <S**2>=0.000
       4 -> 38         0.70527

 Excited State 128:      Singlet-B1   106.6371 eV   11.63 nm  f=0.1269  <S**2>=0.000
       2 -> 35         0.60695
       5 -> 38         0.34518

 Excited State 129:      Singlet-A2   107.9484 eV   11.49 nm  f=0.0000  <S**2>=0.000
       2 -> 36         0.70613

 Excited State 130:      Singlet-B2   110.7517 eV   11.19 nm  f=0.0574  <S**2>=0.000
       3 -> 38         0.69610
       4 -> 39         0.10400

 Excited State 131:      Singlet-A1   111.8436 eV   11.09 nm  f=0.0064  <S**2>=0.000
       2 -> 37         0.70574

 Excited State 132:      Singlet-A2   114.8498 eV   10.80 nm  f=0.0000  <S**2>=0.000
       5 -> 39         0.70653

 Excited State 133:      Singlet-B2   118.2684 eV   10.48 nm  f=0.1622  <S**2>=0.000
       4 -> 39         0.69638

 Excited State 134:      Singlet-A1   122.0198 eV   10.16 nm  f=0.0840  <S**2>=0.000
       2 -> 38         0.12478
       3 -> 39         0.69276

 Excited State 135:      Singlet-A1   123.2968 eV   10.06 nm  f=0.0213  <S**2>=0.000
       2 -> 38         0.69570
       3 -> 39        -0.12431

 Excited State 136:      Singlet-B2   134.1189 eV    9.24 nm  f=0.0023  <S**2>=0.000
       2 -> 39         0.70692

 The electronic state is 1-A1.
 Alpha  occ. eigenvalues --  -18.98824  -1.13733  -0.66713  -0.51737  -0.44554
 Alpha virt. eigenvalues --    0.07971   0.13378   0.18316   0.18388   0.24260
 Alpha virt. eigenvalues --    0.26977   0.30980   0.33381   0.36117   0.43838
 Alpha virt. eigenvalues --    0.43930   0.47663   0.61506   0.63020   0.67236

 Mulliken charges:
               1
     1  O   -0.258630
     2  H    0.129315
     3  H    0.129315
 Sum of Mulliken charges =  -0.00000

 Dipole moment (field-independent basis, Debye):
    X=             -0.0000    Y=             -0.0000    Z=             -1.9324  Tot=              1.9324
 Quadrupole moment (field-independent basis, Debye-Ang):
   XX=             -7.7678   YY=             -4.4454   ZZ=             -6.4686
   XY=              0.0000   XZ=              0.0000   YZ=              0.0000

 Normal termination of Gaussian 16 at Mon Mar 21 20:08:44 2022.
