 Gaussian 16, Revision C.01,
 Gaussian 16:  EM64L-G16RevC.01  3-Jul-2019

 ----------------------------------------------------------------------
 #P TD(Nstates=10000) lc-whpbe/Gen SCF(maxcycles=100) Int(Grid=ultrafin
 e)
 ----------------------------------------------------------------------

 ---------------------
 xGDB7_00001_tier4.com
 ---------------------
 Symbolic Z-matrix:
 Charge =  0 Multiplicity = 1

                         Standard orientation:
 ---------------------------------------------------------------------
 Center     Atomic      Atomic             Coordinates (Angstroms)
 Number     Number       Type             X           Y           Z
 ---------------------------------------------------------------------
      1          6           0        0.000000    1.163894   -0.193136
      2          8           0       -0.000000   -0.000000    0.585449
      3          6           0       -0.000000   -1.163894   -0.193136
      4          1           0        0.000000    2.015478    0.485827
      5          1           0       -0.890390    1.219204   -0.834404
      6          1           0        0.890390    1.219204   -0.834404
      7          1           0       -0.000000   -2.015478    0.485827
      8          1           0        0.890390   -1.219204   -0.834404
      9          1           0       -0.890390   -1.219204   -0.834404
 ---------------------------------------------------------------------

 SCF Done:  E(RLC-wHPBE) =  -154.831557403     A.U. after   11 cycles

 Excitation energies and oscillator strengths:

 Excited State   1:      Singlet-B1     7.6504 eV  162.06 nm  f=0.0226  <S**2>=0.000
      13 -> 14         0.62592
      13 -> 16        -0.17954
      13 -> 18        -0.25062
 This state for optimization and/or second-order correction.
 Total Energy, E(TD-HF/TD-DFT) =  -154.550411509
 Copying the excited state density for this state as the 1-particle RhoCI density.

 Excited State   2:      Singlet-B1     8.7500 eV  141.70 nm  f=0.0495  <S**2>=0.000
      13 -> 14         0.27990
      13 -> 16         0.55163
      13 -> 18         0.29403

 Excited State   3:      Singlet-A2     8.8699 eV  139.78 nm  f=0.0000  <S**2>=0.000
      10 -> 14         0.11386
      13 -> 15         0.68411

 Excited State   4:      Singlet-A1     9.3017 eV  133.29 nm  f=0.0573  <S**2>=0.000
      13 -> 17         0.69300

 Excited State   5:      Singlet-B1     9.3521 eV  132.57 nm  f=0.0268  <S**2>=0.000
      13 -> 14         0.11852
      13 -> 16        -0.37109
      13 -> 18         0.56414

 Excited State   6:      Singlet-A1     9.4203 eV  131.61 nm  f=0.0119  <S**2>=0.000
      12 -> 14         0.60142
      12 -> 16        -0.26315
      12 -> 18        -0.19805

 Excited State   7:      Singlet-A2    10.1181 eV  122.54 nm  f=0.0000  <S**2>=0.000
      10 -> 16        -0.10357
      13 -> 19         0.66939
      13 -> 28        -0.11677

 Excited State   8:      Singlet-B1    10.3199 eV  120.14 nm  f=0.0003  <S**2>=0.000
      13 -> 21         0.65826
      13 -> 23         0.19186

 Excited State   9:      Singlet-B2    10.3432 eV  119.87 nm  f=0.0046  <S**2>=0.000
      11 -> 14         0.36471
      12 -> 15         0.57522

 Excited State  10:      Singlet-A1    10.3784 eV  119.46 nm  f=0.0598  <S**2>=0.000
      11 -> 15         0.13030
      12 -> 14         0.28972
      12 -> 16         0.50049
      12 -> 18         0.25152
      13 -> 20         0.23207

 Excited State  11:      Singlet-A1    10.6384 eV  116.54 nm  f=0.0907  <S**2>=0.000
      12 -> 14        -0.10798
      12 -> 16        -0.17461
      13 -> 20         0.64871

 Excited State  12:      Singlet-B1    11.0762 eV  111.94 nm  f=0.0616  <S**2>=0.000
      12 -> 17         0.69258

 Excited State  13:      Singlet-A1    11.1070 eV  111.63 nm  f=0.0040  <S**2>=0.000
      11 -> 15         0.12323
      12 -> 16        -0.33865
      12 -> 18         0.58173

 Excited State  14:      Singlet-B2    11.1271 eV  111.43 nm  f=0.0808  <S**2>=0.000
      10 -> 17        -0.10750
      12 -> 15         0.15075
      13 -> 22         0.62278
      13 -> 25        -0.20047

 Excited State  15:      Singlet-B2    11.2654 eV  110.06 nm  f=0.1094  <S**2>=0.000
      11 -> 14         0.44115
      11 -> 16        -0.19946
      11 -> 18        -0.30732
      12 -> 15        -0.29055
      12 -> 19         0.15280
      13 -> 22         0.18324

 Excited State  16:      Singlet-A2    11.3279 eV  109.45 nm  f=0.0000  <S**2>=0.000
      10 -> 14         0.53154
      10 -> 18        -0.28578
      13 -> 24        -0.25259
      13 -> 27         0.11323
      13 -> 28        -0.10469

 Excited State  17:      Singlet-B1    11.5823 eV  107.05 nm  f=0.0005  <S**2>=0.000
      13 -> 21        -0.19874
      13 -> 23         0.65059

 Excited State  18:      Singlet-B2    11.6319 eV  106.59 nm  f=0.0036  <S**2>=0.000
      11 -> 14        -0.30293
      11 -> 16        -0.25440
      12 -> 15         0.11375
      12 -> 19         0.53163

 Excited State  19:      Singlet-A2    11.8239 eV  104.86 nm  f=0.0000  <S**2>=0.000
      10 -> 14         0.33627
      13 -> 24         0.56098
      13 -> 27        -0.14419

 Excited State  20:      Singlet-B2    11.9909 eV  103.40 nm  f=0.0012  <S**2>=0.000
      13 -> 22         0.20856
      13 -> 25         0.64670

 Excited State  21:      Singlet-B1    12.0826 eV  102.61 nm  f=0.0322  <S**2>=0.000
      12 -> 20         0.68412

 Excited State  22:      Singlet-A1    12.1022 eV  102.45 nm  f=0.0170  <S**2>=0.000
       9 -> 14        -0.20436
      11 -> 15         0.59387
      12 -> 14        -0.16185
      12 -> 18        -0.12496
      12 -> 21         0.16497

 Excited State  23:      Singlet-B2    12.2934 eV  100.85 nm  f=0.3467  <S**2>=0.000
       9 -> 15        -0.10916
      11 -> 14         0.19904
      11 -> 16         0.17711
      11 -> 18         0.47350
      12 -> 15        -0.16750
      12 -> 19         0.33774
      12 -> 24         0.13829

 Excited State  24:      Singlet-A1    12.3273 eV  100.58 nm  f=0.1117  <S**2>=0.000
      11 -> 15        -0.12546
      12 -> 21         0.64159
      12 -> 23         0.16097

 Excited State  25:      Singlet-A2    12.4254 eV   99.78 nm  f=0.0000  <S**2>=0.000
      10 -> 16        -0.14025
      11 -> 17        -0.13792
      12 -> 22         0.15007
      13 -> 19        -0.11094
      13 -> 24         0.24297
      13 -> 27         0.49488
      13 -> 28        -0.22580
      13 -> 43        -0.10774

 Excited State  26:      Singlet-B1    12.4573 eV   99.53 nm  f=0.1407  <S**2>=0.000
       8 -> 14        -0.23550
      10 -> 15         0.62555

 Excited State  27:      Singlet-A2    12.4861 eV   99.30 nm  f=0.0000  <S**2>=0.000
      10 -> 14        -0.10201
      11 -> 17         0.44980
      12 -> 22        -0.42644
      13 -> 27         0.20904

 Excited State  28:      Singlet-A2    12.6853 eV   97.74 nm  f=0.0000  <S**2>=0.000
       8 -> 15        -0.10762
      10 -> 14         0.13804
      10 -> 16         0.43527
      10 -> 18         0.36667
      10 -> 21         0.10316
      10 -> 23         0.12830
      11 -> 17        -0.17153
      13 -> 24        -0.13073
      13 -> 27         0.17375

 Excited State  29:      Singlet-B2    12.9193 eV   95.97 nm  f=0.0743  <S**2>=0.000
       9 -> 19         0.11433
      10 -> 17        -0.13403
      11 -> 16         0.54371
      11 -> 18        -0.28701
      12 -> 19         0.17451
      12 -> 24        -0.16542

 Excited State  30:      Singlet-A1    12.9436 eV   95.79 nm  f=0.0241  <S**2>=0.000
      10 -> 22         0.12568
      11 -> 15         0.11820
      11 -> 19        -0.15452
      12 -> 21        -0.11927
      12 -> 23         0.28769
      13 -> 26         0.56122

 Excited State  31:      Singlet-A2    13.0801 eV   94.79 nm  f=0.0000  <S**2>=0.000
      10 -> 21        -0.21556
      11 -> 17        -0.32123
      11 -> 20        -0.22631
      12 -> 22        -0.22398
      12 -> 25         0.41076
      13 -> 28        -0.19866

 Excited State  32:      Singlet-A2    13.3190 eV   93.09 nm  f=0.0000  <S**2>=0.000
      10 -> 16         0.23116
      10 -> 21        -0.16554
      11 -> 17         0.28831
      11 -> 20        -0.24332
      12 -> 22         0.40190
      12 -> 25         0.11415
      13 -> 28        -0.22243

 Excited State  33:      Singlet-B2    13.4325 eV   92.30 nm  f=0.0033  <S**2>=0.000
      10 -> 17         0.62057
      10 -> 20        -0.17057
      11 -> 16         0.14379
      11 -> 21         0.11247
      13 -> 22         0.10130

 Excited State  34:      Singlet-A1    13.4357 eV   92.28 nm  f=0.1072  <S**2>=0.000
       9 -> 14        -0.15053
       9 -> 16         0.19518
       9 -> 18         0.16641
      11 -> 19         0.41598
      11 -> 24        -0.12724
      12 -> 23        -0.29038
      13 -> 26         0.29980

 Excited State  35:      Singlet-A2    13.4969 eV   91.86 nm  f=0.0000  <S**2>=0.000
      10 -> 14        -0.12231
      10 -> 16         0.33099
      10 -> 18        -0.31504
      11 -> 17        -0.12683
      11 -> 20         0.22070
      12 -> 22        -0.19357
      12 -> 25        -0.19856
      13 -> 24         0.10855
      13 -> 27        -0.12847
      13 -> 28        -0.23014

 Excited State  36:      Singlet-A2    13.6573 eV   90.78 nm  f=0.0000  <S**2>=0.000
       8 -> 15        -0.11354
      10 -> 16        -0.19458
      10 -> 18         0.34260
      10 -> 21        -0.20375
      11 -> 20         0.16049
      12 -> 25        -0.22598
      13 -> 27        -0.21433
      13 -> 28        -0.33952

 Excited State  37:      Singlet-B2    13.6682 eV   90.71 nm  f=0.0000  <S**2>=0.000
      11 -> 18        -0.15072
      11 -> 21        -0.40847
      12 -> 24         0.45642
      12 -> 27        -0.20881

 Excited State  38:      Singlet-B1    13.7810 eV   89.97 nm  f=0.0520  <S**2>=0.000
       8 -> 14        -0.34549
       8 -> 16         0.22860
       8 -> 18         0.22929
       8 -> 23         0.12335
      10 -> 19         0.40429
      10 -> 28        -0.11235
      13 -> 29         0.11649
      13 -> 30        -0.15377

 Excited State  39:      Singlet-A1    13.8143 eV   89.75 nm  f=0.0436  <S**2>=0.000
       9 -> 14        -0.18305
       9 -> 16         0.12248
      11 -> 19         0.30954
      12 -> 23         0.50899
      13 -> 26        -0.17435

 Excited State  40:      Singlet-B2    13.8474 eV   89.54 nm  f=0.0135  <S**2>=0.000
       7 -> 14        -0.17771
      11 -> 18        -0.13180
      11 -> 21         0.41577
      12 -> 24         0.43754
      12 -> 27         0.20526

 Excited State  41:      Singlet-B1    13.9552 eV   88.84 nm  f=0.0010  <S**2>=0.000
       9 -> 17         0.20764
      11 -> 22         0.50554
      12 -> 26         0.34470
      13 -> 30        -0.18346

 Excited State  42:      Singlet-B1    14.0553 eV   88.21 nm  f=0.0000  <S**2>=0.000
       8 -> 16         0.10150
      10 -> 19         0.18612
      11 -> 22         0.16746
      12 -> 26         0.13204
      13 -> 18         0.10239
      13 -> 29        -0.32724
      13 -> 30         0.46996

 Excited State  43:      Singlet-B2    14.1206 eV   87.80 nm  f=0.0833  <S**2>=0.000
       7 -> 14         0.54724
       7 -> 18        -0.11544
       9 -> 15        -0.10883
      10 -> 20         0.18909
      11 -> 23        -0.12609
      12 -> 27         0.23000
      12 -> 28        -0.12797

 Excited State  44:      Singlet-A2    14.1540 eV   87.60 nm  f=0.0000  <S**2>=0.000
       9 -> 25         0.11500
      10 -> 21         0.11497
      11 -> 17         0.12014
      11 -> 20         0.47882
      12 -> 22         0.10475
      12 -> 25         0.43569

 Excited State  45:      Singlet-A1    14.1814 eV   87.43 nm  f=0.0016  <S**2>=0.000
       9 -> 14         0.40143
       9 -> 18        -0.32474
      10 -> 22        -0.11409
      11 -> 15         0.10886
      11 -> 19         0.33532
      11 -> 24         0.20791

 Excited State  46:      Singlet-B1    14.2957 eV   86.73 nm  f=0.0780  <S**2>=0.000
       8 -> 14         0.40113
       8 -> 16         0.13579
       8 -> 18        -0.25992
      10 -> 15         0.20227
      10 -> 19         0.37943
      10 -> 24         0.11307
      11 -> 25         0.11481

 Excited State  47:      Singlet-B2    14.3781 eV   86.23 nm  f=0.0314  <S**2>=0.000
       7 -> 14         0.32531
      10 -> 17        -0.17406
      10 -> 20        -0.30275
      11 -> 21         0.25572
      11 -> 23         0.15722
      12 -> 27        -0.31277
      12 -> 28         0.17114

 Excited State  48:      Singlet-A2    14.3992 eV   86.10 nm  f=0.0000  <S**2>=0.000
       8 -> 15        -0.10956
      10 -> 21         0.53701
      10 -> 23         0.10133
      11 -> 20        -0.18874
      13 -> 27        -0.22323
      13 -> 28        -0.23411

 Excited State  49:      Singlet-B1    14.5851 eV   85.01 nm  f=0.0030  <S**2>=0.000
       8 -> 14         0.14089
       9 -> 20        -0.16251
      11 -> 22         0.16951
      11 -> 25        -0.34994
      12 -> 26        -0.20634
      13 -> 29         0.38170
      13 -> 30         0.25426

 Excited State  50:      Singlet-B2    14.5885 eV   84.99 nm  f=0.1850  <S**2>=0.000
       7 -> 16        -0.10841
      10 -> 17         0.11468
      10 -> 20         0.51507
      11 -> 21         0.14383
      11 -> 23         0.14259
      12 -> 27        -0.30925
      12 -> 28         0.10014

 Excited State  51:      Singlet-B1    14.7699 eV   83.94 nm  f=0.1874  <S**2>=0.000
       8 -> 14        -0.12943
       9 -> 20         0.12200
      10 -> 24         0.11546
      11 -> 22        -0.17540
      11 -> 25         0.24589
      12 -> 26         0.27885
      13 -> 29         0.43366
      13 -> 30         0.25922

 Excited State  52:      Singlet-A1    14.8111 eV   83.71 nm  f=0.0321  <S**2>=0.000
       7 -> 15        -0.26494
       9 -> 14         0.39408
       9 -> 18         0.21171
      10 -> 22         0.18300
      11 -> 15         0.15904
      11 -> 24        -0.33511

 Excited State  53:      Singlet-A1    15.0640 eV   82.31 nm  f=0.0217  <S**2>=0.000
       7 -> 15         0.41535
       8 -> 17         0.19976
       8 -> 20        -0.11938
      10 -> 22         0.39332
      10 -> 25        -0.16856
      13 -> 31        -0.11034

 Excited State  54:      Singlet-B1    15.0646 eV   82.30 nm  f=0.0050  <S**2>=0.000
       8 -> 14         0.23541
       8 -> 16         0.15297
       8 -> 18         0.25112
       9 -> 17        -0.11862
      10 -> 15         0.10311
      10 -> 24        -0.22691
      11 -> 22        -0.19209
      11 -> 25        -0.17653
      12 -> 26         0.40541

 Excited State  55:      Singlet-B2    15.0883 eV   82.17 nm  f=0.5039  <S**2>=0.000
       7 -> 14         0.14905
       7 -> 16         0.44849
       7 -> 18         0.27953
       9 -> 15         0.20717
      10 -> 20         0.11012
      11 -> 23         0.27627
      12 -> 27         0.13951

 Excited State  56:      Singlet-A1    15.2312 eV   81.40 nm  f=0.0002  <S**2>=0.000
       7 -> 15        -0.29472
       8 -> 17         0.12807
       9 -> 14        -0.19240
       9 -> 16        -0.20130
      10 -> 22         0.33264
      11 -> 19         0.17521
      13 -> 31         0.32743

 Excited State  57:      Singlet-A2    15.2490 eV   81.31 nm  f=0.0000  <S**2>=0.000
       8 -> 15        -0.24579
       8 -> 19         0.11287
      10 -> 21        -0.11842
      10 -> 23         0.21884
      13 -> 28         0.24107
      13 -> 32         0.49786

 Excited State  58:      Singlet-A1    15.3142 eV   80.96 nm  f=0.1622  <S**2>=0.000
       7 -> 15         0.24898
       8 -> 17         0.10068
       9 -> 21        -0.10732
      10 -> 22        -0.12963
      10 -> 25         0.13664
      11 -> 24        -0.17615
      11 -> 27         0.14585
      12 -> 30         0.16620
      13 -> 31         0.49274

 Excited State  59:      Singlet-B2    15.3194 eV   80.93 nm  f=0.0123  <S**2>=0.000
       7 -> 16        -0.33329
       7 -> 18        -0.13096
       9 -> 15         0.24618
      10 -> 20        -0.10239
      11 -> 21        -0.15566
      11 -> 23         0.41009
      12 -> 27         0.22968

 Excited State  60:      Singlet-B1    15.3218 eV   80.92 nm  f=0.1982  <S**2>=0.000
       8 -> 14         0.15481
       8 -> 16         0.24379
       8 -> 18         0.26125
       8 -> 21         0.11164
       9 -> 17         0.19835
      10 -> 19        -0.14251
      10 -> 24        -0.16833
      11 -> 25         0.33649
      12 -> 26        -0.23216
      13 -> 30         0.11501

 Excited State  61:      Singlet-B2    15.4017 eV   80.50 nm  f=0.0140  <S**2>=0.000
       7 -> 18        -0.13360
       9 -> 15         0.45978
      11 -> 23        -0.32860
      12 -> 27         0.10125
      12 -> 28         0.25571
      12 -> 32        -0.11240

 Excited State  62:      Singlet-A2    15.4262 eV   80.37 nm  f=0.0000  <S**2>=0.000
       8 -> 15         0.58529
      10 -> 14         0.16156
      10 -> 23         0.24125
      13 -> 32         0.18431

 Excited State  63:      Singlet-B1    15.4994 eV   79.99 nm  f=0.0001  <S**2>=0.000
       8 -> 21        -0.14738
      10 -> 27         0.16889
      13 -> 33         0.60966
      13 -> 34        -0.11326
      13 -> 35        -0.14246

 Excited State  64:      Singlet-A1    15.5641 eV   79.66 nm  f=0.1221  <S**2>=0.000
       8 -> 17        -0.10801
       9 -> 16         0.39187
       9 -> 21         0.16695
      10 -> 25        -0.11307
      11 -> 27        -0.32567
      12 -> 30        -0.19087
      13 -> 31         0.27274

 Excited State  65:      Singlet-A2    15.6400 eV   79.27 nm  f=0.0000  <S**2>=0.000
       7 -> 17         0.65273
       7 -> 20        -0.17896

 Excited State  66:      Singlet-B1    15.7079 eV   78.93 nm  f=0.1259  <S**2>=0.000
       8 -> 16         0.38524
       8 -> 21         0.10984
       8 -> 23         0.10582
      10 -> 19        -0.20621
      10 -> 24         0.26376
      11 -> 25        -0.10060
      13 -> 33         0.14254
      13 -> 34         0.36055
      13 -> 35         0.15147

 Excited State  67:      Singlet-A1    15.7614 eV   78.66 nm  f=0.0466  <S**2>=0.000
       7 -> 15        -0.23676
       8 -> 17         0.17963
       8 -> 20        -0.21509
       9 -> 16         0.25281
      10 -> 25        -0.17535
      11 -> 24         0.15990
      12 -> 29        -0.24235
      12 -> 30         0.27894
      12 -> 34         0.10661
      13 -> 38        -0.16330

 Excited State  68:      Singlet-B2    15.7812 eV   78.56 nm  f=0.0041  <S**2>=0.000
       7 -> 16         0.23149
       7 -> 18        -0.30820
       7 -> 21         0.16892
       9 -> 15        -0.29277
      11 -> 23         0.10407
      12 -> 27         0.16514
      12 -> 28         0.35004

 Excited State  69:      Singlet-A1    15.8016 eV   78.46 nm  f=0.1084  <S**2>=0.000
       8 -> 17         0.46672
       9 -> 16         0.11486
      10 -> 22        -0.15945
      10 -> 25         0.28957
      11 -> 24        -0.11891
      11 -> 27        -0.20157
      11 -> 28         0.10769
      12 -> 30        -0.10578
      13 -> 31        -0.14309
      13 -> 36        -0.11364

 Excited State  70:      Singlet-B2    15.8931 eV   78.01 nm  f=0.2254  <S**2>=0.000
       7 -> 16        -0.23881
       7 -> 18         0.44269
       8 -> 22         0.10161
       9 -> 15        -0.14200
      12 -> 27         0.10393
      12 -> 28         0.38380

 Excited State  71:      Singlet-B1    15.9112 eV   77.92 nm  f=0.1044  <S**2>=0.000
       8 -> 16        -0.16155
       9 -> 17         0.34245
      10 -> 24        -0.15392
      10 -> 27         0.18602
      11 -> 22        -0.13360
      13 -> 30        -0.10317
      13 -> 34         0.45354

 Excited State  72:      Singlet-A2    15.9425 eV   77.77 nm  f=0.0000  <S**2>=0.000
       8 -> 19         0.15546
       9 -> 22         0.11157
      10 -> 16        -0.14901
      10 -> 21        -0.10494
      10 -> 23         0.44909
      11 -> 26        -0.25990
      13 -> 32        -0.31282

 Excited State  73:      Singlet-A1    15.9643 eV   77.66 nm  f=0.0224  <S**2>=0.000
       8 -> 17        -0.13559
       8 -> 20         0.23252
       9 -> 16         0.31186
      10 -> 22         0.25478
      10 -> 25         0.35429
      11 -> 24         0.13762
      12 -> 30         0.15274
      13 -> 31        -0.11874
      13 -> 38         0.12090

 Excited State  74:      Singlet-B1    16.0187 eV   77.40 nm  f=0.0597  <S**2>=0.000
       8 -> 16         0.17018
       8 -> 18        -0.15535
       9 -> 17         0.47829
       9 -> 20        -0.11084
      11 -> 22        -0.21783
      11 -> 25        -0.13474
      13 -> 34        -0.27110

 Excited State  75:      Singlet-A1    16.0287 eV   77.35 nm  f=0.0029  <S**2>=0.000
       8 -> 17         0.22955
       9 -> 18         0.23593
       9 -> 21        -0.12275
      11 -> 24         0.36514
      11 -> 27         0.23525
      12 -> 29         0.28989
      12 -> 30        -0.14591
      12 -> 33         0.11001

 Excited State  76:      Singlet-A2    16.0538 eV   77.23 nm  f=0.0000  <S**2>=0.000
       9 -> 22        -0.24678
      10 -> 23         0.20485
      11 -> 26         0.55854
      13 -> 32        -0.14647

 Excited State  77:      Singlet-B1    16.2414 eV   76.34 nm  f=0.1720  <S**2>=0.000
       8 -> 16        -0.28671
       8 -> 18         0.12537
       8 -> 21         0.42375
       9 -> 17         0.12447
      10 -> 27        -0.19736
      10 -> 28        -0.13213
      11 -> 25        -0.13971
      12 -> 31         0.10096
      13 -> 33         0.17189
      13 -> 35         0.16829

 Excited State  78:      Singlet-A1    16.3515 eV   75.82 nm  f=0.0607  <S**2>=0.000
       7 -> 19        -0.16855
       9 -> 16        -0.18198
       9 -> 18         0.37058
       9 -> 21         0.20650
      10 -> 22        -0.10892
      11 -> 24         0.16383
      11 -> 27        -0.20296

 The electronic state is 1-A1.
 Alpha  occ. eigenvalues --  -18.98356 -10.16157 -10.16156  -1.16560  -0.86413
 Alpha  occ. eigenvalues --   -0.77068  -0.60761  -0.60683  -0.60593  -0.51882
 Alpha  occ. eigenvalues --   -0.49864  -0.43968  -0.37638
 Alpha virt. eigenvalues --    0.09058   0.11638   0.14643   0.15272   0.16764
 Alpha virt. eigenvalues --    0.18232   0.20650   0.21036   0.21675   0.24288
 Alpha virt. eigenvalues --    0.25473   0.26050   0.28383   0.28572   0.34023

 Mulliken charges:
               1
     1  C    0.468342
     2  O   -0.777236
     3  C    0.468342
     4  H   -0.129913
     5  H    0.025095
     6  H    0.025095
     7  H   -0.129913
     8  H    0.025095
     9  H    0.025095
 Sum of Mulliken charges =   0.00000

 Dipole moment (field-independent basis, Debye):
    X=              0.0000    Y=             -0.0000    Z=             -1.3942  Tot=              1.3942
 Quadrupole moment (field-independent basis, Debye-Ang):
   XX=            -20.1533   YY=            -17.3452   ZZ=            -21.3053
   XY=              0.0000   XZ=              0.0000   YZ=              0.0000

 Normal termination of Gaussian 16 at Mon Mar 21 20:10:02 2022.
