 Gaussian 16, Revision C.01,
 Gaussian 16:  EM64L-G16RevC.01  3-Jul-2019

 ----------------------------------------------------------------------
 #P TD(Nstates=10000) lc-whpbe/Gen SCF(maxcycles=100) Int(Grid=ultrafin
 e)
 ----------------------------------------------------------------------

 ---------------------
 xGDB7_00001_tier4.com
 ---------------------
 Symbolic Z-matrix:
 Charge =  0 Multiplicity = 1

                         Standard orientation:
 ---------------------------------------------------------------------
 Center     Atomic      Atomic             Coordinates (Angstroms)
 Number     Number       Type             X           Y           Z
 ---------------------------------------------------------------------
      1          6           0       -1.240791   -0.237624   -0.027525
      2          6           0        0.048946    0.559205    0.053709
      3          7           0        1.202342   -0.317606   -0.116703
      4          1           0       -2.109817    0.415828    0.064703
      5          1           0       -1.292929   -0.976209    0.776809
      6          1           0       -1.300329   -0.769884   -0.977746
      7          1           0        0.066306    1.122818    0.997967
      8          1           0        0.069957    1.296574   -0.752592
      9          1           0        1.236408   -1.003082    0.627159
     10          1           0        2.065080    0.207710   -0.076483
 ---------------------------------------------------------------------

 SCF Done:  E(RLC-wHPBE) =  -135.009347432     A.U. after   13 cycles

 Excitation energies and oscillator strengths:

 Excited State   1:      Singlet-A      6.9002 eV  179.68 nm  f=0.0132  <S**2>=0.000
      13 -> 14         0.58335
      13 -> 15        -0.26766
      13 -> 16         0.26415
 This state for optimization and/or second-order correction.
 Total Energy, E(TD-HF/TD-DFT) =  -134.755769868
 Copying the excited state density for this state as the 1-particle RhoCI density.

 Excited State   2:      Singlet-A      8.2443 eV  150.39 nm  f=0.0182  <S**2>=0.000
      13 -> 15         0.34283
      13 -> 16         0.51547
      13 -> 17        -0.20856
      13 -> 19         0.13496
      13 -> 20         0.10308
      13 -> 21        -0.11165

 Excited State   3:      Singlet-A      8.3569 eV  148.36 nm  f=0.0244  <S**2>=0.000
      13 -> 14         0.33450
      13 -> 15         0.35954
      13 -> 16        -0.34316
      13 -> 17        -0.24958
      13 -> 18         0.22733

 Excited State   4:      Singlet-A      9.1078 eV  136.13 nm  f=0.0894  <S**2>=0.000
      13 -> 15         0.28496
      13 -> 17         0.58021
      13 -> 18         0.16165
      13 -> 22         0.14671

 Excited State   5:      Singlet-A      9.5951 eV  129.22 nm  f=0.0351  <S**2>=0.000
      13 -> 14        -0.12709
      13 -> 15        -0.25430
      13 -> 18         0.56016
      13 -> 19         0.10199
      13 -> 20         0.13700
      13 -> 23        -0.18092

 Excited State   6:      Singlet-A      9.8800 eV  125.49 nm  f=0.0040  <S**2>=0.000
      13 -> 19         0.46217
      13 -> 20        -0.38207
      13 -> 21        -0.19992
      13 -> 23        -0.14220
      13 -> 24         0.10656
      13 -> 25        -0.10823

 Excited State   7:      Singlet-A     10.0652 eV  123.18 nm  f=0.0027  <S**2>=0.000
      12 -> 14         0.65329
      13 -> 19        -0.14599

 Excited State   8:      Singlet-A     10.3874 eV  119.36 nm  f=0.0044  <S**2>=0.000
      11 -> 14         0.13004
      12 -> 14         0.13752
      13 -> 16        -0.13771
      13 -> 18        -0.10957
      13 -> 19         0.32535
      13 -> 20         0.38221
      13 -> 21        -0.14558
      13 -> 23         0.14853
      13 -> 24        -0.27265

 Excited State   9:      Singlet-A     10.5857 eV  117.12 nm  f=0.0120  <S**2>=0.000
      11 -> 14         0.34258
      11 -> 15         0.10085
      12 -> 15        -0.18105
      13 -> 19         0.19036
      13 -> 21         0.46454
      13 -> 25        -0.18662

 Excited State  10:      Singlet-A     10.6758 eV  116.14 nm  f=0.0568  <S**2>=0.000
      10 -> 14         0.45114
      10 -> 15         0.11918
      11 -> 14         0.37232
      12 -> 15        -0.19411
      13 -> 21        -0.17902
      13 -> 25         0.10214

 Excited State  11:      Singlet-A     10.7139 eV  115.72 nm  f=0.0695  <S**2>=0.000
      10 -> 14         0.44175
      10 -> 15         0.20114
      11 -> 14        -0.29343
      12 -> 15         0.14360
      13 -> 19         0.14835
      13 -> 21         0.26970

 Excited State  12:      Singlet-A     10.9414 eV  113.32 nm  f=0.0889  <S**2>=0.000
       9 -> 14        -0.18608
      11 -> 14         0.29238
      12 -> 15         0.56873

 Excited State  13:      Singlet-A     11.2197 eV  110.51 nm  f=0.0180  <S**2>=0.000
      12 -> 16         0.26981
      13 -> 18         0.15384
      13 -> 20        -0.13740
      13 -> 23         0.48877
      13 -> 25        -0.19071
      13 -> 28        -0.11085

 Excited State  14:      Singlet-A     11.3442 eV  109.29 nm  f=0.0252  <S**2>=0.000
      10 -> 15        -0.11672
      11 -> 15        -0.10651
      12 -> 16         0.15529
      13 -> 18        -0.15750
      13 -> 20         0.12263
      13 -> 22         0.54685
      13 -> 23        -0.11131
      13 -> 26        -0.17207

 Excited State  15:      Singlet-A     11.3918 eV  108.84 nm  f=0.1518  <S**2>=0.000
      11 -> 16         0.15209
      12 -> 16         0.55307
      12 -> 17        -0.15890
      13 -> 22        -0.16212
      13 -> 23        -0.23478

 Excited State  16:      Singlet-A     11.4976 eV  107.83 nm  f=0.1180  <S**2>=0.000
      11 -> 15         0.51804
      12 -> 17        -0.12697
      13 -> 20         0.11510
      13 -> 21        -0.13068
      13 -> 25        -0.27600
      13 -> 28        -0.14343

 Excited State  17:      Singlet-A     11.6475 eV  106.45 nm  f=0.0246  <S**2>=0.000
      10 -> 14        -0.12184
      10 -> 15         0.30327
      11 -> 15        -0.16929
      13 -> 20         0.23649
      13 -> 24         0.37303
      13 -> 25        -0.19201
      13 -> 26         0.12673
      13 -> 27         0.14396

 Excited State  18:      Singlet-A     11.7057 eV  105.92 nm  f=0.0350  <S**2>=0.000
      10 -> 14        -0.16712
      10 -> 15         0.47679
      13 -> 20        -0.15674
      13 -> 22         0.13165
      13 -> 24        -0.29371
      13 -> 27        -0.12306

 Excited State  19:      Singlet-A     11.7969 eV  105.10 nm  f=0.0616  <S**2>=0.000
      11 -> 15         0.32045
      13 -> 19         0.11789
      13 -> 22         0.10429
      13 -> 23         0.16718
      13 -> 24         0.30297
      13 -> 25         0.40157
      13 -> 28         0.10502

 Excited State  20:      Singlet-A     11.9112 eV  104.09 nm  f=0.0180  <S**2>=0.000
      11 -> 16         0.18537
      12 -> 17         0.57134
      12 -> 18         0.23278

 Excited State  21:      Singlet-A     12.0525 eV  102.87 nm  f=0.0112  <S**2>=0.000
      10 -> 16         0.27615
      11 -> 16         0.52510
      11 -> 17        -0.16678
      12 -> 16        -0.11589
      12 -> 17        -0.10408
      12 -> 18        -0.12007

 Excited State  22:      Singlet-A     12.1401 eV  102.13 nm  f=0.0288  <S**2>=0.000
      10 -> 15         0.13607
      10 -> 16         0.50514
      10 -> 17        -0.11981
      10 -> 20        -0.10299
      11 -> 16        -0.16811
      11 -> 17         0.15387
      12 -> 18         0.26672

 Excited State  23:      Singlet-A     12.2051 eV  101.58 nm  f=0.0381  <S**2>=0.000
       9 -> 15         0.13282
      10 -> 16        -0.15868
      10 -> 17         0.12335
      11 -> 16         0.11769
      11 -> 17        -0.10269
      12 -> 17        -0.19960
      12 -> 18         0.51052
      12 -> 19        -0.16817
      12 -> 20         0.13151

 Excited State  24:      Singlet-A     12.4282 eV   99.76 nm  f=0.0451  <S**2>=0.000
       9 -> 14        -0.27531
      10 -> 17         0.46310
      11 -> 16         0.11928
      11 -> 17         0.15119
      13 -> 26        -0.16125
      13 -> 27         0.17449

 Excited State  25:      Singlet-A     12.5144 eV   99.07 nm  f=0.0753  <S**2>=0.000
      10 -> 16        -0.11150
      11 -> 16         0.12678
      11 -> 17         0.54230
      11 -> 18         0.20901
      12 -> 17        -0.11114
      13 -> 22         0.13027

 Excited State  26:      Singlet-A     12.5469 eV   98.82 nm  f=0.0085  <S**2>=0.000
       9 -> 14         0.14278
      10 -> 17        -0.20235
      11 -> 18        -0.23696
      12 -> 19        -0.11345
      13 -> 26        -0.16905
      13 -> 27         0.47191
      13 -> 29         0.11896
      13 -> 30         0.11382

 Excited State  27:      Singlet-A     12.6288 eV   98.18 nm  f=0.0365  <S**2>=0.000
       9 -> 14         0.25982
       9 -> 15        -0.10585
      10 -> 16         0.10582
      10 -> 17         0.19393
      10 -> 18         0.14336
      11 -> 17         0.12351
      11 -> 18        -0.23644
      11 -> 19         0.13326
      12 -> 19        -0.24022
      12 -> 24        -0.10538
      13 -> 27        -0.22950
      13 -> 28        -0.17978
      13 -> 29         0.10750

 Excited State  28:      Singlet-A     12.7071 eV   97.57 nm  f=0.0732  <S**2>=0.000
       9 -> 14         0.12031
       9 -> 15         0.14822
      10 -> 18        -0.26764
      11 -> 18        -0.22355
      11 -> 19         0.12903
      12 -> 19         0.31901
      12 -> 21        -0.11609
      13 -> 22         0.11705
      13 -> 26         0.30031

 Excited State  29:      Singlet-A     12.7613 eV   97.16 nm  f=0.0252  <S**2>=0.000
       9 -> 15        -0.11145
      10 -> 18         0.38367
      12 -> 20        -0.27870
      13 -> 22         0.13466
      13 -> 24        -0.13464
      13 -> 26         0.28245
      13 -> 27         0.19075

 Excited State  30:      Singlet-A     12.7999 eV   96.86 nm  f=0.0058  <S**2>=0.000
       9 -> 14         0.37990
      10 -> 17         0.20375
      11 -> 17        -0.10444
      11 -> 18         0.18723
      12 -> 19         0.22861
      13 -> 26        -0.24732
      13 -> 28         0.17204

 Excited State  31:      Singlet-A     12.8292 eV   96.64 nm  f=0.0757  <S**2>=0.000
      10 -> 16        -0.16243
      10 -> 17        -0.19169
      11 -> 16         0.13101
      12 -> 19         0.27961
      12 -> 20        -0.24701
      13 -> 26        -0.27025
      13 -> 27        -0.12301
      13 -> 28        -0.22055

 Excited State  32:      Singlet-A     12.9323 eV   95.87 nm  f=0.2271  <S**2>=0.000
       8 -> 14         0.11272
       8 -> 15        -0.11424
       9 -> 15         0.10180
       9 -> 16         0.17305
      10 -> 18         0.36857
      11 -> 18        -0.15680
      11 -> 21        -0.10517
      12 -> 19         0.21718
      12 -> 20         0.32314
      13 -> 28         0.13483

 Excited State  33:      Singlet-A     13.0198 eV   95.23 nm  f=0.0306  <S**2>=0.000
      11 -> 18         0.17138
      12 -> 19         0.12934
      12 -> 20         0.16702
      12 -> 21         0.39894
      12 -> 22        -0.10297
      13 -> 25         0.15025
      13 -> 28        -0.33639

 Excited State  34:      Singlet-A     13.1026 eV   94.63 nm  f=0.0179  <S**2>=0.000
       9 -> 16        -0.13055
      10 -> 18        -0.12077
      11 -> 18        -0.14288
      11 -> 19         0.25868
      12 -> 21         0.34854
      12 -> 22        -0.13607
      13 -> 25        -0.13901
      13 -> 28         0.31911

 Excited State  35:      Singlet-A     13.2221 eV   93.77 nm  f=0.0839  <S**2>=0.000
      10 -> 19        -0.19620
      11 -> 18         0.27832
      11 -> 19         0.35406
      11 -> 20        -0.19360
      12 -> 21        -0.19589
      12 -> 22         0.10754
      13 -> 29         0.27542

 Excited State  36:      Singlet-A     13.2564 eV   93.53 nm  f=0.0082  <S**2>=0.000
       9 -> 16         0.10237
      10 -> 19         0.50426
      10 -> 21         0.10018
      10 -> 22        -0.12976
      10 -> 24         0.10516
      11 -> 18         0.11903
      11 -> 19         0.20594
      11 -> 20        -0.13442
      12 -> 21        -0.10157
      13 -> 29        -0.12142

 Excited State  37:      Singlet-A     13.3515 eV   92.86 nm  f=0.0490  <S**2>=0.000
       8 -> 14         0.13368
      10 -> 19         0.22579
      10 -> 20        -0.10682
      10 -> 21        -0.10137
      11 -> 19        -0.15737
      11 -> 20         0.10844
      11 -> 21         0.13443
      13 -> 29         0.45342
      13 -> 31         0.15875

 Excited State  38:      Singlet-A     13.5319 eV   91.62 nm  f=0.0106  <S**2>=0.000
       8 -> 14        -0.11485
       9 -> 16         0.13005
      10 -> 20        -0.13711
      10 -> 22        -0.11013
      11 -> 19         0.23547
      11 -> 20         0.40583
      11 -> 21         0.26821
      12 -> 22         0.14209

 Excited State  39:      Singlet-A     13.5809 eV   91.29 nm  f=0.1166  <S**2>=0.000
       7 -> 14         0.19298
       7 -> 16         0.12510
       9 -> 15         0.30827
       9 -> 16        -0.19616
       9 -> 17        -0.14311
      10 -> 18         0.11010
      10 -> 21         0.33225
      11 -> 21         0.14183
      12 -> 22        -0.10428

 Excited State  40:      Singlet-A     13.6085 eV   91.11 nm  f=0.0944  <S**2>=0.000
       8 -> 16        -0.11610
       9 -> 15        -0.14506
       9 -> 16        -0.17399
      10 -> 19         0.10260
      10 -> 20         0.46431
      11 -> 20         0.13384
      11 -> 21         0.13238
      12 -> 20         0.19929
      12 -> 22        -0.13718

 Excited State  41:      Singlet-A     13.6426 eV   90.88 nm  f=0.1414  <S**2>=0.000
       9 -> 15        -0.14360
       9 -> 16         0.12364
      10 -> 19        -0.10739
      10 -> 20         0.14283
      10 -> 21         0.44025
      10 -> 22        -0.15961
      10 -> 24        -0.13116
      11 -> 19        -0.12088
      12 -> 20        -0.10776
      12 -> 23         0.10755
      12 -> 25        -0.11736
      13 -> 29         0.15092

 Excited State  42:      Singlet-A     13.7072 eV   90.45 nm  f=0.1616  <S**2>=0.000
       8 -> 14         0.10298
       9 -> 17         0.14560
      11 -> 20        -0.29056
      11 -> 21         0.35494
      11 -> 22        -0.14709
      12 -> 21         0.14200
      12 -> 22         0.26237
      13 -> 29        -0.15803

 Excited State  43:      Singlet-A     13.7982 eV   89.86 nm  f=0.0886  <S**2>=0.000
       9 -> 14         0.10041
       9 -> 15         0.10064
       9 -> 16        -0.23617
       9 -> 17         0.24531
      10 -> 19         0.10287
      10 -> 20         0.11620
      11 -> 21        -0.22408
      11 -> 22         0.15509
      12 -> 22         0.38756

 Excited State  44:      Singlet-A     13.8755 eV   89.35 nm  f=0.0331  <S**2>=0.000
       8 -> 14         0.42133
       9 -> 15        -0.12681
       9 -> 17        -0.16865
       9 -> 18         0.11380
      11 -> 22         0.10908
      12 -> 23        -0.30388

 Excited State  45:      Singlet-A     13.9518 eV   88.87 nm  f=0.1127  <S**2>=0.000
       8 -> 14         0.35775
       9 -> 15         0.22274
       9 -> 17         0.17032
       9 -> 18        -0.10908
      11 -> 19         0.12302
      11 -> 20         0.11884
      12 -> 23         0.32156

 Excited State  46:      Singlet-A     14.1083 eV   87.88 nm  f=0.0118  <S**2>=0.000
       9 -> 15         0.16553
       9 -> 16         0.28630
      10 -> 20         0.12767
      10 -> 22         0.12711
      10 -> 23        -0.10240
      11 -> 20         0.11595
      11 -> 23        -0.10505
      12 -> 19        -0.10165
      12 -> 20        -0.21874
      12 -> 21         0.14683
      12 -> 24         0.29167
      12 -> 25         0.12674
      13 -> 30         0.15941
      13 -> 31        -0.13512

 Excited State  47:      Singlet-A     14.1538 eV   87.60 nm  f=0.0044  <S**2>=0.000
       9 -> 15        -0.27487
       9 -> 16        -0.21709
       9 -> 19        -0.11483
      10 -> 20        -0.24715
      10 -> 23        -0.10264
      12 -> 20         0.14266
      12 -> 24         0.30489
      12 -> 25         0.14772
      13 -> 30         0.14607

 Excited State  48:      Singlet-A     14.2135 eV   87.23 nm  f=0.0408  <S**2>=0.000
       7 -> 17        -0.11576
       8 -> 17        -0.12692
       9 -> 18        -0.10662
      10 -> 21         0.15357
      10 -> 22         0.44030
      11 -> 22         0.17907
      12 -> 22         0.18610
      12 -> 23         0.14026
      13 -> 31         0.13810

 Excited State  49:      Singlet-A     14.3154 eV   86.61 nm  f=0.1695  <S**2>=0.000
       9 -> 16         0.11182
      11 -> 21        -0.13059
      12 -> 22        -0.10142
      12 -> 24         0.18664
      13 -> 29        -0.11031
      13 -> 30        -0.16887
      13 -> 31         0.47824

 Excited State  50:      Singlet-A     14.4086 eV   86.05 nm  f=0.0419  <S**2>=0.000
       7 -> 14         0.11533
       8 -> 17         0.12726
       9 -> 18        -0.15089
       9 -> 19         0.10034
      10 -> 21        -0.10794
      10 -> 22        -0.10997
      10 -> 23        -0.15064
      11 -> 20        -0.10481
      11 -> 21         0.16885
      11 -> 22         0.38629
      11 -> 23        -0.22097
      12 -> 25        -0.16622

 Excited State  51:      Singlet-A     14.4386 eV   85.87 nm  f=0.0606  <S**2>=0.000
       7 -> 14         0.31344
       9 -> 15        -0.11856
       9 -> 16         0.11766
       9 -> 18         0.17280
       9 -> 20         0.13285
      10 -> 23         0.11676
      10 -> 24         0.17768
      11 -> 23         0.10698
      12 -> 23         0.19280
      12 -> 25         0.15617
      13 -> 30         0.22526
      13 -> 31         0.13311

 Excited State  52:      Singlet-A     14.4605 eV   85.74 nm  f=0.0022  <S**2>=0.000
       7 -> 14        -0.18523
       8 -> 16        -0.13134
      10 -> 23         0.10534
      11 -> 21        -0.10309
      11 -> 24        -0.13479
      12 -> 25        -0.11892
      13 -> 27        -0.16582
      13 -> 30         0.43331
      13 -> 31         0.18485
      13 -> 35         0.11294

 Excited State  53:      Singlet-A     14.5792 eV   85.04 nm  f=0.0905  <S**2>=0.000
       8 -> 14         0.13596
       8 -> 15        -0.16021
       9 -> 17         0.11962
       9 -> 18         0.15670
       9 -> 19        -0.10263
      10 -> 19         0.10192
      10 -> 23        -0.17951
      10 -> 24        -0.18108
      11 -> 24         0.22957
      11 -> 25         0.16284
      12 -> 23        -0.11140
      12 -> 24        -0.13963
      12 -> 26        -0.14209
      12 -> 27         0.18036
      13 -> 30         0.15324

 Excited State  54:      Singlet-A     14.6224 eV   84.79 nm  f=0.1056  <S**2>=0.000
       7 -> 14        -0.33042
       7 -> 15         0.11740
       8 -> 15         0.12050
       9 -> 17         0.10528
       9 -> 18         0.12800
       9 -> 20         0.10245
      10 -> 21         0.10819
      10 -> 24         0.15566
      11 -> 22         0.28073
      12 -> 25         0.33055

 Excited State  55:      Singlet-A     14.7224 eV   84.21 nm  f=0.0051  <S**2>=0.000
       8 -> 16         0.17768
       9 -> 17         0.22563
       9 -> 18        -0.17768
       9 -> 21        -0.12068
      10 -> 22         0.12130
      11 -> 23         0.27185
      12 -> 23        -0.17081
      12 -> 25         0.16994
      12 -> 27        -0.21385
      12 -> 28         0.15135

 Excited State  56:      Singlet-A     14.7681 eV   83.95 nm  f=0.0113  <S**2>=0.000
       8 -> 15         0.13065
       8 -> 16         0.13878
       9 -> 17         0.17175
      10 -> 22         0.10547
      10 -> 23        -0.11813
      10 -> 24         0.32542
      10 -> 27        -0.13348
      11 -> 24         0.19764
      12 -> 23        -0.13813
      12 -> 24         0.12055
      12 -> 25        -0.27532

 Excited State  57:      Singlet-A     14.8450 eV   83.52 nm  f=0.0548  <S**2>=0.000
       8 -> 15         0.29397
       9 -> 19        -0.22114
       9 -> 20         0.12993
      10 -> 23        -0.25037
      11 -> 23         0.20081
      11 -> 24        -0.25707
      12 -> 27         0.12374

 Excited State  58:      Singlet-A     14.9164 eV   83.12 nm  f=0.0267  <S**2>=0.000
       7 -> 14         0.10230
       8 -> 16        -0.30833
       9 -> 17         0.33410
       9 -> 18         0.19154
      10 -> 22         0.14721
      10 -> 23         0.13002
      10 -> 24        -0.16441
      11 -> 24        -0.14528
      12 -> 22        -0.19667
      12 -> 25        -0.10584

 Excited State  59:      Singlet-A     14.9656 eV   82.85 nm  f=0.0155  <S**2>=0.000
       8 -> 16        -0.15711
       9 -> 17        -0.12973
      10 -> 25        -0.10792
      11 -> 21         0.16770
      11 -> 22         0.17572
      11 -> 23         0.28022
      11 -> 24         0.26889
      11 -> 26         0.10030
      12 -> 24         0.15917
      12 -> 26         0.17214
      13 -> 33        -0.13285

 Excited State  60:      Singlet-A     15.0817 eV   82.21 nm  f=0.0631  <S**2>=0.000
       8 -> 15         0.29221
      10 -> 19         0.10543
      10 -> 23        -0.13782
      10 -> 25        -0.19521
      11 -> 22        -0.17192
      11 -> 23        -0.21477
      11 -> 24         0.13343
      12 -> 24        -0.15324
      12 -> 26         0.17679
      12 -> 27        -0.14582
      13 -> 32         0.16040

 Excited State  61:      Singlet-A     15.1016 eV   82.10 nm  f=0.0134  <S**2>=0.000

 The electronic state is 1-A.
 Alpha  occ. eigenvalues --  -14.19411 -10.13889 -10.10535  -1.01672  -0.86875
 Alpha  occ. eigenvalues --   -0.73593  -0.61849  -0.59369  -0.54975  -0.48610
 Alpha  occ. eigenvalues --   -0.48322  -0.46178  -0.35592
 Alpha virt. eigenvalues --    0.09586   0.12081   0.13889   0.16583   0.18334
 Alpha virt. eigenvalues --    0.20176   0.21066   0.21879   0.23796   0.25396
 Alpha virt. eigenvalues --    0.25713   0.28137   0.28789   0.29406   0.33005

 Mulliken charges:
               1
     1  C    0.214951
     2  C    0.020101
     3  N   -0.204513
     4  H    0.033378
     5  H    0.013262
     6  H    0.054868
     7  H   -0.065291
     8  H   -0.093771
     9  H    0.045955
    10  H   -0.018940
 Sum of Mulliken charges =  -0.00000

 Dipole moment (field-independent basis, Debye):
    X=              0.1376    Y=              0.6289    Z=              1.1571  Tot=              1.3241
 Quadrupole moment (field-independent basis, Debye-Ang):
   XX=            -19.4259   YY=            -20.6708   ZZ=            -21.3637
   XY=              0.7508   XZ=              1.6155   YZ=             -1.7016

 Normal termination of Gaussian 16 at Mon Mar 21 20:20:49 2022.
