 Gaussian 16, Revision C.01,
 Gaussian 16:  EM64L-G16RevC.01  3-Jul-2019

 ----------------------------------------------------------------------
 #P TD(Nstates=10000) lc-whpbe/Gen SCF(maxcycles=100) Int(Grid=ultrafin
 e)
 ----------------------------------------------------------------------

 ---------------------
 xGDB7_00001_tier4.com
 ---------------------
 Symbolic Z-matrix:
 Charge =  0 Multiplicity = 1

                         Standard orientation:
 ---------------------------------------------------------------------
 Center     Atomic      Atomic             Coordinates (Angstroms)
 Number     Number       Type             X           Y           Z
 ---------------------------------------------------------------------
      1          6           0        0.000000    0.000000    0.597322
      2          6           0        0.000000    0.000000   -0.597322
      3          1           0        0.000000    0.000000    1.661338
      4          1           0        0.000000    0.000000   -1.661338
 ---------------------------------------------------------------------

 SCF Done:  E(RLC-wHPBE) =  -77.2098886362     A.U. after   10 cycles

 Excitation energies and oscillator strengths:

 Excited state symmetry could not be determined.
 Excited State   1:      Singlet-?Sym    6.7849 eV  182.74 nm  f=0.0000  <S**2>=0.000
       6 -> 11        -0.49216
       7 -> 10         0.49216
 This state for optimization and/or second-order correction.
 Total Energy, E(TD-HF/TD-DFT) =  -76.9605497684
 Copying the excited state density for this state as the 1-particle RhoCI density.

 Excited state symmetry could not be determined.
 Excited State   2:      Singlet-?Sym    7.1541 eV  173.31 nm  f=0.0000  <S**2>=0.000
       6 -> 11         0.49383
       7 -> 10         0.49383

 Excited state symmetry could not be determined.
 Excited State   3:      Singlet-?Sym    7.1541 eV  173.31 nm  f=0.0000  <S**2>=0.000
       6 -> 10        -0.49383
       7 -> 11         0.49383

 Excited state symmetry could not be determined.
 Excited State   4:      Singlet-?Sym    8.9532 eV  138.48 nm  f=0.1196  <S**2>=0.000
       6 ->  8         0.59271
       7 ->  8         0.36300

 Excited state symmetry could not be determined.
 Excited State   5:      Singlet-?Sym    8.9532 eV  138.48 nm  f=0.1196  <S**2>=0.000
       6 ->  8        -0.36300
       7 ->  8         0.59271

 Excited state symmetry could not be determined.
 Excited State   6:      Singlet-?Sym    9.5694 eV  129.56 nm  f=0.0000  <S**2>=0.000
       6 ->  9         0.54341
       7 ->  9         0.42657

 Excited state symmetry could not be determined.
 Excited State   7:      Singlet-?Sym    9.5694 eV  129.56 nm  f=0.0000  <S**2>=0.000
       6 ->  9        -0.42657
       7 ->  9         0.54341

 Excited state symmetry could not be determined.
 Excited State   8:      Singlet-?Sym   10.7256 eV  115.60 nm  f=0.8994  <S**2>=0.000
       6 -> 10         0.49061
       7 -> 11         0.49061

 Excited state symmetry could not be determined.
 Excited State   9:      Singlet-?Sym   10.7918 eV  114.89 nm  f=0.0272  <S**2>=0.000
       6 -> 12         0.52048
       7 -> 12        -0.44548

 Excited state symmetry could not be determined.
 Excited State  10:      Singlet-?Sym   10.7918 eV  114.89 nm  f=0.0272  <S**2>=0.000
       6 -> 12         0.44548
       7 -> 12         0.52048

 Excited state symmetry could not be determined.
 Excited State  11:      Singlet-?Sym   12.3315 eV  100.54 nm  f=0.0000  <S**2>=0.000
       5 -> 10        -0.16657
       6 ->  9         0.10289
       6 -> 13         0.56890
       7 -> 13        -0.32960

 Excited state symmetry could not be determined.
 Excited State  12:      Singlet-?Sym   12.3315 eV  100.54 nm  f=0.0000  <S**2>=0.000
       5 -> 11        -0.16657
       6 -> 13         0.32960
       7 ->  9         0.10289
       7 -> 13         0.56890

 Excited state symmetry could not be determined.
 Excited State  13:      Singlet-?Sym   12.5642 eV   98.68 nm  f=0.0000  <S**2>=0.000
       6 -> 15         0.49782
       7 -> 14         0.49782

 Excited state symmetry could not be determined.
 Excited State  14:      Singlet-?Sym   12.5642 eV   98.68 nm  f=0.0000  <S**2>=0.000
       6 -> 14         0.49782
       7 -> 15        -0.49782

 Excited state symmetry could not be determined.
 Excited State  15:      Singlet-?Sym   12.6206 eV   98.24 nm  f=0.0000  <S**2>=0.000
       6 -> 15        -0.49836
       7 -> 14         0.49836

 Excited state symmetry could not be determined.
 Excited State  16:      Singlet-?Sym   12.9261 eV   95.92 nm  f=0.0000  <S**2>=0.000
       5 -> 10         0.65228
       5 -> 11        -0.12960
       6 -> 13         0.18967

 Excited state symmetry could not be determined.
 Excited State  17:      Singlet-?Sym   12.9261 eV   95.92 nm  f=0.0000  <S**2>=0.000
       5 -> 10         0.12960
       5 -> 11         0.65228
       7 -> 13         0.18967

 Excited state symmetry could not be determined.
 Excited State  18:      Singlet-?Sym   13.3020 eV   93.21 nm  f=0.0000  <S**2>=0.000
       5 -> 12        -0.16521
       6 -> 14         0.47318
       7 -> 15         0.47318

 Excited state symmetry could not be determined.
 Excited State  19:      Singlet-?Sym   13.5660 eV   91.39 nm  f=0.0000  <S**2>=0.000
       6 -> 17        -0.49822
       7 -> 16         0.49822

 Excited state symmetry could not be determined.
 Excited State  20:      Singlet-?Sym   13.5660 eV   91.39 nm  f=0.0000  <S**2>=0.000
       6 -> 16         0.49822
       7 -> 17         0.49822

 Excited state symmetry could not be determined.
 Excited State  21:      Singlet-?Sym   14.1216 eV   87.80 nm  f=0.2395  <S**2>=0.000
       4 -> 10        -0.16800
       4 -> 11        -0.20599
       6 -> 16        -0.29030
       6 -> 17         0.35593
       7 -> 16         0.35593
       7 -> 17         0.29030

 Excited state symmetry could not be determined.
 Excited State  22:      Singlet-?Sym   14.1216 eV   87.80 nm  f=0.2395  <S**2>=0.000
       4 -> 10         0.20599
       4 -> 11        -0.16800
       6 -> 16         0.35593
       6 -> 17         0.29030
       7 -> 16         0.29030
       7 -> 17        -0.35593

 Excited State  23:      Singlet-SGG   14.6178 eV   84.82 nm  f=0.0000  <S**2>=0.000
       4 ->  9        -0.13603
       5 ->  8         0.67788

 Excited State  24:      Singlet-SGU   14.6703 eV   84.51 nm  f=0.4283  <S**2>=0.000
       4 ->  8        -0.21582
       4 -> 12         0.13149
       5 ->  9         0.63162
       5 -> 13        -0.10746

 Excited state symmetry could not be determined.
 Excited State  25:      Singlet-?Sym   15.0437 eV   82.42 nm  f=0.0000  <S**2>=0.000
       6 -> 18        -0.48418
       7 -> 19         0.48418

 Excited state symmetry could not be determined.
 Excited State  26:      Singlet-?Sym   15.0575 eV   82.34 nm  f=0.0000  <S**2>=0.000
       6 -> 18         0.48588
       7 -> 19         0.48588

 Excited state symmetry could not be determined.
 Excited State  27:      Singlet-?Sym   15.0575 eV   82.34 nm  f=0.0000  <S**2>=0.000
       6 -> 19        -0.48588
       7 -> 18         0.48588

 Excited state symmetry could not be determined.
 Excited State  28:      Singlet-?Sym   16.2100 eV   76.49 nm  f=0.4743  <S**2>=0.000
       4 -> 10        -0.38658
       4 -> 11         0.44856
       6 -> 16         0.10715
       6 -> 17         0.12433
       6 -> 20         0.16364
       7 -> 16         0.12433
       7 -> 17        -0.10715
       7 -> 20        -0.18988

 Excited state symmetry could not be determined.
 Excited State  29:      Singlet-?Sym   16.2100 eV   76.49 nm  f=0.4743  <S**2>=0.000
       4 -> 10         0.44856
       4 -> 11         0.38658
       6 -> 16        -0.12433
       6 -> 17         0.10715
       6 -> 20        -0.18988
       7 -> 16         0.10715
       7 -> 17         0.12433
       7 -> 20        -0.16364

 Excited state symmetry could not be determined.
 Excited State  30:      Singlet-?Sym   16.4052 eV   75.58 nm  f=0.0001  <S**2>=0.000
       4 ->  8         0.25786
       5 ->  9         0.19259
       5 -> 13        -0.13525
       6 -> 19         0.42574
       7 -> 18         0.42574

 Excited State  31:      Singlet-SGG   16.7124 eV   74.19 nm  f=0.0000  <S**2>=0.000
       4 ->  9         0.35527
       5 -> 12         0.55152
       6 -> 14         0.13385
       7 -> 15         0.13385

 Excited state symmetry could not be determined.
 Excited State  32:      Singlet-?Sym   16.7695 eV   73.93 nm  f=0.4411  <S**2>=0.000
       4 -> 10        -0.13323
       4 -> 11         0.17315
       6 -> 20        -0.39632
       7 -> 20         0.51504

 Excited state symmetry could not be determined.
 Excited State  33:      Singlet-?Sym   16.7695 eV   73.93 nm  f=0.4411  <S**2>=0.000
       4 -> 10         0.17315
       4 -> 11         0.13323
       6 -> 20         0.51504
       7 -> 20         0.39632

 Excited state symmetry could not be determined.
 Excited State  34:      Singlet-?Sym   17.1504 eV   72.29 nm  f=0.0000  <S**2>=0.000
       6 -> 21         0.67425

 Excited state symmetry could not be determined.
 Excited State  35:      Singlet-?Sym   17.1504 eV   72.29 nm  f=0.0000  <S**2>=0.000
       7 -> 21         0.67425

 Excited State  36:      Singlet-SGU   17.1519 eV   72.29 nm  f=0.1244  <S**2>=0.000
       4 ->  8         0.58283
       4 -> 12         0.23556
       6 -> 19        -0.19710
       7 -> 18        -0.19710

 Excited State  37:      Singlet-SGG   17.7677 eV   69.78 nm  f=0.0000  <S**2>=0.000
       4 ->  9         0.55872
       5 ->  8         0.15149
       5 -> 12        -0.38198

 Excited state symmetry could not be determined.
 Excited State  38:      Singlet-?Sym   17.8435 eV   69.48 nm  f=0.0000  <S**2>=0.000
       6 -> 23        -0.19504
       6 -> 24        -0.46037
       7 -> 23         0.46037
       7 -> 24        -0.19504

 Excited state symmetry could not be determined.
 Excited State  39:      Singlet-?Sym   17.8435 eV   69.48 nm  f=0.0000  <S**2>=0.000
       6 -> 23         0.46037
       6 -> 24        -0.19504
       7 -> 23         0.19504
       7 -> 24         0.46037

 Excited state symmetry could not be determined.
 Excited State  40:      Singlet-?Sym   17.9020 eV   69.26 nm  f=0.1089  <S**2>=0.000
       4 -> 18        -0.11788
       4 -> 19         0.14486
       5 -> 14         0.52412
       5 -> 15        -0.42650

 Excited state symmetry could not be determined.
 Excited State  41:      Singlet-?Sym   17.9020 eV   69.26 nm  f=0.1089  <S**2>=0.000
       4 -> 18         0.14486
       4 -> 19         0.11788
       5 -> 14         0.42650
       5 -> 15         0.52412

 Excited State  42:      Singlet-SGU   18.0603 eV   68.65 nm  f=0.5021  <S**2>=0.000
       4 ->  8         0.16486
       4 -> 12        -0.40038
       5 ->  9         0.21970
       5 -> 13         0.50598

 Excited state symmetry could not be determined.
 Excited State  43:      Singlet-?Sym   18.0891 eV   68.54 nm  f=0.0000  <S**2>=0.000
       6 -> 21        -0.13098
       6 -> 23        -0.48464
       7 -> 24         0.48464

 Excited state symmetry could not be determined.
 Excited State  44:      Singlet-?Sym   18.0891 eV   68.54 nm  f=0.0000  <S**2>=0.000
       6 -> 24         0.48464
       7 -> 21        -0.13098
       7 -> 23         0.48464

 Excited state symmetry could not be determined.
 Excited State  45:      Singlet-?Sym   18.1023 eV   68.49 nm  f=0.0702  <S**2>=0.000
       4 -> 11        -0.12367
       6 -> 22        -0.25749
       7 -> 22         0.62778

 Excited state symmetry could not be determined.
 Excited State  46:      Singlet-?Sym   18.1023 eV   68.49 nm  f=0.0702  <S**2>=0.000
       4 -> 10        -0.12367
       6 -> 22         0.62778
       7 -> 22         0.25749

 Excited state symmetry could not be determined.
 Excited State  47:      Singlet-?Sym   18.1753 eV   68.22 nm  f=0.0000  <S**2>=0.000
       6 -> 26         0.49819
       7 -> 25         0.49819

 Excited state symmetry could not be determined.
 Excited State  48:      Singlet-?Sym   18.1753 eV   68.22 nm  f=0.0000  <S**2>=0.000
       6 -> 25        -0.49819
       7 -> 26         0.49819

 Excited state symmetry could not be determined.
 Excited State  49:      Singlet-?Sym   18.3910 eV   67.42 nm  f=0.0000  <S**2>=0.000
       6 -> 26        -0.49901
       7 -> 25         0.49901

 Excited state symmetry could not be determined.
 Excited State  50:      Singlet-?Sym   18.7430 eV   66.15 nm  f=0.0000  <S**2>=0.000
       4 ->  9        -0.13049
       6 -> 25         0.48091
       7 -> 26         0.48091

 Excited state symmetry could not be determined.
 Excited State  51:      Singlet-?Sym   18.9874 eV   65.30 nm  f=0.0000  <S**2>=0.000
       3 -> 10         0.17915
       4 -> 14         0.45826
       4 -> 15        -0.21752
       5 -> 18        -0.18816
       5 -> 19         0.39641

 Excited state symmetry could not be determined.
 Excited State  52:      Singlet-?Sym   18.9874 eV   65.30 nm  f=0.0000  <S**2>=0.000
       3 -> 11         0.17915
       4 -> 14         0.21752
       4 -> 15         0.45826
       5 -> 18         0.39641
       5 -> 19         0.18816

 Excited State  53:      Singlet-SGU   19.0614 eV   65.04 nm  f=0.0520  <S**2>=0.000
       4 -> 12         0.44140
       5 -> 13         0.41430
       6 -> 29        -0.20896
       7 -> 28        -0.20896

 Excited state symmetry could not be determined.
 Excited State  54:      Singlet-?Sym   19.3152 eV   64.19 nm  f=0.0000  <S**2>=0.000
       6 -> 13         0.10242
       6 -> 27         0.66770
       7 -> 27        -0.17577

 Excited state symmetry could not be determined.
 Excited State  55:      Singlet-?Sym   19.3152 eV   64.19 nm  f=0.0000  <S**2>=0.000
       6 -> 27         0.17577
       7 -> 13         0.10242
       7 -> 27         0.66770

 Excited state symmetry could not be determined.
 Excited State  56:      Singlet-?Sym   19.4384 eV   63.78 nm  f=0.0000  <S**2>=0.000
       5 -> 16         0.70085

 Excited state symmetry could not be determined.
 Excited State  57:      Singlet-?Sym   19.4384 eV   63.78 nm  f=0.0000  <S**2>=0.000
       5 -> 17         0.70085

 Excited state symmetry could not be determined.
 Excited State  58:      Singlet-?Sym   19.7396 eV   62.81 nm  f=0.0000  <S**2>=0.000
       6 -> 28         0.49029
       7 -> 29         0.49029

 Excited state symmetry could not be determined.
 Excited State  59:      Singlet-?Sym   19.7396 eV   62.81 nm  f=0.0000  <S**2>=0.000
       6 -> 29        -0.49029
       7 -> 28         0.49029

 Excited state symmetry could not be determined.
 Excited State  60:      Singlet-?Sym   19.8698 eV   62.40 nm  f=0.0000  <S**2>=0.000
       6 -> 28         0.49188
       7 -> 29        -0.49188

 Excited state symmetry could not be determined.
 Excited State  61:      Singlet-?Sym   20.1552 eV   61.51 nm  f=0.0316  <S**2>=0.000
       4 -> 12         0.23055
       5 -> 13         0.16575
       6 -> 29         0.44039
       7 -> 28         0.44039

 Excited State  62:      Singlet-SGG   20.4242 eV   60.70 nm  f=0.0000  <S**2>=0.000
       4 -> 13         0.66642
       5 -> 20        -0.12634

 Excited state symmetry could not be determined.
 Excited State  63:      Singlet-?Sym   20.5175 eV   60.43 nm  f=0.0000  <S**2>=0.000
       3 -> 10         0.64899
       3 -> 11        -0.10290
       4 -> 14        -0.13843
       5 -> 19        -0.14525

 Excited state symmetry could not be determined.
 Excited State  64:      Singlet-?Sym   20.5175 eV   60.43 nm  f=0.0000  <S**2>=0.000
       3 -> 10         0.10290
       3 -> 11         0.64899
       4 -> 15        -0.13843
       5 -> 18        -0.14525

 Excited state symmetry could not be determined.
 Excited State  65:      Singlet-?Sym   21.4154 eV   57.89 nm  f=0.0000  <S**2>=0.000
       4 -> 16         0.66432
       5 -> 23         0.23550

 Excited state symmetry could not be determined.
 Excited State  66:      Singlet-?Sym   21.4154 eV   57.89 nm  f=0.0000  <S**2>=0.000
       4 -> 17         0.66432
       5 -> 24         0.23550

 Excited state symmetry could not be determined.
 Excited State  67:      Singlet-?Sym   21.5150 eV   57.63 nm  f=0.0000  <S**2>=0.000
       4 -> 14        -0.42687
       4 -> 15         0.17819
       5 -> 18        -0.19797
       5 -> 19         0.47425

 Excited state symmetry could not be determined.
 Excited State  68:      Singlet-?Sym   21.5150 eV   57.63 nm  f=0.0000  <S**2>=0.000
       4 -> 14        -0.17819
       4 -> 15        -0.42687
       5 -> 18         0.47425
       5 -> 19         0.19797

 Excited State  69:      Singlet-SGG   21.8288 eV   56.80 nm  f=0.0000  <S**2>=0.000
       3 ->  8         0.67052
       4 -> 13         0.10631
       5 -> 20         0.10364

 Excited State  70:      Singlet-SGU   22.3053 eV   55.59 nm  f=0.2610  <S**2>=0.000
       3 ->  9        -0.38071
       4 -> 22         0.18833
       5 -> 21         0.54000

 Excited State  71:      Singlet-SGG   22.6302 eV   54.79 nm  f=0.0000  <S**2>=0.000
       3 ->  8        -0.12286
       5 -> 20         0.67566

 Excited State  72:      Singlet-SGU   22.6666 eV   54.70 nm  f=0.0868  <S**2>=0.000
       3 ->  9         0.56961
       4 -> 22         0.11201
       5 -> 21         0.38022

 Excited state symmetry could not be determined.
 Excited State  73:      Singlet-?Sym   22.8161 eV   54.34 nm  f=0.0069  <S**2>=0.000
       3 -> 14         0.11746
       4 -> 18        -0.22391
       4 -> 19         0.59594
       5 -> 14        -0.16147
       5 -> 25         0.18836

 Excited state symmetry could not be determined.
 Excited State  74:      Singlet-?Sym   22.8161 eV   54.34 nm  f=0.0069  <S**2>=0.000
       3 -> 15         0.11746
       4 -> 18         0.59594
       4 -> 19         0.22391
       5 -> 15        -0.16147
       5 -> 26         0.18836

 Excited State  75:      Singlet-SGG   23.4849 eV   52.79 nm  f=0.0000  <S**2>=0.000
       4 -> 21         0.32230
       5 -> 22         0.58760
       6 -> 32        -0.12908
       7 -> 33        -0.12908

 Excited state symmetry could not be determined.
 Excited State  76:      Singlet-?Sym   23.9091 eV   51.86 nm  f=0.0000  <S**2>=0.000
       4 -> 16        -0.23471
       5 -> 23         0.66612

 Excited state symmetry could not be determined.
 Excited State  77:      Singlet-?Sym   23.9091 eV   51.86 nm  f=0.0000  <S**2>=0.000
       4 -> 17        -0.23471
       5 -> 24         0.66612

 Excited State  78:      Singlet-SGG   23.9184 eV   51.84 nm  f=0.0000  <S**2>=0.000
       3 -> 12         0.67796
       3 -> 22         0.10102

 Excited state symmetry could not be determined.
 Excited State  79:      Singlet-?Sym   24.4745 eV   50.66 nm  f=0.1190  <S**2>=0.000
       4 -> 18        -0.18259
       5 -> 25        -0.15236
       5 -> 26         0.65307

 Excited state symmetry could not be determined.
 Excited State  80:      Singlet-?Sym   24.4745 eV   50.66 nm  f=0.1190  <S**2>=0.000
       4 -> 19        -0.18259
       5 -> 25         0.65307
       5 -> 26         0.15236

 Excited State  81:      Singlet-SGU   24.7104 eV   50.17 nm  f=0.0413  <S**2>=0.000
       4 -> 20         0.64991
       4 -> 22        -0.13953
       5 -> 27        -0.17546

 Excited state symmetry could not be determined.
 Excited State  82:      Singlet-?Sym   25.2811 eV   49.04 nm  f=0.0000  <S**2>=0.000
       5 -> 28         0.67922
       7 -> 30        -0.13125

 Excited state symmetry could not be determined.
 Excited State  83:      Singlet-?Sym   25.2811 eV   49.04 nm  f=0.0000  <S**2>=0.000
       5 -> 29         0.67922
       6 -> 30        -0.13125

 Excited State  84:      Singlet-SGU   25.3724 eV   48.87 nm  f=0.0162  <S**2>=0.000
       3 -> 13         0.66075
       4 -> 22         0.14684

 Excited state symmetry could not be determined.
 Excited State  85:      Singlet-?Sym   25.3755 eV   48.86 nm  f=0.0000  <S**2>=0.000
       6 -> 30         0.47747
       7 -> 30         0.49145

 Excited state symmetry could not be determined.
 Excited State  86:      Singlet-?Sym   25.3755 eV   48.86 nm  f=0.0000  <S**2>=0.000
       6 -> 30         0.49145
       7 -> 30        -0.47747

 Excited State  87:      Singlet-SGG   25.4103 eV   48.79 nm  f=0.0000  <S**2>=0.000
       4 -> 21         0.60761
       5 -> 22        -0.33320

 Excited state symmetry could not be determined.
 Excited State  88:      Singlet-?Sym   25.6144 eV   48.40 nm  f=0.0000  <S**2>=0.000
       3 -> 16         0.31630
       4 -> 23         0.62535

 Excited state symmetry could not be determined.
 Excited State  89:      Singlet-?Sym   25.6144 eV   48.40 nm  f=0.0000  <S**2>=0.000
       3 -> 17         0.31630
       4 -> 24         0.62535

 Excited state symmetry could not be determined.
 Excited State  90:      Singlet-?Sym   25.7244 eV   48.20 nm  f=0.0002  <S**2>=0.000
       3 -> 14         0.62317
       3 -> 15         0.28934
       4 -> 19        -0.10509

 Excited state symmetry could not be determined.
 Excited State  91:      Singlet-?Sym   25.7244 eV   48.20 nm  f=0.0002  <S**2>=0.000
       3 -> 14        -0.28934
       3 -> 15         0.62317
       4 -> 18        -0.10509

 Excited State  92:      Singlet-SGU   25.7298 eV   48.19 nm  f=0.1292  <S**2>=0.000
       4 -> 20         0.22367
       4 -> 22         0.24368
       5 -> 27         0.60794

 Excited State  93:      Singlet-SGU   26.2567 eV   47.22 nm  f=0.0009  <S**2>=0.000
       3 -> 13        -0.14682
       4 -> 22         0.58015
       5 -> 21        -0.18039
       5 -> 27        -0.27336

 Excited state symmetry could not be determined.
 Excited State  94:      Singlet-?Sym   26.5367 eV   46.72 nm  f=0.0000  <S**2>=0.000
       3 -> 18         0.11393
       3 -> 19         0.10508
       4 -> 25         0.46166
       4 -> 26         0.50054

 Excited state symmetry could not be determined.
 Excited State  95:      Singlet-?Sym   26.5367 eV   46.72 nm  f=0.0000  <S**2>=0.000
       3 -> 18        -0.10508
       3 -> 19         0.11393
       4 -> 25         0.50054
       4 -> 26        -0.46166

 Excited state symmetry could not be determined.
 Excited State  96:      Singlet-?Sym   26.6851 eV   46.46 nm  f=0.0236  <S**2>=0.000
       6 -> 31        -0.37792
       7 -> 31         0.58056

 Excited state symmetry could not be determined.
 Excited State  97:      Singlet-?Sym   26.6851 eV   46.46 nm  f=0.0236  <S**2>=0.000
       6 -> 31         0.58056
       7 -> 31         0.37792

 Excited state symmetry could not be determined.
 Excited State  98:      Singlet-?Sym   26.7092 eV   46.42 nm  f=0.0000  <S**2>=0.000
       3 -> 16         0.58356
       4 -> 23        -0.31373
       6 -> 32        -0.16522
       7 -> 33         0.16522

 Excited state symmetry could not be determined.
 Excited State  99:      Singlet-?Sym   26.7092 eV   46.42 nm  f=0.0000  <S**2>=0.000
       3 -> 17         0.58356
       4 -> 24        -0.31373
       6 -> 33         0.16522
       7 -> 32         0.16522

 Excited state symmetry could not be determined.
 Excited State 100:      Singlet-?Sym   27.2335 eV   45.53 nm  f=0.0000  <S**2>=0.000
       3 -> 17        -0.23948
       6 -> 33         0.46761
       7 -> 32         0.46761

 Excited state symmetry could not be determined.
 Excited State 101:      Singlet-?Sym   27.2335 eV   45.53 nm  f=0.0000  <S**2>=0.000
       3 -> 16         0.23948
       6 -> 32         0.46761
       7 -> 33        -0.46761

 Excited state symmetry could not be determined.
 Excited State 102:      Singlet-?Sym   27.3549 eV   45.32 nm  f=0.0000  <S**2>=0.000
       6 -> 33        -0.49797
       7 -> 32         0.49797

 Excited state symmetry could not be determined.
 Excited State 103:      Singlet-?Sym   27.3574 eV   45.32 nm  f=0.0016  <S**2>=0.000
       4 -> 28         0.69344

 The electronic state is 1-SGG.
 Alpha  occ. eigenvalues --  -10.13072 -10.12812  -0.88981  -0.69548  -0.62169
 Alpha  occ. eigenvalues --   -0.41753  -0.41753
 Alpha virt. eigenvalues --    0.09856   0.11496   0.11999   0.11999   0.19350
 Alpha virt. eigenvalues --    0.25120   0.25344   0.25344   0.32962   0.32962
 Alpha virt. eigenvalues --    0.35456   0.35456   0.40875   0.41181   0.44615

 Mulliken charges:
               1
     1  C    0.146870
     2  C    0.146870
     3  H   -0.146870
     4  H   -0.146870
 Sum of Mulliken charges =  -0.00000

 Dipole moment (field-independent basis, Debye):
    X=             -0.0000    Y=              0.0000    Z=             -0.0000  Tot=              0.0000
 Quadrupole moment (field-independent basis, Debye-Ang):
   XX=            -13.4003   YY=            -13.4003   ZZ=             -7.0033
   XY=             -0.0000   XZ=              0.0000   YZ=              0.0000

 Normal termination of Gaussian 16 at Mon Mar 21 20:06:12 2022.
