 Gaussian 16, Revision C.01,
 Gaussian 16:  EM64L-G16RevC.01  3-Jul-2019

 ----------------------------------------------------------------------
 #P TD(Nstates=10000) lc-whpbe/Gen SCF(maxcycles=100) Int(Grid=ultrafin
 e)
 ----------------------------------------------------------------------

 ---------------------
 xGDB7_00001_tier4.com
 ---------------------
 Symbolic Z-matrix:
 Charge =  0 Multiplicity = 1

                         Standard orientation:
 ---------------------------------------------------------------------
 Center     Atomic      Atomic             Coordinates (Angstroms)
 Number     Number       Type             X           Y           Z
 ---------------------------------------------------------------------
      1          7           0       -0.000002   -0.000000   -0.110463
      2          1           0       -0.147185    0.930214    0.257758
      3          1           0       -0.731998   -0.592574    0.257757
      4          1           0        0.879196   -0.337638    0.257728
 ---------------------------------------------------------------------

 SCF Done:  E(RLC-wHPBE) =  -56.4916347029     A.U. after   12 cycles

 Excitation energies and oscillator strengths:

 Excited State   1:      Singlet-A      7.4236 eV  167.01 nm  f=0.0836  <S**2>=0.000
       5 ->  6         0.69950
 This state for optimization and/or second-order correction.
 Total Energy, E(TD-HF/TD-DFT) =  -56.2188220637
 Copying the excited state density for this state as the 1-particle RhoCI density.

 Excited State   2:      Singlet-A      9.6588 eV  128.36 nm  f=0.0157  <S**2>=0.000
       5 ->  7         0.66557
       5 ->  8        -0.16992
       5 -> 10        -0.10595

 Excited State   3:      Singlet-A      9.6588 eV  128.36 nm  f=0.0157  <S**2>=0.000
       5 ->  7         0.16992
       5 ->  8         0.66557
       5 ->  9        -0.10595

 Excited State   4:      Singlet-A     11.0713 eV  111.99 nm  f=0.0011  <S**2>=0.000
       5 ->  8         0.11854
       5 ->  9         0.68658

 Excited State   5:      Singlet-A     11.0713 eV  111.99 nm  f=0.0011  <S**2>=0.000
       5 ->  7         0.11853
       5 -> 10         0.68658

 Excited State   6:      Singlet-A     12.0380 eV  102.99 nm  f=0.0201  <S**2>=0.000
       3 ->  7         0.11415
       4 ->  8         0.11415
       5 -> 11         0.68206

 Excited State   7:      Singlet-A     12.7100 eV   97.55 nm  f=0.0415  <S**2>=0.000
       4 ->  6         0.61635
       5 -> 13        -0.32252

 Excited State   8:      Singlet-A     12.7100 eV   97.55 nm  f=0.0415  <S**2>=0.000
       3 ->  6         0.61627
       5 -> 12        -0.32267

 Excited State   9:      Singlet-A     12.8175 eV   96.73 nm  f=0.2133  <S**2>=0.000
       5 -> 14         0.68731

 Excited State  10:      Singlet-A     12.8808 eV   96.26 nm  f=0.2565  <S**2>=0.000
       3 ->  6        -0.12403
       4 ->  6         0.30539
       5 -> 12        -0.28118
       5 -> 13         0.54393

 Excited State  11:      Singlet-A     12.8808 eV   96.26 nm  f=0.2566  <S**2>=0.000
       3 ->  6         0.30552
       4 ->  6         0.12397
       5 -> 12         0.54386
       5 -> 13         0.28121

 Excited State  12:      Singlet-A     14.9559 eV   82.90 nm  f=0.0000  <S**2>=0.000
       3 ->  8        -0.47529
       4 ->  7         0.48484

 Excited State  13:      Singlet-A     14.9602 eV   82.88 nm  f=0.0649  <S**2>=0.000
       3 ->  7        -0.23671
       3 ->  8         0.43421
       4 ->  7         0.42562
       4 ->  8         0.23512

 Excited State  14:      Singlet-A     14.9602 eV   82.88 nm  f=0.0649  <S**2>=0.000
       3 ->  7        -0.42958
       3 ->  8        -0.23780
       4 ->  7        -0.23402
       4 ->  8         0.43029

 Excited State  15:      Singlet-A     16.0711 eV   77.15 nm  f=0.0000  <S**2>=0.000
       3 ->  9        -0.49069
       4 -> 10         0.49073

 Excited State  16:      Singlet-A     16.1960 eV   76.55 nm  f=0.0063  <S**2>=0.000
       3 ->  7        -0.32801
       3 -> 10         0.20434
       4 ->  8        -0.32800
       4 ->  9         0.20437
       5 -> 11         0.12487
       5 -> 14        -0.12271
       5 -> 16         0.38616

 Excited State  17:      Singlet-A     16.5609 eV   74.87 nm  f=0.0534  <S**2>=0.000
       3 ->  7         0.13276
       3 -> 10        -0.27501
       4 ->  8         0.13274
       4 ->  9        -0.27521
       5 -> 16         0.54724

 Excited State  18:      Singlet-A     16.6043 eV   74.67 nm  f=0.0042  <S**2>=0.000
       3 -> 10        -0.19821
       3 -> 12        -0.10213
       4 ->  9         0.19810
       4 -> 11         0.61043
       4 -> 13         0.10212
       5 -> 17        -0.11578

 Excited State  19:      Singlet-A     16.6044 eV   74.67 nm  f=0.0042  <S**2>=0.000
       3 ->  9        -0.19816
       3 -> 11         0.61042
       3 -> 13        -0.10213
       4 -> 10        -0.19815
       4 -> 12        -0.10213
       5 -> 18         0.11581

 Excited State  20:      Singlet-A     16.7245 eV   74.13 nm  f=0.0000  <S**2>=0.000
       5 -> 15         0.70647

 Excited State  21:      Singlet-A     16.7969 eV   73.81 nm  f=0.0330  <S**2>=0.000
       3 ->  7         0.29981
       3 -> 10         0.35803
       4 ->  8         0.29981
       4 ->  9         0.35829
       5 -> 16         0.19831

 Excited State  22:      Singlet-A     16.8430 eV   73.61 nm  f=0.2775  <S**2>=0.000
       3 -> 10         0.35729
       4 ->  9        -0.35696
       4 -> 11         0.30132
       5 -> 17         0.35160

 Excited State  23:      Singlet-A     16.8430 eV   73.61 nm  f=0.2775  <S**2>=0.000
       3 ->  9         0.35714
       3 -> 11         0.30133
       4 -> 10         0.35711
       5 -> 18        -0.35159

 Excited State  24:      Singlet-A     17.3154 eV   71.60 nm  f=0.1334  <S**2>=0.000
       3 -> 10        -0.25477
       4 ->  9         0.25474
       4 -> 14         0.12609
       5 -> 17         0.55925
       5 -> 18        -0.12646

 Excited State  25:      Singlet-A     17.3154 eV   71.60 nm  f=0.1334  <S**2>=0.000
       3 ->  9         0.25476
       3 -> 14        -0.12608
       4 -> 10         0.25475
       5 -> 17         0.12645
       5 -> 18         0.55925

 Excited State  26:      Singlet-A     18.1356 eV   68.37 nm  f=0.0012  <S**2>=0.000
       3 -> 12        -0.44404
       3 -> 13        -0.13848
       4 -> 11        -0.12867
       4 -> 12        -0.13857
       4 -> 13         0.44422
       4 -> 14         0.20586

 Excited State  27:      Singlet-A     18.1356 eV   68.37 nm  f=0.0012  <S**2>=0.000
       3 -> 11         0.12869
       3 -> 12        -0.13850
       3 -> 13         0.44401
       3 -> 14        -0.20581
       4 -> 12         0.44426
       4 -> 13         0.13856

 Excited State  28:      Singlet-A     18.2575 eV   67.91 nm  f=0.2843  <S**2>=0.000
       3 -> 12         0.48675
       4 -> 13         0.48658
       5 -> 21         0.10366

 Excited State  29:      Singlet-A     18.3076 eV   67.72 nm  f=0.0000  <S**2>=0.000
       3 -> 13         0.48942
       4 -> 12        -0.48925

 Excited State  30:      Singlet-A     18.3518 eV   67.56 nm  f=0.0871  <S**2>=0.000
       3 -> 12         0.12769
       4 -> 11         0.11008
       4 -> 13        -0.12765
       4 -> 14         0.64746

 Excited State  31:      Singlet-A     18.3518 eV   67.56 nm  f=0.0871  <S**2>=0.000
       3 -> 11         0.11006
       3 -> 13         0.12778
       3 -> 14         0.64748
       4 -> 12         0.12750

 Excited State  32:      Singlet-A     19.5677 eV   63.36 nm  f=0.0880  <S**2>=0.000
       5 -> 19         0.39650
       5 -> 20         0.56262

 Excited State  33:      Singlet-A     19.5677 eV   63.36 nm  f=0.0880  <S**2>=0.000
       5 -> 19         0.56262
       5 -> 20        -0.39650

 Excited State  34:      Singlet-A     21.6317 eV   57.32 nm  f=0.0086  <S**2>=0.000
       3 -> 16         0.26480
       3 -> 17         0.10397
       4 -> 16        -0.17474
       4 -> 18        -0.10399
       5 -> 22         0.50752
       5 -> 23        -0.31965

 Excited State  35:      Singlet-A     21.6317 eV   57.32 nm  f=0.0086  <S**2>=0.000
       3 -> 16         0.17465
       3 -> 18        -0.10396
       4 -> 16         0.26492
       4 -> 17        -0.10400
       5 -> 22         0.31970
       5 -> 23         0.50745

 Excited State  36:      Singlet-A     21.7014 eV   57.13 nm  f=0.2676  <S**2>=0.000
       3 -> 18        -0.12250
       4 -> 17         0.12247
       5 -> 21         0.65849

 Excited State  37:      Singlet-A     21.7721 eV   56.95 nm  f=0.1499  <S**2>=0.000
       4 -> 16         0.61646
       5 -> 23        -0.31811

 Excited State  38:      Singlet-A     21.7721 eV   56.95 nm  f=0.1499  <S**2>=0.000
       3 -> 16         0.61653
       5 -> 22        -0.31797

 Excited State  39:      Singlet-A     21.9669 eV   56.44 nm  f=0.0007  <S**2>=0.000
       4 -> 15         0.70290

 Excited State  40:      Singlet-A     21.9670 eV   56.44 nm  f=0.0007  <S**2>=0.000
       3 -> 15         0.70290

 Excited State  41:      Singlet-A     22.5357 eV   55.02 nm  f=0.0000  <S**2>=0.000
       3 -> 17         0.46490
       3 -> 18        -0.13354
       4 -> 17         0.13358
       4 -> 18         0.46497

 Excited State  42:      Singlet-A     22.8886 eV   54.17 nm  f=0.1336  <S**2>=0.000
       3 -> 17         0.47268
       4 -> 18        -0.47260
       5 -> 22        -0.13431

 Excited State  43:      Singlet-A     22.8886 eV   54.17 nm  f=0.1336  <S**2>=0.000
       3 -> 18         0.47262
       4 -> 17         0.47266
       5 -> 23         0.13432

 Excited State  44:      Singlet-A     23.2401 eV   53.35 nm  f=0.0433  <S**2>=0.000
       2 ->  6         0.53664
       3 -> 18        -0.27998
       4 -> 17         0.27991
       5 -> 21        -0.15654

 Excited State  45:      Singlet-A     24.6900 eV   50.22 nm  f=0.0995  <S**2>=0.000
       2 ->  6         0.43002
       3 -> 18         0.32705
       3 -> 22         0.11889
       4 -> 17        -0.32703
       4 -> 23         0.11889
       5 -> 27         0.11135

 Excited State  46:      Singlet-A     24.9075 eV   49.78 nm  f=0.0000  <S**2>=0.000
       3 -> 19        -0.46944
       3 -> 20         0.14277
       4 -> 19         0.14284
       4 -> 20         0.46964

 Excited State  47:      Singlet-A     25.0765 eV   49.44 nm  f=0.0335  <S**2>=0.000
       3 -> 19         0.36899
       3 -> 20        -0.31137
       4 -> 19         0.31134
       4 -> 20         0.36880

 Excited State  48:      Singlet-A     25.0765 eV   49.44 nm  f=0.0335  <S**2>=0.000
       3 -> 19        -0.31138
       3 -> 20        -0.36885
       4 -> 19         0.36894
       4 -> 20        -0.31132

 Excited State  49:      Singlet-A     25.4288 eV   48.76 nm  f=0.0761  <S**2>=0.000
       3 -> 19         0.13963
       3 -> 20         0.45909
       4 -> 19         0.45901
       4 -> 20        -0.13960

 Excited State  50:      Singlet-A     25.8622 eV   47.94 nm  f=0.0249  <S**2>=0.000
       2 ->  7         0.66655
       2 ->  8        -0.13443

 Excited State  51:      Singlet-A     25.8622 eV   47.94 nm  f=0.0249  <S**2>=0.000
       2 ->  7         0.13443
       2 ->  8         0.66655

 Excited State  52:      Singlet-A     26.5472 eV   46.70 nm  f=0.0019  <S**2>=0.000
       2 ->  9         0.16029
       3 -> 22        -0.14695
       4 -> 21         0.64919
       4 -> 23         0.14696

 Excited State  53:      Singlet-A     26.5473 eV   46.70 nm  f=0.0019  <S**2>=0.000
       2 -> 10         0.16029
       3 -> 21         0.64919
       3 -> 23        -0.14693
       4 -> 22        -0.14697

 Excited State  54:      Singlet-A     26.8529 eV   46.17 nm  f=0.0000  <S**2>=0.000
       3 -> 23        -0.49620
       4 -> 22         0.49623

 Excited State  55:      Singlet-A     27.2797 eV   45.45 nm  f=0.0300  <S**2>=0.000
       2 ->  9         0.66191
       3 -> 22         0.12623
       4 -> 21        -0.10672
       4 -> 23        -0.12630

 Excited State  56:      Singlet-A     27.2797 eV   45.45 nm  f=0.0300  <S**2>=0.000
       2 -> 10         0.66191
       3 -> 21        -0.10673
       3 -> 23         0.12627
       4 -> 22         0.12625

 Excited State  57:      Singlet-A     27.3899 eV   45.27 nm  f=0.1307  <S**2>=0.000
       2 -> 11         0.55464
       3 -> 22        -0.26845
       4 -> 23        -0.26845
       5 -> 24         0.18385

 Excited State  58:      Singlet-A     27.5641 eV   44.98 nm  f=0.1760  <S**2>=0.000
       2 -> 11         0.19661
       3 -> 22         0.33076
       4 -> 23         0.33081
       5 -> 24         0.44766

 Excited State  59:      Singlet-A     27.8962 eV   44.44 nm  f=0.3674  <S**2>=0.000
       2 ->  8         0.11855
       2 ->  9         0.13864
       2 -> 13        -0.12000
       3 -> 22        -0.41793
       4 -> 21        -0.21615
       4 -> 23         0.41794

 Excited State  60:      Singlet-A     27.8963 eV   44.44 nm  f=0.3674  <S**2>=0.000
       2 ->  7        -0.11855
       2 -> 10        -0.13864
       2 -> 12         0.12001
       3 -> 21         0.21615
       3 -> 23         0.41795
       4 -> 22         0.41791

 Excited State  61:      Singlet-A     27.9854 eV   44.30 nm  f=0.0595  <S**2>=0.000
       2 -> 11        -0.37118
       2 -> 14        -0.17485
       3 -> 22        -0.18307
       4 -> 23        -0.18291
       5 -> 24         0.49604

 Excited State  62:      Singlet-A     28.9678 eV   42.80 nm  f=0.0243  <S**2>=0.000
       2 -> 12         0.68446

 Excited State  63:      Singlet-A     28.9678 eV   42.80 nm  f=0.0243  <S**2>=0.000
       2 -> 13         0.68446

 Excited State  64:      Singlet-A     29.4036 eV   42.17 nm  f=0.0320  <S**2>=0.000
       2 -> 14         0.66867
       3 -> 22        -0.11206
       4 -> 23        -0.11205
       5 -> 24         0.10235

 Excited State  65:      Singlet-A     31.9005 eV   38.87 nm  f=0.0034  <S**2>=0.000
       5 -> 25         0.69797

 Excited State  66:      Singlet-A     31.9005 eV   38.87 nm  f=0.0034  <S**2>=0.000
       5 -> 26         0.69797

 Excited State  67:      Singlet-A     32.7046 eV   37.91 nm  f=0.0000  <S**2>=0.000
       2 -> 15         0.70476

 Excited State  68:      Singlet-A     32.7832 eV   37.82 nm  f=0.0159  <S**2>=0.000
       2 -> 16         0.67884
       5 -> 27        -0.16265

 Excited State  69:      Singlet-A     33.3101 eV   37.22 nm  f=0.0106  <S**2>=0.000
       2 -> 17         0.55177
       2 -> 18        -0.10822
       4 -> 24         0.38624

 Excited State  70:      Singlet-A     33.3101 eV   37.22 nm  f=0.0106  <S**2>=0.000
       2 -> 17         0.10822
       2 -> 18         0.55178
       3 -> 24        -0.38623

 Excited State  71:      Singlet-A     34.0066 eV   36.46 nm  f=0.1030  <S**2>=0.000
       2 -> 17        -0.38169
       2 -> 18         0.12523
       4 -> 24         0.57385

 Excited State  72:      Singlet-A     34.0067 eV   36.46 nm  f=0.1030  <S**2>=0.000
       2 -> 17         0.12522
       2 -> 18         0.38167
       3 -> 24         0.57386

 Excited State  73:      Singlet-A     35.5094 eV   34.92 nm  f=0.0077  <S**2>=0.000
       2 -> 16         0.10271
       3 -> 26        -0.24787
       4 -> 25         0.24787
       5 -> 27         0.58059

 Excited State  74:      Singlet-A     35.8042 eV   34.63 nm  f=0.0002  <S**2>=0.000
       2 -> 19         0.15487
       2 -> 20         0.67704

 Excited State  75:      Singlet-A     35.8042 eV   34.63 nm  f=0.0002  <S**2>=0.000
       2 -> 19         0.67704
       2 -> 20        -0.15487

 Excited State  76:      Singlet-A     37.3697 eV   33.18 nm  f=0.0000  <S**2>=0.000
       3 -> 25         0.48298
       3 -> 26        -0.12040
       4 -> 25         0.12043
       4 -> 26         0.48303

 Excited State  77:      Singlet-A     37.4495 eV   33.11 nm  f=0.0310  <S**2>=0.000
       2 -> 21         0.69719

 Excited State  78:      Singlet-A     37.6580 eV   32.92 nm  f=0.0031  <S**2>=0.000
       2 -> 22         0.45490
       3 -> 25         0.36838
       4 -> 26        -0.36833

 Excited State  79:      Singlet-A     37.6580 eV   32.92 nm  f=0.0031  <S**2>=0.000
       2 -> 23         0.45491
       3 -> 26        -0.36835
       4 -> 25        -0.36835

 Excited State  80:      Singlet-A     37.9965 eV   32.63 nm  f=0.0383  <S**2>=0.000
       2 -> 22         0.52321
       3 -> 25        -0.31800
       4 -> 26         0.31798
       5 -> 29         0.10922

 Excited State  81:      Singlet-A     37.9965 eV   32.63 nm  f=0.0383  <S**2>=0.000
       2 -> 23         0.52321
       3 -> 26         0.31799
       4 -> 25         0.31799
       5 -> 28         0.10922

 Excited State  82:      Singlet-A     39.5185 eV   31.37 nm  f=0.0537  <S**2>=0.000
       4 -> 27         0.53790
       5 -> 28        -0.43747

 Excited State  83:      Singlet-A     39.5185 eV   31.37 nm  f=0.0537  <S**2>=0.000
       3 -> 27         0.53789
       5 -> 29        -0.43748

 Excited State  84:      Singlet-A     39.7492 eV   31.19 nm  f=0.0255  <S**2>=0.000
       4 -> 27         0.44642
       5 -> 28         0.53126

 Excited State  85:      Singlet-A     39.7493 eV   31.19 nm  f=0.0255  <S**2>=0.000
       3 -> 27         0.44643
       5 -> 29         0.53125

 Excited State  86:      Singlet-A     40.3398 eV   30.73 nm  f=0.0207  <S**2>=0.000
       2 -> 16         0.11598
       2 -> 24         0.20659
       3 -> 26         0.38505
       3 -> 29         0.13846
       4 -> 25        -0.38503
       4 -> 28         0.13847
       5 -> 27         0.26224

 Excited State  87:      Singlet-A     43.5493 eV   28.47 nm  f=0.0332  <S**2>=0.000
       5 -> 30         0.69683

 Excited State  88:      Singlet-A     44.4130 eV   27.92 nm  f=0.0679  <S**2>=0.000
       2 -> 24         0.60668
       3 -> 29        -0.23046
       4 -> 28        -0.23050

 Excited State  89:      Singlet-A     45.0164 eV   27.54 nm  f=0.0000  <S**2>=0.000
       3 -> 28        -0.49389
       4 -> 29         0.49390

 Excited State  90:      Singlet-A     45.3734 eV   27.33 nm  f=0.0295  <S**2>=0.000
       3 -> 28         0.44654
       3 -> 29        -0.21449
       4 -> 28         0.21449
       4 -> 29         0.44653

 Excited State  91:      Singlet-A     45.3734 eV   27.33 nm  f=0.0295  <S**2>=0.000
       3 -> 28         0.21448
       3 -> 29         0.44654
       4 -> 28        -0.44653
       4 -> 29         0.21450

 Excited State  92:      Singlet-A     48.2728 eV   25.68 nm  f=0.0342  <S**2>=0.000
       2 -> 25         0.68095
       4 -> 30         0.16209

 Excited State  93:      Singlet-A     48.2729 eV   25.68 nm  f=0.0342  <S**2>=0.000
       2 -> 26         0.68096
       3 -> 30        -0.16207

 Excited State  94:      Singlet-A     48.3898 eV   25.62 nm  f=0.0559  <S**2>=0.000
       2 -> 24         0.27007
       3 -> 26        -0.12458
       3 -> 29         0.40602
       4 -> 25         0.12458
       4 -> 28         0.40601
       5 -> 27        -0.17757

 Excited State  95:      Singlet-A     48.9684 eV   25.32 nm  f=0.0015  <S**2>=0.000
       2 -> 25        -0.15866
       4 -> 30         0.68373

 Excited State  96:      Singlet-A     48.9684 eV   25.32 nm  f=0.0015  <S**2>=0.000
       2 -> 26         0.15864
       3 -> 30         0.68373

 Excited State  97:      Singlet-A     50.4742 eV   24.56 nm  f=0.0799  <S**2>=0.000
       2 -> 27         0.70527

 Excited State  98:      Singlet-A     52.0589 eV   23.82 nm  f=0.0000  <S**2>=0.000
       5 -> 31         0.70691

 Excited State  99:      Singlet-A     52.5004 eV   23.62 nm  f=0.0436  <S**2>=0.000
       5 -> 32         0.69896

 Excited State 100:      Singlet-A     52.5005 eV   23.62 nm  f=0.0436  <S**2>=0.000
       5 -> 33         0.69896

 Excited State 101:      Singlet-A     55.9471 eV   22.16 nm  f=0.0571  <S**2>=0.000
       2 -> 28         0.69914

 Excited State 102:      Singlet-A     55.9472 eV   22.16 nm  f=0.0571  <S**2>=0.000
       2 -> 29         0.69914

 Excited State 103:      Singlet-A     57.5790 eV   21.53 nm  f=0.0089  <S**2>=0.000
       3 -> 32        -0.18791
       4 -> 33        -0.18790
       5 -> 34         0.65029

 Excited State 104:      Singlet-A     57.7062 eV   21.49 nm  f=0.0000  <S**2>=0.000
       3 -> 33        -0.49769
       4 -> 32         0.49798

 Excited State 105:      Singlet-A     57.7474 eV   21.47 nm  f=0.0417  <S**2>=0.000
       4 -> 31         0.70176

 Excited State 106:      Singlet-A     57.7475 eV   21.47 nm  f=0.0417  <S**2>=0.000
       3 -> 31         0.70176

 Excited State 107:      Singlet-A     57.9875 eV   21.38 nm  f=0.0697  <S**2>=0.000
       3 -> 32        -0.27153
       3 -> 33         0.40870
       4 -> 32         0.40848
       4 -> 33         0.27151

 Excited State 108:      Singlet-A     57.9875 eV   21.38 nm  f=0.0698  <S**2>=0.000
       3 -> 32        -0.40858
       3 -> 33        -0.27159
       4 -> 32        -0.27144
       4 -> 33         0.40860

 Excited State 109:      Singlet-A     58.5930 eV   21.16 nm  f=0.3302  <S**2>=0.000
       2 -> 30        -0.11217
       3 -> 32         0.45021
       4 -> 33         0.45021
       5 -> 34         0.26226

 Excited State 110:      Singlet-A     59.9813 eV   20.67 nm  f=0.0367  <S**2>=0.000
       5 -> 35         0.69164

 Excited State 111:      Singlet-A     59.9814 eV   20.67 nm  f=0.0367  <S**2>=0.000
       5 -> 36         0.69164

 Excited State 112:      Singlet-A     60.6051 eV   20.46 nm  f=0.0520  <S**2>=0.000
       2 -> 30         0.68772

 Excited State 113:      Singlet-A     62.6538 eV   19.79 nm  f=0.0167  <S**2>=0.000
       4 -> 34         0.69600

 Excited State 114:      Singlet-A     62.6539 eV   19.79 nm  f=0.0167  <S**2>=0.000
       3 -> 34         0.69600

 Excited State 115:      Singlet-A     64.0069 eV   19.37 nm  f=0.0073  <S**2>=0.000
       3 -> 35        -0.16140
       4 -> 36         0.16140
       5 -> 37         0.66354

 Excited State 116:      Singlet-A     64.0070 eV   19.37 nm  f=0.0073  <S**2>=0.000
       3 -> 36         0.16140
       4 -> 35         0.16142
       5 -> 38         0.66353

 Excited State 117:      Singlet-A     65.3325 eV   18.98 nm  f=0.0000  <S**2>=0.000
       2 -> 31        -0.11539
       3 -> 36        -0.48663
       4 -> 35         0.48729

 Excited State 118:      Singlet-A     65.4519 eV   18.94 nm  f=0.0734  <S**2>=0.000
       3 -> 35         0.44491
       3 -> 36         0.14664
       4 -> 35         0.14635
       4 -> 36        -0.44448
       5 -> 37         0.20176

 Excited State 119:      Singlet-A     65.4520 eV   18.94 nm  f=0.0734  <S**2>=0.000
       3 -> 35        -0.14681

 The electronic state is 1-A.
 Alpha  occ. eigenvalues --  -14.19483  -0.98318  -0.58838  -0.58837  -0.38994
 Alpha virt. eigenvalues --    0.10884   0.19000   0.19000   0.25375   0.25375
 Alpha virt. eigenvalues --    0.26896   0.31228   0.31228   0.31877   0.44259
 Alpha virt. eigenvalues --    0.44416   0.48584   0.48584   0.57342   0.57342

 Mulliken charges:
               1
     1  N    0.028445
     2  H   -0.009482
     3  H   -0.009483
     4  H   -0.009480
 Sum of Mulliken charges =  -0.00000

 Dipole moment (field-independent basis, Debye):
    X=              0.0000    Y=             -0.0000    Z=              1.5880  Tot=              1.5880
 Quadrupole moment (field-independent basis, Debye-Ang):
   XX=             -6.2779   YY=             -6.2780   ZZ=             -9.1749
   XY=              0.0000   XZ=             -0.0001   YZ=              0.0000

 Normal termination of Gaussian 16 at Mon Mar 21 20:16:34 2022.
