 Gaussian 16, Revision C.01,
 Gaussian 16:  EM64L-G16RevC.01  3-Jul-2019

 ----------------------------------------------------------------------
 #P TD(Nstates=10000) lc-whpbe/Gen SCF(maxcycles=100) Int(Grid=ultrafin
 e)
 ----------------------------------------------------------------------

 ---------------------
 xGDB7_00001_tier4.com
 ---------------------
 Symbolic Z-matrix:
 Charge =  0 Multiplicity = 1

                         Standard orientation:
 ---------------------------------------------------------------------
 Center     Atomic      Atomic             Coordinates (Angstroms)
 Number     Number       Type             X           Y           Z
 ---------------------------------------------------------------------
      1          6           0        0.000000    0.000000    0.761397
      2          6           0       -0.000000   -0.000000   -0.761397
      3          1           0        0.000000    1.017110    1.157248
      4          1           0        0.880843   -0.508555    1.157248
      5          1           0       -0.880843   -0.508555    1.157248
      6          1           0        0.880843    0.508555   -1.157248
      7          1           0       -0.880843    0.508555   -1.157248
      8          1           0       -0.000000   -1.017110   -1.157248
 ---------------------------------------------------------------------

 SCF Done:  E(RLC-wHPBE) =  -79.7275931296     A.U. after   10 cycles

 Excitation energies and oscillator strengths:

 Excited State   1:      Singlet-EG     9.8293 eV  126.14 nm  f=0.0000  <S**2>=0.000
       8 -> 10         0.68662
 This state for optimization and/or second-order correction.
 Total Energy, E(TD-HF/TD-DFT) =  -79.3663713680
 Copying the excited state density for this state as the 1-particle RhoCI density.

 Excited State   2:      Singlet-EG     9.8293 eV  126.14 nm  f=0.0000  <S**2>=0.000
       9 -> 10         0.68662

 Excited State   3:      Singlet-A1G   10.7583 eV  115.25 nm  f=0.0000  <S**2>=0.000
       7 -> 10         0.69187

 Excited State   4:      Singlet-EU    10.8051 eV  114.75 nm  f=0.1713  <S**2>=0.000
       5 -> 10         0.19058
       8 -> 11         0.66220

 Excited State   5:      Singlet-EU    10.8051 eV  114.75 nm  f=0.1713  <S**2>=0.000
       6 -> 10         0.19058
       9 -> 11         0.66220

 Excited State   6:      Singlet-A2U   11.7469 eV  105.55 nm  f=0.3890  <S**2>=0.000
       7 -> 11         0.68428

 Excited State   7:      Singlet-EG    11.8839 eV  104.33 nm  f=0.0814  <S**2>=0.000
       8 -> 13         0.47838
       9 -> 11        -0.10705
       9 -> 12        -0.47838

 Excited State   8:      Singlet-EG    11.8839 eV  104.33 nm  f=0.0814  <S**2>=0.000
       8 -> 11        -0.10705
       8 -> 12         0.47838
       9 -> 13         0.47838

 Excited State   9:      Singlet-EG    11.9488 eV  103.76 nm  f=0.0000  <S**2>=0.000
       8 -> 12        -0.48648
       9 -> 13         0.48648

 Excited State  10:      Singlet-EU    12.1063 eV  102.41 nm  f=0.0000  <S**2>=0.000
       8 -> 15        -0.47775
       9 -> 14         0.47775

 Excited State  11:      Singlet-EG    12.2025 eV  101.61 nm  f=0.2120  <S**2>=0.000
       7 -> 11         0.12441
       8 -> 13         0.48146
       9 -> 12         0.48146

 Excited State  12:      Singlet-EU    12.3936 eV  100.04 nm  f=0.0000  <S**2>=0.000
       8 -> 14         0.48631
       9 -> 15        -0.48630

 Excited State  13:      Singlet-EU    12.3936 eV  100.04 nm  f=0.0000  <S**2>=0.000
       8 -> 15         0.48630
       9 -> 14         0.48630

 Excited State  14:      Singlet-EU    12.3998 eV   99.99 nm  f=0.0000  <S**2>=0.000
       8 -> 14         0.47734
       8 -> 17        -0.10305
       9 -> 15         0.47735
       9 -> 18        -0.10305

 Excited State  15:      Singlet-EU    12.6881 eV   97.72 nm  f=0.0165  <S**2>=0.000
       6 -> 10         0.19192
       7 -> 12         0.65490
       7 -> 30        -0.10202

 Excited State  16:      Singlet-EU    12.6881 eV   97.72 nm  f=0.0165  <S**2>=0.000
       5 -> 10         0.19192
       7 -> 13         0.65490
       7 -> 31        -0.10202

 Excited State  17:      Singlet-EG    12.8117 eV   96.77 nm  f=0.0000  <S**2>=0.000
       6 -> 11         0.30474
       7 -> 15        -0.36269
       8 -> 17         0.10074
       9 -> 16         0.47789
       9 -> 18        -0.10074

 Excited State  18:      Singlet-EG    12.8117 eV   96.77 nm  f=0.0000  <S**2>=0.000
       5 -> 11         0.30474
       7 -> 14        -0.36269
       8 -> 16         0.47789
       8 -> 18         0.10074
       9 -> 17         0.10074

 Excited State  19:      Singlet-EU    12.8157 eV   96.74 nm  f=0.1198  <S**2>=0.000
       5 -> 10         0.59520
       5 -> 16        -0.13894
       7 -> 13        -0.21156
       8 -> 11        -0.15111
       8 -> 21         0.14855

 Excited State  20:      Singlet-EU    12.8157 eV   96.74 nm  f=0.1198  <S**2>=0.000
       6 -> 10         0.59520
       6 -> 16        -0.13894
       7 -> 12        -0.21156
       9 -> 11        -0.15111
       9 -> 21         0.14855

 Excited State  21:      Singlet-EG    12.8749 eV   96.30 nm  f=0.0000  <S**2>=0.000
       6 -> 11         0.19673
       7 -> 15         0.57380
       9 -> 16         0.32429

 Excited State  22:      Singlet-EG    12.8749 eV   96.30 nm  f=0.0000  <S**2>=0.000
       5 -> 11         0.19673
       7 -> 14         0.57380
       8 -> 16         0.32429

 Excited State  23:      Singlet-EU    13.5467 eV   91.52 nm  f=0.0000  <S**2>=0.000
       5 -> 12         0.24220
       6 -> 13        -0.24219
       8 -> 18         0.42022
       9 -> 17        -0.42021

 Excited State  24:      Singlet-EU    13.5622 eV   91.42 nm  f=0.0000  <S**2>=0.000
       5 -> 13         0.23187
       6 -> 12        -0.23187
       7 -> 15         0.11714
       8 -> 17         0.41537
       9 -> 16        -0.12490
       9 -> 18        -0.41537

 Excited State  25:      Singlet-EU    13.5622 eV   91.42 nm  f=0.0000  <S**2>=0.000
       5 -> 12         0.23187
       6 -> 13         0.23187
       7 -> 14         0.11714
       8 -> 16        -0.12490
       8 -> 18         0.41537
       9 -> 17         0.41537

 Excited State  26:      Singlet-EG    13.7565 eV   90.13 nm  f=0.0000  <S**2>=0.000
       5 -> 15        -0.23921
       6 -> 14         0.23921
       8 -> 19         0.42269
       9 -> 20        -0.42269

 Excited State  27:      Singlet-A1G   14.0406 eV   88.30 nm  f=0.0000  <S**2>=0.000
       5 -> 13         0.13808
       6 -> 12         0.13808
       7 -> 16         0.55020
       8 -> 17         0.26886
       9 -> 18         0.26886

 Excited State  28:      Singlet-EU    14.0789 eV   88.06 nm  f=0.0039  <S**2>=0.000
       6 -> 10        -0.22203
       6 -> 16        -0.10113
       8 -> 20         0.20025
       9 -> 11         0.10783
       9 -> 19        -0.20025
       9 -> 21         0.55651

 Excited State  29:      Singlet-EU    14.0789 eV   88.06 nm  f=0.0039  <S**2>=0.000
       5 -> 10        -0.22203
       5 -> 16        -0.10113
       8 -> 11         0.10783
       8 -> 19         0.20025
       8 -> 21         0.55651
       9 -> 20         0.20025

 Excited State  30:      Singlet-EG    14.3637 eV   86.32 nm  f=0.0000  <S**2>=0.000
       6 -> 11         0.57728
       9 -> 10        -0.12909
       9 -> 16        -0.35254

 Excited State  31:      Singlet-EG    14.3637 eV   86.32 nm  f=0.0000  <S**2>=0.000
       5 -> 11         0.57728
       8 -> 10        -0.12909
       8 -> 16        -0.35254

 Excited State  32:      Singlet-EG    14.4025 eV   86.08 nm  f=0.1680  <S**2>=0.000
       5 -> 14        -0.21081
       6 -> 15        -0.21082
       7 -> 21         0.13803
       8 -> 20         0.43510
       9 -> 19         0.43510

 Excited State  33:      Singlet-EU    14.4157 eV   86.01 nm  f=0.2427  <S**2>=0.000
       7 -> 19         0.39709
       8 -> 20         0.33370
       9 -> 19        -0.33370
       9 -> 21        -0.25476

 Excited State  34:      Singlet-EU    14.4157 eV   86.01 nm  f=0.2427  <S**2>=0.000
       7 -> 20         0.39709
       8 -> 19         0.33370
       8 -> 21        -0.25476
       9 -> 20         0.33370

 Excited State  35:      Singlet-EU    14.6260 eV   84.77 nm  f=0.0000  <S**2>=0.000
       5 -> 13        -0.11117
       6 -> 12        -0.11117
       7 -> 16        -0.32912
       8 -> 14         0.11674
       8 -> 17         0.39904
       9 -> 15         0.11674
       9 -> 18         0.39904

 Excited State  36:      Singlet-EG    14.6346 eV   84.72 nm  f=0.0000  <S**2>=0.000
       7 -> 18         0.68616

 Excited State  37:      Singlet-EG    14.6346 eV   84.72 nm  f=0.0000  <S**2>=0.000
       7 -> 17         0.68616

 Excited State  38:      Singlet-A2U   14.8472 eV   83.51 nm  f=0.0144  <S**2>=0.000
       5 -> 14         0.32951
       6 -> 15         0.32951
       7 -> 21         0.38157
       8 -> 20         0.10212
       8 -> 23        -0.19030
       9 -> 19         0.10212
       9 -> 22        -0.19030

 Excited State  39:      Singlet-EU    14.9217 eV   83.09 nm  f=0.0006  <S**2>=0.000
       5 -> 14        -0.19924
       5 -> 17         0.10111
       6 -> 15         0.19924
       6 -> 18        -0.10111
       7 -> 19         0.42691
       8 -> 20        -0.21604
       8 -> 23         0.20131
       9 -> 19         0.21604
       9 -> 21         0.13364
       9 -> 22        -0.20132

 Excited State  40:      Singlet-EU    14.9217 eV   83.09 nm  f=0.0006  <S**2>=0.000
       5 -> 15        -0.19924
       5 -> 18         0.10111
       6 -> 14        -0.19924
       6 -> 17         0.10111
       7 -> 20         0.42691
       8 -> 19        -0.21604
       8 -> 21         0.13364
       8 -> 22         0.20131
       9 -> 20        -0.21604
       9 -> 23         0.20131

 Excited State  41:      Singlet-EU    15.1475 eV   81.85 nm  f=0.0000  <S**2>=0.000
       5 -> 12        -0.42267
       6 -> 13         0.42267
       8 -> 18         0.23548
       9 -> 17        -0.23548

 Excited State  42:      Singlet-EU    15.1769 eV   81.69 nm  f=0.0000  <S**2>=0.000
       5 -> 12         0.42637
       6 -> 13         0.42637
       8 -> 18        -0.23909
       9 -> 17        -0.23909

 Excited State  43:      Singlet-EU    15.1769 eV   81.69 nm  f=0.0000  <S**2>=0.000
       5 -> 13        -0.42637
       6 -> 12         0.42637
       8 -> 17         0.23909
       9 -> 18        -0.23909

 Excited State  44:      Singlet-EG    15.2254 eV   81.43 nm  f=0.0000  <S**2>=0.000
       5 -> 15        -0.35256
       6 -> 14         0.35256
       8 -> 19        -0.22129
       8 -> 22         0.24559
       9 -> 20         0.22129
       9 -> 23        -0.24559

 Excited State  45:      Singlet-EG    15.4646 eV   80.17 nm  f=0.5765  <S**2>=0.000
       5 -> 14         0.39686
       6 -> 15        -0.39686
       7 -> 19         0.33658
       9 -> 21         0.16064

 Excited State  46:      Singlet-EG    15.4646 eV   80.17 nm  f=0.5765  <S**2>=0.000
       5 -> 15         0.39686
       6 -> 14         0.39686
       7 -> 20         0.33658
       8 -> 21         0.16064

 Excited State  47:      Singlet-EU    15.6772 eV   79.09 nm  f=0.0000  <S**2>=0.000
       5 -> 13         0.45187
       6 -> 12         0.45187
       7 -> 16        -0.23633

 Excited State  48:      Singlet-A2U   15.7747 eV   78.60 nm  f=0.8267  <S**2>=0.000
       5 -> 14        -0.15557
       5 -> 17         0.17606
       6 -> 15        -0.15557
       6 -> 18         0.17606
       7 -> 21         0.53901
       8 -> 20        -0.16477
       8 -> 23         0.11024
       9 -> 19        -0.16477
       9 -> 22         0.11024

 Excited State  49:      Singlet-EG    15.7794 eV   78.57 nm  f=0.0000  <S**2>=0.000
       5 -> 15         0.24428
       5 -> 18         0.16286
       6 -> 14        -0.24428
       6 -> 17        -0.16286
       8 -> 19         0.10640
       8 -> 22         0.37984
       9 -> 20        -0.10640
       9 -> 23        -0.37984

 Excited State  50:      Singlet-EG    15.9218 eV   77.87 nm  f=0.1194  <S**2>=0.000
       5 -> 14        -0.15434
       5 -> 17        -0.14487
       6 -> 15         0.15434
       6 -> 18         0.14487
       7 -> 19         0.12054
       8 -> 20        -0.17221
       8 -> 23        -0.39744
       9 -> 19         0.17221
       9 -> 22         0.39744

 Excited State  51:      Singlet-EG    15.9218 eV   77.87 nm  f=0.1194  <S**2>=0.000
       5 -> 15         0.15434
       5 -> 18         0.14487
       6 -> 14         0.15434
       6 -> 17         0.14487
       7 -> 20        -0.12054
       8 -> 19         0.17221
       8 -> 22         0.39744
       9 -> 20         0.17221
       9 -> 23         0.39744

 Excited State  52:      Singlet-EG    16.1106 eV   76.96 nm  f=0.1663  <S**2>=0.000
       5 -> 14         0.23717
       5 -> 17         0.11731
       6 -> 15         0.23717
       6 -> 18         0.11731
       8 -> 20         0.11962
       8 -> 23         0.39615
       9 -> 19         0.11962
       9 -> 22         0.39615

 Excited State  53:      Singlet-EU    16.3376 eV   75.89 nm  f=0.0121  <S**2>=0.000
       6 -> 16         0.61729
       7 -> 22        -0.23252
       9 -> 35        -0.12393

 Excited State  54:      Singlet-EU    16.3376 eV   75.89 nm  f=0.0121  <S**2>=0.000
       5 -> 16         0.61729
       7 -> 23        -0.23253
       8 -> 35        -0.12393

 Excited State  55:      Singlet-EU    16.7478 eV   74.03 nm  f=0.1897  <S**2>=0.000
       6 -> 16         0.22851
       7 -> 22         0.63741

 Excited State  56:      Singlet-EU    16.7478 eV   74.03 nm  f=0.1897  <S**2>=0.000
       5 -> 16         0.22851
       7 -> 23         0.63741

 Excited State  57:      Singlet-EG    16.8523 eV   73.57 nm  f=0.0000  <S**2>=0.000
       5 -> 20         0.15477
       6 -> 19        -0.15477
       6 -> 21         0.61322
       6 -> 35        -0.12864
       9 -> 16         0.10735
       9 -> 32         0.10519

 Excited State  58:      Singlet-EG    16.8523 eV   73.57 nm  f=0.0000  <S**2>=0.000
       5 -> 19         0.15477
       5 -> 21         0.61322
       5 -> 35        -0.12864
       6 -> 20         0.15477
       8 -> 16         0.10735
       8 -> 32         0.10519

 Excited State  59:      Singlet-EU    16.9378 eV   73.20 nm  f=0.0000  <S**2>=0.000
       5 -> 19        -0.46723
       6 -> 20         0.46723

 Excited State  60:      Singlet-EU    17.0599 eV   72.68 nm  f=0.0086  <S**2>=0.000
       5 -> 17        -0.22745
       6 -> 18         0.22745
       9 -> 24         0.57883

 Excited State  61:      Singlet-EU    17.0599 eV   72.68 nm  f=0.0086  <S**2>=0.000
       5 -> 18        -0.22745
       6 -> 17        -0.22745
       8 -> 24         0.57883

 Excited State  62:      Singlet-EG    17.1404 eV   72.33 nm  f=0.0005  <S**2>=0.000
       5 -> 17         0.40831
       6 -> 18         0.40832
       7 -> 21        -0.14243
       7 -> 24         0.23657
       7 -> 35        -0.10650
       8 -> 23        -0.16488
       9 -> 22        -0.16488

 Excited State  63:      Singlet-EG    17.1566 eV   72.27 nm  f=0.0639  <S**2>=0.000
       5 -> 17         0.38309
       6 -> 18        -0.38308
       8 -> 23        -0.15579
       9 -> 21        -0.10236
       9 -> 22         0.15579
       9 -> 24         0.34162

 Excited State  64:      Singlet-EG    17.1566 eV   72.27 nm  f=0.0639  <S**2>=0.000
       5 -> 18         0.38309
       6 -> 17         0.38308
       8 -> 21        -0.10236
       8 -> 22        -0.15579
       8 -> 24         0.34162
       9 -> 23        -0.15579

 Excited State  65:      Singlet-EU    17.1705 eV   72.21 nm  f=0.0000  <S**2>=0.000
       5 -> 20         0.47785
       6 -> 19         0.47786

 Excited State  66:      Singlet-EG    17.1775 eV   72.18 nm  f=0.0000  <S**2>=0.000
       5 -> 18        -0.44727
       6 -> 17         0.44727
       8 -> 22         0.19718
       9 -> 23        -0.19718

 Excited State  67:      Singlet-EU    17.2026 eV   72.07 nm  f=0.0000  <S**2>=0.000
       5 -> 20         0.44678
       6 -> 19        -0.44676
       6 -> 21        -0.22023

 Excited State  68:      Singlet-EU    17.2026 eV   72.07 nm  f=0.0000  <S**2>=0.000
       5 -> 19         0.44677
       5 -> 21        -0.22023
       6 -> 20         0.44677

 Excited State  69:      Singlet-EG    17.6378 eV   70.29 nm  f=0.0000  <S**2>=0.000
       8 -> 25         0.67503

 Excited State  70:      Singlet-EG    17.6378 eV   70.29 nm  f=0.0000  <S**2>=0.000
       9 -> 25         0.67503

 Excited State  71:      Singlet-A2U   17.9284 eV   69.16 nm  f=0.1907  <S**2>=0.000
       4 -> 10         0.47947
       5 -> 17         0.10563
       6 -> 18         0.10563
       7 -> 24        -0.45549

 Excited State  72:      Singlet-EU    18.0273 eV   68.78 nm  f=0.0053  <S**2>=0.000
       8 -> 26         0.68325

 Excited State  73:      Singlet-EU    18.0273 eV   68.78 nm  f=0.0053  <S**2>=0.000
       9 -> 26         0.68325

 Excited State  74:      Singlet-A2U   18.2840 eV   67.81 nm  f=0.2019  <S**2>=0.000
       4 -> 10         0.48369
       7 -> 24         0.45782

 Excited State  75:      Singlet-A1G   18.4100 eV   67.35 nm  f=0.0000  <S**2>=0.000
       4 -> 11        -0.15610
       5 -> 23         0.11093
       6 -> 22         0.11093
       7 -> 25         0.61782
       8 -> 28         0.12510
       9 -> 29         0.12510

 Excited State  76:      Singlet-EU    18.6007 eV   66.66 nm  f=0.0000  <S**2>=0.000
       5 -> 23        -0.41376
       6 -> 22         0.41376
       8 -> 28         0.20572
       9 -> 29        -0.20572

 Excited State  77:      Singlet-EU    18.6007 eV   66.66 nm  f=0.0000  <S**2>=0.000
       5 -> 22         0.41375
       6 -> 23         0.41376
       8 -> 29        -0.20571
       9 -> 28        -0.20572

 Excited State  78:      Singlet-EU    18.6083 eV   66.63 nm  f=0.0000  <S**2>=0.000
       5 -> 22         0.40572
       6 -> 23        -0.40571
       8 -> 29        -0.21951
       8 -> 34         0.11870
       9 -> 28         0.21951
       9 -> 33        -0.11870

 Excited State  79:      Singlet-EU    18.7495 eV   66.13 nm  f=0.0000  <S**2>=0.000
       5 -> 23         0.39712
       6 -> 22         0.39712
       8 -> 28        -0.26537
       9 -> 29        -0.26537

 Excited State  80:      Singlet-A1U   18.8422 eV   65.80 nm  f=0.0000  <S**2>=0.000
       7 -> 26         0.70017

 Excited State  81:      Singlet-EU    18.9287 eV   65.50 nm  f=0.1573  <S**2>=0.000
       4 -> 14        -0.10149
       5 -> 25         0.23736
       8 -> 27         0.62813

 Excited State  82:      Singlet-EU    18.9287 eV   65.50 nm  f=0.1573  <S**2>=0.000
       4 -> 15        -0.10149
       6 -> 25         0.23736
       9 -> 27         0.62813

 Excited State  83:      Singlet-EU    18.9325 eV   65.49 nm  f=0.0000  <S**2>=0.000
       5 -> 22        -0.24629
       6 -> 23         0.24629
       8 -> 29        -0.40370
       9 -> 28         0.40370

 Excited State  84:      Singlet-A1G   18.9478 eV   65.43 nm  f=0.0000  <S**2>=0.000
       3 -> 10         0.11815
       4 -> 11         0.58910
       5 -> 23        -0.12521
       6 -> 22        -0.12521
       7 -> 25         0.25247

 Excited State  85:      Singlet-EG    19.0990 eV   64.92 nm  f=0.0000  <S**2>=0.000
       8 -> 30         0.47750
       9 -> 31        -0.47750

 Excited State  86:      Singlet-EU    19.1782 eV   64.65 nm  f=0.0000  <S**2>=0.000
       5 -> 23         0.20440
       6 -> 22        -0.20440
       7 -> 29         0.21201
       8 -> 28         0.34464
       8 -> 33        -0.11935
       9 -> 29        -0.34464
       9 -> 32         0.22330
       9 -> 34         0.11935

 Excited State  87:      Singlet-EU    19.1782 eV   64.65 nm  f=0.0000  <S**2>=0.000
       5 -> 22         0.20440
       6 -> 23         0.20440
       7 -> 28         0.21201
       8 -> 29         0.34464
       8 -> 32         0.22330
       8 -> 34        -0.11935
       9 -> 28         0.34464
       9 -> 33        -0.11935

 Excited State  88:      Singlet-EG    19.2752 eV   64.32 nm  f=0.1489  <S**2>=0.000
       7 -> 31         0.10930
       8 -> 27         0.11700
       8 -> 30         0.46524
       9 -> 31         0.46524

 Excited State  89:      Singlet-EG    19.2752 eV   64.32 nm  f=0.1489  <S**2>=0.000
       7 -> 30         0.10930
       8 -> 31         0.46524
       9 -> 27         0.11701
       9 -> 30        -0.46524

 Excited State  90:      Singlet-EG    19.2924 eV   64.27 nm  f=0.0000  <S**2>=0.000
       4 -> 13        -0.10005
       5 -> 24         0.28196
       7 -> 28         0.47126
       7 -> 33        -0.12096
       8 -> 32        -0.37252

 Excited State  91:      Singlet-EG    19.2924 eV   64.27 nm  f=0.0000  <S**2>=0.000
       4 -> 12        -0.10004
       6 -> 24         0.28197
       7 -> 29         0.47126
       7 -> 34        -0.12096
       9 -> 32        -0.37252

 Excited State  92:      Singlet-EU    19.4068 eV   63.89 nm  f=0.0000  <S**2>=0.000
       4 -> 11         0.27316
       4 -> 21        -0.10258
       5 -> 23         0.21098
       6 -> 22         0.21098
       7 -> 25        -0.14342
       7 -> 32        -0.11167
       8 -> 28         0.35836
       9 -> 29         0.35836

 Excited State  93:      Singlet-EG    19.4369 eV   63.79 nm  f=0.2862  <S**2>=0.000
       4 -> 16        -0.11735
       7 -> 35         0.12883
       8 -> 31         0.46140
       9 -> 30         0.46141

 Excited State  94:      Singlet-EG    19.4836 eV   63.64 nm  f=0.0000  <S**2>=0.000
       4 -> 13        -0.10223
       5 -> 24        -0.30924
       7 -> 28         0.38203
       7 -> 33        -0.10593
       8 -> 29        -0.21098
       8 -> 32         0.32481
       9 -> 28        -0.21098

 Excited State  95:      Singlet-EG    19.4836 eV   63.64 nm  f=0.0000  <S**2>=0.000
       4 -> 12        -0.10223
       6 -> 24        -0.30924
       7 -> 29         0.38203
       7 -> 34        -0.10593
       8 -> 28        -0.21098
       9 -> 29         0.21098
       9 -> 32         0.32481

 Excited State  96:      Singlet-EU    19.5898 eV   63.29 nm  f=0.0001  <S**2>=0.000
       6 -> 25         0.19585
       7 -> 30         0.31949
       9 -> 27        -0.12858
       9 -> 35         0.54698

 Excited State  97:      Singlet-EU    19.5898 eV   63.29 nm  f=0.0001  <S**2>=0.000

 The electronic state is 1-A1G.
 Alpha  occ. eigenvalues --  -10.10673 -10.10672  -0.89590  -0.74909  -0.56198
 Alpha  occ. eigenvalues --   -0.56198  -0.48868  -0.45802  -0.45802
 Alpha virt. eigenvalues --    0.09562   0.12366   0.18026   0.18026   0.19956
 Alpha virt. eigenvalues --    0.19956   0.23785   0.24106   0.24106   0.27718
 Alpha virt. eigenvalues --    0.27718   0.28299   0.32226   0.32226   0.37444

 Mulliken charges:
               1
     1  C   -0.025586
     2  C   -0.025586
     3  H    0.008529
     4  H    0.008529
     5  H    0.008529
     6  H    0.008529
     7  H    0.008529
     8  H    0.008529
 Sum of Mulliken charges =   0.00000

 Dipole moment (field-independent basis, Debye):
    X=              0.0000    Y=             -0.0000    Z=              0.0000  Tot=              0.0000
 Quadrupole moment (field-independent basis, Debye-Ang):
   XX=            -14.7827   YY=            -14.7827   ZZ=            -15.4925
   XY=             -0.0000   XZ=             -0.0000   YZ=             -0.0000

 Normal termination of Gaussian 16 at Mon Mar 21 20:09:05 2022.
