 Gaussian 16, Revision C.01,
 Gaussian 16:  EM64L-G16RevC.01  3-Jul-2019

 ----------------------------------------------------------------------
 #P TD(Nstates=10000) lc-whpbe/Gen SCF(maxcycles=100) Int(Grid=ultrafin
 e)
 ----------------------------------------------------------------------

 ---------------------
 xGDB7_00001_tier4.com
 ---------------------
 Symbolic Z-matrix:
 Charge =  0 Multiplicity = 1

                         Standard orientation:
 ---------------------------------------------------------------------
 Center     Atomic      Atomic             Coordinates (Angstroms)
 Number     Number       Type             X           Y           Z
 ---------------------------------------------------------------------
      1          6           0       -1.131573   -0.504386    0.000000
      2          6           0        0.000000    0.472223    0.000000
      3          6           0        1.284136    0.150792    0.000000
      4          1           0       -1.767446   -0.362776    0.877699
      5          1           0       -0.770122   -1.533458    0.000000
      6          1           0       -1.767446   -0.362776   -0.877699
      7          1           0       -0.276551    1.523465    0.000000
      8          1           0        1.608435   -0.884555    0.000000
      9          1           0        2.057749    0.908327    0.000000
 ---------------------------------------------------------------------

 SCF Done:  E(RLC-wHPBE) =  -117.746515308     A.U. after   13 cycles

 Excitation energies and oscillator strengths:

 Excited State   1:      Singlet-A'     7.7346 eV  160.30 nm  f=0.4269  <S**2>=0.000
      12 -> 14         0.69851
 This state for optimization and/or second-order correction.
 Total Energy, E(TD-HF/TD-DFT) =  -117.462274779
 Copying the excited state density for this state as the 1-particle RhoCI density.

 Excited State   2:      Singlet-A"     7.9306 eV  156.34 nm  f=0.0326  <S**2>=0.000
      12 -> 13         0.63514
      12 -> 15        -0.13316
      12 -> 16        -0.24545

 Excited State   3:      Singlet-A"     8.4280 eV  147.11 nm  f=0.0001  <S**2>=0.000
      11 -> 14         0.68448

 Excited State   4:      Singlet-A"     8.7491 eV  141.71 nm  f=0.0014  <S**2>=0.000
      11 -> 14        -0.11085
      12 -> 13         0.13550
      12 -> 15        -0.34544
      12 -> 16         0.55745
      12 -> 17         0.12409

 Excited State   5:      Singlet-A"     8.9969 eV  137.81 nm  f=0.0278  <S**2>=0.000
      12 -> 13         0.22111
      12 -> 15         0.57850
      12 -> 16         0.26690
      12 -> 17         0.10690
      12 -> 19         0.10207

 Excited State   6:      Singlet-A"     9.3968 eV  131.94 nm  f=0.0004  <S**2>=0.000
       7 -> 14         0.14165
       8 -> 14        -0.23503
      10 -> 14         0.63700

 Excited State   7:      Singlet-A"    10.0312 eV  123.60 nm  f=0.0023  <S**2>=0.000
      12 -> 16        -0.14447
      12 -> 17         0.63968
      12 -> 22        -0.18096

 Excited State   8:      Singlet-A"    10.3310 eV  120.01 nm  f=0.0643  <S**2>=0.000
      12 -> 19         0.66586

 Excited State   9:      Singlet-A'    10.3365 eV  119.95 nm  f=0.0067  <S**2>=0.000
      11 -> 13         0.62944
      11 -> 16        -0.22646

 Excited State  10:      Singlet-A'    10.5318 eV  117.72 nm  f=0.1085  <S**2>=0.000
      10 -> 13         0.10236
      12 -> 18         0.62621
      12 -> 21         0.19503
      12 -> 24         0.14322

 Excited State  11:      Singlet-A'    10.8230 eV  114.56 nm  f=0.0240  <S**2>=0.000
       8 -> 13         0.11486
      10 -> 13         0.56256
      10 -> 15         0.12748
      11 -> 15         0.32479

 Excited State  12:      Singlet-A"    10.8308 eV  114.47 nm  f=0.0009  <S**2>=0.000
       7 -> 14         0.12857
       8 -> 14         0.64013
      10 -> 14         0.21119

 Excited State  13:      Singlet-A"    11.0802 eV  111.90 nm  f=0.0021  <S**2>=0.000
      12 -> 20         0.63994
      12 -> 22        -0.21875

 Excited State  14:      Singlet-A'    11.1113 eV  111.58 nm  f=0.3281  <S**2>=0.000
      10 -> 13         0.14540
      10 -> 15         0.11951
      11 -> 13         0.14339
      11 -> 15        -0.28671
      11 -> 16         0.56306

 Excited State  15:      Singlet-A'    11.2191 eV  110.51 nm  f=0.0076  <S**2>=0.000
       8 -> 13         0.11526
      10 -> 13        -0.18034
      10 -> 15        -0.10081
      11 -> 13         0.14838
      11 -> 15         0.39141
      11 -> 16         0.21749
      12 -> 18        -0.11499
      12 -> 21         0.38333
      12 -> 24        -0.11119

 Excited State  16:      Singlet-A'    11.4029 eV  108.73 nm  f=0.0812  <S**2>=0.000
       8 -> 13        -0.14063
      10 -> 13         0.21306
      11 -> 13        -0.13013
      11 -> 15        -0.26754
      11 -> 16        -0.17978
      12 -> 18        -0.13019
      12 -> 21         0.49276

 Excited State  17:      Singlet-A"    11.4434 eV  108.35 nm  f=0.1089  <S**2>=0.000
       9 -> 13         0.10558
      12 -> 17         0.15644
      12 -> 20         0.15662
      12 -> 22         0.58035
      12 -> 23         0.19432

 Excited State  18:      Singlet-A"    11.8947 eV  104.23 nm  f=0.0028  <S**2>=0.000
       7 -> 14         0.15328
       9 -> 16         0.11980
      12 -> 20        -0.10584
      12 -> 22        -0.14968
      12 -> 23         0.61973

 Excited State  19:      Singlet-A'    11.8959 eV  104.22 nm  f=0.0467  <S**2>=0.000
       9 -> 14         0.61131
      10 -> 15         0.11062
      10 -> 16         0.19173
      12 -> 24         0.18743

 Excited State  20:      Singlet-A'    11.9162 eV  104.05 nm  f=0.0114  <S**2>=0.000
       8 -> 13         0.13319
       9 -> 14        -0.27181
      10 -> 15         0.13400
      10 -> 16         0.48070
      11 -> 17        -0.13125
      12 -> 18        -0.12322
      12 -> 21         0.13800
      12 -> 24         0.20759

 Excited State  21:      Singlet-A"    12.0854 eV  102.59 nm  f=0.0967  <S**2>=0.000
       9 -> 13         0.56836
       9 -> 15         0.29283
      10 -> 18        -0.10362
      12 -> 23        -0.10243
      12 -> 25        -0.13128

 Excited State  22:      Singlet-A'    12.1135 eV  102.35 nm  f=0.0685  <S**2>=0.000
      10 -> 15         0.28793
      10 -> 16        -0.38096
      12 -> 18        -0.10876
      12 -> 24         0.42485

 Excited State  23:      Singlet-A'    12.2300 eV  101.38 nm  f=0.0047  <S**2>=0.000
      10 -> 13        -0.15519
      10 -> 15         0.48339
      10 -> 17        -0.16593
      10 -> 19        -0.10777
      11 -> 17         0.14133
      11 -> 19        -0.10855
      12 -> 24        -0.31025

 Excited State  24:      Singlet-A"    12.2528 eV  101.19 nm  f=0.0001  <S**2>=0.000
       7 -> 14         0.62162
       9 -> 13        -0.12584
      10 -> 14        -0.16418
      12 -> 23        -0.12615

 Excited State  25:      Singlet-A'    12.4672 eV   99.45 nm  f=0.0574  <S**2>=0.000
       8 -> 15        -0.12492
      11 -> 17         0.57691
      11 -> 19        -0.16873
      12 -> 24         0.17571
      12 -> 26        -0.10365

 Excited State  26:      Singlet-A"    12.5731 eV   98.61 nm  f=0.0004  <S**2>=0.000
       8 -> 18         0.13415
      10 -> 18         0.13471
      11 -> 18         0.61218
      11 -> 21         0.18710

 Excited State  27:      Singlet-A'    12.7744 eV   97.06 nm  f=0.1746  <S**2>=0.000
       8 -> 15        -0.10671
       8 -> 16        -0.11134
      11 -> 17         0.13616
      11 -> 19         0.61463
      11 -> 20         0.10459

 Excited State  28:      Singlet-A"    12.7838 eV   96.99 nm  f=0.0702  <S**2>=0.000
       9 -> 13         0.15911
       9 -> 19         0.10027
       9 -> 20         0.11447
      10 -> 18         0.12990
      10 -> 21         0.13560
      12 -> 20        -0.10096
      12 -> 25         0.57773

 Excited State  29:      Singlet-A'    12.8182 eV   96.72 nm  f=0.0095  <S**2>=0.000
       8 -> 13         0.43106
       8 -> 15        -0.13710
      10 -> 16        -0.11736
      10 -> 17         0.39191
      10 -> 23         0.13042
      11 -> 15        -0.12854
      11 -> 17         0.14477
      11 -> 20        -0.10367

 Excited State  30:      Singlet-A'    12.9915 eV   95.43 nm  f=0.0258  <S**2>=0.000
       7 -> 15        -0.11945
       8 -> 13         0.34099
       8 -> 16         0.22398
      10 -> 17        -0.25151
      11 -> 15        -0.13302
      11 -> 20         0.39420

 Excited State  31:      Singlet-A"    13.0486 eV   95.02 nm  f=0.0468  <S**2>=0.000
       7 -> 18        -0.13185
      10 -> 18         0.61335
      11 -> 18        -0.10738
      11 -> 21        -0.13544
      12 -> 25        -0.16365

 Excited State  32:      Singlet-A'    13.1016 eV   94.63 nm  f=0.1403  <S**2>=0.000
       8 -> 13        -0.26233
       8 -> 15        -0.23619
       8 -> 16         0.29352
      10 -> 17         0.31575
      10 -> 19        -0.25725
      11 -> 20         0.24507

 Excited State  33:      Singlet-A"    13.3595 eV   92.81 nm  f=0.0001  <S**2>=0.000
       9 -> 16         0.13686
      10 -> 18         0.10130
      12 -> 27         0.58841
      12 -> 28        -0.26021

 Excited State  34:      Singlet-A"    13.3984 eV   92.54 nm  f=0.0010  <S**2>=0.000
       9 -> 16         0.57253
       9 -> 19        -0.10456
       9 -> 20         0.13277
      11 -> 21        -0.24850
      12 -> 27        -0.12057

 Excited State  35:      Singlet-A'    13.4503 eV   92.18 nm  f=0.0746  <S**2>=0.000
       7 -> 16         0.12133
       8 -> 16        -0.11295
       8 -> 17        -0.16574
      10 -> 17         0.12433
      10 -> 19         0.34584
      10 -> 23         0.10398
      11 -> 20         0.25282
      11 -> 22        -0.30063
      12 -> 24        -0.13637
      12 -> 26        -0.20777

 Excited State  36:      Singlet-A'    13.5281 eV   91.65 nm  f=0.1155  <S**2>=0.000
       8 -> 15        -0.18364
      10 -> 19         0.33759
      10 -> 20         0.10357
      11 -> 22         0.10680
      12 -> 21         0.11569
      12 -> 26         0.49880

 Excited State  37:      Singlet-A"    13.5298 eV   91.64 nm  f=0.1043  <S**2>=0.000
       9 -> 16         0.26057
      10 -> 21         0.15772
      11 -> 18        -0.16124
      11 -> 21         0.53375
      11 -> 24        -0.14793
      12 -> 25        -0.12337

 Excited State  38:      Singlet-A'    13.6492 eV   90.84 nm  f=0.1188  <S**2>=0.000
       8 -> 16        -0.18020
       8 -> 17        -0.12933
      10 -> 19        -0.26551
      10 -> 20        -0.27498
      11 -> 19        -0.10178
      11 -> 22        -0.32285
      12 -> 26         0.33724

 Excited State  39:      Singlet-A"    13.7446 eV   90.21 nm  f=0.0040  <S**2>=0.000
       9 -> 15         0.23733
       9 -> 17        -0.38650
       9 -> 23        -0.14981
      12 -> 27         0.22474
      12 -> 28         0.38950

 Excited State  40:      Singlet-A'    13.8402 eV   89.58 nm  f=0.0398  <S**2>=0.000
       8 -> 15        -0.22387
       8 -> 16        -0.28814
       9 -> 18         0.24002
      10 -> 17        -0.12554
      10 -> 20        -0.27452
      11 -> 20         0.11631
      11 -> 22         0.30104
      11 -> 23         0.11170

 Excited State  41:      Singlet-A"    13.8949 eV   89.23 nm  f=0.0023  <S**2>=0.000
       9 -> 19         0.13374
      10 -> 18        -0.11379
      10 -> 21         0.56367
      11 -> 21        -0.17978
      11 -> 24         0.12557
      12 -> 28        -0.14458

 Excited State  42:      Singlet-A'    13.9289 eV   89.01 nm  f=0.1751  <S**2>=0.000
       7 -> 13        -0.18395
       7 -> 16         0.15255
       8 -> 15         0.46479
       9 -> 18         0.11004
      10 -> 20        -0.11179
      11 -> 17         0.14814
      11 -> 20         0.21174
      11 -> 22         0.17897
      11 -> 23         0.10100

 Excited State  43:      Singlet-A"    13.9524 eV   88.86 nm  f=0.0022  <S**2>=0.000
       9 -> 13        -0.21996
       9 -> 15         0.37852
       9 -> 17        -0.21511
       9 -> 20        -0.10562
      12 -> 25         0.11984
      12 -> 27        -0.18785
      12 -> 28        -0.37779

 Excited State  44:      Singlet-A'    14.1100 eV   87.87 nm  f=0.0046  <S**2>=0.000
       7 -> 16         0.12869
       8 -> 16         0.38075
       9 -> 18         0.17523
      10 -> 16         0.11616
      10 -> 19         0.12573
      10 -> 20        -0.27977
      10 -> 23         0.10739
      11 -> 20        -0.25978
      11 -> 22        -0.14581
      11 -> 23         0.11253

 Excited State  45:      Singlet-A"    14.1552 eV   87.59 nm  f=0.0073  <S**2>=0.000
       8 -> 18        -0.22432
       9 -> 15         0.10633
      11 -> 21         0.13422
      11 -> 24         0.59800

 Excited State  46:      Singlet-A'    14.2676 eV   86.90 nm  f=0.0304  <S**2>=0.000
       7 -> 13         0.17673
       8 -> 17         0.14420
       8 -> 19         0.16799
      10 -> 20         0.14350
      10 -> 22         0.26071
      11 -> 22        -0.13254
      11 -> 23         0.47791
      12 -> 29        -0.10599

 Excited State  47:      Singlet-A'    14.3350 eV   86.49 nm  f=0.2505  <S**2>=0.000
       7 -> 16        -0.14946
       8 -> 17        -0.21258
       8 -> 22         0.11170
       9 -> 18         0.43481
      10 -> 20         0.24981
      10 -> 22        -0.25321
      10 -> 23        -0.11214
      12 -> 29        -0.12200

 Excited State  48:      Singlet-A'    14.4131 eV   86.02 nm  f=0.0006  <S**2>=0.000
       7 -> 13         0.52827
       7 -> 17         0.15381
       8 -> 15         0.13563
      10 -> 15         0.14025
      10 -> 17         0.10675
      10 -> 19         0.12206
      10 -> 20        -0.12428
      12 -> 29         0.11986

 Excited State  49:      Singlet-A"    14.4328 eV   85.90 nm  f=0.0378  <S**2>=0.000
       6 -> 14        -0.15258
       9 -> 13        -0.13556
       9 -> 15         0.27755
       9 -> 17         0.32099
       9 -> 19        -0.26416
       9 -> 20        -0.15151
       9 -> 23         0.12756
       9 -> 28         0.10474
      10 -> 21         0.24756
      11 -> 24        -0.10486
      12 -> 28         0.17276
      12 -> 30        -0.11894

 Excited State  50:      Singlet-A'    14.6657 eV   84.54 nm  f=0.1807  <S**2>=0.000
       7 -> 16         0.12698
       8 -> 17        -0.15911
       8 -> 19        -0.25094
       9 -> 18         0.13186
      10 -> 22         0.41247
      10 -> 25         0.14155
      11 -> 25         0.19229
      12 -> 29        -0.22282

 Excited State  51:      Singlet-A'    14.7532 eV   84.04 nm  f=0.0195  <S**2>=0.000
       7 -> 13        -0.13929
       7 -> 15         0.12638
       9 -> 18         0.18287
      10 -> 22         0.18210
      10 -> 23        -0.16122
      12 -> 29         0.54598

 Excited State  52:      Singlet-A'    14.7908 eV   83.83 nm  f=0.1054  <S**2>=0.000
       7 -> 15         0.12231
       7 -> 17         0.11187
       8 -> 17        -0.23023
       8 -> 19         0.27637
       8 -> 20         0.21709
       9 -> 21        -0.13444
      10 -> 20        -0.12444
      10 -> 23        -0.25398
      11 -> 22         0.15283
      11 -> 25        -0.24665
      12 -> 29        -0.14018

 Excited State  53:      Singlet-A'    14.8716 eV   83.37 nm  f=0.0262  <S**2>=0.000
       8 -> 17        -0.20981
       8 -> 19        -0.15017
       9 -> 18        -0.25333
      10 -> 22        -0.15830
      10 -> 23        -0.14821
      10 -> 25        -0.10568
      11 -> 23         0.32730
      11 -> 25         0.33596

 Excited State  54:      Singlet-A"    14.8939 eV   83.24 nm  f=0.0158  <S**2>=0.000
       7 -> 18        -0.13273
       8 -> 18         0.41561
       8 -> 21         0.28334
      10 -> 24        -0.31418
      11 -> 18        -0.11071
      11 -> 24         0.10761
      11 -> 29         0.13928

 Excited State  55:      Singlet-A"    14.9738 eV   82.80 nm  f=0.0006  <S**2>=0.000
       6 -> 14         0.36058
       9 -> 13        -0.11708
       9 -> 15         0.20167
       9 -> 17         0.18641
       9 -> 19         0.34251
       9 -> 20         0.11900
       9 -> 23         0.19317
       9 -> 25        -0.10329
      12 -> 30         0.12955

 Excited State  56:      Singlet-A'    15.0952 eV   82.13 nm  f=0.0464  <S**2>=0.000
       7 -> 13         0.17797
       7 -> 16         0.22634
       8 -> 17        -0.21559
       8 -> 19         0.28550
      10 -> 20         0.11086
      10 -> 23         0.30328
      10 -> 25        -0.11622
      11 -> 22         0.13636
      11 -> 25         0.16120
      12 -> 29         0.14892

 Excited State  57:      Singlet-A"    15.1127 eV   82.04 nm  f=0.0139  <S**2>=0.000
       6 -> 14        -0.12599
       8 -> 21        -0.10263
       9 -> 19        -0.13122
       9 -> 20         0.19247
       9 -> 22         0.18893
       9 -> 23        -0.12531
      10 -> 24        -0.10584
      12 -> 30         0.52709

 Excited State  58:      Singlet-A"    15.1583 eV   81.79 nm  f=0.0158  <S**2>=0.000
       6 -> 14         0.21985
       8 -> 21         0.36977
       9 -> 19        -0.24343
       9 -> 23        -0.11215
      10 -> 24         0.24701
      11 -> 26         0.28608
      12 -> 30         0.13020

 Excited State  59:      Singlet-A'    15.2874 eV   81.10 nm  f=0.0032  <S**2>=0.000
       7 -> 15        -0.27736
       7 -> 16         0.41086
       7 -> 17         0.12060
       9 -> 21         0.11941
      10 -> 20         0.17740
      10 -> 23        -0.22391
      10 -> 25        -0.16610

 Excited State  60:      Singlet-A'    15.3494 eV   80.77 nm  f=0.0284  <S**2>=0.000
       7 -> 15         0.40368
       8 -> 17         0.13935
       9 -> 21         0.36400
      11 -> 25         0.11732
      11 -> 27        -0.12530
      12 -> 31         0.16083

 Excited State  61:      Singlet-A"    15.4226 eV   80.39 nm  f=0.3353  <S**2>=0.000
       6 -> 14         0.36925
       8 -> 21        -0.10237
       9 -> 16        -0.10061
       9 -> 19        -0.21919
       9 -> 20         0.17997
       9 -> 22         0.15128
       9 -> 23        -0.13581
      10 -> 24        -0.25755
      11 -> 26        -0.10749
      12 -> 30        -0.23927
      12 -> 33         0.13408

 Excited State  62:      Singlet-A'    15.4322 eV   80.34 nm  f=0.0248  <S**2>=0.000
       7 -> 15        -0.30402
       7 -> 16        -0.13117
       8 -> 17        -0.17253
       9 -> 21         0.31054
      12 -> 31         0.41095

 Excited State  63:      Singlet-A"    15.5307 eV   79.83 nm  f=0.1281  <S**2>=0.000
       6 -> 14        -0.25202
       8 -> 21         0.10609
       9 -> 15         0.11408
       9 -> 16        -0.13342
       9 -> 20         0.42018
       9 -> 22         0.15696
      10 -> 24         0.18306
      12 -> 30        -0.24428
      12 -> 33         0.10300

 Excited State  64:      Singlet-A'    15.5350 eV   79.81 nm  f=0.0554  <S**2>=0.000
       8 -> 17         0.22958
       8 -> 19         0.12668
       9 -> 21        -0.34681
      10 -> 23        -0.13790
      11 -> 25         0.16408
      12 -> 31         0.40910

 Excited State  65:      Singlet-A'    15.5800 eV   79.58 nm  f=0.1002  <S**2>=0.000
       7 -> 16        -0.24902
       7 -> 20        -0.10105
       8 -> 19         0.27722
       8 -> 22        -0.11541
       9 -> 21         0.13220
      10 -> 20        -0.10387
      10 -> 22         0.12133
      10 -> 23        -0.17566
      10 -> 25        -0.14999
      11 -> 23        -0.16114
      11 -> 25         0.24822
      12 -> 31        -0.26497

 Excited State  66:      Singlet-A"    15.6583 eV   79.18 nm  f=0.0005  <S**2>=0.000
       8 -> 18         0.43683
       8 -> 21        -0.20811
      10 -> 24         0.35553
      11 -> 18        -0.13344
      11 -> 24         0.14509
      11 -> 26        -0.20646

 Excited State  67:      Singlet-A"    15.8009 eV   78.47 nm  f=0.0041  <S**2>=0.000
       9 -> 22         0.10247
      12 -> 28        -0.11417
      12 -> 32         0.60957
      12 -> 34        -0.20440

 Excited State  68:      Singlet-A'    15.9313 eV   77.82 nm  f=0.2461  <S**2>=0.000
       7 -> 15         0.12563
       8 -> 20        -0.28422
       8 -> 25        -0.11939
      10 -> 25        -0.24100
      11 -> 25        -0.27015
      11 -> 27         0.37541

 Excited State  69:      Singlet-A"    15.9807 eV   77.58 nm  f=0.0557  <S**2>=0.000
       7 -> 21         0.10926
       8 -> 21        -0.26064
       8 -> 24         0.24691
      10 -> 26        -0.13589
      11 -> 26         0.47920
      11 -> 29        -0.14062

 Excited State  70:      Singlet-A'    16.0460 eV   77.27 nm  f=0.0342  <S**2>=0.000
       7 -> 16         0.16598
       7 -> 19         0.11816
       8 -> 19         0.22736
       8 -> 20        -0.30732
       9 -> 18        -0.11895
       9 -> 21         0.12711
      10 -> 22        -0.10715
      10 -> 25         0.40971

 Excited State  71:      Singlet-A"    16.0720 eV   77.14 nm  f=0.0130  <S**2>=0.000
       9 -> 20        -0.12645
      12 -> 33         0.59475
      12 -> 34        -0.20874
      12 -> 36        -0.10901

 Excited State  72:      Singlet-A'    16.1744 eV   76.65 nm  f=0.2450  <S**2>=0.000
       6 -> 13         0.13087
       7 -> 17         0.30086
       7 -> 19        -0.17754
       8 -> 22        -0.25391
      11 -> 27         0.10172
      11 -> 28         0.36176

 Excited State  73:      Singlet-A"    16.2258 eV   76.41 nm  f=0.0588  <S**2>=0.000
       7 -> 18        -0.12554
       7 -> 21        -0.17248
       8 -> 24         0.28426
       9 -> 22        -0.23788
      10 -> 26         0.39015
      11 -> 29        -0.22915
      12 -> 32         0.12248
      12 -> 33         0.10364

 Excited State  74:      Singlet-A'    16.2691 eV   76.21 nm  f=0.0590  <S**2>=0.000
       7 -> 17        -0.12580

 The electronic state is 1-A'.
 Alpha  occ. eigenvalues --  -10.12421 -10.11529 -10.10818  -0.93068  -0.82317
 Alpha  occ. eigenvalues --   -0.68392  -0.59725  -0.54617  -0.53891  -0.48989
 Alpha  occ. eigenvalues --   -0.46053  -0.37403
 Alpha virt. eigenvalues --    0.09965   0.10295   0.12190   0.12877   0.18229
 Alpha virt. eigenvalues --    0.19329   0.20654   0.21582   0.23148   0.24343
 Alpha virt. eigenvalues --    0.24932   0.26391   0.28311   0.31031   0.32036

 Mulliken charges:
               1
     1  C    0.460275
     2  C   -0.452824
     3  C   -0.050005
     4  H    0.049985
     5  H    0.070647
     6  H    0.049985
     7  H   -0.152675
     8  H   -0.009024
     9  H    0.033635
 Sum of Mulliken charges =  -0.00000

 Dipole moment (field-independent basis, Debye):
    X=             -0.3899    Y=             -0.0431    Z=              0.0000  Tot=              0.3923
 Quadrupole moment (field-independent basis, Debye-Ang):
   XX=            -19.0419   YY=            -18.9808   ZZ=            -21.6200
   XY=             -0.2339   XZ=             -0.0000   YZ=             -0.0000

 Normal termination of Gaussian 16 at Mon Mar 21 20:18:25 2022.
