 Gaussian 16, Revision C.01,
 Gaussian 16:  EM64L-G16RevC.01  3-Jul-2019

 ----------------------------------------------------------------------
 #P TD(Nstates=10000) lc-whpbe/Gen SCF(maxcycles=100) Int(Grid=ultrafin
 e)
 ----------------------------------------------------------------------

 ---------------------
 xGDB7_00001_tier4.com
 ---------------------
 Symbolic Z-matrix:
 Charge =  0 Multiplicity = 1

                         Standard orientation:
 ---------------------------------------------------------------------
 Center     Atomic      Atomic             Coordinates (Angstroms)
 Number     Number       Type             X           Y           Z
 ---------------------------------------------------------------------
      1          6           0        0.000284   -0.018657   -1.236532
      2          6           0       -0.000055    0.003295    0.218717
      3          6           0       -0.000323    0.021367    1.415619
      4          1           0        0.273656    0.958689   -1.636635
      5          1           0       -0.987794   -0.279414   -1.618263
      6          1           0        0.715256   -0.752703   -1.610700
      7          1           0       -0.000556    0.037402    2.478776
 ---------------------------------------------------------------------

 SCF Done:  E(RLC-wHPBE) =  -116.485903168     A.U. after   13 cycles

 Excitation energies and oscillator strengths:

 Excited State   1:      Singlet-A      6.7805 eV  182.85 nm  f=0.0000  <S**2>=0.000
      10 -> 14        -0.32328
      10 -> 15         0.35162
      10 -> 18        -0.10309
      11 -> 14         0.35164
      11 -> 15         0.32327
      11 -> 17        -0.10310
 This state for optimization and/or second-order correction.
 Total Energy, E(TD-HF/TD-DFT) =  -116.236725314
 Copying the excited state density for this state as the 1-particle RhoCI density.

 Excited State   2:      Singlet-A      7.1354 eV  173.76 nm  f=0.0006  <S**2>=0.000
      10 -> 14        -0.25344
      10 -> 15         0.40803
      11 -> 14        -0.40802
      11 -> 15        -0.25342

 Excited State   3:      Singlet-A      7.1354 eV  173.76 nm  f=0.0006  <S**2>=0.000
      10 -> 14         0.40802
      10 -> 15         0.25344
      11 -> 14        -0.25342
      11 -> 15         0.40803

 Excited State   4:      Singlet-A      8.1158 eV  152.77 nm  f=0.0334  <S**2>=0.000
      11 -> 12         0.65785
      11 -> 13         0.12822
      11 -> 16         0.18690

 Excited State   5:      Singlet-A      8.1158 eV  152.77 nm  f=0.0334  <S**2>=0.000
      10 -> 12         0.65785
      10 -> 13         0.12822
      10 -> 16         0.18690

 Excited State   6:      Singlet-A      9.2813 eV  133.59 nm  f=0.0169  <S**2>=0.000
      11 -> 13         0.64009
      11 -> 16        -0.26310

 Excited State   7:      Singlet-A      9.2813 eV  133.58 nm  f=0.0169  <S**2>=0.000
      10 -> 13         0.64009
      10 -> 16        -0.26310

 Excited State   8:      Singlet-A      9.9825 eV  124.20 nm  f=0.0835  <S**2>=0.000
      11 -> 12        -0.20723
      11 -> 13         0.23400
      11 -> 16         0.58479
      11 -> 21         0.16114

 Excited State   9:      Singlet-A      9.9826 eV  124.20 nm  f=0.0835  <S**2>=0.000
      10 -> 12        -0.20723
      10 -> 13         0.23400
      10 -> 16         0.58478
      10 -> 21         0.16114

 Excited State  10:      Singlet-A     10.1885 eV  121.69 nm  f=1.1465  <S**2>=0.000
      10 -> 14        -0.35202
      10 -> 15        -0.32364
      11 -> 14        -0.32364
      11 -> 15         0.35202

 Excited State  11:      Singlet-A     11.2106 eV  110.60 nm  f=0.0000  <S**2>=0.000
      10 -> 18         0.36220
      10 -> 19        -0.23466
      10 -> 20        -0.15954
      11 -> 17         0.36224
      11 -> 19        -0.15957
      11 -> 20         0.23463

 Excited State  12:      Singlet-A     11.2493 eV  110.22 nm  f=0.0076  <S**2>=0.000
      10 -> 14        -0.10556
      10 -> 17        -0.21028
      10 -> 18         0.38752
      10 -> 20        -0.14944
      11 -> 15        -0.10554
      11 -> 17        -0.38746
      11 -> 18        -0.21033
      11 -> 19         0.14940

 Excited State  13:      Singlet-A     11.2493 eV  110.22 nm  f=0.0076  <S**2>=0.000
      10 -> 15         0.10554
      10 -> 17         0.38748
      10 -> 18         0.21026
      10 -> 19        -0.14939
      11 -> 14        -0.10556
      11 -> 17        -0.21035
      11 -> 18         0.38751
      11 -> 20        -0.14943

 Excited State  14:      Singlet-A     11.5113 eV  107.71 nm  f=0.2037  <S**2>=0.000
      10 -> 17         0.36111
      10 -> 19        -0.16381
      10 -> 20         0.24092
      10 -> 25        -0.10636
      11 -> 18        -0.36107
      11 -> 19         0.24094
      11 -> 20         0.16384
      11 -> 26         0.10635

 Excited State  15:      Singlet-A     11.6584 eV  106.35 nm  f=0.0000  <S**2>=0.000
      10 -> 18        -0.25862
      10 -> 19        -0.31231
      10 -> 20        -0.21238
      10 -> 23         0.13554
      11 -> 17        -0.25863
      11 -> 19        -0.21246
      11 -> 20         0.31247
      11 -> 22         0.13560

 Excited State  16:      Singlet-A     11.7044 eV  105.93 nm  f=0.0059  <S**2>=0.000
      10 -> 20         0.39970
      10 -> 21         0.25566
      10 -> 22         0.11093
      10 -> 23        -0.10186
      11 -> 19        -0.39961
      11 -> 22         0.10184
      11 -> 23         0.11094

 Excited State  17:      Singlet-A     11.7045 eV  105.93 nm  f=0.0059  <S**2>=0.000
      10 -> 19         0.39974
      10 -> 22        -0.10187
      10 -> 23        -0.11097
      11 -> 20         0.39959
      11 -> 21        -0.25563
      11 -> 22         0.11092
      11 -> 23        -0.10185

 Excited State  18:      Singlet-A     11.8397 eV  104.72 nm  f=0.0092  <S**2>=0.000
       9 -> 16         0.10299
      10 -> 19         0.17163
      11 -> 16        -0.13821
      11 -> 20         0.17194
      11 -> 21         0.59316

 Excited State  19:      Singlet-A     11.8397 eV  104.72 nm  f=0.0092  <S**2>=0.000
       8 -> 16         0.10298
      10 -> 16        -0.13820
      10 -> 20        -0.17160
      10 -> 21         0.59314
      11 -> 19         0.17199

 Excited State  20:      Singlet-A     11.8600 eV  104.54 nm  f=0.0047  <S**2>=0.000
      10 -> 17        -0.28912
      10 -> 19        -0.20989
      10 -> 20         0.30858
      11 -> 18         0.28911
      11 -> 19         0.30842
      11 -> 20         0.20965

 Excited State  21:      Singlet-A     12.3988 eV   100.00 nm  f=0.1245  <S**2>=0.000
       7 -> 14         0.10252
       9 -> 12         0.60704
       9 -> 13        -0.21782
      11 -> 24         0.14731

 Excited State  22:      Singlet-A     12.3989 eV   100.00 nm  f=0.1245  <S**2>=0.000
       7 -> 15         0.10256
       8 -> 12         0.60703
       8 -> 13        -0.21782
      10 -> 24         0.14733

 Excited State  23:      Singlet-A     12.5927 eV   98.46 nm  f=0.0000  <S**2>=0.000
       7 -> 14         0.56048
       7 -> 15        -0.19237
       9 -> 12        -0.15061
      10 -> 24         0.10573
      11 -> 24         0.19499

 Excited State  24:      Singlet-A     12.5927 eV   98.46 nm  f=0.0000  <S**2>=0.000
       7 -> 14         0.19250
       7 -> 15         0.56055
       8 -> 12        -0.15079
      10 -> 24         0.19512
      11 -> 24        -0.10571

 Excited State  25:      Singlet-A     12.5970 eV   98.42 nm  f=0.0000  <S**2>=0.000
       8 -> 14         0.12235
       9 -> 15        -0.12287
      10 -> 22         0.10727
      10 -> 23         0.43447
      11 -> 22         0.43674
      11 -> 23        -0.10663

 Excited State  26:      Singlet-A     12.6012 eV   98.39 nm  f=0.0267  <S**2>=0.000
      10 -> 20        -0.13371
      10 -> 22         0.36580
      10 -> 23        -0.23573
      11 -> 19         0.13353
      11 -> 22         0.23402
      11 -> 23         0.36622

 Excited State  27:      Singlet-A     12.6012 eV   98.39 nm  f=0.0267  <S**2>=0.000
      10 -> 19         0.13367
      10 -> 22         0.23502
      10 -> 23         0.36685
      11 -> 20         0.13339
      11 -> 22        -0.36506
      11 -> 23         0.23458

 Excited State  28:      Singlet-A     12.8653 eV   96.37 nm  f=0.0000  <S**2>=0.000
       8 -> 14        -0.37289
       8 -> 15         0.25043
       9 -> 14         0.25057
       9 -> 15         0.37302
      10 -> 18         0.11397
      10 -> 23         0.11591
      11 -> 17         0.11402
      11 -> 22         0.11597

 Excited State  29:      Singlet-A     12.9992 eV   95.38 nm  f=0.0027  <S**2>=0.000
       7 -> 14        -0.13215
       8 -> 15         0.26041
       9 -> 14        -0.26041
      10 -> 24         0.16801
      11 -> 24         0.47624

 Excited State  30:      Singlet-A     12.9992 eV   95.38 nm  f=0.0027  <S**2>=0.000
       7 -> 15        -0.13223
       8 -> 14         0.26046
       9 -> 15         0.26036
      10 -> 24         0.47622
      11 -> 24        -0.16799

 Excited State  31:      Singlet-A     13.0146 eV   95.27 nm  f=0.0167  <S**2>=0.000
       7 -> 12         0.62536
       7 -> 13        -0.13721
      10 -> 22        -0.13459
      11 -> 23         0.13453

 Excited State  32:      Singlet-A     13.1716 eV   94.13 nm  f=0.0244  <S**2>=0.000
       7 -> 15         0.23025
       8 -> 14         0.26880
       8 -> 15        -0.25246
       9 -> 14         0.25239
       9 -> 15         0.26871
      10 -> 24        -0.21637
      11 -> 24         0.23367

 Excited State  33:      Singlet-A     13.1716 eV   94.13 nm  f=0.0244  <S**2>=0.000
       7 -> 14        -0.23032
       8 -> 14        -0.25240
       8 -> 15        -0.26871
       9 -> 14         0.26875
       9 -> 15        -0.25244
      10 -> 24         0.23367
      11 -> 24         0.21634

 Excited State  34:      Singlet-A     13.4273 eV   92.34 nm  f=0.2681  <S**2>=0.000
       6 -> 13         0.17432
       7 -> 12         0.23759
      10 -> 22         0.39750
      11 -> 23        -0.39750

 Excited State  35:      Singlet-A     13.6872 eV   90.58 nm  f=0.0070  <S**2>=0.000
       7 -> 16        -0.11857
       8 -> 14         0.25652
       8 -> 15         0.38192
       9 -> 14         0.38184
       9 -> 15        -0.25648

 Excited State  36:      Singlet-A     14.0612 eV   88.17 nm  f=0.0000  <S**2>=0.000
       8 -> 19         0.10837
       8 -> 20         0.11923
       9 -> 19         0.11924
       9 -> 20        -0.10838
      10 -> 26         0.42841
      10 -> 28         0.11760
      11 -> 25         0.42843
      11 -> 29        -0.11763

 Excited State  37:      Singlet-A     14.1266 eV   87.77 nm  f=0.0007  <S**2>=0.000
       9 -> 12         0.11758
       9 -> 13         0.38231
       9 -> 16         0.51842
       9 -> 21        -0.16887
      11 -> 21        -0.10352

 Excited State  38:      Singlet-A     14.1267 eV   87.77 nm  f=0.0007  <S**2>=0.000
       8 -> 12         0.11758
       8 -> 13         0.38231
       8 -> 16         0.51842
       8 -> 21        -0.16887
      10 -> 21        -0.10352

 Excited State  39:      Singlet-A     14.1817 eV   87.43 nm  f=0.0363  <S**2>=0.000
      10 -> 25        -0.41600
      10 -> 29         0.13312
      11 -> 26         0.41602
      11 -> 28         0.13310

 Excited State  40:      Singlet-A     14.3751 eV   86.25 nm  f=0.1180  <S**2>=0.000
       6 -> 14         0.36428
      10 -> 25        -0.27713
      10 -> 26        -0.24203
      11 -> 25         0.24201
      11 -> 26        -0.27711

 Excited State  41:      Singlet-A     14.3751 eV   86.25 nm  f=0.1181  <S**2>=0.000
       6 -> 15         0.36427
      10 -> 25        -0.24202
      10 -> 26         0.27714
      11 -> 25        -0.27711
      11 -> 26        -0.24201

 Excited State  42:      Singlet-A     14.4880 eV   85.58 nm  f=0.0146  <S**2>=0.000
       6 -> 12         0.25249
       6 -> 13         0.11667
       7 -> 13         0.55429
       7 -> 16         0.17132
      10 -> 22        -0.11452
      11 -> 23         0.11452

 Excited State  43:      Singlet-A     14.8957 eV   83.24 nm  f=0.0945  <S**2>=0.000
       7 -> 17         0.13371
       8 -> 18        -0.41815
       9 -> 17         0.41849
      10 -> 29        -0.11913
      11 -> 28         0.11919

 Excited State  44:      Singlet-A     14.8957 eV   83.24 nm  f=0.0945  <S**2>=0.000
       7 -> 18        -0.13374
       8 -> 17         0.41829
       9 -> 18         0.41831
      10 -> 28         0.11915
      11 -> 29         0.11914

 Excited State  45:      Singlet-A     14.9321 eV   83.03 nm  f=0.2950  <S**2>=0.000
       6 -> 13        -0.23090
       7 -> 16         0.58537
       7 -> 24        -0.10202

 Excited State  46:      Singlet-A     15.0555 eV   82.35 nm  f=0.0000  <S**2>=0.000
       8 -> 18         0.43268
       9 -> 17         0.43242
      10 -> 28         0.17742
      10 -> 29         0.10309
      11 -> 28         0.10295
      11 -> 29        -0.17734

 Excited State  47:      Singlet-A     15.1178 eV   82.01 nm  f=0.0461  <S**2>=0.000
       6 -> 14         0.16756
       7 -> 18         0.12318
       8 -> 17         0.13787
       9 -> 13        -0.17754
       9 -> 18         0.13792
       9 -> 21        -0.14355
      10 -> 27         0.14819
      10 -> 28         0.10142
      11 -> 27         0.43425
      11 -> 29         0.10148
      11 -> 30         0.14980

 Excited State  48:      Singlet-A     15.1178 eV   82.01 nm  f=0.0461  <S**2>=0.000
       6 -> 15         0.16756
       7 -> 17        -0.12325
       8 -> 13        -0.17746
       8 -> 18        -0.13775
       8 -> 21        -0.14352
       9 -> 17         0.13781
      10 -> 27         0.43437
      10 -> 29        -0.10145
      10 -> 30         0.14982
      11 -> 27        -0.14822
      11 -> 28         0.10148

 Excited State  49:      Singlet-A     15.1878 eV   81.63 nm  f=0.0164  <S**2>=0.000
       6 -> 14        -0.17527
       6 -> 15         0.13166
       7 -> 18        -0.14037
       8 -> 17        -0.13155
       9 -> 12        -0.12705
       9 -> 13        -0.25341
       9 -> 16         0.11077
       9 -> 18        -0.13160
       9 -> 21        -0.11440
      10 -> 26        -0.17587
      10 -> 28         0.27358
      11 -> 25         0.17618
      11 -> 29         0.27394

 Excited State  50:      Singlet-A     15.1878 eV   81.63 nm  f=0.0163  <S**2>=0.000
       6 -> 14        -0.13165
       6 -> 15        -0.17528
       7 -> 17         0.14028
       8 -> 12        -0.12695
       8 -> 13        -0.25315
       8 -> 16         0.11060
       8 -> 18         0.13168
       8 -> 21        -0.11425
       9 -> 17        -0.13161
      10 -> 25        -0.17607
      10 -> 29        -0.27389
      11 -> 26        -0.17606
      11 -> 28         0.27392

 Excited State  51:      Singlet-A     15.1938 eV   81.60 nm  f=0.0000  <S**2>=0.000
       8 -> 18        -0.19118
       8 -> 19         0.21986
       8 -> 20         0.24184
       9 -> 17        -0.19102
       9 -> 19         0.24192
       9 -> 20        -0.21982
      10 -> 26        -0.18209
      10 -> 28         0.19594
      10 -> 29         0.11351
      11 -> 25        -0.18178
      11 -> 28         0.11389
      11 -> 29        -0.19561

 Excited State  52:      Singlet-A     15.2478 eV   81.31 nm  f=0.0949  <S**2>=0.000
       7 -> 18         0.26621
       9 -> 12         0.11884
       9 -> 13         0.29309
       9 -> 16        -0.17715
       9 -> 21         0.15353
       9 -> 24         0.12754
      10 -> 28         0.29218
      11 -> 29         0.29212

 Excited State  53:      Singlet-A     15.2479 eV   81.31 nm  f=0.0949  <S**2>=0.000
       7 -> 17        -0.26625
       8 -> 12         0.11895
       8 -> 13         0.29332
       8 -> 16        -0.17726
       8 -> 21         0.15368
       8 -> 24         0.12764
      10 -> 29        -0.29200
      11 -> 28         0.29189

 Excited State  54:      Singlet-A     15.3896 eV   80.56 nm  f=0.0000  <S**2>=0.000
       8 -> 18         0.11355
       8 -> 19         0.20856
       8 -> 20         0.22946
       9 -> 17         0.11346
       9 -> 19         0.22955
       9 -> 20        -0.20863
      10 -> 28        -0.29675
      10 -> 29        -0.17232
      11 -> 28        -0.17240
      11 -> 29         0.29679

 Excited State  55:      Singlet-A     15.4323 eV   80.34 nm  f=0.0101  <S**2>=0.000
       8 -> 17        -0.33077
       8 -> 19         0.22705
       8 -> 20        -0.20640
       9 -> 18         0.33110
       9 -> 19        -0.20663
       9 -> 20        -0.22738

 Excited State  56:      Singlet-A     15.4415 eV   80.29 nm  f=0.0837  <S**2>=0.000
       7 -> 18        -0.35752
       9 -> 13         0.24108
       9 -> 16        -0.19147
      11 -> 27         0.36535
      11 -> 30         0.11693

 Excited State  57:      Singlet-A     15.4416 eV   80.29 nm  f=0.0837  <S**2>=0.000
       7 -> 17         0.35754
       8 -> 13         0.24115
       8 -> 16        -0.19151
      10 -> 27         0.36526
      10 -> 30         0.11692

 Excited State  58:      Singlet-A     15.6674 eV   79.13 nm  f=0.0028  <S**2>=0.000
       6 -> 14        -0.18947
       6 -> 18        -0.12551
       7 -> 18         0.32154
       8 -> 19         0.28651
       8 -> 20        -0.14274
       9 -> 19         0.14277
       9 -> 20         0.28654
      10 -> 28        -0.13420
      11 -> 27         0.11607
      11 -> 29        -0.13419

 Excited State  59:      Singlet-A     15.6675 eV   79.13 nm  f=0.0028  <S**2>=0.000
       6 -> 15         0.18948
       6 -> 17        -0.12550
       7 -> 17         0.32151
       8 -> 19         0.14276
       8 -> 20         0.28657
       9 -> 19        -0.28647
       9 -> 20         0.14274
      10 -> 27        -0.11602
      10 -> 29        -0.13428
      11 -> 28         0.13422

 Excited State  60:      Singlet-A     15.8220 eV   78.36 nm  f=0.0717  <S**2>=0.000
       6 -> 12         0.41445
       6 -> 16         0.20464
       7 -> 13        -0.17281
       8 -> 17         0.20241
       8 -> 19         0.18748
       8 -> 20        -0.17037
       9 -> 18        -0.20237
       9 -> 19        -0.17040
       9 -> 20        -0.18743

 Excited State  61:      Singlet-A     15.8663 eV   78.14 nm  f=0.0065  <S**2>=0.000
       7 -> 13         0.10193
       7 -> 16        -0.14236
       8 -> 17         0.10799
       9 -> 18        -0.10797
      10 -> 25         0.13797
      10 -> 28        -0.19298
      10 -> 29         0.33226
      10 -> 32        -0.10681
      11 -> 26        -0.13797
      11 -> 28         0.33225
      11 -> 29         0.19296
      11 -> 31        -0.10681

 Excited State  62:      Singlet-A     16.0382 eV   77.31 nm  f=0.0009  <S**2>=0.000
       6 -> 12         0.36233
       6 -> 16         0.10959
       7 -> 13        -0.22662
       8 -> 17        -0.23121
       8 -> 19        -0.16903
       8 -> 20         0.15366
       9 -> 18         0.23117
       9 -> 19         0.15363
       9 -> 20         0.16906
      10 -> 29         0.10224
      11 -> 28         0.10224

 Excited State  63:      Singlet-A     16.1009 eV   77.00 nm  f=0.4374  <S**2>=0.000
       6 -> 14         0.25703
       6 -> 15        -0.17025
       7 -> 19         0.33039
       7 -> 20         0.36818
       8 -> 19         0.14963
       9 -> 20         0.14956
      11 -> 27        -0.13515

 Excited State  64:      Singlet-A     16.1009 eV   77.00 nm  f=0.4372  <S**2>=0.000
       6 -> 14        -0.17023
       6 -> 15        -0.25696
       7 -> 19         0.36831
       7 -> 20        -0.33045
       8 -> 20         0.14952
       9 -> 19        -0.14951
      10 -> 27         0.13510

 Excited State  65:      Singlet-A     16.2043 eV   76.51 nm  f=0.2119  <S**2>=0.000
       6 -> 15         0.17777
       7 -> 17         0.25290
       7 -> 19         0.35379
       7 -> 20        -0.19120
       8 -> 13        -0.11480
       8 -> 16         0.13769
       8 -> 19        -0.13388
       8 -> 20        -0.21614
       8 -> 21         0.10215
       9 -> 19         0.21613
       9 -> 20        -0.13389

 Excited State  66:      Singlet-A     16.2044 eV   76.51 nm  f=0.2117  <S**2>=0.000
       6 -> 14        -0.17768
       7 -> 18         0.25287
       7 -> 19         0.19131
       7 -> 20         0.35394
       8 -> 19        -0.21607
       8 -> 20         0.13387
       9 -> 13         0.11480
       9 -> 16        -0.13770
       9 -> 19        -0.13385
       9 -> 20        -0.21604
       9 -> 21        -0.10216

 Excited State  67:      Singlet-A     16.5257 eV   75.03 nm  f=0.0009  <S**2>=0.000
       6 -> 13         0.36223
       6 -> 16        -0.35170
       7 -> 12        -0.13003
       7 -> 13        -0.18032
       7 -> 16         0.17854
       7 -> 21        -0.21355
      10 -> 32        -0.12643
      11 -> 31        -0.12660

 Excited State  68:      Singlet-A     16.5429 eV   74.95 nm  f=0.0332  <S**2>=0.000
       9 -> 13        -0.12910
       9 -> 16         0.25380
       9 -> 21         0.37990
       9 -> 24         0.28223
      10 -> 32         0.21238
      11 -> 27         0.15142
      11 -> 30        -0.11044
      11 -> 31        -0.21228

 Excited State  69:      Singlet-A     16.5429 eV   74.95 nm  f=0.0331  <S**2>=0.000
       8 -> 13        -0.12911
       8 -> 16         0.25382
       8 -> 21         0.37987
       8 -> 24         0.28222
      10 -> 27         0.15139
      10 -> 30        -0.11037
      10 -> 31         0.21238
      11 -> 32         0.21241

 Excited State  70:      Singlet-A     16.6689 eV   74.38 nm  f=0.1753  <S**2>=0.000

 The electronic state is 1-A.
 Alpha  occ. eigenvalues --  -10.14201 -10.12491 -10.10907  -0.92348  -0.83703
 Alpha  occ. eigenvalues --   -0.65320  -0.57832  -0.56066  -0.56066  -0.38955
 Alpha  occ. eigenvalues --   -0.38955
 Alpha virt. eigenvalues --    0.08914   0.11986   0.13415   0.13415   0.15126
 Alpha virt. eigenvalues --    0.20190   0.20190   0.22778   0.22778   0.23889
 Alpha virt. eigenvalues --    0.27911   0.27911   0.30264   0.35381   0.35381

 Mulliken charges:
               1
     1  C    0.351928
     2  C    0.786488
     3  C   -1.075748
     4  H    0.003726
     5  H    0.003718
     6  H    0.003716
     7  H   -0.073828
 Sum of Mulliken charges =  -0.00000

 Dipole moment (field-independent basis, Debye):
    X=              0.0002    Y=             -0.0117    Z=             -0.7763  Tot=              0.7764
 Quadrupole moment (field-independent basis, Debye-Ang):
   XX=            -19.4273   YY=            -19.4259   ZZ=            -14.0013
   XY=             -0.0000   XZ=             -0.0012   YZ=              0.0819

 Normal termination of Gaussian 16 at Mon Mar 21 20:18:38 2022.
