 Gaussian 16, Revision C.01,
 Gaussian 16:  EM64L-G16RevC.01  3-Jul-2019

 ----------------------------------------------------------------------
 #P TD(Nstates=10000) lc-whpbe/Gen SCF(maxcycles=100) Int(Grid=ultrafin
 e)
 ----------------------------------------------------------------------

 ---------------------
 xGDB7_00001_tier4.com
 ---------------------
 Symbolic Z-matrix:
 Charge =  0 Multiplicity = 1

                         Standard orientation:
 ---------------------------------------------------------------------
 Center     Atomic      Atomic             Coordinates (Angstroms)
 Number     Number       Type             X           Y           Z
 ---------------------------------------------------------------------
      1          6           0       -0.026655   -0.220923    1.206915
      2          7           0       -0.026655    0.579675   -0.000000
      3          6           0       -0.026655   -0.220923   -1.206915
      4          1           0        0.028929    0.427196    2.082330
      5          1           0        0.800836   -0.947383    1.258571
      6          1           0       -0.961718   -0.783094    1.269367
      7          1           0        0.770359    1.199905   -0.000000
      8          1           0       -0.961718   -0.783094   -1.269367
      9          1           0        0.800836   -0.947383   -1.258571
     10          1           0        0.028929    0.427196   -2.082330
 ---------------------------------------------------------------------

 SCF Done:  E(RLC-wHPBE) =  -134.996929904     A.U. after   13 cycles

 Excitation energies and oscillator strengths:

 Excited State   1:      Singlet-A'     6.5453 eV  189.42 nm  f=0.0007  <S**2>=0.000
      13 -> 14         0.62042
      13 -> 16         0.30386
 This state for optimization and/or second-order correction.
 Total Energy, E(TD-HF/TD-DFT) =  -134.756394728
 Copying the excited state density for this state as the 1-particle RhoCI density.

 Excited State   2:      Singlet-A'     7.8208 eV  158.53 nm  f=0.0519  <S**2>=0.000
      13 -> 14        -0.28697
      13 -> 16         0.61719
      13 -> 18        -0.11370

 Excited State   3:      Singlet-A"     7.8926 eV  157.09 nm  f=0.0028  <S**2>=0.000
      13 -> 15         0.68636

 Excited State   4:      Singlet-A'     8.7172 eV  142.23 nm  f=0.0237  <S**2>=0.000
      13 -> 17         0.48233
      13 -> 18        -0.44438
      13 -> 20         0.19013

 Excited State   5:      Singlet-A'     8.8275 eV  140.45 nm  f=0.1013  <S**2>=0.000
      13 -> 14        -0.10465
      13 -> 17         0.45198
      13 -> 18         0.47777
      13 -> 22        -0.13490

 Excited State   6:      Singlet-A'     9.4249 eV  131.55 nm  f=0.0149  <S**2>=0.000
      13 -> 17        -0.20336
      13 -> 20         0.61767
      13 -> 22        -0.21444

 Excited State   7:      Singlet-A"     9.7127 eV  127.65 nm  f=0.0297  <S**2>=0.000
      13 -> 19         0.67387

 Excited State   8:      Singlet-A'     9.9427 eV  124.70 nm  f=0.0088  <S**2>=0.000
      13 -> 18         0.15193
      13 -> 20         0.20847
      13 -> 22         0.63059

 Excited State   9:      Singlet-A"    10.2846 eV  120.55 nm  f=0.0416  <S**2>=0.000
      12 -> 14        -0.18062
      13 -> 21         0.53444
      13 -> 23         0.36701

 Excited State  10:      Singlet-A"    10.5168 eV  117.89 nm  f=0.0595  <S**2>=0.000
      11 -> 15        -0.18867
      12 -> 14         0.56754
      12 -> 16         0.11168
      13 -> 23         0.30074

 Excited State  11:      Singlet-A'    10.5262 eV  117.79 nm  f=0.0358  <S**2>=0.000
      10 -> 15        -0.10462
      11 -> 14         0.61965
      11 -> 16         0.13612
      12 -> 15        -0.22171

 Excited State  12:      Singlet-A"    10.6400 eV  116.53 nm  f=0.0550  <S**2>=0.000
      12 -> 14        -0.22692
      13 -> 21        -0.42948
      13 -> 23         0.48058

 Excited State  13:      Singlet-A'    10.9021 eV  113.72 nm  f=0.0011  <S**2>=0.000
      13 -> 24         0.66189

 Excited State  14:      Singlet-A"    11.0056 eV  112.66 nm  f=0.0007  <S**2>=0.000
      10 -> 14         0.48539
      10 -> 18         0.11739
      11 -> 15        -0.22177
      13 -> 25        -0.32637
      13 -> 26        -0.16617

 Excited State  15:      Singlet-A"    11.1833 eV  110.87 nm  f=0.0371  <S**2>=0.000
      10 -> 14         0.31719
      11 -> 15        -0.12665
      12 -> 14        -0.10156
      13 -> 25         0.57493

 Excited State  16:      Singlet-A"    11.4901 eV  107.90 nm  f=0.0280  <S**2>=0.000
      11 -> 15        -0.17720
      13 -> 25        -0.10838
      13 -> 26         0.57699
      13 -> 29        -0.20246
      13 -> 33        -0.11645

 Excited State  17:      Singlet-A'    11.4945 eV  107.86 nm  f=0.1217  <S**2>=0.000
       8 -> 14         0.13042
      11 -> 16         0.42723
      11 -> 18         0.11183
      12 -> 15         0.47287
      13 -> 27        -0.11298

 Excited State  18:      Singlet-A"    11.6963 eV  106.00 nm  f=0.0079  <S**2>=0.000
       9 -> 14         0.15009
      10 -> 14         0.24020
      11 -> 15         0.33008
      12 -> 16         0.44904
      12 -> 18         0.17938
      13 -> 26         0.15072

 Excited State  19:      Singlet-A'    11.7552 eV  105.47 nm  f=0.1645  <S**2>=0.000
       8 -> 14        -0.20574
      10 -> 15         0.29316
      11 -> 14        -0.18108
      11 -> 16         0.43509
      12 -> 15        -0.31000

 Excited State  20:      Singlet-A"    12.0144 eV  103.20 nm  f=0.0053  <S**2>=0.000
       9 -> 14        -0.15204
      10 -> 14        -0.14288
      11 -> 15        -0.34676
      12 -> 14        -0.18878
      12 -> 16         0.47598
      12 -> 18        -0.12648

 Excited State  21:      Singlet-A'    12.2719 eV  101.03 nm  f=0.0013  <S**2>=0.000
      10 -> 15         0.13648
      11 -> 16        -0.10978
      11 -> 18         0.10974
      12 -> 15         0.18410
      13 -> 27         0.47593
      13 -> 28        -0.32893

 Excited State  22:      Singlet-A'    12.3320 eV  100.54 nm  f=0.0294  <S**2>=0.000
       8 -> 14        -0.17354
      10 -> 15         0.43768
      11 -> 14         0.11293
      11 -> 16        -0.21399
      11 -> 17        -0.16376
      11 -> 18         0.25667
      13 -> 27        -0.28057

 Excited State  23:      Singlet-A"    12.5183 eV   99.04 nm  f=0.0017  <S**2>=0.000
       9 -> 14        -0.21233
      10 -> 16         0.49509
      11 -> 19         0.17882
      12 -> 18         0.24447
      12 -> 20         0.10667
      13 -> 29        -0.11824

 Excited State  24:      Singlet-A"    12.5559 eV   98.75 nm  f=0.2567  <S**2>=0.000
       9 -> 14        -0.17363
      10 -> 16        -0.34644
      12 -> 18         0.49408

 Excited State  25:      Singlet-A'    12.5972 eV   98.42 nm  f=0.0429  <S**2>=0.000
      11 -> 17         0.53430
      12 -> 21         0.16734
      13 -> 27        -0.26036
      13 -> 28        -0.24425

 Excited State  26:      Singlet-A"    12.6103 eV   98.32 nm  f=0.0481  <S**2>=0.000
      10 -> 17         0.10070
      11 -> 19         0.10855
      11 -> 21         0.16010
      12 -> 17         0.63093

 Excited State  27:      Singlet-A'    12.7863 eV   96.97 nm  f=0.0840  <S**2>=0.000
      10 -> 15         0.26794
      11 -> 14         0.12669
      11 -> 17         0.29997
      11 -> 18        -0.18500
      11 -> 20         0.12953
      12 -> 15         0.12038
      13 -> 27         0.12133
      13 -> 28         0.40448

 Excited State  28:      Singlet-A'    12.8560 eV   96.44 nm  f=0.0823  <S**2>=0.000
       8 -> 14         0.10760
       9 -> 15        -0.19023
      11 -> 17         0.11004
      11 -> 18         0.51579
      12 -> 15        -0.10603
      13 -> 27         0.13166
      13 -> 28         0.27636

 Excited State  29:      Singlet-A"    12.9089 eV   96.05 nm  f=0.0272  <S**2>=0.000
       9 -> 14        -0.32696
       9 -> 16        -0.13654
      10 -> 17         0.10997
      10 -> 18         0.17966
      10 -> 20         0.24138
      11 -> 15         0.11036
      12 -> 17        -0.12414
      12 -> 18        -0.10817
      13 -> 26         0.15580
      13 -> 29         0.36527

 Excited State  30:      Singlet-A"    12.9705 eV   95.59 nm  f=0.1082  <S**2>=0.000
       9 -> 14         0.31800
      10 -> 16         0.15237
      10 -> 17         0.15611
      10 -> 18        -0.10474
      11 -> 15        -0.19377
      12 -> 18         0.21426
      12 -> 20        -0.25380
      13 -> 26         0.11618
      13 -> 29         0.28552

 Excited State  31:      Singlet-A'    13.2050 eV   93.89 nm  f=0.0447  <S**2>=0.000
       8 -> 14         0.38989
       8 -> 16         0.25654
       8 -> 18         0.12272
      10 -> 15         0.13010
      11 -> 22         0.14978
      12 -> 19        -0.24724
      13 -> 30        -0.18467
      13 -> 31        -0.15347
      13 -> 34        -0.11377

 Excited State  32:      Singlet-A'    13.2446 eV   93.61 nm  f=0.0025  <S**2>=0.000
       8 -> 14         0.17153
       9 -> 15        -0.10861
      11 -> 20         0.56438
      11 -> 22        -0.15042
      12 -> 15        -0.10106
      13 -> 27        -0.11148
      13 -> 30         0.11304

 Excited State  33:      Singlet-A"    13.2506 eV   93.57 nm  f=0.0150  <S**2>=0.000
       9 -> 14         0.17911
      10 -> 17         0.35066
      11 -> 19         0.16763
      11 -> 21         0.12669
      12 -> 17        -0.11154
      12 -> 18        -0.11220
      12 -> 20         0.38237
      12 -> 22        -0.25256

 Excited State  34:      Singlet-A"    13.3038 eV   93.19 nm  f=0.1377  <S**2>=0.000
       9 -> 14         0.10330
       9 -> 16         0.22079
      10 -> 14        -0.11658
      10 -> 16         0.10200
      10 -> 17        -0.15205
      10 -> 18         0.40599
      11 -> 15        -0.13611
      11 -> 19        -0.26315
      11 -> 25         0.11581
      12 -> 20         0.19550
      12 -> 22        -0.11521

 Excited State  35:      Singlet-A'    13.3519 eV   92.86 nm  f=0.1490  <S**2>=0.000
       8 -> 14         0.11220
      11 -> 20        -0.20714
      11 -> 22        -0.15007
      12 -> 23        -0.15974
      13 -> 28        -0.14519
      13 -> 30         0.54780

 Excited State  36:      Singlet-A"    13.3786 eV   92.67 nm  f=0.0001  <S**2>=0.000
       8 -> 15        -0.11268
      10 -> 17        -0.30293
      10 -> 18        -0.32997
      11 -> 21        -0.13980
      12 -> 20         0.33599
      13 -> 26         0.10789
      13 -> 29         0.24887

 Excited State  37:      Singlet-A"    13.5382 eV   91.58 nm  f=0.0300  <S**2>=0.000
       9 -> 14         0.24923
       9 -> 16        -0.29410
      10 -> 16        -0.14701
      10 -> 17        -0.28028
      10 -> 20         0.12749
      10 -> 22        -0.14321
      11 -> 15        -0.14181
      11 -> 19         0.29917
      11 -> 25         0.14241
      12 -> 22        -0.15826

 Excited State  38:      Singlet-A'    13.5783 eV   91.31 nm  f=0.0457  <S**2>=0.000
       8 -> 18        -0.10151
       9 -> 15        -0.12767
      10 -> 21        -0.13164
      11 -> 20         0.12706
      11 -> 22         0.45322
      12 -> 19        -0.19785
      12 -> 23         0.18021
      12 -> 25        -0.10303
      13 -> 30         0.25322

 Excited State  39:      Singlet-A"    13.6472 eV   90.85 nm  f=0.0302  <S**2>=0.000
       9 -> 16         0.10807
      10 -> 18         0.11787
      10 -> 20         0.36985
      10 -> 24        -0.10559
      11 -> 23         0.10149
      11 -> 26        -0.10365
      12 -> 20         0.21721
      12 -> 22         0.33521
      12 -> 24        -0.11112
      13 -> 29        -0.15442

 Excited State  40:      Singlet-A'    13.6538 eV   90.81 nm  f=0.0751  <S**2>=0.000
       8 -> 14         0.27343
       8 -> 16        -0.20268
       8 -> 18         0.16076
       9 -> 15        -0.15570
      10 -> 15         0.15896
      10 -> 19        -0.14802
      11 -> 22         0.16567
      12 -> 19         0.44007
      12 -> 21        -0.11485

 Excited State  41:      Singlet-A'    13.8364 eV   89.61 nm  f=0.0129  <S**2>=0.000
       7 -> 16         0.11748
       8 -> 16         0.11782
       8 -> 18        -0.13293
      10 -> 19         0.28867
      11 -> 20        -0.12506
      11 -> 24        -0.12801
      12 -> 23         0.22829
      13 -> 31         0.31485
      13 -> 32        -0.18205
      13 -> 34         0.20857

 Excited State  42:      Singlet-A"    13.9272 eV   89.02 nm  f=0.0392  <S**2>=0.000
       9 -> 16         0.25907
      10 -> 18        -0.18457
      10 -> 20         0.37641
      10 -> 22        -0.15480
      11 -> 21         0.19899
      11 -> 23        -0.16998
      12 -> 22        -0.26393
      12 -> 24         0.11419

 Excited State  43:      Singlet-A'    13.9288 eV   89.01 nm  f=0.0329  <S**2>=0.000
       8 -> 17        -0.21124
      10 -> 19        -0.20238
      11 -> 17        -0.13572
      11 -> 24         0.13464
      12 -> 21         0.53350

 Excited State  44:      Singlet-A'    14.0317 eV   88.36 nm  f=0.1243  <S**2>=0.000
       7 -> 16        -0.10984
      10 -> 19        -0.22733
      12 -> 19        -0.12844
      12 -> 21        -0.13315
      12 -> 23        -0.24054
      13 -> 30        -0.15993
      13 -> 31         0.41379
      13 -> 34         0.21402

 Excited State  45:      Singlet-A"    14.0435 eV   88.29 nm  f=0.0041  <S**2>=0.000
       9 -> 17        -0.35327
       9 -> 18        -0.11323
      10 -> 17        -0.19934
      11 -> 19         0.10269
      11 -> 21         0.40259
      11 -> 23         0.24235
      12 -> 17        -0.12172
      12 -> 22         0.12656

 Excited State  46:      Singlet-A'    14.1834 eV   87.41 nm  f=0.1708  <S**2>=0.000
       8 -> 14         0.10751
       9 -> 15         0.57555
      11 -> 14        -0.10560
      11 -> 18         0.16327
      11 -> 24        -0.10123

 Excited State  47:      Singlet-A"    14.1923 eV   87.36 nm  f=0.0048  <S**2>=0.000
       9 -> 14        -0.10555
       9 -> 16         0.28991
       9 -> 18         0.21698
      10 -> 20        -0.19361
      10 -> 22        -0.21505
      11 -> 19         0.27670
      11 -> 23        -0.27798
      12 -> 22         0.17242
      13 -> 29         0.10661

 Excited State  48:      Singlet-A'    14.3064 eV   86.66 nm  f=0.0419  <S**2>=0.000
       7 -> 14        -0.13516
       7 -> 18        -0.11764
       8 -> 14        -0.21361
       8 -> 16         0.27570
       8 -> 18         0.10082
       9 -> 19         0.11384
      10 -> 15        -0.15339
      10 -> 19         0.14581
      11 -> 18         0.12387
      11 -> 22         0.18401
      12 -> 19         0.24175
      12 -> 23        -0.26603
      12 -> 25        -0.12574
      13 -> 34        -0.11834

 Excited State  49:      Singlet-A"    14.3346 eV   86.49 nm  f=0.0565  <S**2>=0.000
       8 -> 15         0.17595
       9 -> 16         0.27520
      10 -> 17        -0.11611
      10 -> 22         0.36059
      11 -> 19         0.23696
      11 -> 21        -0.14237
      11 -> 23         0.14490
      11 -> 25        -0.13335
      12 -> 22        -0.26013

 Excited State  50:      Singlet-A"    14.5262 eV   85.35 nm  f=0.0038  <S**2>=0.000
       8 -> 15         0.25568
       9 -> 16        -0.21044
       9 -> 17        -0.11811
       9 -> 18         0.32794
      10 -> 22         0.13303
      11 -> 19        -0.11944
      11 -> 23        -0.14467
      11 -> 25        -0.17391
      12 -> 24         0.12131
      13 -> 29         0.14148
      13 -> 33        -0.28628

 Excited State  51:      Singlet-A'    14.5465 eV   85.23 nm  f=0.0334  <S**2>=0.000
       7 -> 14         0.49887
       7 -> 16         0.14938
       7 -> 18         0.14772
      10 -> 23         0.11193
      11 -> 22         0.14913
      12 -> 21         0.10786
      12 -> 23        -0.10888
      12 -> 25         0.14556
      13 -> 31         0.16420
      13 -> 34        -0.15149

 Excited State  52:      Singlet-A"    14.5771 eV   85.05 nm  f=0.0010  <S**2>=0.000
       9 -> 16        -0.12495
       9 -> 18         0.23347
      10 -> 24         0.11145
      11 -> 21         0.10199
      11 -> 23        -0.17955
      11 -> 25        -0.13679
      12 -> 24        -0.17734
      13 -> 29        -0.18021
      13 -> 33         0.44229

 Excited State  53:      Singlet-A'    14.6220 eV   84.79 nm  f=0.0594  <S**2>=0.000
       8 -> 16        -0.11761
       8 -> 20         0.13880
      10 -> 21         0.18966
      12 -> 19        -0.11594
      12 -> 25        -0.15674
      12 -> 26         0.12679
      13 -> 31         0.26650
      13 -> 32         0.38834
      13 -> 34        -0.20367

 Excited State  54:      Singlet-A'    14.6963 eV   84.36 nm  f=0.0732  <S**2>=0.000
       7 -> 14         0.13144
       8 -> 16        -0.20416
       8 -> 17         0.13523
       8 -> 18         0.13957
       8 -> 20         0.10995
      10 -> 21         0.34744
      11 -> 27        -0.10456
      12 -> 19        -0.10796
      12 -> 23        -0.11053
      12 -> 25        -0.16388
      13 -> 31        -0.19895
      13 -> 32        -0.17022
      13 -> 34         0.21647

 Excited State  55:      Singlet-A"    14.7008 eV   84.34 nm  f=0.0015  <S**2>=0.000
       8 -> 15        -0.35865
       8 -> 23         0.10329
       9 -> 18         0.12859
       9 -> 20        -0.14500
      10 -> 22         0.12021
      11 -> 26        -0.16956
      12 -> 24         0.42710

 Excited State  56:      Singlet-A'    14.7694 eV   83.95 nm  f=0.1470  <S**2>=0.000
       9 -> 15         0.11343
      10 -> 19         0.11319
      11 -> 22         0.11094
      12 -> 23        -0.13444
      12 -> 25         0.18031
      13 -> 32         0.42484
      13 -> 34         0.36141
      13 -> 40        -0.13243

 Excited State  57:      Singlet-A'    14.8564 eV   83.46 nm  f=0.1119  <S**2>=0.000
       7 -> 14         0.13652
       8 -> 16         0.26695
       8 -> 18         0.15165
       9 -> 23         0.11786
      10 -> 19        -0.13412
      11 -> 24         0.20289
      12 -> 21        -0.11319
      12 -> 23         0.23262
      12 -> 25        -0.25739
      13 -> 32         0.13567
      13 -> 34         0.20962

 Excited State  58:      Singlet-A"    14.8841 eV   83.30 nm  f=0.0158  <S**2>=0.000
       8 -> 15         0.39287
       9 -> 17         0.13507
       9 -> 22         0.12706
      10 -> 14         0.10064
      10 -> 18        -0.10784
      11 -> 25         0.16339
      12 -> 22         0.12993
      12 -> 24         0.30776
      13 -> 33         0.25959

 Excited State  59:      Singlet-A"    14.9808 eV   82.76 nm  f=0.0891  <S**2>=0.000
       9 -> 17         0.46053
       9 -> 18         0.19469
       9 -> 20         0.20638
      10 -> 17        -0.13006
      11 -> 21         0.28205
      11 -> 23         0.12406
      11 -> 25        -0.13517
      11 -> 26         0.12888

 Excited State  60:      Singlet-A'    14.9824 eV   82.75 nm  f=0.0190  <S**2>=0.000
       8 -> 16         0.30425
       8 -> 17         0.11238
       8 -> 22         0.13442
      10 -> 19        -0.28818
      10 -> 21         0.12695
      10 -> 23         0.12282
      11 -> 24        -0.29213
      12 -> 25         0.11982
      12 -> 26         0.24613

 Excited State  61:      Singlet-A"    15.1148 eV   82.03 nm  f=0.0858  <S**2>=0.000
       8 -> 19         0.14386
       9 -> 17        -0.15605
       9 -> 20         0.34924
       9 -> 22        -0.20698
      10 -> 22        -0.20086
      10 -> 24        -0.13134
      11 -> 21        -0.18097
      11 -> 25        -0.22664
      11 -> 26         0.16257
      12 -> 24         0.20126
      13 -> 33         0.15691

 Excited State  62:      Singlet-A"    15.1859 eV   81.64 nm  f=0.1271  <S**2>=0.000
       9 -> 18         0.16962
       9 -> 20        -0.29311
       9 -> 22        -0.17952
      10 -> 22        -0.33051
      10 -> 24         0.10276
      11 -> 23         0.34815
      11 -> 26        -0.15203
      12 -> 22        -0.10304

 Excited State  63:      Singlet-A'    15.1939 eV   81.60 nm  f=0.0891  <S**2>=0.000
       8 -> 17         0.11398
       8 -> 18        -0.17794
      10 -> 21         0.27796
      10 -> 25        -0.15103
      11 -> 24         0.36967
      13 -> 36        -0.12630
      13 -> 37         0.25634
      13 -> 38         0.13965

 Excited State  64:      Singlet-A'    15.2206 eV   81.46 nm  f=0.1350  <S**2>=0.000
       7 -> 14        -0.21263
       7 -> 16         0.14161
       8 -> 17         0.17040
       8 -> 18         0.21017
       8 -> 22         0.10130
       8 -> 24        -0.11855
      10 -> 23         0.33556
      12 -> 23         0.15300
      12 -> 25         0.21904
      12 -> 26        -0.15976
      13 -> 36         0.11190
      13 -> 38         0.12397

 Excited State  65:      Singlet-A'    15.3511 eV   80.77 nm  f=0.1224  <S**2>=0.000
       8 -> 17         0.35015
       8 -> 20         0.15460
      10 -> 21        -0.26763
      11 -> 24         0.13093
      11 -> 27         0.11771
      12 -> 21         0.10052
      12 -> 25        -0.10339
      12 -> 26         0.25893
      13 -> 36         0.22773
      13 -> 38         0.11450

 Excited State  66:      Singlet-A'    15.4524 eV   80.24 nm  f=0.0045  <S**2>=0.000
       7 -> 14        -0.10617
       8 -> 17        -0.20735
       8 -> 20         0.33290
       9 -> 19         0.10652
      10 -> 23         0.28214
      11 -> 24         0.14387
      11 -> 27         0.10864
      12 -> 26         0.18767
      13 -> 34         0.13811
      13 -> 36        -0.25303

 Excited State  67:      Singlet-A"    15.4645 eV   80.17 nm  f=0.2729  <S**2>=0.000
       7 -> 15         0.35535
       9 -> 20         0.24035

 The electronic state is 1-A'.
 Alpha  occ. eigenvalues --  -14.20011 -10.13271 -10.13269  -1.03692  -0.83865
 Alpha  occ. eigenvalues --   -0.75941  -0.61941  -0.57286  -0.56099  -0.50681
 Alpha  occ. eigenvalues --   -0.48248  -0.48004  -0.33658
 Alpha virt. eigenvalues --    0.09425   0.11956   0.14302   0.17487   0.18249
 Alpha virt. eigenvalues --    0.20601   0.20818   0.22084   0.22519   0.24888
 Alpha virt. eigenvalues --    0.25634   0.26926   0.28652   0.30300   0.33812

 Mulliken charges:
               1
     1  C    0.536467
     2  N   -0.725520
     3  C    0.536467
     4  H   -0.138729
     5  H    0.033027
     6  H   -0.047503
     7  H   -0.041006
     8  H   -0.047503
     9  H    0.033027
    10  H   -0.138729
 Sum of Mulliken charges =  -0.00000

 Dipole moment (field-independent basis, Debye):
    X=              0.9686    Y=             -0.4220    Z=             -0.0000  Tot=              1.0565
 Quadrupole moment (field-independent basis, Debye-Ang):
   XX=            -20.7931   YY=            -21.3318   ZZ=            -19.7567
   XY=              2.0922   XZ=              0.0000   YZ=             -0.0000

 Normal termination of Gaussian 16 at Mon Mar 21 04:13:06 2022.
