 Gaussian 16, Revision C.01,
 Gaussian 16:  EM64L-G16RevC.01  3-Jul-2019

 ----------------------------------------------------------------------
 #P TD(Nstates=10000) lc-whpbe/Gen SCF(maxcycles=100) Int(Grid=ultrafin
 e)
 ----------------------------------------------------------------------

 ---------------------
 xGDB7_00001_tier4.com
 ---------------------
 Symbolic Z-matrix:
 Charge =  0 Multiplicity = 1

                         Standard orientation:
 ---------------------------------------------------------------------
 Center     Atomic      Atomic             Coordinates (Angstroms)
 Number     Number       Type             X           Y           Z
 ---------------------------------------------------------------------
      1          9           0       -1.139724   -0.269725    0.000000
      2          6           0        0.000000    0.430281    0.000000
      3          6           0        1.180852   -0.148760    0.000000
      4          1           0       -0.180450    1.498331    0.000000
      5          1           0        1.283634   -1.225170    0.000000
      6          1           0        2.069222    0.465238    0.000000
 ---------------------------------------------------------------------

 SCF Done:  E(RLC-wHPBE) =  -177.594121850     A.U. after   14 cycles

 Excitation energies and oscillator strengths:

 Excited State   1:      Singlet-A'     7.8405 eV  158.13 nm  f=0.3404  <S**2>=0.000
      12 -> 13         0.69878
 This state for optimization and/or second-order correction.
 Total Energy, E(TD-HF/TD-DFT) =  -177.305987222
 Copying the excited state density for this state as the 1-particle RhoCI density.

 Excited State   2:      Singlet-A"     8.0371 eV  154.26 nm  f=0.0491  <S**2>=0.000
      12 -> 14         0.67182
      12 -> 21         0.10037

 Excited State   3:      Singlet-A"     8.7556 eV  141.61 nm  f=0.0106  <S**2>=0.000
      12 -> 14        -0.14305
      12 -> 15         0.59968
      12 -> 17        -0.25881
      12 -> 21         0.11759

 Excited State   4:      Singlet-A"     9.0547 eV  136.93 nm  f=0.0000  <S**2>=0.000
      11 -> 13         0.68696

 Excited State   5:      Singlet-A"     9.4385 eV  131.36 nm  f=0.0037  <S**2>=0.000
      12 -> 15        -0.26702
      12 -> 16         0.53885
      12 -> 17        -0.24884
      12 -> 18        -0.11378
      12 -> 20        -0.13310
      12 -> 21         0.14654

 Excited State   6:      Singlet-A"     9.9256 eV  124.91 nm  f=0.0010  <S**2>=0.000
      10 -> 13         0.48552
      12 -> 15         0.16870
      12 -> 16         0.21474
      12 -> 17         0.38975
      12 -> 18        -0.10515

 Excited State   7:      Singlet-A"    10.0934 eV  122.84 nm  f=0.0046  <S**2>=0.000
      10 -> 13         0.50153
      12 -> 15        -0.11594
      12 -> 16        -0.25127
      12 -> 17        -0.37994

 Excited State   8:      Singlet-A'    10.8682 eV  114.08 nm  f=0.0032  <S**2>=0.000
      11 -> 14         0.56670
      11 -> 15         0.30541
      11 -> 16         0.13629
      11 -> 21         0.11244
      12 -> 19        -0.13017

 Excited State   9:      Singlet-A"    10.8968 eV  113.78 nm  f=0.0283  <S**2>=0.000
      12 -> 16         0.13983
      12 -> 17         0.10004
      12 -> 18         0.61705
      12 -> 21         0.21444
      12 -> 23        -0.11793

 Excited State  10:      Singlet-A'    11.0948 eV  111.75 nm  f=0.0113  <S**2>=0.000
      11 -> 14         0.10284
      12 -> 19         0.66974

 Excited State  11:      Singlet-A"    11.3167 eV  109.56 nm  f=0.0951  <S**2>=0.000
       8 -> 13         0.14722
      12 -> 18        -0.20153
      12 -> 20         0.53932
      12 -> 21         0.35196

 Excited State  12:      Singlet-A'    11.8076 eV  105.00 nm  f=0.0743  <S**2>=0.000
      10 -> 14         0.51219
      10 -> 15        -0.21066
      11 -> 14        -0.23471
      11 -> 15         0.24576
      11 -> 16         0.19010
      11 -> 17        -0.10799

 Excited State  13:      Singlet-A"    12.0151 eV  103.19 nm  f=0.0164  <S**2>=0.000
      12 -> 16        -0.19929
      12 -> 17         0.16825
      12 -> 18        -0.10745
      12 -> 20        -0.33665
      12 -> 21         0.48938

 Excited State  14:      Singlet-A'    12.0443 eV  102.94 nm  f=0.0313  <S**2>=0.000
      11 -> 15        -0.17732
      11 -> 16         0.31525
      12 -> 22         0.55369
      12 -> 24        -0.10680

 Excited State  15:      Singlet-A'    12.1730 eV  101.85 nm  f=0.1961  <S**2>=0.000
      10 -> 14        -0.23166
      11 -> 14        -0.16888
      11 -> 15         0.46650
      11 -> 16        -0.24677
      12 -> 22         0.28893

 Excited State  16:      Singlet-A"    12.2500 eV  101.21 nm  f=0.0490  <S**2>=0.000
       8 -> 13         0.66180
      12 -> 20        -0.16622

 Excited State  17:      Singlet-A'    12.3786 eV  100.16 nm  f=0.1666  <S**2>=0.000
       9 -> 13        -0.11363
      10 -> 14        -0.25115
      10 -> 15         0.23362
      11 -> 14        -0.23179
      11 -> 16         0.37212
      11 -> 17        -0.25532
      11 -> 21         0.10885
      12 -> 22        -0.21677

 Excited State  18:      Singlet-A'    12.6268 eV   98.19 nm  f=0.0397  <S**2>=0.000
       9 -> 13         0.65710

 Excited State  19:      Singlet-A"    12.7468 eV   97.27 nm  f=0.0001  <S**2>=0.000
      12 -> 18         0.12016
      12 -> 23         0.66158

 Excited State  20:      Singlet-A'    12.8290 eV   96.64 nm  f=0.1549  <S**2>=0.000
      10 -> 14         0.25093
      10 -> 15         0.56698
      10 -> 17        -0.11519
      10 -> 20        -0.10292
      11 -> 16        -0.10704
      11 -> 17         0.10813
      11 -> 20         0.10572

 Excited State  21:      Singlet-A'    13.3180 eV   93.10 nm  f=0.0950  <S**2>=0.000
       8 -> 14         0.18276
      11 -> 15         0.17085
      11 -> 16         0.27387
      11 -> 17         0.50515
      11 -> 20         0.12766
      11 -> 21        -0.11302
      11 -> 27         0.12484

 Excited State  22:      Singlet-A"    13.5108 eV   91.77 nm  f=0.0004  <S**2>=0.000
       9 -> 14         0.23083
       9 -> 15         0.12194
       9 -> 16         0.10242
      11 -> 19         0.61496

 Excited State  23:      Singlet-A'    13.5428 eV   91.55 nm  f=0.0383  <S**2>=0.000
      10 -> 14         0.10042
      10 -> 15         0.10427
      10 -> 16         0.13996
      10 -> 17         0.32699
      12 -> 24         0.51862
      12 -> 26        -0.13002

 Excited State  24:      Singlet-A"    13.5614 eV   91.42 nm  f=0.0629  <S**2>=0.000
       9 -> 14         0.48497
       9 -> 15         0.26745
       9 -> 16         0.20185
       9 -> 21         0.10212
      11 -> 19        -0.29786

 Excited State  25:      Singlet-A"    13.6812 eV   90.62 nm  f=0.0250  <S**2>=0.000
       7 -> 13         0.68097
       9 -> 14        -0.10732

 Excited State  26:      Singlet-A'    13.7265 eV   90.32 nm  f=0.1412  <S**2>=0.000
      10 -> 16         0.45625
      10 -> 17        -0.33021
      10 -> 18        -0.19506
      10 -> 20        -0.10528
      11 -> 18         0.25823
      11 -> 20         0.10431

 Excited State  27:      Singlet-A"    13.9691 eV   88.76 nm  f=0.0153  <S**2>=0.000
      12 -> 25         0.53383
      12 -> 27        -0.39701

 Excited State  28:      Singlet-A'    13.9779 eV   88.70 nm  f=0.0586  <S**2>=0.000
       8 -> 16         0.11572
      10 -> 17         0.29888
      11 -> 17        -0.17303
      11 -> 18         0.29243
      11 -> 20         0.37857
      11 -> 21         0.10969
      12 -> 24        -0.28523

 Excited State  29:      Singlet-A'    14.0921 eV   87.98 nm  f=0.0459  <S**2>=0.000
       8 -> 15        -0.21721
      10 -> 15         0.10461
      10 -> 16        -0.26456
      11 -> 18         0.48885
      11 -> 20        -0.23868

 Excited State  30:      Singlet-A"    14.3152 eV   86.61 nm  f=0.0147  <S**2>=0.000
       9 -> 14         0.10214
       9 -> 17         0.13911
      12 -> 21         0.11460
      12 -> 25         0.40077
      12 -> 27         0.48614
      12 -> 28         0.10637

 Excited State  31:      Singlet-A'    14.3633 eV   86.32 nm  f=0.0613  <S**2>=0.000
       8 -> 14        -0.11657
       8 -> 15         0.12098
      10 -> 16        -0.20702
      10 -> 17        -0.23778
      10 -> 20         0.22202
      11 -> 17        -0.12858
      11 -> 20         0.35240
      11 -> 21        -0.23760
      12 -> 24         0.22317
      12 -> 26         0.15077

 Excited State  32:      Singlet-A'    14.5577 eV   85.17 nm  f=0.0250  <S**2>=0.000
       8 -> 14         0.56871
      10 -> 16        -0.13921
      10 -> 17        -0.20535
      11 -> 15        -0.11656
      12 -> 26        -0.19054

 Excited State  33:      Singlet-A'    14.7153 eV   84.26 nm  f=0.0869  <S**2>=0.000
       8 -> 16        -0.11252
      10 -> 16        -0.16218
      10 -> 18        -0.20754
      11 -> 17         0.16119
      11 -> 20         0.22041
      11 -> 21         0.52241
      12 -> 24         0.13649

 Excited State  34:      Singlet-A'    14.7838 eV   83.86 nm  f=0.0024  <S**2>=0.000
       8 -> 14         0.17979
      10 -> 16         0.14455
      10 -> 18         0.14551
      11 -> 16        -0.10053
      11 -> 21         0.13755
      12 -> 24         0.10369
      12 -> 26         0.57918

 Excited State  35:      Singlet-A"    14.8548 eV   83.46 nm  f=0.0070  <S**2>=0.000
       9 -> 16        -0.12503
      10 -> 19         0.46089
      10 -> 22         0.16888
      11 -> 22        -0.43406

 Excited State  36:      Singlet-A"    14.9286 eV   83.05 nm  f=0.0075  <S**2>=0.000
       9 -> 14        -0.21374
       9 -> 15         0.51403
       9 -> 16        -0.25096
       9 -> 17        -0.23596
       9 -> 18        -0.15628

 Excited State  37:      Singlet-A'    14.9686 eV   82.83 nm  f=0.1875  <S**2>=0.000
       8 -> 14        -0.11955
      10 -> 17        -0.13147
      10 -> 18         0.51426
      10 -> 21         0.13886
      11 -> 20         0.11408
      11 -> 21         0.15180
      12 -> 26        -0.20563

 Excited State  38:      Singlet-A"    15.0825 eV   82.20 nm  f=0.0004  <S**2>=0.000
       9 -> 14        -0.29397
       9 -> 16         0.47399
       9 -> 17        -0.25320
       9 -> 27        -0.12496
      10 -> 19         0.15399
      12 -> 27         0.17263

 Excited State  39:      Singlet-A'    15.1714 eV   81.72 nm  f=0.0443  <S**2>=0.000
       7 -> 14        -0.11015
       8 -> 14        -0.11313
       8 -> 15         0.49500
       8 -> 17        -0.18404
      10 -> 20         0.20347
      10 -> 21         0.16796
      11 -> 18         0.10343
      11 -> 20        -0.14566
      11 -> 21         0.12707
      12 -> 26        -0.10212

 Excited State  40:      Singlet-A"    15.2567 eV   81.27 nm  f=0.0000  <S**2>=0.000
      10 -> 19         0.37754
      10 -> 22         0.11065
      10 -> 24         0.14785
      11 -> 22         0.49696
      11 -> 24        -0.14059
      11 -> 26         0.11280

 Excited State  41:      Singlet-A'    15.3086 eV   80.99 nm  f=0.0971  <S**2>=0.000
       7 -> 14        -0.22188
       7 -> 15        -0.13851
       8 -> 15        -0.28064
       8 -> 17         0.11426
      10 -> 16         0.10125
      10 -> 20         0.45019
      10 -> 21         0.21515
      12 -> 24        -0.10056

 Excited State  42:      Singlet-A'    15.6416 eV   79.27 nm  f=0.0283  <S**2>=0.000
       8 -> 16        -0.11094
       8 -> 18         0.18654
       9 -> 19         0.20355
      10 -> 21        -0.12244
      11 -> 23         0.57767

 Excited State  43:      Singlet-A"    15.7575 eV   78.68 nm  f=0.0171  <S**2>=0.000
       9 -> 17         0.15898
       9 -> 20         0.11022
       9 -> 21        -0.10446
      12 -> 27        -0.14243
      12 -> 28         0.54575
      12 -> 29         0.27416

 Excited State  44:      Singlet-A"    15.8512 eV   78.22 nm  f=0.0878  <S**2>=0.000
       6 -> 13        -0.16665
       8 -> 19        -0.11163
      10 -> 19        -0.15177
      10 -> 22         0.59681
      10 -> 24        -0.14872

 Excited State  45:      Singlet-A'    15.8744 eV   78.10 nm  f=0.1432  <S**2>=0.000
       7 -> 14         0.10025
       8 -> 15         0.19463
       8 -> 16        -0.31845
       8 -> 17         0.41352
      10 -> 18         0.11773
      11 -> 23        -0.14211
      11 -> 27         0.13908

 Excited State  46:      Singlet-A'    15.9681 eV   77.64 nm  f=0.0054  <S**2>=0.000
       7 -> 14         0.52197
       7 -> 15         0.14336
       8 -> 17        -0.17478
      10 -> 18        -0.13222
      10 -> 20         0.18490
      10 -> 21         0.20438

 Excited State  47:      Singlet-A'    16.0365 eV   77.31 nm  f=0.0370  <S**2>=0.000
       6 -> 14        -0.13497
       7 -> 16         0.14387
       8 -> 16         0.44505
       8 -> 17         0.29072
       9 -> 19         0.24542
      10 -> 18        -0.11971
      10 -> 21         0.15530
      11 -> 27         0.10254

 Excited State  48:      Singlet-A"    16.0773 eV   77.12 nm  f=0.0195  <S**2>=0.000
       6 -> 13        -0.26754
       9 -> 14        -0.10727
       9 -> 15         0.23276
       9 -> 16         0.25982
       9 -> 17         0.32179
       9 -> 18         0.14258
       9 -> 20         0.26395
       9 -> 21        -0.10952
       9 -> 27         0.12600
      12 -> 28        -0.20468

 Excited State  49:      Singlet-A'    16.2985 eV   76.07 nm  f=0.0478  <S**2>=0.000
       7 -> 14        -0.10959
       7 -> 16        -0.12972
       8 -> 16        -0.14025
       8 -> 17        -0.11861
       9 -> 19         0.53243
      11 -> 23        -0.20567
      12 -> 32         0.14498

 Excited State  50:      Singlet-A'    16.3652 eV   75.76 nm  f=0.0381  <S**2>=0.000
       7 -> 14        -0.18360
       7 -> 16         0.23308
       7 -> 17        -0.11445
       8 -> 16        -0.10697
       8 -> 17        -0.10793
      10 -> 20        -0.19616
      10 -> 21         0.37665
      10 -> 23         0.11360
      12 -> 32        -0.31687

 Excited State  51:      Singlet-A"    16.4275 eV   75.47 nm  f=0.0029  <S**2>=0.000
       6 -> 13         0.38553
       9 -> 15         0.11227
       9 -> 17         0.22073
       9 -> 18        -0.14897
       9 -> 21        -0.10710
       9 -> 23        -0.10534
      11 -> 24         0.11799
      12 -> 29        -0.31072
      12 -> 30         0.25629

 Excited State  52:      Singlet-A"    16.5032 eV   75.13 nm  f=0.1346  <S**2>=0.000
       6 -> 13         0.26938
       9 -> 17         0.11085
       9 -> 18         0.11942
       9 -> 20        -0.15360
      10 -> 22         0.10656
      12 -> 28        -0.28249
      12 -> 29         0.48610

 Excited State  53:      Singlet-A"    16.5626 eV   74.86 nm  f=0.0086  <S**2>=0.000
       8 -> 19        -0.30449
       8 -> 24        -0.12637
      10 -> 19         0.17603
      10 -> 22        -0.11488
      10 -> 24        -0.13733
      11 -> 24         0.48916
      11 -> 26        -0.13049
      12 -> 30        -0.11022

 Excited State  54:      Singlet-A'    16.6239 eV   74.58 nm  f=0.0258  <S**2>=0.000
       7 -> 16         0.11821
       8 -> 16        -0.11220
       8 -> 20         0.10677
       9 -> 19        -0.14572
      10 -> 21         0.18183
      11 -> 25        -0.13120
      12 -> 32         0.58136

 Excited State  55:      Singlet-A'    16.6861 eV   74.30 nm  f=0.1737  <S**2>=0.000
       7 -> 14        -0.15610
       7 -> 15         0.38494
       7 -> 17        -0.15009
       7 -> 18        -0.18798
       8 -> 17        -0.12294
      10 -> 20         0.12608
      10 -> 21        -0.14576
      10 -> 23         0.34997

 Excited State  56:      Singlet-A"    16.7118 eV   74.19 nm  f=0.0302  <S**2>=0.000
       6 -> 13        -0.17482
       9 -> 17        -0.12634
      12 -> 29         0.10037
      12 -> 30         0.60129
      12 -> 31        -0.15760

 Excited State  57:      Singlet-A"    16.9033 eV   73.35 nm  f=0.0041  <S**2>=0.000
       9 -> 15         0.10782
       9 -> 16        -0.10661
       9 -> 18         0.50313
       9 -> 21         0.25730
       9 -> 23         0.19720
      12 -> 28         0.10948
      12 -> 29        -0.19834
      12 -> 31         0.15570

 Excited State  58:      Singlet-A'    16.9161 eV   73.29 nm  f=0.1907  <S**2>=0.000
       7 -> 15        -0.16953
       7 -> 16         0.20416
       7 -> 20        -0.12513
       8 -> 18         0.26139
       8 -> 20        -0.18439
      10 -> 18         0.12649
      10 -> 23         0.33693
      10 -> 27         0.10106
      11 -> 25         0.23361
      11 -> 27        -0.18969

 Excited State  59:      Singlet-A'    17.0039 eV   72.92 nm  f=0.1564  <S**2>=0.000
       7 -> 15        -0.21999
       7 -> 16         0.37727
       8 -> 17        -0.14843
       8 -> 20         0.15314
       9 -> 19         0.15125
      10 -> 16         0.13264
      10 -> 21        -0.26162
      10 -> 23        -0.15610
      11 -> 25        -0.16894

 Excited State  60:      Singlet-A"    17.0089 eV   72.89 nm  f=0.1690  <S**2>=0.000
       6 -> 13         0.21613
       8 -> 19        -0.12096
       9 -> 17        -0.20410
       9 -> 18         0.10836
       9 -> 20         0.44469
       9 -> 21        -0.14237
      10 -> 24         0.27530

 Excited State  61:      Singlet-A"    17.0331 eV   72.79 nm  f=0.0455  <S**2>=0.000
       6 -> 13        -0.15986
       7 -> 19         0.18903
       8 -> 19        -0.11196
       9 -> 17         0.11255
       9 -> 20        -0.24528
       9 -> 21         0.10426
      10 -> 19        -0.10191
      10 -> 24         0.49764
      10 -> 26        -0.15394
      11 -> 24         0.13632

 Excited State  62:      Singlet-A'    17.1125 eV   72.45 nm  f=0.0053  <S**2>=0.000
       7 -> 14         0.10066
       7 -> 15        -0.23317
       7 -> 16        -0.24541
       7 -> 17         0.13043
       8 -> 18         0.20269
       8 -> 20         0.11567
       8 -> 21         0.15991
      10 -> 23         0.25923
      11 -> 23        -0.11653
      11 -> 25        -0.24811
      11 -> 27         0.23182

 Excited State  63:      Singlet-A'    17.2178 eV   72.01 nm  f=0.0074  <S**2>=0.000
       7 -> 14        -0.10071
       7 -> 15         0.26598
       8 -> 17         0.10085
       8 -> 18         0.42866
       8 -> 20         0.16172
       8 -> 21         0.19869
      10 -> 23        -0.19854
      11 -> 23        -0.14093
      11 -> 27        -0.15850

 Excited State  64:      Singlet-A"    17.2800 eV   71.75 nm  f=0.0064  <S**2>=0.000
       9 -> 21        -0.10700
      12 -> 30         0.11198
      12 -> 31         0.62933
      12 -> 33         0.17806

 Excited State  65:      Singlet-A"    17.4230 eV   71.16 nm  f=0.0087  <S**2>=0.000
       8 -> 22         0.31812
       9 -> 21        -0.11325
      11 -> 24         0.19332
      11 -> 26         0.53751

 Excited State  66:      Singlet-A'    17.4398 eV   71.09 nm  f=0.0162  <S**2>=0.000
       6 -> 14         0.12681
       6 -> 15         0.13766
       7 -> 15         0.10825
       8 -> 18         0.18324
       8 -> 20        -0.33544
      10 -> 23        -0.13841
      11 -> 17        -0.11767
      11 -> 25         0.10558
      11 -> 27         0.41324

 Excited State  67:      Singlet-A"    17.4473 eV   71.06 nm  f=0.0239  <S**2>=0.000
       9 -> 17         0.12318
       9 -> 18        -0.23650
       9 -> 20         0.25801
       9 -> 21         0.48746
      12 -> 33        -0.21042

 Excited State  68:      Singlet-A"    17.4606 eV   71.01 nm  f=0.0078  <S**2>=0.000
       6 -> 19        -0.11765
       8 -> 19         0.54855
      11 -> 22         0.12963
      11 -> 24         0.31541
      11 -> 26        -0.16392

 Excited State  69:      Singlet-A'    17.7718 eV   69.76 nm  f=0.0333  <S**2>=0.000
       6 -> 14        -0.31739
       6 -> 15        -0.15129
       8 -> 20         0.17775
       8 -> 21         0.19479
      11 -> 25         0.43508
      11 -> 27         0.15407

 Excited State  70:      Singlet-A'    17.8931 eV   69.29 nm  f=0.0084  <S**2>=0.000
       7 -> 15        -0.12685
       7 -> 17        -0.12774
       7 -> 20         0.20390
      10 -> 20        -0.15283
      10 -> 25         0.56741

 Excited State  71:      Singlet-A"    17.9947 eV   68.90 nm  f=0.0726  <S**2>=0.000
       6 -> 13         0.11494
       9 -> 17         0.10807
       9 -> 21         0.17370
      12 -> 31        -0.12655
      12 -> 33         0.60427

 Excited State  72:      Singlet-A'    18.0060 eV   68.86 nm  f=0.0189  <S**2>=0.000
       6 -> 14        -0.25214
       7 -> 15         0.10747
       7 -> 16         0.15639
       7 -> 17         0.36902
       8 -> 16        -0.11392
       8 -> 20        -0.19966
       8 -> 21        -0.10265
       9 -> 22        -0.14972
      10 -> 27        -0.20373
      11 -> 25        -0.20047
      12 -> 34         0.12389

 Excited State  73:      Singlet-A'    18.1159 eV   68.44 nm  f=0.0033  <S**2>=0.000
       6 -> 14        -0.30590
       6 -> 15        -0.14290
       7 -> 16        -0.12860
       7 -> 17        -0.11197
       8 -> 18         0.10430
       8 -> 20        -0.16586
       8 -> 21        -0.15909
       9 -> 22         0.31303
      10 -> 27         0.22023
      11 -> 28         0.14023
      12 -> 34         0.12714

 Excited State  74:      Singlet-A'    18.2447 eV   67.96 nm  f=0.0307  <S**2>=0.000
       6 -> 14        -0.10751
       6 -> 16         0.11530
       8 -> 16        -0.15179
       8 -> 18        -0.13211
       8 -> 20        -0.24453
       8 -> 21         0.41461
       9 -> 22         0.10791
      11 -> 25        -0.12121

 The electronic state is 1-A'.
 Alpha  occ. eigenvalues --  -24.50458 -10.21156 -10.12551  -1.33718  -0.91529
 Alpha  occ. eigenvalues --   -0.74480  -0.66816  -0.61683  -0.59866  -0.53572
 Alpha  occ. eigenvalues --   -0.49989  -0.39085
 Alpha virt. eigenvalues --    0.09413   0.09684   0.11499   0.16726   0.18290
 Alpha virt. eigenvalues --    0.20053   0.20646   0.22884   0.24903   0.26135
 Alpha virt. eigenvalues --    0.26579   0.31020   0.32543   0.34195   0.35149

 Mulliken charges:
               1
     1  F   -0.414847
     2  C    0.540055
     3  C   -0.013253
     4  H   -0.079277
     5  H   -0.056906
     6  H    0.024229
 Sum of Mulliken charges =  -0.00000

 Dipole moment (field-independent basis, Debye):
    X=              1.2183    Y=              0.7939    Z=              0.0000  Tot=              1.4542
 Quadrupole moment (field-independent basis, Debye-Ang):
   XX=            -17.6658   YY=            -15.5647   ZZ=            -18.9677
   XY=             -0.8817   XZ=              0.0000   YZ=              0.0000

 Normal termination of Gaussian 16 at Mon Mar 21 20:07:27 2022.
