 Gaussian 16, Revision C.01,
 Gaussian 16:  EM64L-G16RevC.01  3-Jul-2019

 ----------------------------------------------------------------------
 #P TD(Nstates=10000) lc-whpbe/Gen SCF(maxcycles=100) Int(Grid=ultrafin
 e)
 ----------------------------------------------------------------------

 ---------------------
 xGDB7_00001_tier4.com
 ---------------------
 Symbolic Z-matrix:
 Charge =  0 Multiplicity = 1

                         Standard orientation:
 ---------------------------------------------------------------------
 Center     Atomic      Atomic             Coordinates (Angstroms)
 Number     Number       Type             X           Y           Z
 ---------------------------------------------------------------------
      1          6           0       -0.000001    0.000006    0.000000
      2          1           0       -0.991926    0.448073    0.033817
      3          1           0        0.066172   -0.671147   -0.854975
      4          1           0        0.176250   -0.561167    0.916416
      5          1           0        0.749514    0.784204   -0.095260
 ---------------------------------------------------------------------

 SCF Done:  E(RLC-wHPBE) =  -40.4650916660     A.U. after    9 cycles

 Excitation energies and oscillator strengths:

 Excited State   1:      Singlet-A     11.0684 eV  112.02 nm  f=0.1571  <S**2>=0.000
       5 ->  6         0.69576
 This state for optimization and/or second-order correction.
 Total Energy, E(TD-HF/TD-DFT) =  -40.0583340532
 Copying the excited state density for this state as the 1-particle RhoCI density.

 Excited State   2:      Singlet-A     11.0686 eV  112.01 nm  f=0.1571  <S**2>=0.000
       4 ->  6         0.69565

 Excited State   3:      Singlet-A     11.0686 eV  112.01 nm  f=0.1571  <S**2>=0.000
       3 ->  6         0.69566

 Excited State   4:      Singlet-A     13.4785 eV   91.99 nm  f=0.0000  <S**2>=0.000
       4 ->  8         0.11432
       4 ->  9         0.36398
       4 -> 10         0.21240
       4 -> 11        -0.19289
       5 ->  7        -0.18191
       5 ->  8        -0.33199
       5 ->  9         0.12999
       5 -> 12         0.28552

 Excited State   5:      Singlet-A     13.4785 eV   91.99 nm  f=0.0000  <S**2>=0.000
       3 ->  8         0.13613
       3 ->  9         0.36312
       3 -> 10         0.20667
       3 -> 11        -0.19655
       5 ->  7         0.34739
       5 ->  8        -0.18595
       5 -> 10         0.20029
       5 -> 11         0.20490

 Excited State   6:      Singlet-A     13.4786 eV   91.99 nm  f=0.0000  <S**2>=0.000
       3 ->  7         0.13941
       3 ->  8         0.33439
       3 ->  9        -0.14645
       3 -> 12        -0.28666
       4 ->  7         0.36523
       4 ->  8        -0.15581
       4 -> 10         0.19385
       4 -> 11         0.21428

 Excited State   7:      Singlet-A     13.4829 eV   91.96 nm  f=0.1231  <S**2>=0.000
       3 ->  7         0.17161
       3 -> 14         0.10112
       4 ->  9         0.42996
       5 ->  7         0.14799
       5 ->  8         0.45701
       5 ->  9         0.11593

 Excited State   8:      Singlet-A     13.4829 eV   91.96 nm  f=0.1231  <S**2>=0.000
       3 ->  7         0.42370
       3 ->  8        -0.11928
       4 ->  9        -0.22513
       4 -> 13        -0.11701
       5 ->  7        -0.11135
       5 ->  9         0.44557

 Excited State   9:      Singlet-A     13.4829 eV   91.96 nm  f=0.1231  <S**2>=0.000
       3 ->  7         0.14399
       3 ->  8         0.44792
       3 ->  9        -0.11722
       4 ->  7        -0.44069
       4 ->  8         0.17921
       5 -> 14        -0.11639

 Excited State  10:      Singlet-A     13.6899 eV   90.57 nm  f=0.0000  <S**2>=0.000
       3 ->  9         0.37565
       3 -> 10         0.17492
       3 -> 11        -0.17012
       4 ->  8         0.12231
       5 ->  7        -0.36266
       5 ->  8         0.12792
       5 ->  9        -0.15041
       5 -> 10        -0.23678
       5 -> 11        -0.10816

 Excited State  11:      Singlet-A     13.6899 eV   90.57 nm  f=0.0000  <S**2>=0.000
       3 ->  7         0.22339
       3 ->  8        -0.12109
       3 ->  9        -0.12546
       3 -> 11         0.17117
       4 ->  7         0.15531
       4 ->  8         0.41723
       4 -> 12        -0.28549
       5 ->  7         0.11696
       5 ->  9        -0.20628
       5 -> 11         0.14582

 Excited State  12:      Singlet-A     13.9789 eV   88.69 nm  f=0.0000  <S**2>=0.000
       3 -> 14        -0.12032
       4 ->  9        -0.26317
       4 -> 10         0.26343
       4 -> 11        -0.26801
       5 ->  7         0.10709
       5 ->  8         0.24033
       5 -> 12         0.37517
       5 -> 13         0.18821

 Excited State  13:      Singlet-A     13.9789 eV   88.69 nm  f=0.0000  <S**2>=0.000
       3 ->  9        -0.26074
       3 -> 10         0.27066
       3 -> 11        -0.25763
       4 -> 14        -0.21541
       5 ->  7        -0.25576
       5 ->  8         0.11336
       5 -> 10         0.26278
       5 -> 11         0.27205

 Excited State  14:      Singlet-A     13.9789 eV   88.69 nm  f=0.0000  <S**2>=0.000
       3 ->  7         0.10018
       3 ->  8         0.24165
       3 -> 12         0.37497
       3 -> 13        -0.18518
       4 ->  7         0.25844
       4 ->  8        -0.10427
       4 -> 10        -0.26955
       4 -> 11        -0.26374

 Excited State  15:      Singlet-A     14.0042 eV   88.53 nm  f=0.0000  <S**2>=0.000
       3 ->  9         0.23865
       3 -> 10        -0.28197
       3 -> 11         0.27593
       4 -> 12         0.14797
       5 ->  7        -0.22867
       5 -> 10         0.37996
       5 -> 11         0.17434

 Excited State  16:      Singlet-A     14.0043 eV   88.53 nm  f=0.0000  <S**2>=0.000
       3 ->  7         0.14108
       3 -> 11        -0.27437
       4 ->  8         0.26411
       4 -> 12         0.46017
       5 ->  9        -0.13076
       5 -> 11        -0.23353

 Excited State  17:      Singlet-A     14.0377 eV   88.32 nm  f=0.0000  <S**2>=0.000
       3 ->  7         0.22085
       3 -> 10         0.22712
       3 -> 11         0.23676
       4 ->  8        -0.20847
       4 -> 12         0.32720
       5 ->  9        -0.22581
       5 -> 10        -0.23649
       5 -> 11         0.22593

 Excited State  18:      Singlet-A     14.8684 eV   83.39 nm  f=0.0329  <S**2>=0.000
       3 -> 13        -0.13698
       3 -> 14        -0.30801
       4 -> 10        -0.27937
       4 -> 11         0.29122
       5 -> 12         0.40489
       5 -> 13        -0.17465

 Excited State  19:      Singlet-A     14.8684 eV   83.39 nm  f=0.0329  <S**2>=0.000
       3 -> 10        -0.33387
       3 -> 11        -0.23265
       4 -> 13         0.36448
       4 -> 14        -0.12123
       5 -> 10        -0.23111
       5 -> 11         0.33013

 Excited State  20:      Singlet-A     14.8684 eV   83.39 nm  f=0.0329  <S**2>=0.000
       3 -> 12         0.40688
       3 -> 13         0.18574
       4 -> 10         0.29439
       4 -> 11         0.27900
       5 -> 14         0.32511

 Excited State  21:      Singlet-A     15.0940 eV   82.14 nm  f=0.0000  <S**2>=0.000
       3 -> 13        -0.14129
       3 -> 14        -0.28777
       4 -> 11         0.12304
       5 -> 12        -0.13774
       5 -> 13         0.56488

 Excited State  22:      Singlet-A     15.0941 eV   82.14 nm  f=0.0000  <S**2>=0.000
       3 -> 13        -0.20536
       3 -> 14         0.11054
       4 -> 13         0.19098
       4 -> 14         0.55467
       5 -> 14         0.18621

 Excited State  23:      Singlet-A     15.0941 eV   82.14 nm  f=0.0000  <S**2>=0.000
       3 -> 12         0.12790
       3 -> 13         0.46835
       3 -> 14        -0.24242
       4 -> 10        -0.11689
       4 -> 14         0.28204
       5 -> 14        -0.25930

 Excited State  24:      Singlet-A     15.4038 eV   80.49 nm  f=0.7328  <S**2>=0.000
       3 -> 12        -0.27612
       3 -> 13         0.26346
       4 -> 10        -0.19271
       4 -> 11        -0.19575
       5 -> 13         0.10670
       5 -> 14         0.47514

 Excited State  25:      Singlet-A     15.4038 eV   80.49 nm  f=0.7328  <S**2>=0.000
       3 -> 10         0.22344
       3 -> 11         0.15564
       4 -> 13         0.51813
       4 -> 14        -0.17527
       5 -> 10         0.14984
       5 -> 11        -0.21952

 Excited State  26:      Singlet-A     15.4038 eV   80.49 nm  f=0.7328  <S**2>=0.000
       3 -> 13         0.20310
       3 -> 14         0.43858
       4 -> 10        -0.18976
       4 -> 11         0.18614
       4 -> 13        -0.11426
       5 -> 12         0.26976
       5 -> 13         0.24600

 Excited State  27:      Singlet-A     15.4184 eV   80.41 nm  f=0.0000  <S**2>=0.000
       3 ->  7        -0.30040
       3 ->  8         0.12480
       3 -> 10         0.16416
       3 -> 11         0.17097
       4 ->  7         0.11765
       4 ->  8         0.28372
       4 ->  9        -0.10710
       4 -> 12         0.23612
       5 ->  9         0.30713
       5 -> 10        -0.17089
       5 -> 11         0.16311

 Excited State  28:      Singlet-A     18.1856 eV   68.18 nm  f=0.1001  <S**2>=0.000
       5 -> 15         0.69720

 Excited State  29:      Singlet-A     18.1858 eV   68.18 nm  f=0.1001  <S**2>=0.000
       4 -> 15         0.69638

 Excited State  30:      Singlet-A     18.1858 eV   68.18 nm  f=0.1001  <S**2>=0.000
       3 -> 15         0.69653

 Excited State  31:      Singlet-A     19.5435 eV   63.44 nm  f=0.0946  <S**2>=0.000
       4 -> 20        -0.10735
       5 -> 16         0.67011
       5 -> 22         0.10791

 Excited State  32:      Singlet-A     19.5437 eV   63.44 nm  f=0.0946  <S**2>=0.000
       3 -> 21         0.10618
       4 -> 16         0.66945
       5 -> 20        -0.10586

 Excited State  33:      Singlet-A     19.5437 eV   63.44 nm  f=0.0946  <S**2>=0.000
       3 -> 16         0.66964
       3 -> 22        -0.11546
       4 -> 21         0.10546

 Excited State  34:      Singlet-A     19.8241 eV   62.54 nm  f=0.0000  <S**2>=0.000
       2 ->  6         0.65072
       3 -> 21         0.12911
       4 -> 22        -0.13080
       5 -> 20         0.13916

 Excited State  35:      Singlet-A     19.8413 eV   62.49 nm  f=0.0000  <S**2>=0.000
       2 -> 13        -0.10117
       3 -> 17         0.44015
       4 -> 18        -0.15624
       4 -> 22        -0.13150
       5 -> 17        -0.11592
       5 -> 19         0.45428

 Excited State  36:      Singlet-A     19.8413 eV   62.49 nm  f=0.0000  <S**2>=0.000
       2 -> 14         0.10118
       3 -> 17         0.17345
       3 -> 19         0.26690
       3 -> 20         0.11743
       4 -> 18         0.51791
       5 -> 17         0.25006
       5 -> 19         0.11336

 Excited State  37:      Singlet-A     19.8985 eV   62.31 nm  f=0.0075  <S**2>=0.000
       4 -> 17         0.48274
       5 -> 18         0.48492

 Excited State  38:      Singlet-A     19.8985 eV   62.31 nm  f=0.0075  <S**2>=0.000
       3 -> 17        -0.48358
       5 -> 19         0.48557

 Excited State  39:      Singlet-A     19.8986 eV   62.31 nm  f=0.0074  <S**2>=0.000
       3 -> 18         0.48406
       4 -> 19         0.48563

 Excited State  40:      Singlet-A     20.1039 eV   61.67 nm  f=0.0000  <S**2>=0.000
       3 -> 22         0.16905
       4 -> 17        -0.45176
       4 -> 21         0.16000
       5 -> 18         0.45470

 Excited State  41:      Singlet-A     20.1039 eV   61.67 nm  f=0.0000  <S**2>=0.000
       3 -> 19        -0.44929
       3 -> 20        -0.18221
       5 -> 17         0.45076
       5 -> 21         0.17307

 Excited State  42:      Singlet-A     20.1040 eV   61.67 nm  f=0.0000  <S**2>=0.000
       3 -> 18         0.45087
       4 -> 19        -0.44954
       4 -> 20         0.17481
       5 -> 22         0.17269

 Excited State  43:      Singlet-A     20.2867 eV   61.12 nm  f=0.0000  <S**2>=0.000
       3 -> 20         0.40959
       3 -> 21         0.11697
       4 -> 18        -0.15458
       4 -> 22        -0.13123
       5 -> 20        -0.23303
       5 -> 21         0.33734
       5 -> 22        -0.21997

 Excited State  44:      Singlet-A     20.2867 eV   61.12 nm  f=0.0000  <S**2>=0.000
       3 -> 17         0.13129
       3 -> 21         0.29571
       4 -> 20        -0.16005
       4 -> 21         0.15284
       4 -> 22         0.45849
       5 -> 19         0.13561
       5 -> 20         0.17290
       5 -> 21         0.20824

 Excited State  45:      Singlet-A     20.3125 eV   61.04 nm  f=0.0000  <S**2>=0.000
       3 -> 19         0.40128
       4 -> 18        -0.40015
       5 -> 17         0.39978

 Excited State  46:      Singlet-A     20.3468 eV   60.94 nm  f=0.0000  <S**2>=0.000
       3 -> 18        -0.18462
       4 -> 19         0.18741
       4 -> 20         0.43785
       5 -> 21         0.16046
       5 -> 22         0.41355

 Excited State  47:      Singlet-A     20.3468 eV   60.94 nm  f=0.0000  <S**2>=0.000
       3 -> 19        -0.18802
       3 -> 20         0.43682
       3 -> 21         0.10347
       5 -> 17         0.18655
       5 -> 21        -0.40753
       5 -> 22         0.17303

 Excited State  48:      Singlet-A     20.3469 eV   60.94 nm  f=0.0000  <S**2>=0.000
       3 -> 21         0.16776
       3 -> 22         0.41033
       4 -> 17         0.18683
       4 -> 21         0.40718
       4 -> 22        -0.17985
       5 -> 18        -0.18529

 Excited State  49:      Singlet-A     20.7937 eV   59.63 nm  f=0.1332  <S**2>=0.000
       3 -> 27        -0.11040
       4 -> 20         0.39962
       4 -> 21         0.14516
       4 -> 22         0.11982
       5 -> 16         0.17558
       5 -> 20         0.25702
       5 -> 22        -0.38470

 Excited State  50:      Singlet-A     20.7938 eV   59.63 nm  f=0.1332  <S**2>=0.000
       3 -> 20        -0.16218
       3 -> 21         0.37665
       3 -> 22        -0.18964
       4 -> 16        -0.17789
       4 -> 20         0.13490
       4 -> 26        -0.12961
       5 -> 20        -0.36369
       5 -> 21        -0.22906
       5 -> 22        -0.13504

 Excited State  51:      Singlet-A     20.7939 eV   59.63 nm  f=0.1332  <S**2>=0.000
       3 -> 16         0.17656
       3 -> 20        -0.12464
       3 -> 21         0.15135
       3 -> 22         0.41928
       4 -> 21        -0.41133
       4 -> 22         0.18477
       5 -> 27        -0.12038

 Excited State  52:      Singlet-A     20.9631 eV   59.14 nm  f=0.0000  <S**2>=0.000
       2 ->  6        -0.21089
       3 -> 21         0.30825
       3 -> 22        -0.13753
       3 -> 25        -0.17710
       4 -> 21        -0.12766
       4 -> 22        -0.31221
       4 -> 24        -0.17999
       5 -> 20         0.33177
       5 -> 23        -0.17698

 Excited State  53:      Singlet-A     21.6333 eV   57.31 nm  f=0.0000  <S**2>=0.000
       4 -> 23        -0.49112
       5 -> 24         0.49205

 Excited State  54:      Singlet-A     21.6334 eV   57.31 nm  f=0.0000  <S**2>=0.000
       3 -> 23        -0.48543
       5 -> 25         0.48596

 Excited State  55:      Singlet-A     21.6335 eV   57.31 nm  f=0.0000  <S**2>=0.000
       3 -> 24         0.49217
       4 -> 25        -0.49172

 Excited State  56:      Singlet-A     21.7197 eV   57.08 nm  f=0.0000  <S**2>=0.000
       3 -> 23         0.45049
       4 -> 24         0.16622
       5 -> 25         0.48343

 Excited State  57:      Singlet-A     21.7197 eV   57.08 nm  f=0.0000  <S**2>=0.000
       3 -> 23        -0.19636
       3 -> 25        -0.26847
       4 -> 23         0.10965
       4 -> 24         0.53089
       5 -> 23        -0.25401
       5 -> 25        -0.10018

 Excited State  58:      Singlet-A     21.7420 eV   57.03 nm  f=0.0024  <S**2>=0.000
       2 ->  9        -0.13035
       2 -> 10        -0.12180
       2 -> 11         0.14329
       4 -> 23         0.44197
       4 -> 24        -0.11702
       5 -> 23         0.16456
       5 -> 24         0.43906

 Excited State  59:      Singlet-A     21.7421 eV   57.02 nm  f=0.0024  <S**2>=0.000
       2 ->  8         0.12228
       2 -> 12        -0.18808
       3 -> 25         0.46379
       5 -> 23        -0.44264
       5 -> 24         0.11399

 Excited State  60:      Singlet-A     21.7422 eV   57.02 nm  f=0.0024  <S**2>=0.000
       2 ->  7        -0.13060
       2 -> 10        -0.14387
       2 -> 11        -0.12232
       3 -> 24         0.45800
       4 -> 25         0.46183

 Excited State  61:      Singlet-A     22.5165 eV   55.06 nm  f=0.0092  <S**2>=0.000
       2 ->  7         0.11989
       2 ->  8         0.29311
       2 ->  9         0.54357
       2 -> 10         0.10838
       2 -> 11        -0.10299
       3 -> 27        -0.11294
       4 -> 23         0.11379
       5 -> 24         0.10976

 Excited State  62:      Singlet-A     22.5165 eV   55.06 nm  f=0.0092  <S**2>=0.000
       2 ->  7         0.31634
       2 ->  8         0.44642
       2 ->  9        -0.31049
       2 -> 12        -0.14561
       3 -> 25        -0.11949
       4 -> 26         0.12685
       5 -> 23         0.10732

 Excited State  63:      Singlet-A     22.5165 eV   55.06 nm  f=0.0092  <S**2>=0.000
       2 ->  7         0.53039
       2 ->  8        -0.33251
       2 -> 10         0.11128
       2 -> 11         0.10310
       3 -> 24         0.12297
       4 -> 25         0.12391
       5 -> 27         0.11902

 Excited State  64:      Singlet-A     23.0151 eV   53.87 nm  f=0.0000  <S**2>=0.000
       2 ->  6        -0.15714
       2 -> 15        -0.13746
       3 -> 21         0.13003
       3 -> 25         0.35042
       4 -> 22        -0.13176
       4 -> 24         0.35605
       5 -> 20         0.14012
       5 -> 23         0.34999

 Excited State  65:      Singlet-A     23.1538 eV   53.55 nm  f=0.0429  <S**2>=0.000
       2 ->  7        -0.16926
       2 -> 10         0.54404
       2 -> 11         0.35409
       3 -> 24         0.10506
       4 -> 25         0.10345

 Excited State  66:      Singlet-A     23.1538 eV   53.55 nm  f=0.0429  <S**2>=0.000
       2 ->  8         0.15344
       2 -> 12         0.64036
       3 -> 25         0.10469
       4 -> 26         0.10312

 Excited State  67:      Singlet-A     23.1539 eV   53.55 nm  f=0.0429  <S**2>=0.000
       2 ->  9         0.16161
       2 -> 10        -0.34877
       2 -> 11         0.53706
       2 -> 12         0.10628

 Excited State  68:      Singlet-A     23.1590 eV   53.54 nm  f=0.0000  <S**2>=0.000
       3 -> 26        -0.41025
       3 -> 27        -0.10723
       5 -> 26         0.54764

 Excited State  69:      Singlet-A     23.1591 eV   53.54 nm  f=0.0000  <S**2>=0.000
       3 -> 26        -0.37766
       3 -> 27         0.40538
       5 -> 26        -0.25203
       5 -> 27         0.34379

 Excited State  70:      Singlet-A     23.1591 eV   53.54 nm  f=0.0000  <S**2>=0.000
       4 -> 26         0.23440
       4 -> 27         0.65570

 Excited State  71:      Singlet-A     23.9059 eV   51.86 nm  f=0.0000  <S**2>=0.000
       2 -> 13         0.68873

 Excited State  72:      Singlet-A     23.9059 eV   51.86 nm  f=0.0000  <S**2>=0.000
       2 -> 14         0.68873

 Excited State  73:      Singlet-A     23.9421 eV   51.78 nm  f=0.3296  <S**2>=0.000
       2 ->  7        -0.15822
       3 -> 26         0.28779
       3 -> 27        -0.13685
       5 -> 26         0.10817
       5 -> 27         0.55941

 Excited State  74:      Singlet-A     23.9422 eV   51.78 nm  f=0.3296  <S**2>=0.000
       2 ->  8        -0.11486
       2 ->  9         0.10908
       3 -> 26         0.12980
       3 -> 27         0.22651
       4 -> 26         0.53189
       4 -> 27        -0.19215
       5 -> 26         0.19995

 Excited State  75:      Singlet-A     23.9422 eV   51.78 nm  f=0.3296  <S**2>=0.000
       2 ->  8         0.11715
       2 ->  9         0.12856
       3 -> 26         0.23381
       3 -> 27         0.45327
       4 -> 26        -0.30904
       4 -> 27         0.10425
       5 -> 26         0.24389

 Excited State  76:      Singlet-A     27.1448 eV   45.68 nm  f=0.0000  <S**2>=0.000
       2 -> 15         0.68397

 Excited State  77:      Singlet-A     28.5979 eV   43.35 nm  f=0.0000  <S**2>=0.000
       2 -> 16         0.69621

 Excited State  78:      Singlet-A     28.6722 eV   43.24 nm  f=0.0000  <S**2>=0.000
       2 -> 17         0.69895

 Excited State  79:      Singlet-A     28.6723 eV   43.24 nm  f=0.0000  <S**2>=0.000
       2 -> 18         0.69900

 Excited State  80:      Singlet-A     28.6723 eV   43.24 nm  f=0.0000  <S**2>=0.000
       2 -> 19         0.69893

 Excited State  81:      Singlet-A     29.2099 eV   42.45 nm  f=0.0002  <S**2>=0.000
       2 -> 20         0.68147
       2 -> 21         0.13044

 Excited State  82:      Singlet-A     29.2100 eV   42.45 nm  f=0.0002  <S**2>=0.000
       2 -> 21         0.28517
       2 -> 22         0.62730

 Excited State  83:      Singlet-A     29.2100 eV   42.45 nm  f=0.0002  <S**2>=0.000
       2 -> 20        -0.10210
       2 -> 21         0.62011
       2 -> 22        -0.29650

 Excited State  84:      Singlet-A     30.4970 eV   40.65 nm  f=0.0053  <S**2>=0.000
       2 -> 23         0.70026

 Excited State  85:      Singlet-A     30.4971 eV   40.65 nm  f=0.0053  <S**2>=0.000
       2 -> 24         0.70018

 Excited State  86:      Singlet-A     30.4972 eV   40.65 nm  f=0.0053  <S**2>=0.000
       2 -> 25         0.70081

 Excited State  87:      Singlet-A     31.3967 eV   39.49 nm  f=0.0000  <S**2>=0.000
       2 -> 27         0.26913
       3 -> 28         0.42398
       4 -> 29         0.13767
       5 -> 28        -0.19185
       5 -> 29         0.15365
       5 -> 30        -0.38166

 Excited State  88:      Singlet-A     31.3967 eV   39.49 nm  f=0.0000  <S**2>=0.000
       2 -> 26        -0.26917
       3 -> 28        -0.12154
       3 -> 30         0.26794
       4 -> 29         0.47326
       4 -> 30         0.15547
       5 -> 28        -0.21362
       5 -> 30         0.15775

 The electronic state is 1-A.
 Alpha  occ. eigenvalues --  -10.10304  -0.83340  -0.51375  -0.51375  -0.51375
 Alpha virt. eigenvalues --    0.09546   0.20616   0.20616   0.20616   0.24081
 Alpha virt. eigenvalues --    0.24081   0.24081   0.25872   0.25872   0.37156
 Alpha virt. eigenvalues --    0.42284   0.43902   0.43902   0.43903   0.46230

 Mulliken charges:
               1
     1  C    0.114088
     2  H   -0.028501
     3  H   -0.028532
     4  H   -0.028542
     5  H   -0.028513
 Sum of Mulliken charges =  -0.00000

 Dipole moment (field-independent basis, Debye):
    X=              0.0000    Y=             -0.0000    Z=              0.0000  Tot=              0.0000
 Quadrupole moment (field-independent basis, Debye-Ang):
   XX=             -8.3432   YY=             -8.3432   ZZ=             -8.3433
   XY=              0.0000   XZ=              0.0000   YZ=             -0.0000

 Normal termination of Gaussian 16 at Mon Mar 21 20:08:40 2022.
