 Gaussian 16, Revision C.01,
 Gaussian 16:  EM64L-G16RevC.01  3-Jul-2019

 ----------------------------------------------------------------------
 #P TD(Nstates=10000) lc-whpbe/Gen SCF(maxcycles=100) Int(Grid=ultrafin
 e)
 ----------------------------------------------------------------------

 ---------------------
 xGDB7_00001_tier4.com
 ---------------------
 Symbolic Z-matrix:
 Charge =  0 Multiplicity = 1

                         Standard orientation:
 ---------------------------------------------------------------------
 Center     Atomic      Atomic             Coordinates (Angstroms)
 Number     Number       Type             X           Y           Z
 ---------------------------------------------------------------------
      1          6           0        0.000000    0.865978    0.000000
      2          6           0        0.749967   -0.432983    0.000000
      3          6           0       -0.749954   -0.432999    0.000000
      4          1           0       -0.000033    1.451806   -0.909176
      5          1           0       -0.000033    1.451806    0.909176
      6          1           0        1.257295   -0.725894    0.909177
      7          1           0        1.257295   -0.725894   -0.909177
      8          1           0       -1.257302   -0.725899    0.909179
      9          1           0       -1.257302   -0.725899   -0.909179
 ---------------------------------------------------------------------

 SCF Done:  E(RLC-wHPBE) =  -117.748192714     A.U. after   11 cycles

 Excitation energies and oscillator strengths:

 Excited State   1:      Singlet-A'     8.9456 eV  138.60 nm  f=0.0000  <S**2>=0.000
      12 -> 13         0.67112
      12 -> 17         0.15148
 This state for optimization and/or second-order correction.
 Total Energy, E(TD-HF/TD-DFT) =  -117.419449446
 Copying the excited state density for this state as the 1-particle RhoCI density.

 Excited State   2:      Singlet-A'     8.9457 eV  138.60 nm  f=0.0000  <S**2>=0.000
      11 -> 13         0.67111
      11 -> 17         0.15148

 Excited State   3:      Singlet-A'     9.6715 eV  128.20 nm  f=0.0000  <S**2>=0.000
      11 -> 14        -0.49027
      12 -> 15         0.49093

 Excited State   4:      Singlet-A"     9.7174 eV  127.59 nm  f=0.0000  <S**2>=0.000
      12 -> 16         0.68423
      12 -> 34         0.10542

 Excited State   5:      Singlet-A"     9.7176 eV  127.59 nm  f=0.0000  <S**2>=0.000
      11 -> 16         0.68423
      11 -> 34         0.10542

 Excited State   6:      Singlet-A'     9.7340 eV  127.37 nm  f=0.0000  <S**2>=0.000
      11 -> 15         0.48125
      11 -> 21        -0.10213
      12 -> 14         0.48344
      12 -> 22        -0.10244

 Excited State   7:      Singlet-A'     9.7772 eV  126.81 nm  f=0.1169  <S**2>=0.000
      11 -> 14         0.44551
      11 -> 15        -0.16747
      11 -> 17         0.13420
      12 -> 14         0.16665
      12 -> 15         0.44484

 Excited State   8:      Singlet-A'     9.7772 eV  126.81 nm  f=0.1168  <S**2>=0.000
      11 -> 14         0.16716
      11 -> 15         0.44621
      12 -> 14        -0.44414
      12 -> 15         0.16697
      12 -> 17         0.13421

 Excited State   9:      Singlet-A"    10.5562 eV  117.45 nm  f=0.0000  <S**2>=0.000
       9 -> 15         0.20298
      10 -> 13         0.61303
      10 -> 14         0.20300
      10 -> 17         0.10037

 Excited State  10:      Singlet-A"    10.5563 eV  117.45 nm  f=0.0000  <S**2>=0.000
       9 -> 13         0.61302
       9 -> 14        -0.20299
       9 -> 17         0.10037
      10 -> 15         0.20303

 Excited State  11:      Singlet-A'    11.0465 eV  112.24 nm  f=0.0506  <S**2>=0.000
      11 -> 20        -0.19319
      12 -> 13        -0.15959
      12 -> 17         0.63027

 Excited State  12:      Singlet-A'    11.0466 eV  112.24 nm  f=0.0507  <S**2>=0.000
      11 -> 13        -0.15957
      11 -> 17         0.63022
      12 -> 20         0.19336

 Excited State  13:      Singlet-A"    11.2428 eV  110.28 nm  f=0.2431  <S**2>=0.000
       7 -> 13        -0.11982
       9 -> 14         0.47950
      10 -> 15         0.47952

 Excited State  14:      Singlet-A'    11.3592 eV  109.15 nm  f=0.2851  <S**2>=0.000
      10 -> 16         0.19890
      11 -> 17        -0.19093
      12 -> 20         0.60858

 Excited State  15:      Singlet-A'    11.3593 eV  109.15 nm  f=0.2851  <S**2>=0.000
       9 -> 16        -0.19889
      11 -> 20         0.60863
      12 -> 17         0.19076

 Excited State  16:      Singlet-A"    11.6535 eV  106.39 nm  f=0.0000  <S**2>=0.000
       9 -> 15         0.39858
       9 -> 20         0.11561
      10 -> 13        -0.23800
      10 -> 14         0.41267
      10 -> 17        -0.24965

 Excited State  17:      Singlet-A"    11.6535 eV  106.39 nm  f=0.0000  <S**2>=0.000
       9 -> 13        -0.23805
       9 -> 14        -0.40558
       9 -> 17        -0.24966
      10 -> 15         0.40576
      10 -> 20        -0.11565

 Excited State  18:      Singlet-A"    11.6565 eV  106.36 nm  f=0.0000  <S**2>=0.000
       9 -> 15         0.45992
       9 -> 21        -0.17667
      10 -> 14        -0.44714
      10 -> 22         0.17486

 Excited State  19:      Singlet-A'    11.8729 eV  104.43 nm  f=0.0747  <S**2>=0.000
      10 -> 16         0.64727
      12 -> 20        -0.20590

 Excited State  20:      Singlet-A'    11.8730 eV  104.43 nm  f=0.0747  <S**2>=0.000
       9 -> 16         0.64727
      11 -> 20         0.20590

 Excited State  21:      Singlet-A"    12.2009 eV  101.62 nm  f=0.0000  <S**2>=0.000
      11 -> 18        -0.48537
      12 -> 19         0.48574

 Excited State  22:      Singlet-A"    12.3689 eV  100.24 nm  f=0.0000  <S**2>=0.000
       9 -> 20         0.19493
      11 -> 18         0.37757
      11 -> 19        -0.27104
      12 -> 18         0.27215
      12 -> 19         0.37731

 Excited State  23:      Singlet-A"    12.3689 eV  100.24 nm  f=0.0000  <S**2>=0.000
      10 -> 20         0.19501
      11 -> 18        -0.27173
      11 -> 19        -0.37666
      12 -> 18         0.37819
      12 -> 19        -0.27146

 Excited State  24:      Singlet-A"    12.4248 eV   99.79 nm  f=0.0108  <S**2>=0.000
      11 -> 19         0.47296
      11 -> 26         0.11216
      12 -> 18         0.47119
      12 -> 27         0.11214

 Excited State  25:      Singlet-A"    12.5501 eV   98.79 nm  f=0.0000  <S**2>=0.000
       9 -> 17        -0.18484
      10 -> 20         0.61220
      11 -> 19         0.13735
      12 -> 18        -0.13706

 Excited State  26:      Singlet-A"    12.5502 eV   98.79 nm  f=0.0000  <S**2>=0.000
       9 -> 20         0.61221
      10 -> 17         0.18487
      11 -> 18        -0.13718
      12 -> 19        -0.13714

 Excited State  27:      Singlet-A'    12.6672 eV   97.88 nm  f=0.0167  <S**2>=0.000
      10 -> 16         0.10050
      11 -> 21        -0.24480
      11 -> 22         0.38373
      11 -> 23         0.11970
      12 -> 21         0.38491
      12 -> 22         0.24484
      12 -> 24        -0.12019

 Excited State  28:      Singlet-A'    12.6672 eV   97.88 nm  f=0.0167  <S**2>=0.000
       9 -> 16        -0.10051
      11 -> 21        -0.38424
      11 -> 22        -0.24441
      11 -> 24         0.11988
      12 -> 21        -0.24523
      12 -> 22         0.38440
      12 -> 23         0.12000

 Excited State  29:      Singlet-A'    12.7365 eV   97.35 nm  f=0.0000  <S**2>=0.000
      11 -> 22         0.44428
      11 -> 23         0.19851
      12 -> 21        -0.44283
      12 -> 24         0.19810

 Excited State  30:      Singlet-A"    12.9347 eV   95.85 nm  f=0.0000  <S**2>=0.000
       9 -> 15         0.14396
       9 -> 17         0.20047
       9 -> 20        -0.16125
      10 -> 13        -0.17588
      10 -> 14         0.14395
      10 -> 17         0.46392
      11 -> 25         0.25525
      12 -> 25         0.15955

 Excited State  31:      Singlet-A"    12.9347 eV   95.85 nm  f=0.0000  <S**2>=0.000
       9 -> 13        -0.17587
       9 -> 14        -0.14393
       9 -> 17         0.46388
      10 -> 15         0.14394
      10 -> 17        -0.20051
      10 -> 20         0.16121
      11 -> 25        -0.15950
      12 -> 25         0.25537

 Excited State  32:      Singlet-A'    12.9860 eV   95.48 nm  f=0.0000  <S**2>=0.000
       7 -> 16        -0.13900
       9 -> 18         0.17866
      10 -> 19         0.17867
      11 -> 15         0.10337
      11 -> 21         0.41737
      11 -> 24        -0.12258
      12 -> 14         0.10334
      12 -> 22         0.41720
      12 -> 23         0.12255

 Excited State  33:      Singlet-A'    13.2468 eV   93.60 nm  f=0.0000  <S**2>=0.000
      11 -> 22        -0.20706
      11 -> 23         0.42871
      12 -> 21         0.20708
      12 -> 24         0.42892

 Excited State  34:      Singlet-A"    13.3467 eV   92.90 nm  f=0.0000  <S**2>=0.000
       9 -> 17        -0.28889
      12 -> 25         0.60782

 Excited State  35:      Singlet-A"    13.3468 eV   92.89 nm  f=0.0000  <S**2>=0.000
      10 -> 17        -0.28876
      11 -> 25         0.60791

 Excited State  36:      Singlet-A'    13.5225 eV   91.69 nm  f=0.0000  <S**2>=0.000
       8 -> 13        -0.13533
       8 -> 17        -0.13173
      11 -> 21        -0.10719
      11 -> 24        -0.44228
      12 -> 22        -0.10768
      12 -> 23         0.44402

 Excited State  37:      Singlet-A'    13.5777 eV   91.31 nm  f=0.0483  <S**2>=0.000
      11 -> 21         0.11118
      11 -> 23         0.26012
      11 -> 24         0.38007
      12 -> 22        -0.11084
      12 -> 23         0.37858
      12 -> 24        -0.25975

 Excited State  38:      Singlet-A'    13.5777 eV   91.31 nm  f=0.0483  <S**2>=0.000
      11 -> 22        -0.11105
      11 -> 23         0.37934
      11 -> 24        -0.26033
      12 -> 21        -0.11098
      12 -> 23        -0.25954
      12 -> 24        -0.37931

 Excited State  39:      Singlet-A"    13.7572 eV   90.12 nm  f=0.0000  <S**2>=0.000
      11 -> 26        -0.46285
      11 -> 27        -0.11302
      12 -> 25         0.10349
      12 -> 26        -0.11281
      12 -> 27         0.46449

 Excited State  40:      Singlet-A"    13.7572 eV   90.12 nm  f=0.0000  <S**2>=0.000
      11 -> 25        -0.10339
      11 -> 26        -0.11245
      11 -> 27         0.46330
      12 -> 26         0.46407
      12 -> 27         0.11338

 Excited State  41:      Singlet-A"    13.7823 eV   89.96 nm  f=0.0374  <S**2>=0.000
       7 -> 13         0.10622
       9 -> 23        -0.13116
      10 -> 24         0.13111
      11 -> 19        -0.11265
      11 -> 26         0.43161
      11 -> 27        -0.12754
      12 -> 18        -0.11252
      12 -> 26         0.12681
      12 -> 27         0.42963

 Excited State  42:      Singlet-A"    13.9503 eV   88.88 nm  f=0.0000  <S**2>=0.000
      11 -> 26         0.13591
      11 -> 27         0.46023
      12 -> 26        -0.45971
      12 -> 27         0.13577

 Excited State  43:      Singlet-A'    14.0177 eV   88.45 nm  f=0.0000  <S**2>=0.000
       8 -> 13         0.62985
       8 -> 17         0.11525
       9 -> 18        -0.16532
      10 -> 19        -0.16535

 Excited State  44:      Singlet-A'    14.1137 eV   87.85 nm  f=0.2284  <S**2>=0.000
       9 -> 18        -0.13968
      10 -> 19         0.13965
      12 -> 28         0.63480

 Excited State  45:      Singlet-A'    14.1138 eV   87.85 nm  f=0.2284  <S**2>=0.000
       9 -> 19         0.13969
      10 -> 18         0.13975
      11 -> 28         0.63478

 Excited State  46:      Singlet-A"    14.3813 eV   86.21 nm  f=0.0000  <S**2>=0.000
       7 -> 15        -0.22250
       9 -> 21         0.39506
       9 -> 22         0.11485
       9 -> 24        -0.10436
      10 -> 17         0.10783
      10 -> 21        -0.11489
      10 -> 22         0.39517
      10 -> 23         0.10441
      10 -> 28        -0.15633

 Excited State  47:      Singlet-A"    14.3813 eV   86.21 nm  f=0.0000  <S**2>=0.000
       7 -> 14        -0.22250
       9 -> 17         0.10785
       9 -> 21         0.11489
       9 -> 22        -0.39506
       9 -> 23        -0.10439
       9 -> 28        -0.15632
      10 -> 21         0.39517
      10 -> 22         0.11486
      10 -> 24        -0.10439

 Excited State  48:      Singlet-A'    14.4344 eV   85.89 nm  f=0.0000  <S**2>=0.000
       9 -> 18        -0.13226
       9 -> 19         0.42563
      10 -> 16        -0.11339
      10 -> 18         0.43109
      10 -> 19         0.13161
      10 -> 25         0.10290
      11 -> 28        -0.14583
      12 -> 28        -0.11100

 Excited State  49:      Singlet-A'    14.4345 eV   85.89 nm  f=0.0000  <S**2>=0.000
       9 -> 16        -0.11340
       9 -> 18        -0.42823
       9 -> 19        -0.13107
       9 -> 25         0.10288
      10 -> 18        -0.13277
      10 -> 19         0.42853
      11 -> 28         0.11105
      12 -> 28        -0.14577

 Excited State  50:      Singlet-A'    14.4448 eV   85.83 nm  f=0.0000  <S**2>=0.000
       9 -> 19         0.41577
       9 -> 26         0.25657
      10 -> 18        -0.40955
      10 -> 27        -0.25664

 Excited State  51:      Singlet-A"    14.4781 eV   85.64 nm  f=0.0000  <S**2>=0.000
       7 -> 20        -0.12481
       9 -> 15         0.16830
       9 -> 21         0.42642
       9 -> 24        -0.12188
      10 -> 14        -0.16828
      10 -> 22        -0.42631
      10 -> 23        -0.12186

 Excited State  52:      Singlet-A'    14.6288 eV   84.75 nm  f=0.2124  <S**2>=0.000
       8 -> 14         0.67127

 Excited State  53:      Singlet-A'    14.6289 eV   84.75 nm  f=0.2124  <S**2>=0.000
       8 -> 15         0.67127

 Excited State  54:      Singlet-A'    14.6411 eV   84.68 nm  f=0.0000  <S**2>=0.000
       8 -> 13         0.20326
       8 -> 17         0.11217
       9 -> 18         0.40856
      10 -> 19         0.40850
      11 -> 21        -0.19550
      12 -> 22        -0.19540

 Excited State  55:      Singlet-A"    14.7300 eV   84.17 nm  f=0.0220  <S**2>=0.000
       8 -> 16         0.59412
       9 -> 22        -0.17129
       9 -> 23        -0.15576
      10 -> 21        -0.17124
      10 -> 24         0.15576

 Excited State  56:      Singlet-A"    14.9074 eV   83.17 nm  f=0.0001  <S**2>=0.000
       7 -> 13         0.12387
       8 -> 16         0.25505
       9 -> 22         0.43847
      10 -> 21         0.43839

 Excited State  57:      Singlet-A"    14.9598 eV   82.88 nm  f=0.7572  <S**2>=0.000
       7 -> 13         0.59533
       7 -> 17         0.15523
       9 -> 23        -0.14556
      10 -> 24         0.14556
      11 -> 26        -0.12125
      12 -> 27        -0.12123

 Excited State  58:      Singlet-A'    15.3226 eV   80.92 nm  f=0.0000  <S**2>=0.000
       8 -> 20         0.58101
       8 -> 33         0.11912
      11 -> 30         0.23911
      12 -> 29        -0.23923

 Excited State  59:      Singlet-A'    15.3760 eV   80.63 nm  f=0.2832  <S**2>=0.000
      10 -> 25         0.62658
      11 -> 30        -0.15131
      12 -> 29        -0.15125

 Excited State  60:      Singlet-A'    15.3761 eV   80.63 nm  f=0.2833  <S**2>=0.000
       9 -> 25         0.62660
      11 -> 29        -0.15127
      12 -> 30         0.15131

 Excited State  61:      Singlet-A"    15.4520 eV   80.24 nm  f=0.0000  <S**2>=0.000
       9 -> 24        -0.46444
      10 -> 17        -0.12455
      10 -> 23         0.46461

 Excited State  62:      Singlet-A"    15.4520 eV   80.24 nm  f=0.0000  <S**2>=0.000
       9 -> 17         0.12456
       9 -> 23         0.46339
      10 -> 24         0.46565

 Excited State  63:      Singlet-A"    15.4632 eV   80.18 nm  f=0.6594  <S**2>=0.000
       7 -> 13         0.25783
       8 -> 16         0.20007
       9 -> 23         0.40790
      10 -> 24        -0.40532

 Excited State  64:      Singlet-A'    15.5208 eV   79.88 nm  f=0.0000  <S**2>=0.000
       9 -> 19         0.25500
       9 -> 26        -0.40418
      10 -> 18        -0.25497
      10 -> 27         0.40425

 Excited State  65:      Singlet-A'    15.7224 eV   78.86 nm  f=0.3884  <S**2>=0.000
       7 -> 19         0.11028
       9 -> 26         0.45217
       9 -> 27         0.11694
      10 -> 26        -0.11700
      10 -> 27         0.45211

 Excited State  66:      Singlet-A'    15.7224 eV   78.86 nm  f=0.3884  <S**2>=0.000
       7 -> 18         0.11028
       9 -> 26         0.11699
       9 -> 27        -0.45210
      10 -> 26         0.45220
      10 -> 27         0.11695

 Excited State  67:      Singlet-A"    15.7847 eV   78.55 nm  f=0.0000  <S**2>=0.000
       9 -> 21         0.13104
       9 -> 24         0.45912
      10 -> 22        -0.13105
      10 -> 23         0.45893

 Excited State  68:      Singlet-A"    15.8229 eV   78.36 nm  f=0.0000  <S**2>=0.000
       7 -> 15        -0.40768
       7 -> 21         0.14016
      10 -> 28         0.53092

 Excited State  69:      Singlet-A"    15.8230 eV   78.36 nm  f=0.0000  <S**2>=0.000
       7 -> 14        -0.40780
       7 -> 22         0.14016
       9 -> 28         0.53083

 Excited State  70:      Singlet-A'    15.8232 eV   78.36 nm  f=0.0000  <S**2>=0.000
       7 -> 16        -0.38440
       8 -> 13        -0.13538
       8 -> 17         0.49374
       9 -> 27         0.13356
      10 -> 26         0.13340

 Excited State  71:      Singlet-A'    15.9736 eV   77.62 nm  f=0.0000  <S**2>=0.000
       8 -> 20         0.36423
      11 -> 30        -0.39365
      12 -> 29         0.39380

 Excited State  72:      Singlet-A"    16.0214 eV   77.39 nm  f=0.0000  <S**2>=0.000
       7 -> 15         0.48166
       9 -> 21         0.19637
      10 -> 22         0.19635
      10 -> 28         0.37778

 Excited State  73:      Singlet-A"    16.0214 eV   77.39 nm  f=0.0000  <S**2>=0.000
       7 -> 14         0.48156
       9 -> 22        -0.19635
       9 -> 28         0.37793
      10 -> 21         0.19634

 Excited State  74:      Singlet-A'    16.1633 eV   76.71 nm  f=0.0000  <S**2>=0.000
       7 -> 16         0.13932
       8 -> 17         0.30694
       9 -> 27        -0.22742
      10 -> 26        -0.22740
      11 -> 29         0.34980
      12 -> 30         0.35008

 Excited State  75:      Singlet-A'    16.2002 eV   76.53 nm  f=0.0000  <S**2>=0.000
       8 -> 17        -0.12763
       9 -> 27         0.35735
      10 -> 26         0.35728
      11 -> 29         0.28740
      12 -> 30         0.28757

 Excited State  76:      Singlet-A'    16.3281 eV   75.93 nm  f=0.2649  <S**2>=0.000
      10 -> 25         0.19757
      11 -> 30         0.42554
      11 -> 31        -0.13171
      12 -> 29         0.42535
      12 -> 33        -0.11866

 Excited State  77:      Singlet-A'    16.3281 eV   75.93 nm  f=0.2649  <S**2>=0.000
       9 -> 25         0.19758
      11 -> 29         0.42561
      11 -> 33         0.11864
      12 -> 30        -0.42527
      12 -> 31        -0.13178

 Excited State  78:      Singlet-A"    16.3896 eV   75.65 nm  f=0.0000  <S**2>=0.000
       7 -> 20         0.65080
       7 -> 33         0.13771
       9 -> 24        -0.10641
      10 -> 23        -0.10640

 Excited State  79:      Singlet-A'    16.4752 eV   75.26 nm  f=0.0000  <S**2>=0.000
       7 -> 16         0.53266
       8 -> 17         0.26959
       9 -> 27         0.19447
      10 -> 26         0.19444

 Excited State  80:      Singlet-A'    16.6600 eV   74.42 nm  f=0.0335  <S**2>=0.000
      11 -> 33         0.10683
      12 -> 31         0.65606

 Excited State  81:      Singlet-A'    16.6602 eV   74.42 nm  f=0.0335  <S**2>=0.000
      11 -> 31         0.65606
      12 -> 33        -0.10692

 Excited State  82:      Singlet-A'    16.9548 eV   73.13 nm  f=0.0080  <S**2>=0.000
       6 -> 13        -0.14198
       8 -> 21         0.35405
       8 -> 24        -0.10258
      11 -> 31         0.10367
      12 -> 33         0.52074

 Excited State  83:      Singlet-A'    16.9549 eV   73.13 nm  f=0.0080  <S**2>=0.000
       5 -> 13         0.14196
       8 -> 22        -0.35409
       8 -> 23        -0.10260
      11 -> 33         0.52074
      12 -> 31        -0.10356

 Excited State  84:      Singlet-A"    16.9935 eV   72.96 nm  f=0.0000  <S**2>=0.000
       5 -> 16        -0.21606
       8 -> 18         0.57867
      12 -> 34         0.26069

 Excited State  85:      Singlet-A"    16.9936 eV   72.96 nm  f=0.0000  <S**2>=0.000
       6 -> 16        -0.21608
       8 -> 19         0.57868
      11 -> 34         0.26062

 Excited State  86:      Singlet-A"    17.2019 eV   72.08 nm  f=0.0564  <S**2>=0.000
       7 -> 13        -0.15901
       7 -> 17         0.63680
       8 -> 25         0.15852

 Excited State  87:      Singlet-A"    17.4279 eV   71.14 nm  f=0.0000  <S**2>=0.000
       8 -> 18        -0.19864
       8 -> 27        -0.11726
      11 -> 32         0.32478
      12 -> 34         0.55332

 Excited State  88:      Singlet-A"    17.4280 eV   71.14 nm  f=0.0000  <S**2>=0.000
       8 -> 19        -0.19837
       8 -> 26        -0.11738
      11 -> 34         0.55299
      12 -> 32        -0.32545

 Excited State  89:      Singlet-A"    17.5522 eV   70.64 nm  f=0.0000  <S**2>=0.000
       8 -> 19        -0.18308
       8 -> 26         0.10979
      11 -> 34         0.30175
      12 -> 32         0.57929

 Excited State  90:      Singlet-A"    17.5523 eV   70.64 nm  f=0.0000  <S**2>=0.000
       8 -> 18         0.18285
       8 -> 27        -0.10994
      11 -> 32         0.57965
      12 -> 34        -0.30111

 Excited State  91:      Singlet-A"    17.7165 eV   69.98 nm  f=0.1191  <S**2>=0.000
       7 -> 28        -0.11548
       9 -> 30         0.47337
      10 -> 29         0.47357

 Excited State  92:      Singlet-A'    17.7460 eV   69.87 nm  f=0.0538  <S**2>=0.000
       5 -> 15        -0.14563
       6 -> 13         0.15694
       6 -> 14        -0.14565
       6 -> 17         0.13467
       7 -> 19         0.18020
       8 -> 21         0.46067
       8 -> 24         0.14860
      12 -> 33        -0.28510

 Excited State  93:      Singlet-A'    17.7460 eV   69.87 nm  f=0.0537  <S**2>=0.000
       5 -> 13         0.15694
       5 -> 14         0.14563
       5 -> 17         0.13467
       6 -> 15        -0.14565
       7 -> 18         0.18023
       8 -> 22         0.46065
       8 -> 23        -0.14863
      11 -> 33         0.28513

 Excited State  94:      Singlet-A"    17.9201 eV   69.19 nm  f=0.0000  <S**2>=0.000
       7 -> 21        -0.12146
       9 -> 29         0.41411

 The electronic state is 1-A'.
 Alpha  occ. eigenvalues --  -10.11862 -10.11846 -10.11846  -0.99686  -0.73121
 Alpha  occ. eigenvalues --   -0.73121  -0.62840  -0.59178  -0.47970  -0.47970
 Alpha  occ. eigenvalues --   -0.41458  -0.41457
 Alpha virt. eigenvalues --    0.10151   0.11898   0.11898   0.15309   0.18731
 Alpha virt. eigenvalues --    0.22233   0.22234   0.22256   0.25207   0.25207
 Alpha virt. eigenvalues --    0.27697   0.27698   0.28610   0.29090   0.29091

 Mulliken charges:
               1
     1  C    0.347587
     2  C    0.347664
     3  C    0.347571
     4  H   -0.173799
     5  H   -0.173799
     6  H   -0.173810
     7  H   -0.173810
     8  H   -0.173802
     9  H   -0.173802
 Sum of Mulliken charges =  -0.00000

 Dipole moment (field-independent basis, Debye):
    X=             -0.0000    Y=              0.0000    Z=              0.0000  Tot=              0.0000
 Quadrupole moment (field-independent basis, Debye-Ang):
   XX=            -20.5647   YY=            -20.5647   ZZ=            -18.3531
   XY=             -0.0001   XZ=              0.0000   YZ=             -0.0000

 Normal termination of Gaussian 16 at Mon Mar 21 20:18:46 2022.
