 Gaussian 16, Revision C.01,
 Gaussian 16:  EM64L-G16RevC.01  3-Jul-2019

 ----------------------------------------------------------------------
 #P TD(Nstates=10000) lc-whpbe/Gen SCF(maxcycles=100) Int(Grid=ultrafin
 e)
 ----------------------------------------------------------------------

 ---------------------
 xGDB7_00001_tier4.com
 ---------------------
 Symbolic Z-matrix:
 Charge =  0 Multiplicity = 1

                         Standard orientation:
 ---------------------------------------------------------------------
 Center     Atomic      Atomic             Coordinates (Angstroms)
 Number     Number       Type             X           Y           Z
 ---------------------------------------------------------------------
      1          8           0       -1.023805   -0.438791    0.000000
      2          6           0       -0.000000    0.418952    0.000000
      3          8           0        1.152985    0.109982   -0.000000
      4          1           0       -0.656943   -1.333011    0.000000
      5          1           0       -0.376498    1.449770    0.000000
 ---------------------------------------------------------------------

 SCF Done:  E(RLC-wHPBE) =  -189.524773637     A.U. after   13 cycles

 Excitation energies and oscillator strengths:

 Excited State   1:      Singlet-A"     5.8818 eV  210.79 nm  f=0.0008  <S**2>=0.000
      12 -> 14         0.70032
 This state for optimization and/or second-order correction.
 Total Energy, E(TD-HF/TD-DFT) =  -189.308621677
 Copying the excited state density for this state as the 1-particle RhoCI density.

 Excited State   2:      Singlet-A'     8.4586 eV  146.58 nm  f=0.0454  <S**2>=0.000
      11 -> 14        -0.47341
      12 -> 13         0.48301

 Excited State   3:      Singlet-A'     9.0632 eV  136.80 nm  f=0.2016  <S**2>=0.000
      11 -> 14         0.43934
      12 -> 13         0.43472
      12 -> 15         0.21463
      12 -> 16        -0.19893

 Excited State   4:      Singlet-A"     9.2943 eV  133.40 nm  f=0.0040  <S**2>=0.000
      11 -> 13         0.65407
      11 -> 15        -0.16181
      11 -> 18        -0.10126

 Excited State   5:      Singlet-A'     9.3158 eV  133.09 nm  f=0.0726  <S**2>=0.000
      11 -> 14        -0.20080
      12 -> 13        -0.11776
      12 -> 15         0.64550

 Excited State   6:      Singlet-A"     9.5402 eV  129.96 nm  f=0.0000  <S**2>=0.000
      10 -> 14         0.69635

 Excited State   7:      Singlet-A"    10.4105 eV  119.10 nm  f=0.0119  <S**2>=0.000
      12 -> 17         0.66955
      12 -> 20         0.20449

 Excited State   8:      Singlet-A"    10.5355 eV  117.68 nm  f=0.0035  <S**2>=0.000
      11 -> 13         0.16866
      11 -> 15         0.66711

 Excited State   9:      Singlet-A'    10.5606 eV  117.40 nm  f=0.1024  <S**2>=0.000
      12 -> 13         0.15022
      12 -> 16         0.58056
      12 -> 18        -0.22562
      12 -> 19         0.16918

 Excited State  10:      Singlet-A'    11.4226 eV  108.54 nm  f=0.0467  <S**2>=0.000
       8 -> 13        -0.10817
      10 -> 13         0.56144
      10 -> 15        -0.10795
      11 -> 17        -0.16963
      12 -> 18         0.24550
      12 -> 21         0.16682

 Excited State  11:      Singlet-A'    11.4717 eV  108.08 nm  f=0.0279  <S**2>=0.000
      10 -> 13        -0.20753
      11 -> 17         0.12033
      12 -> 16         0.18553
      12 -> 18         0.21814
      12 -> 21         0.54603
      12 -> 24        -0.10465

 Excited State  12:      Singlet-A"    11.5338 eV  107.50 nm  f=0.0528  <S**2>=0.000
       9 -> 13         0.16516
      11 -> 16         0.64379
      11 -> 21        -0.15309

 Excited State  13:      Singlet-A'    11.5765 eV  107.10 nm  f=0.0160  <S**2>=0.000
       9 -> 14        -0.12269
      10 -> 13         0.13020
      11 -> 17         0.57073
      12 -> 18         0.12682
      12 -> 19         0.24798
      12 -> 21        -0.15669

 Excited State  14:      Singlet-A'    11.7515 eV  105.50 nm  f=0.0122  <S**2>=0.000
       9 -> 14        -0.22339
      10 -> 15        -0.11934
      11 -> 17        -0.24593
      12 -> 16        -0.13599
      12 -> 18        -0.15024
      12 -> 19         0.52849
      12 -> 24         0.13456

 Excited State  15:      Singlet-A'    11.9045 eV  104.15 nm  f=0.0452  <S**2>=0.000
       9 -> 14        -0.12298
      10 -> 13        -0.18655
      11 -> 17        -0.20428
      12 -> 13         0.11282
      12 -> 16         0.12224
      12 -> 18         0.48127
      12 -> 21        -0.29754
      12 -> 22        -0.19392

 Excited State  16:      Singlet-A"    12.0066 eV  103.26 nm  f=0.0054  <S**2>=0.000
       8 -> 14         0.64096
      11 -> 18        -0.14151
      11 -> 21        -0.19142

 Excited State  17:      Singlet-A"    12.1876 eV  101.73 nm  f=0.0014  <S**2>=0.000
       7 -> 14         0.13888
       8 -> 14         0.20725
      11 -> 16         0.13110
      11 -> 18         0.44378
      11 -> 21         0.34243
      11 -> 22         0.12105
      11 -> 24        -0.11341
      12 -> 20         0.16437

 Excited State  18:      Singlet-A'    12.2287 eV  101.39 nm  f=0.1686  <S**2>=0.000
       9 -> 14         0.54515
      10 -> 15         0.21415
      11 -> 20         0.11451
      12 -> 18         0.10559
      12 -> 19         0.27610

 Excited State  19:      Singlet-A"    12.3215 eV  100.62 nm  f=0.0166  <S**2>=0.000
       8 -> 14        -0.11962
      11 -> 18        -0.11362
      12 -> 17        -0.19319
      12 -> 20         0.63634

 Excited State  20:      Singlet-A'    12.5823 eV   98.54 nm  f=0.0308  <S**2>=0.000
       9 -> 14        -0.25130
      10 -> 13         0.13418
      10 -> 15         0.61765

 Excited State  21:      Singlet-A"    12.6012 eV   98.39 nm  f=0.0086  <S**2>=0.000
       7 -> 14         0.58876
       9 -> 15         0.12975
      11 -> 18        -0.26154
      11 -> 19        -0.16167

 Excited State  22:      Singlet-A"    12.6482 eV   98.02 nm  f=0.0023  <S**2>=0.000
       7 -> 14         0.32520
       9 -> 13         0.15389
       9 -> 15        -0.18770
      11 -> 18         0.26324
      11 -> 19         0.42002
      11 -> 21        -0.24513

 Excited State  23:      Singlet-A"    13.0082 eV   95.31 nm  f=0.0045  <S**2>=0.000
       9 -> 13         0.18805
       9 -> 16        -0.14105
      11 -> 13        -0.10806
      11 -> 18        -0.25706
      11 -> 19         0.37484
      11 -> 21         0.43744

 Excited State  24:      Singlet-A'    13.0246 eV   95.19 nm  f=0.0567  <S**2>=0.000
      11 -> 20        -0.10778
      12 -> 18         0.12184
      12 -> 21        -0.12916
      12 -> 22         0.62840

 Excited State  25:      Singlet-A"    13.3264 eV   93.04 nm  f=0.0450  <S**2>=0.000
       9 -> 13         0.56449
       9 -> 18        -0.15693
      11 -> 16        -0.15273
      11 -> 19        -0.29621

 Excited State  26:      Singlet-A'    13.3591 eV   92.81 nm  f=0.0080  <S**2>=0.000
       8 -> 13        -0.31079
      10 -> 16         0.48501
      11 -> 20        -0.28655
      12 -> 22        -0.11926

 Excited State  27:      Singlet-A"    13.3778 eV   92.68 nm  f=0.0013  <S**2>=0.000
      10 -> 17        -0.34228
      12 -> 23         0.58197

 Excited State  28:      Singlet-A'    13.5430 eV   91.55 nm  f=0.0154  <S**2>=0.000
       8 -> 13        -0.19859
       9 -> 14        -0.10069
       9 -> 17        -0.14040
      10 -> 16         0.16937
      10 -> 21        -0.14624
      11 -> 20         0.56546
      12 -> 24         0.10171

 Excited State  29:      Singlet-A"    13.5968 eV   91.19 nm  f=0.0053  <S**2>=0.000
      10 -> 17         0.58576
      12 -> 23         0.34677

 Excited State  30:      Singlet-A"    13.9643 eV   88.79 nm  f=0.0211  <S**2>=0.000
       9 -> 13         0.18307
       9 -> 15         0.19932
       9 -> 18         0.10151
      11 -> 21        -0.10308
      11 -> 22         0.58891

 Excited State  31:      Singlet-A'    13.9844 eV   88.66 nm  f=0.0175  <S**2>=0.000
       8 -> 13         0.12717
      10 -> 19        -0.12926
      11 -> 23        -0.10564
      12 -> 16         0.15350
      12 -> 24         0.58914
      12 -> 25        -0.10100

 Excited State  32:      Singlet-A'    14.1786 eV   87.44 nm  f=0.0264  <S**2>=0.000
       8 -> 13         0.36145
       8 -> 15        -0.30318
      10 -> 16         0.21470
      10 -> 18        -0.34028
      10 -> 19        -0.20125
      10 -> 21        -0.12723

 Excited State  33:      Singlet-A"    14.2600 eV   86.95 nm  f=0.0123  <S**2>=0.000
       9 -> 15         0.60872
      11 -> 19         0.18206
      11 -> 22        -0.22428

 Excited State  34:      Singlet-A'    14.3879 eV   86.17 nm  f=0.1155  <S**2>=0.000
       8 -> 13         0.10855
       8 -> 16        -0.19393
      10 -> 16         0.19433
      10 -> 18         0.42665
      10 -> 19        -0.17357
      10 -> 21         0.12735
      11 -> 20         0.14382
      11 -> 23        -0.31185
      12 -> 24        -0.12777

 Excited State  35:      Singlet-A'    14.6197 eV   84.81 nm  f=0.0090  <S**2>=0.000
       7 -> 13         0.13694
       8 -> 13         0.21790
       8 -> 15         0.10301
       8 -> 16        -0.10119
      10 -> 16         0.20081
      10 -> 18         0.22510
      10 -> 21        -0.13703
      11 -> 23         0.47057
      12 -> 27        -0.16331

 Excited State  36:      Singlet-A'    14.7000 eV   84.34 nm  f=0.0436  <S**2>=0.000
       8 -> 13        -0.20145
       8 -> 15        -0.24866
      10 -> 19        -0.30053
      10 -> 21         0.39112
      11 -> 23         0.29969

 Excited State  37:      Singlet-A"    14.7651 eV   83.97 nm  f=0.0170  <S**2>=0.000
       9 -> 16         0.20838
       9 -> 19        -0.12769
      11 -> 16         0.10154
      11 -> 21         0.12464
      11 -> 24         0.59105
      11 -> 27         0.15169

 Excited State  38:      Singlet-A'    15.0178 eV   82.56 nm  f=0.1034  <S**2>=0.000
       7 -> 13         0.12668
       8 -> 13         0.17691
       8 -> 16         0.22338
       8 -> 18        -0.13010
       8 -> 19         0.11568
       9 -> 17         0.10308
      10 -> 16         0.17112
      10 -> 19         0.36598
      10 -> 21         0.36352
      12 -> 25         0.12089

 Excited State  39:      Singlet-A"    15.0445 eV   82.41 nm  f=0.0378  <S**2>=0.000
       8 -> 17         0.40065
      10 -> 20         0.55867

 Excited State  40:      Singlet-A'    15.1500 eV   81.84 nm  f=0.0435  <S**2>=0.000
       7 -> 13         0.47666
       7 -> 15        -0.13836
       9 -> 17        -0.18463
      10 -> 21        -0.10293
      12 -> 25         0.37724

 Excited State  41:      Singlet-A'    15.1895 eV   81.63 nm  f=0.0052  <S**2>=0.000
       7 -> 13        -0.23543
       8 -> 15         0.34782
      10 -> 18        -0.10363
      10 -> 19        -0.19917
      10 -> 21         0.15244
      10 -> 22        -0.19412
      12 -> 25         0.33620

 Excited State  42:      Singlet-A'    15.3159 eV   80.95 nm  f=0.1459  <S**2>=0.000
       7 -> 13        -0.19691
       7 -> 15         0.19632
       8 -> 15        -0.34524
      10 -> 18         0.18989
      10 -> 19         0.11645
      12 -> 24         0.13538
      12 -> 25         0.41617

 Excited State  43:      Singlet-A'    15.5058 eV   79.96 nm  f=0.0241  <S**2>=0.000
       7 -> 15        -0.22564
       9 -> 17         0.59582
      10 -> 21        -0.17361
      11 -> 20         0.13456

 Excited State  44:      Singlet-A"    15.5896 eV   79.53 nm  f=0.0566  <S**2>=0.000
       6 -> 14         0.10712
       9 -> 16         0.50314
       9 -> 18        -0.10996
       9 -> 21        -0.29945
       9 -> 22        -0.14529
      11 -> 24        -0.21996
      11 -> 25         0.11288

 Excited State  45:      Singlet-A'    15.8326 eV   78.31 nm  f=0.0603  <S**2>=0.000
       7 -> 13         0.23542
       7 -> 15         0.53637
       9 -> 17         0.17261
      10 -> 19        -0.10235
      12 -> 27        -0.22773

 Excited State  46:      Singlet-A"    15.8434 eV   78.26 nm  f=0.0275  <S**2>=0.000
       6 -> 14         0.13663
       9 -> 16        -0.29090
       9 -> 18        -0.15088
       9 -> 19         0.11931
       9 -> 21        -0.24089
       9 -> 24         0.13372
      11 -> 25         0.43055
      12 -> 26        -0.19364

 Excited State  47:      Singlet-A'    15.9029 eV   77.96 nm  f=0.1224  <S**2>=0.000
       7 -> 15         0.21254
       8 -> 15         0.15509
      10 -> 19        -0.17197
      10 -> 22         0.11510
      11 -> 23         0.11199
      12 -> 27         0.53069

 Excited State  48:      Singlet-A'    15.9751 eV   77.61 nm  f=0.0055  <S**2>=0.000
       8 -> 15         0.17602
       8 -> 16         0.13918
       8 -> 18        -0.25831
      10 -> 19        -0.13908
      10 -> 22         0.50628
      12 -> 27        -0.16291

 Excited State  49:      Singlet-A"    15.9756 eV   77.61 nm  f=0.0208  <S**2>=0.000
      10 -> 23        -0.27234
      11 -> 25         0.22672
      12 -> 26         0.58812

 Excited State  50:      Singlet-A"    16.1884 eV   76.59 nm  f=0.0059  <S**2>=0.000
       9 -> 16         0.13238
       9 -> 18         0.32956
       9 -> 21         0.18034
      11 -> 24         0.13707
      11 -> 25         0.34608
      11 -> 27        -0.30609
      11 -> 28        -0.13718
      11 -> 32         0.11441
      12 -> 26        -0.13745

 Excited State  51:      Singlet-A"    16.2759 eV   76.18 nm  f=0.0411  <S**2>=0.000
       6 -> 14        -0.15590
       9 -> 19        -0.14433
       9 -> 21         0.27044
      11 -> 24        -0.14741
      11 -> 25         0.25443
      11 -> 27         0.43719
      11 -> 28         0.12507
      11 -> 32        -0.15885

 Excited State  52:      Singlet-A"    16.4711 eV   75.27 nm  f=0.0000  <S**2>=0.000
       7 -> 17         0.20735
       8 -> 17        -0.31424
      10 -> 20         0.21319
      10 -> 23         0.46764
      12 -> 26         0.23316

 Excited State  53:      Singlet-A'    16.4853 eV   75.21 nm  f=0.0284  <S**2>=0.000
       8 -> 13         0.10026
       8 -> 16         0.46006
       8 -> 21        -0.28156
       8 -> 22        -0.13216
      10 -> 18         0.18596
      10 -> 19        -0.10969
      10 -> 21        -0.10279
      10 -> 22        -0.19361
      10 -> 24        -0.17432

 Excited State  54:      Singlet-A"    16.5719 eV   74.82 nm  f=0.0055  <S**2>=0.000
       8 -> 17         0.45691
      10 -> 20        -0.35115
      10 -> 23         0.33751
      12 -> 26         0.13260

 Excited State  55:      Singlet-A'    16.6163 eV   74.62 nm  f=0.0006  <S**2>=0.000
       7 -> 16        -0.11985
       8 -> 16         0.12071
       9 -> 20        -0.10722
      10 -> 19        -0.10757
      12 -> 27        -0.12581
      12 -> 28         0.54959
      12 -> 30         0.14569
      12 -> 32        -0.14955
      12 -> 35        -0.11106

 Excited State  56:      Singlet-A"    16.7003 eV   74.24 nm  f=0.0016  <S**2>=0.000
       9 -> 18         0.39951
       9 -> 19         0.40023
       9 -> 21        -0.20070
       9 -> 22         0.10165
      11 -> 22        -0.13670
      11 -> 25        -0.10821
      11 -> 27         0.16418
      11 -> 32        -0.13393

 Excited State  57:      Singlet-A'    16.7796 eV   73.89 nm  f=0.0308  <S**2>=0.000
       7 -> 16        -0.13064
       8 -> 18        -0.11427
       8 -> 19         0.28876
       8 -> 21        -0.12872
      10 -> 24         0.52074
      10 -> 27         0.14669
      11 -> 26        -0.11666

 Excited State  58:      Singlet-A'    16.9720 eV   73.05 nm  f=0.0421  <S**2>=0.000
       8 -> 19         0.11756
       9 -> 20         0.27355
       9 -> 23        -0.13166
      11 -> 26         0.57426

 Excited State  59:      Singlet-A"    17.0716 eV   72.63 nm  f=0.0062  <S**2>=0.000
       7 -> 17         0.58397
       9 -> 18         0.11658
       9 -> 19        -0.20574
       9 -> 21        -0.13679
      10 -> 23        -0.18390

 Excited State  60:      Singlet-A"    17.0945 eV   72.53 nm  f=0.0105  <S**2>=0.000
       6 -> 14        -0.23943
       7 -> 17         0.25082
       9 -> 18        -0.25762
       9 -> 19         0.43732
       9 -> 21         0.22577

 Excited State  61:      Singlet-A'    17.1272 eV   72.39 nm  f=0.0099  <S**2>=0.000
       7 -> 16        -0.30941
       7 -> 18         0.12261
       7 -> 21         0.21230
       8 -> 16         0.15570
       8 -> 19        -0.15009
       8 -> 21         0.33298
       8 -> 24        -0.11388
       9 -> 20         0.21870
      10 -> 25         0.14142
      12 -> 28        -0.17535

 Excited State  62:      Singlet-A'    17.2191 eV   72.00 nm  f=0.0057  <S**2>=0.000
       7 -> 16         0.32972
       7 -> 21        -0.11279
       8 -> 16         0.17181
       8 -> 18         0.19521
       8 -> 19         0.17910
       8 -> 21         0.22860
       9 -> 20         0.27598
      11 -> 26        -0.16419
      12 -> 29         0.14804

 Excited State  63:      Singlet-A'    17.3288 eV   71.55 nm  f=0.0373  <S**2>=0.000
       8 -> 16        -0.10820
       8 -> 18        -0.17485
       8 -> 19        -0.12936
       8 -> 21        -0.22365
       9 -> 20         0.48232
       9 -> 23         0.12744
      11 -> 26        -0.19116
      12 -> 30         0.13787

 Excited State  64:      Singlet-A"    17.3627 eV   71.41 nm  f=0.0590  <S**2>=0.000
       6 -> 14         0.45983
       7 -> 17         0.11839
       9 -> 21         0.20669
      12 -> 31        -0.41205

 Excited State  65:      Singlet-A'    17.4426 eV   71.08 nm  f=0.0054  <S**2>=0.000
       7 -> 16        -0.11620
       7 -> 21        -0.12618
       8 -> 18        -0.19324
      12 -> 28         0.11988
      12 -> 29         0.56515
      12 -> 30        -0.12328

 Excited State  66:      Singlet-A'    17.5397 eV   70.69 nm  f=0.1171  <S**2>=0.000
       7 -> 16         0.34793
       7 -> 18         0.11080
       7 -> 19        -0.14213
       8 -> 18        -0.31668
       8 -> 19        -0.18335
       8 -> 21         0.14218
      10 -> 22        -0.16358
      10 -> 24         0.17565
      10 -> 25         0.11396
      12 -> 30         0.13649
      12 -> 32        -0.12531

 Excited State  67:      Singlet-A'    17.7031 eV   70.04 nm  f=0.0477  <S**2>=0.000
       7 -> 18         0.13698
       7 -> 21         0.17394
       8 -> 18         0.29332
       8 -> 19        -0.27055
       8 -> 21        -0.23879
      10 -> 16         0.14317
      10 -> 24         0.14334
      10 -> 27         0.10280
      12 -> 29         0.28595
      12 -> 30         0.12468
      12 -> 32        -0.10717

 Excited State  68:      Singlet-A"    17.7547 eV   69.83 nm  f=0.0076  <S**2>=0.000
       8 -> 20        -0.12881
       9 -> 18        -0.13562
       9 -> 22         0.45161
      11 -> 27        -0.16606
      11 -> 28         0.39049

 Excited State  69:      Singlet-A"    17.7747 eV   69.75 nm  f=0.1816  <S**2>=0.000
       6 -> 14         0.31661
       8 -> 20         0.38356
       9 -> 21         0.16882
      12 -> 31         0.40975

 Excited State  70:      Singlet-A'    17.8165 eV   69.59 nm  f=0.0163  <S**2>=0.000
       7 -> 16        -0.17968
       7 -> 18        -0.30089
       7 -> 21        -0.24103
       8 -> 21         0.11093
      12 -> 27        -0.11896
      12 -> 28        -0.20956
      12 -> 30         0.30716
      12 -> 32        -0.21148

 Excited State  71:      Singlet-A"    17.8906 eV   69.30 nm  f=0.0887  <S**2>=0.000
       6 -> 14        -0.18012
       8 -> 20         0.51335
       9 -> 21        -0.10853
       9 -> 22         0.10199
      12 -> 31        -0.33493

 Excited State  72:      Singlet-A'    17.9691 eV   69.00 nm  f=0.0147  <S**2>=0.000
       7 -> 18         0.15516
       7 -> 19        -0.12794
       7 -> 21         0.23681
       8 -> 19         0.31162
       9 -> 23        -0.17694
      10 -> 24        -0.17796
      10 -> 25        -0.11598
      10 -> 27        -0.13245
      11 -> 26        -0.10421
      12 -> 28        -0.11154
      12 -> 29         0.12721
      12 -> 30         0.31516

 Excited State  73:      Singlet-A"    18.0582 eV   68.66 nm  f=0.0108  <S**2>=0.000
       9 -> 16        -0.14122
       9 -> 22        -0.36442
       9 -> 24        -0.19756
       9 -> 25         0.11164
      11 -> 27        -0.15566
      11 -> 28         0.43454
      11 -> 29         0.12752
      11 -> 32        -0.13862

 Excited State  74:      Singlet-A'    18.1059 eV   68.48 nm  f=0.0168  <S**2>=0.000
       7 -> 18        -0.12538
       8 -> 19         0.21838
       8 -> 21        -0.10645
       8 -> 22         0.15877
       9 -> 23         0.34359
      10 -> 22         0.12324
      10 -> 25         0.35594
      11 -> 26         0.14724
      11 -> 31        -0.13974
      12 -> 32        -0.17587

 Excited State  75:      Singlet-A'    18.2470 eV   67.95 nm  f=0.1076  <S**2>=0.000
       7 -> 18        -0.18285
       7 -> 19        -0.22727
       7 -> 21         0.22219
       8 -> 18        -0.11643
       8 -> 22        -0.20300
       9 -> 23         0.33861
      10 -> 25        -0.30781
      11 -> 31        -0.12339

 Excited State  76:      Singlet-A'    18.3428 eV   67.59 nm  f=0.0336  <S**2>=0.000
       7 -> 18        -0.26870
       7 -> 19        -0.20699
       7 -> 21         0.18330
       8 -> 22        -0.10454
       9 -> 23        -0.22401
      10 -> 25         0.32696
      12 -> 32         0.24298
      12 -> 33         0.14202

 Excited State  77:      Singlet-A'    18.4132 eV   67.33 nm  f=0.0032  <S**2>=0.000
       7 -> 18         0.21931
       7 -> 19         0.20087
       8 -> 22        -0.11967

 The electronic state is 1-A'.
 Alpha  occ. eigenvalues --  -19.04954 -18.99229 -10.27202  -1.25714  -1.16215
 Alpha  occ. eigenvalues --   -0.81287  -0.66734  -0.62619  -0.60173  -0.54148
 Alpha  occ. eigenvalues --   -0.46675  -0.42337
 Alpha virt. eigenvalues --    0.08129   0.08143   0.10352   0.14684   0.15026
 Alpha virt. eigenvalues --    0.18312   0.18800   0.20304   0.21174   0.23833
 Alpha virt. eigenvalues --    0.28305   0.29106   0.32568   0.35717   0.36847

 Mulliken charges:
               1
     1  O   -0.219106
     2  C    0.552703
     3  O   -0.304935
     4  H    0.166615
     5  H   -0.195278
 Sum of Mulliken charges =  -0.00000

 Dipole moment (field-independent basis, Debye):
    X=             -1.5638    Y=             -0.2880    Z=             -0.0000  Tot=              1.5901
 Quadrupole moment (field-independent basis, Debye-Ang):
   XX=            -22.4023   YY=            -12.8530   ZZ=            -17.1300
   XY=             -0.0393   XZ=              0.0000   YZ=             -0.0000

 Normal termination of Gaussian 16 at Mon Mar 21 20:07:12 2022.
