 Gaussian 16, Revision C.01,
 Gaussian 16:  EM64L-G16RevC.01  3-Jul-2019

 ----------------------------------------------------------------------
 #P TD(Nstates=10000) lc-whpbe/Gen SCF(maxcycles=100) Int(Grid=ultrafin
 e)
 ----------------------------------------------------------------------

 ---------------------
 xGDB7_00001_tier4.com
 ---------------------
 Symbolic Z-matrix:
 Charge =  0 Multiplicity = 1

                         Standard orientation:
 ---------------------------------------------------------------------
 Center     Atomic      Atomic             Coordinates (Angstroms)
 Number     Number       Type             X           Y           Z
 ---------------------------------------------------------------------
      1          8           0       -1.028621   -0.395177   -0.000000
      2          7           0       -0.000000    0.526228   -0.000000
      3          6           0        1.132746   -0.030907    0.000000
      4          1           0       -1.816572    0.151791   -0.000000
      5          1           0        1.994262    0.623439    0.000000
      6          1           0        1.254802   -1.111965    0.000000
 ---------------------------------------------------------------------

 SCF Done:  E(RLC-wHPBE) =  -169.593555961     A.U. after   14 cycles

 Excitation energies and oscillator strengths:

 Excited State   1:      Singlet-A"     6.0569 eV  204.70 nm  f=0.0014  <S**2>=0.000
      11 -> 13         0.69829
 This state for optimization and/or second-order correction.
 Total Energy, E(TD-HF/TD-DFT) =  -169.370968742
 Copying the excited state density for this state as the 1-particle RhoCI density.

 Excited State   2:      Singlet-A'     7.1361 eV  173.74 nm  f=0.1965  <S**2>=0.000
      12 -> 13         0.69126

 Excited State   3:      Singlet-A"     7.7744 eV  159.48 nm  f=0.0029  <S**2>=0.000
      12 -> 14         0.64392
      12 -> 15        -0.20439
      12 -> 21        -0.11835

 Excited State   4:      Singlet-A'     8.2684 eV  149.95 nm  f=0.0226  <S**2>=0.000
      11 -> 14         0.64549
      11 -> 15        -0.20055
      11 -> 21        -0.10451

 Excited State   5:      Singlet-A"     8.8479 eV  140.13 nm  f=0.0166  <S**2>=0.000
      12 -> 14         0.21279
      12 -> 15         0.57706
      12 -> 17         0.27055
      12 -> 19         0.10690

 Excited State   6:      Singlet-A'     9.4491 eV  131.21 nm  f=0.0235  <S**2>=0.000
      11 -> 14         0.20094
      11 -> 15         0.62689
      11 -> 17         0.10194
      11 -> 19         0.12424

 Excited State   7:      Singlet-A"     9.4533 eV  131.15 nm  f=0.0098  <S**2>=0.000
      12 -> 15        -0.29461
      12 -> 17         0.50066
      12 -> 20        -0.24104
      12 -> 21         0.16374
      12 -> 25        -0.20845

 Excited State   8:      Singlet-A"     9.6732 eV  128.17 nm  f=0.0012  <S**2>=0.000
       8 -> 13         0.13454
      10 -> 13         0.67304
      12 -> 16         0.10544

 Excited State   9:      Singlet-A"    10.0120 eV  123.84 nm  f=0.0183  <S**2>=0.000
      12 -> 16         0.67202

 Excited State  10:      Singlet-A'    10.0149 eV  123.80 nm  f=0.1164  <S**2>=0.000
      11 -> 15        -0.16128
      11 -> 16        -0.22268
      11 -> 17         0.49371
      11 -> 20        -0.21083
      11 -> 21         0.17904
      11 -> 25        -0.19843
      12 -> 18         0.19659

 Excited State  11:      Singlet-A'    10.5484 eV  117.54 nm  f=0.0360  <S**2>=0.000
      11 -> 16         0.43468
      12 -> 18         0.52803

 Excited State  12:      Singlet-A'    10.7465 eV  115.37 nm  f=0.2017  <S**2>=0.000
      11 -> 16         0.44692
      11 -> 17         0.28963
      11 -> 19        -0.10319
      11 -> 20        -0.14715
      12 -> 18        -0.38552

 Excited State  13:      Singlet-A"    10.8577 eV  114.19 nm  f=0.0194  <S**2>=0.000
      11 -> 18         0.60557
      12 -> 17        -0.13524
      12 -> 19        -0.15003
      12 -> 20        -0.26331

 Excited State  14:      Singlet-A"    10.9005 eV  113.74 nm  f=0.0325  <S**2>=0.000
      11 -> 18         0.33237
      12 -> 17         0.19776
      12 -> 19         0.30781
      12 -> 20         0.45232

 Excited State  15:      Singlet-A'    11.1233 eV  111.46 nm  f=0.0871  <S**2>=0.000
       9 -> 13         0.67011

 Excited State  16:      Singlet-A"    11.1603 eV  111.09 nm  f=0.0003  <S**2>=0.000
       8 -> 13        -0.16976
      12 -> 17        -0.16612
      12 -> 19         0.56154
      12 -> 20        -0.28759

 Excited State  17:      Singlet-A"    11.3768 eV  108.98 nm  f=0.0025  <S**2>=0.000
       7 -> 13        -0.10285
       8 -> 13         0.62031
      10 -> 13        -0.11771
      12 -> 17        -0.13589
      12 -> 19         0.12179
      12 -> 21         0.14810

 Excited State  18:      Singlet-A'    11.4780 eV  108.02 nm  f=0.0015  <S**2>=0.000
      11 -> 17         0.28142
      11 -> 19         0.16473
      11 -> 20         0.59770

 Excited State  19:      Singlet-A'    11.6058 eV  106.83 nm  f=0.0184  <S**2>=0.000
      11 -> 16         0.14625
      11 -> 17        -0.10570
      11 -> 19         0.62926
      11 -> 20        -0.15005

 Excited State  20:      Singlet-A"    11.7959 eV  105.11 nm  f=0.0056  <S**2>=0.000
       8 -> 13        -0.17510
      12 -> 17        -0.16906
      12 -> 20         0.14923
      12 -> 21         0.59724

 Excited State  21:      Singlet-A"    12.2511 eV  101.20 nm  f=0.0186  <S**2>=0.000
       9 -> 14         0.58911
       9 -> 15        -0.22897
       9 -> 21        -0.14711
      12 -> 14        -0.11263
      12 -> 19         0.11072

 Excited State  22:      Singlet-A'    12.2936 eV  100.85 nm  f=0.1393  <S**2>=0.000
       8 -> 14         0.18420
       8 -> 15        -0.13910
      10 -> 14        -0.40993
      11 -> 17        -0.11875
      11 -> 21         0.44738

 Excited State  23:      Singlet-A'    12.4643 eV   99.47 nm  f=0.1019  <S**2>=0.000
      10 -> 14         0.47398
      10 -> 15         0.18605
      11 -> 15        -0.11577
      11 -> 20         0.11123
      11 -> 21         0.38821

 Excited State  24:      Singlet-A'    12.7720 eV   97.08 nm  f=0.1133  <S**2>=0.000
       7 -> 14         0.10589
       8 -> 14         0.20253
      10 -> 15         0.57778
      10 -> 20        -0.10685
      11 -> 14        -0.10424
      11 -> 21        -0.17521

 Excited State  25:      Singlet-A"    13.0239 eV   95.20 nm  f=0.0144  <S**2>=0.000
       7 -> 13         0.38446
       9 -> 15        -0.13638
       9 -> 17        -0.30603
       9 -> 20         0.15845
       9 -> 25         0.11644
      12 -> 25         0.35621

 Excited State  26:      Singlet-A'    13.0488 eV   95.02 nm  f=0.0994  <S**2>=0.000
      12 -> 22         0.61609
      12 -> 23        -0.27226

 Excited State  27:      Singlet-A"    13.1706 eV   94.14 nm  f=0.0001  <S**2>=0.000
       7 -> 13         0.47497
       9 -> 15         0.14651
       9 -> 17         0.21427
      11 -> 22        -0.24874
      12 -> 24         0.15226
      12 -> 25        -0.22414

 Excited State  28:      Singlet-A'    13.3256 eV   93.04 nm  f=0.1582  <S**2>=0.000
       8 -> 14         0.27031
       9 -> 18        -0.11631
      10 -> 16        -0.16064
      10 -> 17        -0.31868
      11 -> 21        -0.11096
      11 -> 25        -0.13035
      12 -> 22         0.14168
      12 -> 23         0.41690

 Excited State  29:      Singlet-A"    13.3812 eV   92.66 nm  f=0.0017  <S**2>=0.000
       7 -> 13         0.23190
      11 -> 22         0.61190
      11 -> 23        -0.12793
      11 -> 31         0.10175

 Excited State  30:      Singlet-A"    13.5558 eV   91.46 nm  f=0.1476  <S**2>=0.000
       7 -> 13        -0.17251
       9 -> 14         0.18009
       9 -> 15         0.24534
       9 -> 20         0.12616
      12 -> 24         0.50891
      12 -> 25         0.20640

 Excited State  31:      Singlet-A'    13.6504 eV   90.83 nm  f=0.0374  <S**2>=0.000
       6 -> 14        -0.10261
       8 -> 14         0.43754
       8 -> 15        -0.16469
      10 -> 14         0.12280
      11 -> 25        -0.10614
      12 -> 22        -0.20596
      12 -> 23        -0.36176

 Excited State  32:      Singlet-A"    13.7161 eV   90.39 nm  f=0.0005  <S**2>=0.000
       9 -> 14        -0.13991
       9 -> 15        -0.33730
      10 -> 18         0.11915
      11 -> 23         0.44392
      12 -> 21        -0.10694
      12 -> 24         0.22411
      12 -> 25        -0.21643

 Excited State  33:      Singlet-A"    13.7982 eV   89.86 nm  f=0.0195  <S**2>=0.000
       9 -> 15         0.25222
       9 -> 17         0.10422
      11 -> 22         0.10674
      11 -> 23         0.47248
      12 -> 21         0.11829
      12 -> 24        -0.27656
      12 -> 25         0.21026

 Excited State  34:      Singlet-A'    13.8154 eV   89.74 nm  f=0.0103  <S**2>=0.000
       8 -> 14        -0.13055
       8 -> 15         0.11505
      10 -> 15         0.15662
      10 -> 17        -0.31246
      10 -> 19        -0.18687
      10 -> 21        -0.10071
      11 -> 24         0.39259
      11 -> 25        -0.19157
      11 -> 26         0.11863
      12 -> 23        -0.16498

 Excited State  35:      Singlet-A"    14.0969 eV   87.95 nm  f=0.0015  <S**2>=0.000
       9 -> 15        -0.28513
       9 -> 16        -0.24853
       9 -> 17         0.34014
       9 -> 20        -0.19876
       9 -> 21         0.18012
       9 -> 25        -0.19013
      12 -> 25         0.27461

 Excited State  36:      Singlet-A'    14.1683 eV   87.51 nm  f=0.0358  <S**2>=0.000
       8 -> 14         0.16485
      10 -> 16         0.17170
      11 -> 24         0.45275
      11 -> 25         0.41019

 Excited State  37:      Singlet-A'    14.3546 eV   86.37 nm  f=0.0081  <S**2>=0.000
       8 -> 15         0.15039
      10 -> 16        -0.13234
      10 -> 17        -0.30016
      10 -> 19        -0.14769
      11 -> 17         0.10407
      11 -> 21         0.12271
      11 -> 24        -0.27829
      11 -> 25         0.38879
      11 -> 26         0.10289
      12 -> 23        -0.11464

 Excited State  38:      Singlet-A'    14.4642 eV   85.72 nm  f=0.0016  <S**2>=0.000
       8 -> 16        -0.12124
       9 -> 18        -0.16288
      10 -> 16         0.52300
      10 -> 17        -0.17345
      10 -> 19        -0.14999
      10 -> 21        -0.11855
      11 -> 24        -0.13705
      11 -> 26        -0.12788
      12 -> 27        -0.11873

 Excited State  39:      Singlet-A"    14.5053 eV   85.48 nm  f=0.0025  <S**2>=0.000
       9 -> 15        -0.17641
       9 -> 16         0.27730
       9 -> 17         0.11006
      12 -> 26         0.58450

 Excited State  40:      Singlet-A'    14.6727 eV   84.50 nm  f=0.0341  <S**2>=0.000
       7 -> 14        -0.10601
       8 -> 14         0.18177
       8 -> 15         0.28592
       9 -> 18         0.33078
      10 -> 16         0.20436
      10 -> 19        -0.15338
      10 -> 20        -0.12463
      11 -> 26         0.31347
      12 -> 23         0.13561

 Excited State  41:      Singlet-A"    14.6956 eV   84.37 nm  f=0.0051  <S**2>=0.000
       9 -> 16         0.55799
      12 -> 25         0.12613
      12 -> 26        -0.31568

 Excited State  42:      Singlet-A'    14.8469 eV   83.51 nm  f=0.0127  <S**2>=0.000
       7 -> 15        -0.11452
       8 -> 14         0.14515
       8 -> 15         0.45039
       9 -> 18        -0.40964
      10 -> 17         0.10786
      10 -> 19         0.13008
      12 -> 23        -0.10603

 Excited State  43:      Singlet-A"    14.8485 eV   83.50 nm  f=0.0028  <S**2>=0.000
       8 -> 18        -0.16974
      10 -> 18         0.63189
      11 -> 23        -0.14766

 Excited State  44:      Singlet-A'    15.0142 eV   82.58 nm  f=0.0084  <S**2>=0.000
       7 -> 14         0.12724
       8 -> 15        -0.17863
       8 -> 17         0.13577
       9 -> 18        -0.16839
      10 -> 19         0.30371
      11 -> 26         0.47542

 Excited State  45:      Singlet-A'    15.0749 eV   82.25 nm  f=0.0116  <S**2>=0.000
       8 -> 15        -0.14329
       8 -> 17        -0.17102
       9 -> 18        -0.23037
      10 -> 19        -0.18437
      10 -> 20        -0.15399
      11 -> 26         0.12658
      12 -> 27         0.49863

 Excited State  46:      Singlet-A'    15.2933 eV   81.07 nm  f=0.1624  <S**2>=0.000
       8 -> 17         0.17231
       8 -> 19         0.13068
       9 -> 18         0.20587
      10 -> 17        -0.16204
      10 -> 19         0.32693
      11 -> 26        -0.21303
      12 -> 27         0.38075

 Excited State  47:      Singlet-A'    15.3504 eV   80.77 nm  f=0.1871  <S**2>=0.000
       8 -> 17         0.20754
      10 -> 17         0.18462
      10 -> 19        -0.13652
      10 -> 20         0.53421
      12 -> 27         0.21106

 Excited State  48:      Singlet-A"    15.4681 eV   80.15 nm  f=0.0156  <S**2>=0.000
       6 -> 13        -0.26094
       9 -> 14        -0.11498
       9 -> 17         0.27427
       9 -> 19         0.21497
       9 -> 20         0.42996
      11 -> 27         0.17392
      12 -> 24        -0.15076
      12 -> 28        -0.11163
      12 -> 29         0.10107

 Excited State  49:      Singlet-A"    15.5735 eV   79.61 nm  f=0.0005  <S**2>=0.000
       6 -> 13         0.13736
       9 -> 20        -0.10242
      10 -> 23         0.14950
      11 -> 27         0.63503

 Excited State  50:      Singlet-A'    15.7162 eV   78.89 nm  f=0.0722  <S**2>=0.000
       8 -> 15        -0.10229
       8 -> 16         0.22056
       8 -> 17         0.41298
       8 -> 20        -0.19586
       9 -> 18        -0.15800
      10 -> 16        -0.13511
      10 -> 17         0.11929
      10 -> 19        -0.16402
      10 -> 20        -0.26183

 Excited State  51:      Singlet-A'    15.8595 eV   78.18 nm  f=0.0779  <S**2>=0.000
       7 -> 14         0.27310
       8 -> 16         0.51698
       8 -> 17        -0.14630
      10 -> 16         0.14434
      10 -> 21        -0.20251

 Excited State  52:      Singlet-A"    15.9248 eV   77.86 nm  f=0.0551  <S**2>=0.000
       6 -> 13         0.43594
       8 -> 18        -0.18303
       9 -> 19         0.21593
       9 -> 20         0.17288
       9 -> 21        -0.12164
      10 -> 22        -0.13215
      12 -> 28         0.30052
      12 -> 29        -0.10049

 Excited State  53:      Singlet-A"    16.0061 eV   77.46 nm  f=0.0000  <S**2>=0.000
       6 -> 13        -0.10369
       8 -> 18         0.41634
       9 -> 19         0.16931
      10 -> 18         0.12598
      10 -> 22         0.16068
      11 -> 31        -0.12296
      12 -> 28         0.28891
      12 -> 29        -0.28165

 Excited State  54:      Singlet-A'    16.0067 eV   77.46 nm  f=0.1773  <S**2>=0.000
       7 -> 14         0.50940
       8 -> 16        -0.16004
       8 -> 17         0.12404
       8 -> 20         0.17704
      10 -> 14         0.10607
      10 -> 15        -0.10391
      10 -> 19        -0.14439
      10 -> 21         0.22884

 Excited State  55:      Singlet-A"    16.0507 eV   77.25 nm  f=0.0001  <S**2>=0.000
       9 -> 17        -0.20933
       9 -> 19         0.53813
       9 -> 20        -0.13594
       9 -> 21         0.14119
      12 -> 28        -0.28785

 Excited State  56:      Singlet-A"    16.1164 eV   76.93 nm  f=0.0635  <S**2>=0.000
       6 -> 13         0.28312
       8 -> 18         0.40757
       9 -> 21        -0.26766
      10 -> 18         0.10107
      12 -> 28        -0.16389
      12 -> 29         0.27265

 Excited State  57:      Singlet-A'    16.2760 eV   76.18 nm  f=0.0208  <S**2>=0.000
       7 -> 14        -0.18421
       7 -> 16        -0.14027
       8 -> 16         0.25420
       8 -> 21        -0.10477
      10 -> 16         0.10695
      10 -> 17        -0.17491
      10 -> 21         0.42459
      11 -> 28         0.26908

 Excited State  58:      Singlet-A"    16.3014 eV   76.06 nm  f=0.0300  <S**2>=0.000
       6 -> 13         0.22100
       8 -> 18         0.14547
       9 -> 19        -0.17503
       9 -> 20         0.31053
       9 -> 21         0.42920
      10 -> 22        -0.13044
      12 -> 28        -0.15811

 Excited State  59:      Singlet-A'    16.4886 eV   75.19 nm  f=0.1141  <S**2>=0.000
       7 -> 15         0.49140
       7 -> 16         0.10823
       7 -> 17         0.14422
       8 -> 19         0.19962
       8 -> 20         0.19981
      10 -> 17         0.10838
      10 -> 21        -0.12199
      12 -> 31        -0.17519

 Excited State  60:      Singlet-A'    16.5914 eV   74.73 nm  f=0.1088  <S**2>=0.000
       8 -> 17        -0.10660
       8 -> 20        -0.17676
      10 -> 21        -0.16196
      11 -> 28         0.48952
      11 -> 29        -0.27435
      12 -> 31         0.22135

 Excited State  61:      Singlet-A'    16.7020 eV   74.23 nm  f=0.0073  <S**2>=0.000
       7 -> 14        -0.12420
       7 -> 15        -0.28175
       7 -> 17        -0.16517
       8 -> 17         0.16671
       8 -> 19         0.21610
       8 -> 20         0.39666
      10 -> 21        -0.18881
      11 -> 28         0.16781

 Excited State  62:      Singlet-A"    16.7544 eV   74.00 nm  f=0.0929  <S**2>=0.000
       6 -> 13         0.16628
       8 -> 18        -0.15925
       8 -> 22         0.13690
      10 -> 22         0.43314
      11 -> 31        -0.16489
      12 -> 28        -0.26160
      12 -> 29        -0.24157
      12 -> 30         0.11383

 Excited State  63:      Singlet-A"    16.7866 eV   73.86 nm  f=0.2403  <S**2>=0.000
       9 -> 21         0.20545
      10 -> 22         0.32382
      12 -> 28         0.24827
      12 -> 29         0.45335

 Excited State  64:      Singlet-A'    16.9346 eV   73.21 nm  f=0.0334  <S**2>=0.000
       7 -> 15         0.20472
       8 -> 19        -0.22641
       8 -> 20         0.23857
      12 -> 31         0.51784

 Excited State  65:      Singlet-A'    16.9909 eV   72.97 nm  f=0.1905  <S**2>=0.000
       7 -> 17         0.20856
       8 -> 17        -0.14470
       8 -> 19         0.33600
       8 -> 20        -0.13050
      10 -> 21         0.15071
      10 -> 25         0.16418
      11 -> 29         0.28277
      12 -> 31         0.26761

 Excited State  66:      Singlet-A'    17.0747 eV   72.61 nm  f=0.0593  <S**2>=0.000
       7 -> 15         0.11094
       7 -> 17        -0.26276
       7 -> 19        -0.16794
       8 -> 19         0.33709
       8 -> 21        -0.10369
      10 -> 24         0.11201
      11 -> 28        -0.21853
      11 -> 29        -0.28640
      12 -> 31         0.13956

 Excited State  67:      Singlet-A"    17.0867 eV   72.56 nm  f=0.0035  <S**2>=0.000
      10 -> 22         0.21771
      11 -> 22        -0.12375
      11 -> 31         0.61309

 Excited State  68:      Singlet-A"    17.1073 eV   72.47 nm  f=0.0207  <S**2>=0.000
       9 -> 25        -0.17083
      10 -> 23        -0.16884
      12 -> 30         0.54311
      12 -> 32        -0.27025

 Excited State  69:      Singlet-A"    17.2084 eV   72.05 nm  f=0.0012  <S**2>=0.000
       7 -> 18         0.26582
      10 -> 22        -0.10649
      10 -> 23         0.54628
      11 -> 27        -0.14959
      12 -> 30         0.18041

 Excited State  70:      Singlet-A'    17.2540 eV   71.86 nm  f=0.0567  <S**2>=0.000
       7 -> 17        -0.20939
       8 -> 20        -0.13998
       8 -> 21        -0.24872
      10 -> 21        -0.10877
      10 -> 24         0.13563
      11 -> 28         0.21899
      11 -> 29         0.41197

 Excited State  71:      Singlet-A'    17.4191 eV   71.18 nm  f=0.0007  <S**2>=0.000
       7 -> 16        -0.15979
       7 -> 17        -0.23547
       8 -> 17        -0.10656
       8 -> 21         0.23648
      11 -> 29         0.14932
      11 -> 30         0.41932
      11 -> 32        -0.25018

 Excited State  72:      Singlet-A"    17.5451 eV   70.67 nm  f=0.0245  <S**2>=0.000
      12 -> 30         0.25710
      12 -> 32         0.56155
      12 -> 33         0.22467

 Excited State  73:      Singlet-A'    17.6361 eV   70.30 nm  f=0.0057  <S**2>=0.000
       7 -> 16         0.14008
       8 -> 21        -0.11111
       9 -> 22        -0.35154
       9 -> 23         0.45736
      10 -> 24         0.13349
      11 -> 32        -0.13121
      12 -> 27         0.13272

 Excited State  74:      Singlet-A'    17.7836 eV   69.72 nm  f=0.1154  <S**2>=0.000
       7 -> 16         0.27909
       7 -> 17        -0.13710
       7 -> 19        -0.12187
       7 -> 20        -0.20667
       7 -> 21        -0.13211
       8 -> 21         0.36552
      10 -> 21         0.13291
      10 -> 24         0.20980
      11 -> 30        -0.16147

 Excited State  75:      Singlet-A'    17.8013 eV   69.65 nm  f=0.0465  <S**2>=0.000
       7 -> 16         0.44698
       8 -> 21        -0.19537
       9 -> 23        -0.14377
      10 -> 25         0.10849
      11 -> 29        -0.10070
      11 -> 30         0.33652
      11 -> 33         0.10423

 Excited State  76:      Singlet-A'    17.9033 eV   69.25 nm  f=0.0227  <S**2>=0.000
       6 -> 14        -0.17642
       6 -> 15         0.10174
       6 -> 17         0.12007
       7 -> 17        -0.15029
       7 -> 19         0.11605
       8 -> 24        -0.11356
       8 -> 25         0.11926
      10 -> 24        -0.14445
      10 -> 25         0.42342
      10 -> 26         0.10985
      11 -> 30        -0.25517

 Excited State  77:      Singlet-A"    17.9626 eV   69.02 nm  f=0.0696  <S**2>=0.000
       9 -> 24        -0.40898
      12 -> 28         0.10403
      12 -> 32        -0.16023
      12 -> 33         0.49450

 Excited State  78:      Singlet-A'    18.0201 eV   68.80 nm  f=0.0431  <S**2>=0.000
       7 -> 16        -0.13642
       9 -> 22        -0.18762
      10 -> 25         0.14706
      11 -> 30         0.11452
      11 -> 32         0.56004

 Excited State  79:      Singlet-A"    18.0314 eV   68.76 nm  f=0.0121  <S**2>=0.000

 The electronic state is 1-A'.
 Alpha  occ. eigenvalues --  -19.02816 -14.27933 -10.15782  -1.22785  -1.00047
 Alpha  occ. eigenvalues --   -0.74912  -0.67099  -0.60311  -0.55741  -0.54739
 Alpha  occ. eigenvalues --   -0.40750  -0.39433
 Alpha virt. eigenvalues --    0.07703   0.09088   0.11026   0.16104   0.18195
 Alpha virt. eigenvalues --    0.18437   0.21171   0.22325   0.24461   0.28710
 Alpha virt. eigenvalues --    0.29904   0.30811   0.31690   0.34729   0.36234

 Mulliken charges:
               1
     1  O   -0.352148
     2  N   -0.056620
     3  C    0.466699
     4  H    0.198341
     5  H   -0.168587
     6  H   -0.087686
 Sum of Mulliken charges =  -0.00000

 Dipole moment (field-independent basis, Debye):
    X=              0.3469    Y=             -0.1561    Z=              0.0000  Tot=              0.3804
 Quadrupole moment (field-independent basis, Debye-Ang):
   XX=            -11.8888   YY=            -19.4670   ZZ=            -19.0839
   XY=             -1.5741   XZ=              0.0000   YZ=              0.0000

 Normal termination of Gaussian 16 at Mon Mar 21 20:09:56 2022.
