 Gaussian 16, Revision C.01,
 Gaussian 16:  EM64L-G16RevC.01  3-Jul-2019

 ----------------------------------------------------------------------
 #P TD(Nstates=10000) lc-whpbe/Gen SCF(maxcycles=100) Int(Grid=ultrafin
 e)
 ----------------------------------------------------------------------

 ---------------------
 xGDB7_00001_tier4.com
 ---------------------
 Symbolic Z-matrix:
 Charge =  0 Multiplicity = 1

                         Standard orientation:
 ---------------------------------------------------------------------
 Center     Atomic      Atomic             Coordinates (Angstroms)
 Number     Number       Type             X           Y           Z
 ---------------------------------------------------------------------
      1          6           0        0.000000    0.729549   -0.367364
      2          6           0       -0.000000   -0.729549   -0.367364
      3          8           0       -0.000000   -0.000000    0.845033
      4          1           0       -0.918945    1.264243   -0.587975
      5          1           0        0.918945    1.264243   -0.587975
      6          1           0        0.918945   -1.264243   -0.587975
      7          1           0       -0.918945   -1.264243   -0.587975
 ---------------------------------------------------------------------

 SCF Done:  E(RLC-wHPBE) =  -153.595112798     A.U. after   12 cycles

 Excitation energies and oscillator strengths:

 Excited State   1:      Singlet-B1     8.3242 eV  148.95 nm  f=0.0025  <S**2>=0.000
      12 -> 13         0.45817
      12 -> 15         0.49362
      12 -> 18         0.17059
 This state for optimization and/or second-order correction.
 Total Energy, E(TD-HF/TD-DFT) =  -153.289205803
 Copying the excited state density for this state as the 1-particle RhoCI density.

 Excited State   2:      Singlet-A2     8.6529 eV  143.29 nm  f=0.0000  <S**2>=0.000
      12 -> 14        -0.32053
      12 -> 17         0.57297
      12 -> 20        -0.22804

 Excited State   3:      Singlet-B1     8.7310 eV  142.00 nm  f=0.0496  <S**2>=0.000
      12 -> 13         0.50754
      12 -> 15        -0.45379
      12 -> 27        -0.11572

 Excited State   4:      Singlet-A2     9.2462 eV  134.09 nm  f=0.0000  <S**2>=0.000
      10 -> 13        -0.11608
      12 -> 14         0.59363
      12 -> 17         0.22159
      12 -> 20        -0.25136
      12 -> 29        -0.12489

 Excited State   5:      Singlet-A1     9.3305 eV  132.88 nm  f=0.0484  <S**2>=0.000
      11 -> 13         0.22037
      12 -> 16         0.65599

 Excited State   6:      Singlet-A1     9.5682 eV  129.58 nm  f=0.0029  <S**2>=0.000
      11 -> 13         0.60941
      11 -> 15         0.18539
      11 -> 18         0.16301
      12 -> 16        -0.23429

 Excited State   7:      Singlet-A1     9.7328 eV  127.39 nm  f=0.0553  <S**2>=0.000
      11 -> 13        -0.22815
      11 -> 15         0.61827
      11 -> 18         0.16077
      11 -> 21         0.10790
      11 -> 27         0.10270

 Excited State   8:      Singlet-B2    10.2216 eV  121.30 nm  f=0.1375  <S**2>=0.000
      11 -> 14         0.64299
      11 -> 17        -0.25510

 Excited State   9:      Singlet-B1    10.3597 eV  119.68 nm  f=0.0112  <S**2>=0.000
      11 -> 16        -0.15127
      12 -> 15        -0.13677
      12 -> 18         0.65327

 Excited State  10:      Singlet-B1    10.5397 eV  117.64 nm  f=0.0111  <S**2>=0.000
      11 -> 16         0.67088
      11 -> 32        -0.10477
      12 -> 18         0.14376

 Excited State  11:      Singlet-B2    10.8254 eV  114.53 nm  f=0.1044  <S**2>=0.000
       9 -> 15        -0.11527
      11 -> 14         0.26424
      11 -> 17         0.57471
      11 -> 20        -0.21565

 Excited State  12:      Singlet-A2    11.1091 eV  111.61 nm  f=0.0000  <S**2>=0.000
      10 -> 13         0.53394
      10 -> 15        -0.15687
      12 -> 17        -0.15032
      12 -> 20        -0.36910

 Excited State  13:      Singlet-B1    11.4521 eV  108.26 nm  f=0.0509  <S**2>=0.000
      10 -> 14        -0.41126
      10 -> 17         0.25176
      10 -> 20        -0.13697
      12 -> 21         0.45978

 Excited State  14:      Singlet-A2    11.4533 eV  108.25 nm  f=0.0000  <S**2>=0.000
      10 -> 13         0.39267
      10 -> 18         0.13303
      12 -> 14         0.17140
      12 -> 17         0.25898
      12 -> 20         0.45806

 Excited State  15:      Singlet-A1    11.6193 eV  106.71 nm  f=0.0207  <S**2>=0.000
      11 -> 13        -0.11313
      11 -> 15        -0.20703
      11 -> 18         0.63931

 Excited State  16:      Singlet-B2    11.7801 eV  105.25 nm  f=0.1686  <S**2>=0.000
       9 -> 13         0.18898
      10 -> 16        -0.22127
      12 -> 19         0.61724

 Excited State  17:      Singlet-A2    11.8005 eV  105.07 nm  f=0.0000  <S**2>=0.000
      10 -> 15         0.58015
      10 -> 18         0.27169
      10 -> 21         0.12583
      12 -> 17        -0.12426
      12 -> 20        -0.12559
      12 -> 23        -0.11925

 Excited State  18:      Singlet-B1    11.9928 eV  103.38 nm  f=0.0003  <S**2>=0.000
      10 -> 17         0.51028
      10 -> 20        -0.22553
      12 -> 21        -0.40346

 Excited State  19:      Singlet-B2    12.0341 eV  103.03 nm  f=0.0071  <S**2>=0.000
       9 -> 13         0.64185
      12 -> 19        -0.22880

 Excited State  20:      Singlet-A1    12.1569 eV  101.99 nm  f=0.0000  <S**2>=0.000
       9 -> 17         0.28369
       9 -> 20        -0.11569
      11 -> 21         0.12374
      12 -> 22         0.59935

 Excited State  21:      Singlet-B2    12.2136 eV  101.51 nm  f=0.0895  <S**2>=0.000
       9 -> 15         0.62966
       9 -> 18         0.14070
      11 -> 17         0.18429

 Excited State  22:      Singlet-B1    12.3358 eV  100.51 nm  f=0.0871  <S**2>=0.000
       7 -> 13         0.10189
      10 -> 14         0.53610
      10 -> 17         0.25897
      10 -> 20        -0.10645
      12 -> 13         0.10424
      12 -> 21         0.28914

 Excited State  23:      Singlet-A1    12.6154 eV   98.28 nm  f=0.0043  <S**2>=0.000
       9 -> 14         0.63059
       9 -> 17        -0.19900
      12 -> 22         0.15831

 Excited State  24:      Singlet-B2    12.6831 eV   97.76 nm  f=0.1002  <S**2>=0.000
       9 -> 13         0.12054
      10 -> 16         0.54392
      11 -> 17        -0.15110
      11 -> 20        -0.29875
      12 -> 19         0.20744

 Excited State  25:      Singlet-A2    12.7738 eV   97.06 nm  f=0.0000  <S**2>=0.000
       9 -> 16        -0.19530
      11 -> 19         0.60344
      12 -> 23        -0.25284

 Excited State  26:      Singlet-A2    12.8203 eV   96.71 nm  f=0.0000  <S**2>=0.000
       9 -> 16         0.10406
      10 -> 15         0.12436
      11 -> 19         0.31546
      12 -> 23         0.56426

 Excited State  27:      Singlet-A2    12.9239 eV   95.93 nm  f=0.0000  <S**2>=0.000
       9 -> 16         0.65215
       9 -> 32        -0.10323
      11 -> 19         0.12897
      12 -> 23        -0.17417

 Excited State  28:      Singlet-B2    12.9291 eV   95.90 nm  f=0.0168  <S**2>=0.000
       9 -> 15        -0.11511
      10 -> 16         0.34559
      11 -> 17         0.13819
      11 -> 20         0.54607
      11 -> 23         0.13112

 Excited State  29:      Singlet-A1    12.9541 eV   95.71 nm  f=0.0609  <S**2>=0.000
       9 -> 14        -0.19549
       9 -> 17        -0.27380
       9 -> 20         0.13732
      11 -> 15        -0.10757
      11 -> 21         0.52489
      12 -> 24        -0.19510

 Excited State  30:      Singlet-A1    12.9991 eV   95.38 nm  f=0.0020  <S**2>=0.000
      11 -> 21         0.19762
      12 -> 22        -0.10564
      12 -> 24         0.64694

 Excited State  31:      Singlet-B1    13.1106 eV   94.57 nm  f=0.0047  <S**2>=0.000
      11 -> 22         0.68062

 Excited State  32:      Singlet-B1    13.4688 eV   92.05 nm  f=0.0003  <S**2>=0.000
      11 -> 24        -0.12053
      12 -> 21        -0.12408
      12 -> 25         0.60153
      12 -> 27         0.26169

 Excited State  33:      Singlet-A2    13.7217 eV   90.36 nm  f=0.0000  <S**2>=0.000
       7 -> 14        -0.11709
      10 -> 13        -0.11868
      10 -> 15        -0.14806
      10 -> 18         0.55005
      10 -> 21        -0.29141
      12 -> 23         0.19404

 Excited State  34:      Singlet-B2    13.8152 eV   89.74 nm  f=0.0178  <S**2>=0.000
       9 -> 18        -0.19239
      11 -> 20        -0.13876
      11 -> 23         0.62761
      11 -> 37        -0.12021

 Excited State  35:      Singlet-A1    13.8401 eV   89.58 nm  f=0.0604  <S**2>=0.000
       8 -> 13         0.15270
       8 -> 15        -0.14846
       9 -> 14         0.16977
       9 -> 17         0.33737
       9 -> 20        -0.25194
      11 -> 21         0.30962
      11 -> 25        -0.11069
      11 -> 27        -0.17927
      12 -> 22        -0.24671

 Excited State  36:      Singlet-B1    13.8761 eV   89.35 nm  f=0.0068  <S**2>=0.000
      11 -> 24         0.65665
      12 -> 27         0.16772

 Excited State  37:      Singlet-B2    14.0216 eV   88.42 nm  f=0.0415  <S**2>=0.000
       9 -> 15        -0.11118
       9 -> 18         0.63265
      11 -> 23         0.21470

 Excited State  38:      Singlet-B1    14.2326 eV   87.11 nm  f=0.0359  <S**2>=0.000
      10 -> 20        -0.22188
      11 -> 24        -0.11793
      12 -> 25        -0.30779
      12 -> 27         0.53679

 Excited State  39:      Singlet-A1    14.4260 eV   85.95 nm  f=0.0007  <S**2>=0.000
       8 -> 13        -0.39843
       9 -> 17         0.12834
      11 -> 21         0.10866
      11 -> 25         0.48467
      11 -> 27         0.13327
      12 -> 22        -0.11016

 Excited State  40:      Singlet-B2    14.4754 eV   85.65 nm  f=0.0385  <S**2>=0.000
       8 -> 17         0.12157
      10 -> 22         0.23514
      10 -> 24        -0.15778
      12 -> 26         0.60398
      12 -> 42        -0.11856

 Excited State  41:      Singlet-A1    14.5661 eV   85.12 nm  f=0.0196  <S**2>=0.000
       8 -> 13         0.37954
       8 -> 15         0.33132
       8 -> 18         0.17682
      10 -> 19        -0.32783
      11 -> 25         0.25643

 Excited State  42:      Singlet-B2    14.6612 eV   84.57 nm  f=0.1060  <S**2>=0.000
       8 -> 14        -0.41167
       8 -> 17         0.47025
       8 -> 20        -0.19188
       9 -> 21         0.11330
      12 -> 26        -0.12686

 Excited State  43:      Singlet-A2    14.7139 eV   84.26 nm  f=0.0000  <S**2>=0.000
       7 -> 14         0.15076
       7 -> 17        -0.11209
      10 -> 15        -0.22948
      10 -> 18         0.24213
      10 -> 21         0.47292
      10 -> 25        -0.15774
      12 -> 29         0.26787

 Excited State  44:      Singlet-A1    14.7433 eV   84.10 nm  f=0.0781  <S**2>=0.000
       8 -> 13        -0.13175
       8 -> 15         0.43380
       8 -> 18         0.12780
       9 -> 17         0.20205
       9 -> 20         0.25688
      10 -> 19         0.32881
      11 -> 27        -0.14601

 Excited State  45:      Singlet-A1    14.8832 eV   83.30 nm  f=0.1750  <S**2>=0.000
       8 -> 13         0.32543
       8 -> 15        -0.24374
       9 -> 20         0.19086
      10 -> 19         0.33445
      11 -> 25         0.33459
      12 -> 28         0.12501

 Excited State  46:      Singlet-B1    14.9733 eV   82.80 nm  f=0.0027  <S**2>=0.000
       7 -> 15        -0.17680
       9 -> 19        -0.15301
      10 -> 17         0.22571
      10 -> 20         0.54603
      12 -> 27         0.22539

 Excited State  47:      Singlet-A2    15.0657 eV   82.30 nm  f=0.0000  <S**2>=0.000
       7 -> 17        -0.16467
      10 -> 18        -0.10818
      10 -> 21        -0.25677
      12 -> 29         0.53667
      12 -> 37        -0.15840

 Excited State  48:      Singlet-B1    15.1178 eV   82.01 nm  f=0.2693  <S**2>=0.000
       7 -> 13        -0.10773
       8 -> 16        -0.39913
       9 -> 19         0.50762
      10 -> 20         0.13210
      12 -> 27         0.10001

 Excited State  49:      Singlet-B2    15.1320 eV   81.93 nm  f=0.1390  <S**2>=0.000
       8 -> 14        -0.29594
       8 -> 17        -0.29666
       8 -> 20         0.15530
       9 -> 21         0.47252
      10 -> 24         0.14645
      12 -> 26         0.11377

 Excited State  50:      Singlet-A1    15.2747 eV   81.17 nm  f=0.0069  <S**2>=0.000
       8 -> 15        -0.11186
       9 -> 17         0.27223
       9 -> 20         0.46659
      10 -> 19        -0.31695
      11 -> 25        -0.13596
      11 -> 27         0.17272

 Excited State  51:      Singlet-B2    15.4138 eV   80.44 nm  f=0.0092  <S**2>=0.000
      10 -> 16         0.10154
      10 -> 22         0.63154
      12 -> 26        -0.24246

 Excited State  52:      Singlet-B1    15.4328 eV   80.34 nm  f=0.2153  <S**2>=0.000
       7 -> 13         0.57284
       7 -> 18         0.12082
       8 -> 16         0.17467
       9 -> 19         0.27607
      10 -> 23         0.10668

 Excited State  53:      Singlet-B2    15.4740 eV   80.12 nm  f=0.0012  <S**2>=0.000
       8 -> 14         0.44366
       8 -> 17         0.20683
       8 -> 20        -0.15728
       9 -> 15        -0.11895
       9 -> 21         0.41787

 Excited State  54:      Singlet-A2    15.4838 eV   80.07 nm  f=0.0000  <S**2>=0.000
       9 -> 22         0.67457

 Excited State  55:      Singlet-A1    15.5062 eV   79.96 nm  f=0.0849  <S**2>=0.000
      10 -> 19        -0.11439
      11 -> 27        -0.29350
      12 -> 28         0.59174

 Excited State  56:      Singlet-B1    15.5425 eV   79.77 nm  f=0.0891  <S**2>=0.000
       7 -> 13        -0.19528
       7 -> 18        -0.11440
       8 -> 16         0.46729
       9 -> 19         0.30929
      10 -> 23        -0.30084

 Excited State  57:      Singlet-A2    15.6656 eV   79.14 nm  f=0.0000  <S**2>=0.000
       7 -> 14        -0.19089
       7 -> 17         0.51044
       7 -> 20        -0.26751
      10 -> 15         0.10270
      10 -> 25        -0.21149
      10 -> 27        -0.10343
      12 -> 29         0.18058

 Excited State  58:      Singlet-A2    15.7396 eV   78.77 nm  f=0.0000  <S**2>=0.000
      11 -> 26         0.68769
      11 -> 42        -0.11615

 Excited State  59:      Singlet-B1    15.8050 eV   78.45 nm  f=0.1686  <S**2>=0.000
       7 -> 13        -0.14682
       7 -> 15         0.43219
       7 -> 18         0.17182
       8 -> 16         0.17574
       9 -> 19         0.10691
      10 -> 17         0.13914
      10 -> 20         0.13327
      10 -> 23         0.25287
      12 -> 30        -0.27514

 Excited State  60:      Singlet-B2    15.9030 eV   77.96 nm  f=0.3546  <S**2>=0.000
       9 -> 21        -0.20173
      10 -> 24         0.62707
      12 -> 26         0.11553

 Excited State  61:      Singlet-B1    15.9841 eV   77.57 nm  f=0.0977  <S**2>=0.000
       7 -> 13        -0.20524
       7 -> 15        -0.33718
       8 -> 16         0.11513
       9 -> 19         0.10342
      10 -> 23         0.51056

 Excited State  62:      Singlet-A1    16.0723 eV   77.14 nm  f=0.2219  <S**2>=0.000
       8 -> 15         0.20075
       8 -> 18        -0.26782
       9 -> 20        -0.15877
       9 -> 23         0.31888
      10 -> 19         0.13491
      11 -> 27         0.34682
      12 -> 28         0.25156

 Excited State  63:      Singlet-A2    16.2644 eV   76.23 nm  f=0.0000  <S**2>=0.000
       7 -> 14         0.32216
       7 -> 17         0.11113
       9 -> 24        -0.31473
      10 -> 25        -0.10465
      12 -> 31         0.48055

 Excited State  64:      Singlet-B1    16.2881 eV   76.12 nm  f=0.0515  <S**2>=0.000
       7 -> 15         0.22909
      10 -> 23         0.13280
      12 -> 30         0.61372
      12 -> 34         0.11905

 Excited State  65:      Singlet-A1    16.3704 eV   75.74 nm  f=0.1778  <S**2>=0.000
       8 -> 21         0.13180
       9 -> 17        -0.10621
       9 -> 23         0.54666
      11 -> 27        -0.27185
      11 -> 30         0.12199
      12 -> 28        -0.11363
      12 -> 32        -0.11377

 Excited State  66:      Singlet-B2    16.3836 eV   75.68 nm  f=0.0650  <S**2>=0.000
      11 -> 29         0.64673
      11 -> 37        -0.14796

 Excited State  67:      Singlet-A2    16.4060 eV   75.57 nm  f=0.0000  <S**2>=0.000
       7 -> 14         0.35284
       9 -> 24         0.52930
      10 -> 21        -0.17316
      10 -> 25        -0.10571
      10 -> 27        -0.11241

 Excited State  68:      Singlet-A2    16.4726 eV   75.27 nm  f=0.0000  <S**2>=0.000
       7 -> 14        -0.30413
       9 -> 24         0.28187
      10 -> 21         0.13554
      10 -> 25         0.22452
      10 -> 27         0.22498
      12 -> 31         0.40768

 Excited State  69:      Singlet-A1    16.5900 eV   74.73 nm  f=0.0463  <S**2>=0.000
       7 -> 16         0.33912
       8 -> 18         0.46772
       8 -> 21        -0.15018
       9 -> 20        -0.13013
       9 -> 23         0.18220
      11 -> 27         0.17497

 Excited State  70:      Singlet-B1    16.6336 eV   74.54 nm  f=0.0136  <S**2>=0.000
       8 -> 22         0.13079
      11 -> 28         0.67552

 Excited State  71:      Singlet-A1    16.7456 eV   74.04 nm  f=0.0428  <S**2>=0.000
       7 -> 16        -0.37481
       8 -> 15        -0.10530
       8 -> 18         0.23871
       9 -> 23         0.13114
      12 -> 32         0.47799

 Excited State  72:      Singlet-A2    16.7937 eV   73.83 nm  f=0.0000  <S**2>=0.000
       7 -> 14         0.25700
       7 -> 17         0.23417
       7 -> 20        -0.15819
      10 -> 25         0.51758
      10 -> 27         0.13607
      12 -> 31        -0.15040
      12 -> 35         0.10550

 Excited State  73:      Singlet-A1    16.8957 eV   73.38 nm  f=0.0144  <S**2>=0.000
       7 -> 16         0.40255
       8 -> 18        -0.21574
      10 -> 26        -0.12256
      11 -> 30         0.12313
      12 -> 28        -0.11418
      12 -> 32         0.43701

 Excited State  74:      Singlet-B2    16.9665 eV   73.08 nm  f=0.2411  <S**2>=0.000
       9 -> 25         0.52878
       9 -> 27         0.26930
      11 -> 31        -0.25295

 Excited State  75:      Singlet-B1    16.9754 eV   73.04 nm  f=0.1920  <S**2>=0.000
      12 -> 30        -0.12813
      12 -> 34         0.67071

 Excited State  76:      Singlet-B2    17.1872 eV   72.14 nm  f=0.0247  <S**2>=0.000
       8 -> 17         0.19640
       8 -> 20         0.44925
       8 -> 23         0.10240
       9 -> 25         0.26994
      11 -> 31         0.35602

 Excited State  77:      Singlet-A1    17.2461 eV   71.89 nm  f=0.0731  <S**2>=0.000
      11 -> 27         0.14034
      11 -> 30         0.65068
      12 -> 32        -0.10925

 Excited State  78:      Singlet-A2    17.5192 eV   70.77 nm  f=0.0000  <S**2>=0.000
       6 -> 16         0.14693
       8 -> 19         0.63169
      10 -> 30         0.10404
      12 -> 37        -0.13313

 Excited State  79:      Singlet-A2    17.5652 eV   70.59 nm  f=0.0000  <S**2>=0.000
       7 -> 17         0.12140
       7 -> 20         0.13665
      10 -> 21        -0.12580
      10 -> 25        -0.20943
      10 -> 27         0.56680
      12 -> 31        -0.19754

 Excited State  80:      Singlet-A1    17.5884 eV   70.49 nm  f=0.2065  <S**2>=0.000
       7 -> 22        -0.17506
       8 -> 21        -0.17378
      10 -> 26         0.61138

 Excited State  81:      Singlet-B1    17.7304 eV   69.93 nm  f=0.0357  <S**2>=0.000
       7 -> 13        -0.12923
       7 -> 15        -0.14929
       7 -> 18         0.55158
       7 -> 21        -0.12658
       8 -> 24         0.11251
      12 -> 36        -0.27804

 Excited State  82:      Singlet-B2    17.8077 eV   69.62 nm  f=0.0009  <S**2>=0.000
       6 -> 15         0.11140
       7 -> 19         0.14024
       8 -> 17        -0.18040
       8 -> 20        -0.31807
       8 -> 23         0.13524
       9 -> 27         0.16736
      10 -> 28        -0.10890
      11 -> 31         0.46557
      12 -> 33        -0.14056

 Excited State  83:      Singlet-B1    17.8258 eV   69.55 nm  f=0.0005  <S**2>=0.000
       8 -> 22         0.22424
      11 -> 32         0.63587

 Excited State  84:      Singlet-A1    17.8465 eV   69.47 nm  f=0.0009  <S**2>=0.000
       7 -> 16         0.11038
       8 -> 21         0.53222
       9 -> 29         0.13839
      10 -> 26         0.19795
      11 -> 34         0.26883

 Excited State  85:      Singlet-B2    17.8488 eV   69.46 nm  f=0.0092  <S**2>=0.000
       8 -> 17         0.11447
       8 -> 20         0.21589
       9 -> 25        -0.28406
       9 -> 27         0.54867

 Excited State  86:      Singlet-B1    17.9551 eV   69.05 nm  f=0.0887  <S**2>=0.000
       8 -> 22         0.49052
       9 -> 26         0.34031
      11 -> 28        -0.11918
      11 -> 32        -0.21361
      12 -> 36         0.16964

 Excited State  87:      Singlet-A2    17.9818 eV   68.95 nm  f=0.0000  <S**2>=0.000
       8 -> 19         0.18015
      10 -> 30        -0.20529
      12 -> 23         0.10171
      12 -> 29         0.15527
      12 -> 35         0.28463
      12 -> 37         0.52099

 Excited State  88:      Singlet-B2    18.0147 eV   68.82 nm  f=0.0913  <S**2>=0.000
      11 -> 31         0.13357
      12 -> 33         0.65352

 Excited State  89:      Singlet-B1    18.1242 eV   68.41 nm  f=0.0001  <S**2>=0.000
       7 -> 21         0.18821
       8 -> 22        -0.30654
       8 -> 24        -0.21099
       9 -> 26         0.39688
      10 -> 29        -0.32349
      10 -> 31         0.10648

 Excited State  90:      Singlet-B1    18.1822 eV   68.19 nm  f=0.0034  <S**2>=0.000
       7 -> 18         0.17728
       7 -> 21        -0.22826
       8 -> 22        -0.21970
       9 -> 26         0.13927
      10 -> 29         0.27461
      12 -> 36         0.46719

 Excited State  91:      Singlet-A1    18.1910 eV   68.16 nm  f=0.1169  <S**2>=0.000
       8 -> 21        -0.24075
      11 -> 34         0.61793

 Excited State  92:      Singlet-B1    18.3121 eV   67.71 nm  f=0.0663  <S**2>=0.000
       7 -> 18        -0.15036
       7 -> 21        -0.10656
       8 -> 24        -0.10171
       9 -> 26         0.33574
      10 -> 29         0.38331
      12 -> 36        -0.34383
      12 -> 38        -0.14916

 Excited State  93:      Singlet-A2    18.4558 eV   67.18 nm  f=0.0000  <S**2>=0.000

 The electronic state is 1-A1.
 Alpha  occ. eigenvalues --  -18.99760 -10.17696 -10.17679  -1.21748  -0.81049
 Alpha  occ. eigenvalues --   -0.77614  -0.65540  -0.61535  -0.52899  -0.50840
 Alpha  occ. eigenvalues --   -0.44072  -0.39719
 Alpha virt. eigenvalues --    0.09477   0.11263   0.13726   0.14285   0.17460
 Alpha virt. eigenvalues --    0.18184   0.21580   0.22348   0.22773   0.24056
 Alpha virt. eigenvalues --    0.26978   0.27788   0.30937   0.33390   0.36909

 Mulliken charges:
               1
     1  C    0.500174
     2  C    0.500174
     3  O   -0.595422
     4  H   -0.101232
     5  H   -0.101232
     6  H   -0.101232
     7  H   -0.101232
 Sum of Mulliken charges =   0.00000

 Dipole moment (field-independent basis, Debye):
    X=             -0.0000    Y=              0.0000    Z=             -2.0088  Tot=              2.0088
 Quadrupole moment (field-independent basis, Debye-Ang):
   XX=            -17.3844   YY=            -16.3651   ZZ=            -20.9273
   XY=              0.0000   XZ=             -0.0000   YZ=             -0.0000

 Normal termination of Gaussian 16 at Mon Mar 21 20:18:00 2022.
