 Gaussian 16, Revision C.01,
 Gaussian 16:  EM64L-G16RevC.01  3-Jul-2019

 ----------------------------------------------------------------------
 #P TD(Nstates=10000) lc-whpbe/Gen SCF(maxcycles=100) Int(Grid=ultrafin
 e)
 ----------------------------------------------------------------------

 ---------------------
 xGDB7_00001_tier4.com
 ---------------------
 Symbolic Z-matrix:
 Charge =  0 Multiplicity = 1

                         Standard orientation:
 ---------------------------------------------------------------------
 Center     Atomic      Atomic             Coordinates (Angstroms)
 Number     Number       Type             X           Y           Z
 ---------------------------------------------------------------------
      1          8           0        0.000000    0.000000    0.596896
      2          8           0        0.000000    0.000000   -0.596896
 ---------------------------------------------------------------------

 SCF Done:  E(RLC-wHPBE) =  -150.068294283     A.U. after   10 cycles

 Excitation energies and oscillator strengths:

 Excited state symmetry could not be determined.
 Excited State   1:      Singlet-?Sym    0.0061 eV 203141.33 nm  f=0.0000  <S**2>=0.000
       8 ->  9        -4.83723
       8 -> 14         0.22712
       8 <-  9        -4.78544
       8 <- 14         0.22406
 This state for optimization and/or second-order correction.
 Total Energy, E(TD-HF/TD-DFT) =  -150.068069990
 Copying the excited state density for this state as the 1-particle RhoCI density.

 Excited state symmetry could not be determined.
 Excited State   2:      Singlet-?Sym    6.7574 eV  183.48 nm  f=0.0000  <S**2>=0.000
       7 ->  9         0.70593

 Excited state symmetry could not be determined.
 Excited State   3:      Singlet-?Sym    7.8290 eV  158.37 nm  f=0.0000  <S**2>=0.000
       5 ->  9         0.70598

 Excited state symmetry could not be determined.
 Excited State   4:      Singlet-?Sym    8.2888 eV  149.58 nm  f=0.0000  <S**2>=0.000
       8 -> 11         0.65478
       8 -> 16        -0.26075

 Excited state symmetry could not be determined.
 Excited State   5:      Singlet-?Sym    8.3629 eV  148.26 nm  f=0.0216  <S**2>=0.000
       8 -> 10         0.68524
       8 -> 17        -0.16367

 Excited state symmetry could not be determined.
 Excited State   6:      Singlet-?Sym    9.0276 eV  137.34 nm  f=0.0000  <S**2>=0.000
       8 -> 12         0.70532

 Excited state symmetry could not be determined.
 Excited State   7:      Singlet-?Sym    9.2229 eV  134.43 nm  f=0.1106  <S**2>=0.000
       6 ->  9         0.27898
       8 -> 13         0.64666

 Excited state symmetry could not be determined.
 Excited State   8:      Singlet-?Sym   10.5842 eV  117.14 nm  f=0.0000  <S**2>=0.000
       8 -> 11         0.25608
       8 -> 16         0.65065

 Excited state symmetry could not be determined.
 Excited State   9:      Singlet-?Sym   10.7176 eV  115.68 nm  f=0.0770  <S**2>=0.000
       5 -> 17        -0.13051
       6 ->  9         0.63336
       8 -> 13        -0.28252
       6 <-  9        -0.11061

 Excited state symmetry could not be determined.
 Excited State  10:      Singlet-?Sym   11.0674 eV  112.03 nm  f=0.0000  <S**2>=0.000
       8 -> 14         0.70084

 Excited state symmetry could not be determined.
 Excited State  11:      Singlet-?Sym   11.5205 eV  107.62 nm  f=0.0000  <S**2>=0.000
       8 -> 15         0.70373

 Excited state symmetry could not be determined.
 Excited State  12:      Singlet-?Sym   12.0226 eV  103.13 nm  f=0.0137  <S**2>=0.000
       8 -> 10         0.14056
       8 -> 17         0.62721
       8 -> 18        -0.28425

 Excited state symmetry could not be determined.
 Excited State  13:      Singlet-?Sym   15.4262 eV   80.37 nm  f=0.1634  <S**2>=0.000
       7 -> 11         0.35426
       7 -> 16        -0.16718
       8 -> 17         0.23844
       8 -> 18         0.52895

 Excited state symmetry could not be determined.
 Excited State  14:      Singlet-?Sym   15.6500 eV   79.22 nm  f=0.0000  <S**2>=0.000
       8 -> 19         0.69744

 Excited state symmetry could not be determined.
 Excited State  15:      Singlet-?Sym   15.6618 eV   79.16 nm  f=0.0000  <S**2>=0.000
       7 -> 10        -0.15431
       8 -> 20         0.68401

 Excited state symmetry could not be determined.
 Excited State  16:      Singlet-?Sym   15.9239 eV   77.86 nm  f=0.1380  <S**2>=0.000
       4 ->  9         0.66480
       6 -> 11         0.21271

 Excited state symmetry could not be determined.
 Excited State  17:      Singlet-?Sym   16.0945 eV   77.04 nm  f=0.0000  <S**2>=0.000
       7 -> 10         0.66011
       7 -> 17        -0.16774
       8 -> 20         0.16988

 Excited state symmetry could not be determined.
 Excited State  18:      Singlet-?Sym   16.1863 eV   76.60 nm  f=0.0137  <S**2>=0.000
       7 -> 11         0.54218
       7 -> 16        -0.21839
       8 -> 17        -0.13630
       8 -> 18        -0.37022

 Excited state symmetry could not be determined.
 Excited State  19:      Singlet-?Sym   16.2190 eV   76.44 nm  f=0.0728  <S**2>=0.000
       4 ->  9        -0.20606
       6 -> 11         0.61484
       6 -> 16        -0.27210

 Excited state symmetry could not be determined.
 Excited State  20:      Singlet-?Sym   16.2636 eV   76.23 nm  f=0.0000  <S**2>=0.000
       6 -> 10         0.67483
       6 -> 17        -0.18164
       8 -> 19         0.10085

 Excited State  21:      Singlet-SGU   16.2951 eV   76.09 nm  f=0.2693  <S**2>=0.000
       5 -> 10         0.68556
       5 -> 17        -0.12146

 Excited state symmetry could not be determined.
 Excited State  22:      Singlet-?Sym   16.6123 eV   74.63 nm  f=0.0000  <S**2>=0.000
       7 -> 12         0.70176

 Excited State  23:      Singlet-SGG   16.6625 eV   74.41 nm  f=0.0000  <S**2>=0.000
       5 -> 11         0.63970
       5 -> 16        -0.19655
       6 -> 12        -0.16069
       7 -> 13        -0.13834

 Excited state symmetry could not be determined.
 Excited State  24:      Singlet-?Sym   16.8567 eV   73.55 nm  f=0.0000  <S**2>=0.000
       6 -> 12         0.51391
       7 -> 13        -0.48124

 Excited state symmetry could not be determined.
 Excited State  25:      Singlet-?Sym   17.1046 eV   72.49 nm  f=0.0491  <S**2>=0.000
       5 -> 12         0.70179

 Excited state symmetry could not be determined.
 Excited State  26:      Singlet-?Sym   17.1704 eV   72.21 nm  f=0.0000  <S**2>=0.000
       6 -> 13         0.70523

 Excited state symmetry could not be determined.
 Excited State  27:      Singlet-?Sym   17.3987 eV   71.26 nm  f=0.0548  <S**2>=0.000
       5 -> 13         0.70346

 Excited state symmetry could not be determined.
 Excited State  28:      Singlet-?Sym   17.5029 eV   70.84 nm  f=0.0000  <S**2>=0.000
       5 -> 11         0.14841
       5 -> 16        -0.21844
       6 -> 12         0.43628
       7 -> 13         0.48211

 Excited state symmetry could not be determined.
 Excited State  29:      Singlet-?Sym   18.2755 eV   67.84 nm  f=0.0297  <S**2>=0.000
       7 -> 11         0.26965
       7 -> 16         0.64347

 Excited state symmetry could not be determined.
 Excited State  30:      Singlet-?Sym   18.5887 eV   66.70 nm  f=0.0441  <S**2>=0.000
       6 -> 11         0.26897
       6 -> 16         0.64670

 Excited state symmetry could not be determined.
 Excited State  31:      Singlet-?Sym   18.6616 eV   66.44 nm  f=0.0000  <S**2>=0.000
       7 -> 14         0.69431
       8 -> 22         0.10258

 Excited state symmetry could not be determined.
 Excited State  32:      Singlet-?Sym   18.7045 eV   66.29 nm  f=0.0000  <S**2>=0.000
       5 -> 11         0.23937
       5 -> 16         0.63574
       6 -> 12         0.11086
       7 -> 13         0.11501

 Excited state symmetry could not be determined.
 Excited State  33:      Singlet-?Sym   18.8164 eV   65.89 nm  f=0.0193  <S**2>=0.000
       6 -> 14        -0.21694
       7 -> 15         0.66250

 Excited state symmetry could not be determined.
 Excited State  34:      Singlet-?Sym   19.0170 eV   65.20 nm  f=0.0000  <S**2>=0.000
       5 -> 14         0.69539

 Excited state symmetry could not be determined.
 Excited State  35:      Singlet-?Sym   19.0285 eV   65.16 nm  f=0.0309  <S**2>=0.000
       5 -> 17         0.10321
       6 -> 14         0.66070
       7 -> 15         0.20626

 Excited state symmetry could not be determined.
 Excited State  36:      Singlet-?Sym   19.0956 eV   64.93 nm  f=0.0000  <S**2>=0.000
       6 -> 15         0.70414

 Excited state symmetry could not be determined.
 Excited State  37:      Singlet-?Sym   19.1397 eV   64.78 nm  f=0.0000  <S**2>=0.000
       5 -> 15         0.68607
       7 -> 17        -0.11715

 Excited state symmetry could not be determined.
 Excited State  38:      Singlet-?Sym   19.4327 eV   63.80 nm  f=0.0000  <S**2>=0.000
       5 -> 15         0.13523
       7 -> 10         0.16296
       7 -> 17         0.59807
       7 -> 18        -0.27515
       8 -> 21        -0.12841

 Excited state symmetry could not be determined.
 Excited State  39:      Singlet-?Sym   19.6177 eV   63.20 nm  f=0.0000  <S**2>=0.000
       6 -> 10         0.16877
       6 -> 17         0.61078
       6 -> 18        -0.29552

 Excited state symmetry could not be determined.
 Excited State  40:      Singlet-?Sym   20.7697 eV   59.69 nm  f=0.0028  <S**2>=0.000
       5 -> 17        -0.39941
       8 -> 23         0.55212

 Excited state symmetry could not be determined.
 Excited State  41:      Singlet-?Sym   20.8275 eV   59.53 nm  f=0.0000  <S**2>=0.000
       7 -> 14        -0.10475
       8 -> 22         0.69704

 Excited state symmetry could not be determined.
 Excited State  42:      Singlet-?Sym   20.9316 eV   59.23 nm  f=0.0000  <S**2>=0.000
       7 -> 18        -0.12705
       8 -> 21         0.68244

 Excited state symmetry could not be determined.
 Excited State  43:      Singlet-?Sym   21.9140 eV   56.58 nm  f=0.1906  <S**2>=0.000
       6 -> 19        -0.17530
       7 -> 20         0.18203
       8 -> 24         0.65701

 Excited state symmetry could not be determined.
 Excited State  44:      Singlet-?Sym   21.9432 eV   56.50 nm  f=0.2288  <S**2>=0.000
       6 -> 20         0.19040
       7 -> 19         0.17258
       8 -> 25         0.65321

 Excited State  45:      Singlet-SGU   22.1509 eV   55.97 nm  f=0.6466  <S**2>=0.000
       4 -> 11         0.35710
       4 -> 16        -0.15650
       5 -> 10         0.11118
       5 -> 17         0.41474
       5 -> 18         0.14517
       8 -> 23         0.35749

 Excited state symmetry could not be determined.
 Excited State  46:      Singlet-?Sym   22.5111 eV   55.08 nm  f=0.0000  <S**2>=0.000
       8 -> 26         0.69719

 Excited state symmetry could not be determined.
 Excited State  47:      Singlet-?Sym   22.6338 eV   54.78 nm  f=0.0549  <S**2>=0.000
       8 -> 28         0.69173

 Excited State  48:      Singlet-SGG   22.9320 eV   54.07 nm  f=0.0000  <S**2>=0.000
       4 -> 10         0.54769
       4 -> 17        -0.15157
       8 -> 27        -0.39840

 Excited state symmetry could not be determined.
 Excited State  49:      Singlet-?Sym   23.2026 eV   53.44 nm  f=0.0000  <S**2>=0.000
       7 -> 17         0.28717
       7 -> 18         0.63367

 Excited state symmetry could not be determined.
 Excited State  50:      Singlet-?Sym   23.2979 eV   53.22 nm  f=0.0024  <S**2>=0.000
       6 -> 20         0.38024
       7 -> 19         0.53976
       8 -> 25        -0.25244

 Excited state symmetry could not be determined.
 Excited State  51:      Singlet-?Sym   23.3035 eV   53.20 nm  f=0.0039  <S**2>=0.000
       6 -> 19        -0.38170
       7 -> 20         0.53648
       8 -> 24        -0.24847

 Excited state symmetry could not be determined.
 Excited State  52:      Singlet-?Sym   23.4281 eV   52.92 nm  f=0.0000  <S**2>=0.000
       4 -> 12         0.12106
       6 -> 17         0.28223
       6 -> 18         0.62906

 Excited state symmetry could not be determined.
 Excited State  53:      Singlet-?Sym   23.5865 eV   52.57 nm  f=0.0000  <S**2>=0.000
       4 -> 10         0.40908
       5 -> 20        -0.15923
       8 -> 27         0.53812

 Excited State  54:      Singlet-SGU   23.6597 eV   52.40 nm  f=0.1016  <S**2>=0.000
       4 -> 11         0.51599
       4 -> 16        -0.15320
       5 -> 17        -0.28877
       5 -> 18        -0.33661

 Excited state symmetry could not be determined.
 Excited State  55:      Singlet-?Sym   23.7221 eV   52.27 nm  f=0.0000  <S**2>=0.000
       4 -> 12         0.68728
       6 -> 18        -0.12245

 Excited state symmetry could not be determined.
 Excited State  56:      Singlet-?Sym   23.7333 eV   52.24 nm  f=0.0000  <S**2>=0.000
       5 -> 19         0.70468

 Excited state symmetry could not be determined.
 Excited State  57:      Singlet-?Sym   23.7531 eV   52.20 nm  f=0.0000  <S**2>=0.000
       5 -> 20         0.68665
       8 -> 27         0.14470

 Excited state symmetry could not be determined.
 Excited State  58:      Singlet-?Sym   24.0390 eV   51.58 nm  f=0.0000  <S**2>=0.000
       4 -> 13         0.69901

 Excited state symmetry could not be determined.
 Excited State  59:      Singlet-?Sym   24.0839 eV   51.48 nm  f=0.5687  <S**2>=0.000
       6 -> 19         0.56025
       7 -> 20         0.41589

 Excited state symmetry could not be determined.
 Excited State  60:      Singlet-?Sym   24.1696 eV   51.30 nm  f=0.6077  <S**2>=0.000
       4 ->  9        -0.10056
       6 -> 20         0.55487
       7 -> 19        -0.40996

 Excited state symmetry could not be determined.
 Excited State  61:      Singlet-?Sym   25.1173 eV   49.36 nm  f=0.3831  <S**2>=0.000
       4 -> 16         0.57913
       5 -> 17         0.13826
       5 -> 18        -0.31132

 Excited State  62:      Singlet-SGU   25.3780 eV   48.86 nm  f=0.3170  <S**2>=0.000
       4 -> 11         0.28892
       4 -> 16         0.31476
       5 -> 17        -0.11702
       5 -> 18         0.47942
       6 ->  9        -0.11598
       8 -> 23        -0.18065

 Excited state symmetry could not be determined.
 Excited State  63:      Singlet-?Sym   25.6824 eV   48.28 nm  f=0.0022  <S**2>=0.000
       4 -> 14         0.69092
       5 -> 22         0.10576

 Excited state symmetry could not be determined.
 Excited State  64:      Singlet-?Sym   25.8149 eV   48.03 nm  f=0.0020  <S**2>=0.000
       4 -> 15         0.69218

 Excited State  65:      Singlet-SGG   27.3319 eV   45.36 nm  f=0.0000  <S**2>=0.000
       4 -> 10         0.10075
       4 -> 17         0.60607
       4 -> 18        -0.22903
       6 -> 22        -0.18255
       7 -> 23        -0.13272
       8 -> 27        -0.10277

 Excited state symmetry could not be determined.
 Excited State  66:      Singlet-?Sym   28.4366 eV   43.60 nm  f=0.0000  <S**2>=0.000
       7 -> 22         0.69567

 Excited state symmetry could not be determined.
 Excited State  67:      Singlet-?Sym   28.4824 eV   43.53 nm  f=0.0000  <S**2>=0.000
       3 ->  9         0.68005
       7 -> 25        -0.13009

 Excited state symmetry could not be determined.
 Excited State  68:      Singlet-?Sym   28.6196 eV   43.32 nm  f=0.0000  <S**2>=0.000
       6 -> 22         0.53551
       7 -> 23        -0.45042

 Excited state symmetry could not be determined.
 Excited State  69:      Singlet-?Sym   28.7144 eV   43.18 nm  f=0.0116  <S**2>=0.000
       5 -> 23        -0.24663
       7 -> 21         0.65159

 Excited state symmetry could not be determined.
 Excited State  70:      Singlet-?Sym   28.7723 eV   43.09 nm  f=0.0017  <S**2>=0.000
       5 -> 22        -0.41530
       6 -> 21         0.56405

 Excited state symmetry could not be determined.
 Excited State  71:      Singlet-?Sym   28.9352 eV   42.85 nm  f=0.0000  <S**2>=0.000
       6 -> 23         0.70099

 Excited state symmetry could not be determined.
 Excited State  72:      Singlet-?Sym   29.1128 eV   42.59 nm  f=0.0000  <S**2>=0.000
       4 -> 17         0.16206
       5 -> 21         0.44783
       6 -> 22         0.29311
       7 -> 23         0.41317

 Excited state symmetry could not be determined.
 Excited State  73:      Singlet-?Sym   29.2236 eV   42.43 nm  f=0.0000  <S**2>=0.000
       4 -> 17        -0.22933
       4 -> 18        -0.16448
       5 -> 21         0.51038
       6 -> 22        -0.26652
       7 -> 23        -0.27532

 Excited state symmetry could not be determined.
 Excited State  74:      Singlet-?Sym   29.3114 eV   42.30 nm  f=0.0000  <S**2>=0.000
       4 -> 19         0.42707
       5 -> 25         0.53426
       7 -> 26        -0.14698

 Excited state symmetry could not be determined.
 Excited State  75:      Singlet-?Sym   29.3423 eV   42.25 nm  f=0.0014  <S**2>=0.000
       4 -> 20         0.42856
       5 -> 24         0.53932
       6 -> 26         0.11204

 Excited state symmetry could not be determined.
 Excited State  76:      Singlet-?Sym   29.3788 eV   42.20 nm  f=0.3195  <S**2>=0.000
       5 -> 22         0.55308
       6 -> 21         0.41590

 Excited state symmetry could not be determined.
 Excited State  77:      Singlet-?Sym   29.4362 eV   42.12 nm  f=0.0000  <S**2>=0.000
       6 -> 25        -0.30816
       7 -> 24         0.63327

 Excited state symmetry could not be determined.
 Excited State  78:      Singlet-?Sym   29.4446 eV   42.11 nm  f=0.0000  <S**2>=0.000
       6 -> 24         0.33420
       7 -> 25         0.61655

 Excited state symmetry could not be determined.
 Excited State  79:      Singlet-?Sym   29.5489 eV   41.96 nm  f=0.2878  <S**2>=0.000
       5 -> 23         0.64765
       7 -> 21         0.24633

 Excited state symmetry could not be determined.
 Excited State  80:      Singlet-?Sym   29.8102 eV   41.59 nm  f=0.0000  <S**2>=0.000
       6 -> 25         0.63369
       7 -> 24         0.30100

 Excited state symmetry could not be determined.
 Excited State  81:      Singlet-?Sym   29.8188 eV   41.58 nm  f=0.0000  <S**2>=0.000
       3 ->  9        -0.12758
       6 -> 24         0.61386
       7 -> 25        -0.31168

 Excited state symmetry could not be determined.
 Excited State  82:      Singlet-?Sym   30.1483 eV   41.12 nm  f=0.0000  <S**2>=0.000
       5 -> 25         0.14717
       7 -> 26         0.66597
       8 -> 29        -0.15312

 Excited state symmetry could not be determined.
 Excited State  83:      Singlet-?Sym   30.3103 eV   40.91 nm  f=0.0000  <S**2>=0.000
       7 -> 28         0.68527

 Excited state symmetry could not be determined.
 Excited State  84:      Singlet-?Sym   30.3993 eV   40.79 nm  f=0.0009  <S**2>=0.000
       5 -> 24         0.16746
       5 -> 28         0.45962
       7 -> 27         0.48318

 Excited state symmetry could not be determined.
 Excited State  85:      Singlet-?Sym   30.4429 eV   40.73 nm  f=0.0000  <S**2>=0.000
       5 -> 26         0.64388
       6 -> 28        -0.25106

 Excited state symmetry could not be determined.
 Excited State  86:      Singlet-?Sym   30.4836 eV   40.67 nm  f=0.0115  <S**2>=0.000
       5 -> 28         0.27088
       6 -> 26         0.60884
       7 -> 27        -0.19296

 Excited state symmetry could not be determined.
 Excited State  87:      Singlet-?Sym   30.6117 eV   40.50 nm  f=0.0000  <S**2>=0.000
       5 -> 26         0.25606
       6 -> 28         0.64995

 Excited state symmetry could not be determined.
 Excited State  88:      Singlet-?Sym   30.6987 eV   40.39 nm  f=0.0000  <S**2>=0.000
       4 -> 23        -0.10052
       5 -> 27         0.68879

 Excited state symmetry could not be determined.
 Excited State  89:      Singlet-?Sym   30.7172 eV   40.36 nm  f=0.0000  <S**2>=0.000
       6 -> 27         0.70022

 Excited State  90:      Singlet-SGG   30.7565 eV   40.31 nm  f=0.0000  <S**2>=0.000
       4 -> 17         0.14419
       4 -> 18         0.64416
       5 -> 21         0.11531
       6 -> 22        -0.14585
       7 -> 23        -0.14952

 Excited state symmetry could not be determined.
 Excited State  91:      Singlet-?Sym   30.8424 eV   40.20 nm  f=0.0000  <S**2>=0.000
       4 -> 19         0.55447
       5 -> 25        -0.43403

 Excited state symmetry could not be determined.
 Excited State  92:      Singlet-?Sym   30.8577 eV   40.18 nm  f=0.0000  <S**2>=0.000
       4 -> 20         0.55175
       5 -> 24        -0.41937

 Excited state symmetry could not be determined.
 Excited State  93:      Singlet-?Sym   31.5066 eV   39.35 nm  f=0.0062  <S**2>=0.000
       5 -> 28        -0.37326
       6 -> 26         0.29651
       7 -> 27         0.43897
       8 -> 30         0.22797

 Excited state symmetry could not be determined.
 Excited State  94:      Singlet-?Sym   32.7072 eV   37.91 nm  f=0.0000  <S**2>=0.000
       7 -> 26         0.16082
       8 -> 29         0.68471

 Excited state symmetry could not be determined.
 Excited State  95:      Singlet-?Sym   34.8661 eV   35.56 nm  f=0.0055  <S**2>=0.000
       3 -> 10         0.18636
       3 -> 17        -0.21145
       4 -> 21         0.18095
       5 -> 28         0.16975
       6 -> 26        -0.10270
       8 -> 30         0.56951

 Excited state symmetry could not be determined.
 Excited State  96:      Singlet-?Sym   35.2070 eV   35.22 nm  f=0.0000  <S**2>=0.000
       8 -> 31         0.69865

 Excited state symmetry could not be determined.
 Excited State  97:      Singlet-?Sym   35.6762 eV   34.75 nm  f=0.0000  <S**2>=0.000
       4 -> 22         0.69593
       5 -> 26         0.10390

 Excited state symmetry could not be determined.
 Excited State  98:      Singlet-?Sym   35.7827 eV   34.65 nm  f=0.0744  <S**2>=0.000
       4 -> 21         0.66579
       8 -> 30        -0.18896

 Excited state symmetry could not be determined.
 Excited State  99:      Singlet-?Sym   35.9805 eV   34.46 nm  f=0.0000  <S**2>=0.000
       4 -> 23         0.69140
       5 -> 27         0.10261

 Excited state symmetry could not be determined.
 Excited State 100:      Singlet-?Sym   36.5394 eV   33.93 nm  f=0.0000  <S**2>=0.000
       4 -> 24         0.70318

 Excited state symmetry could not be determined.
 Excited State 101:      Singlet-?Sym   36.5400 eV   33.93 nm  f=0.0000  <S**2>=0.000
       4 -> 25         0.70483

 Excited State 102:      Singlet-SGG   36.7195 eV   33.77 nm  f=0.0000  <S**2>=0.000
       3 -> 11         0.64494
       3 -> 16        -0.28002

 Excited state symmetry could not be determined.
 Excited State 103:      Singlet-?Sym   37.1645 eV   33.36 nm  f=0.0582  <S**2>=0.000
       4 -> 26         0.68298
       5 -> 29        -0.12837

 Excited State 104:      Singlet-SGU   37.4039 eV   33.15 nm  f=0.0108  <S**2>=0.000
       3 -> 10         0.67156
       3 -> 18        -0.10073
       8 -> 30        -0.15535

 Excited state symmetry could not be determined.
 Excited State 105:      Singlet-?Sym   37.4133 eV   33.14 nm  f=0.0000  <S**2>=0.000
       4 -> 28         0.69136

 Excited state symmetry could not be determined.
 Excited State 106:      Singlet-?Sym   37.4305 eV   33.12 nm  f=0.0493  <S**2>=0.000
       4 -> 27         0.68762
       5 -> 30        -0.10723

 Excited state symmetry could not be determined.
 Excited State 107:      Singlet-?Sym   37.5689 eV   33.00 nm  f=0.0013  <S**2>=0.000
       3 -> 12         0.69897

 Excited state symmetry could not be determined.
 Excited State 108:      Singlet-?Sym   37.8729 eV   32.74 nm  f=0.0021  <S**2>=0.000
       3 -> 13         0.69996

 Excited state symmetry could not be determined.
 Excited State 109:      Singlet-?Sym   39.2873 eV   31.56 nm  f=0.0000  <S**2>=0.000
       3 -> 11         0.28492
       3 -> 16         0.63675

 Excited state symmetry could not be determined.
 Excited State 110:      Singlet-?Sym   39.6625 eV   31.26 nm  f=0.0000  <S**2>=0.000
       3 -> 14         0.70210

 Excited state symmetry could not be determined.
 Excited State 111:      Singlet-?Sym   39.7904 eV   31.16 nm  f=0.0000  <S**2>=0.000
       3 -> 15         0.70248

 Excited state symmetry could not be determined.
 Excited State 112:      Singlet-?Sym   39.9867 eV   31.01 nm  f=0.0000  <S**2>=0.000
       7 -> 29         0.69906

 Excited state symmetry could not be determined.
 Excited State 113:      Singlet-?Sym   40.3906 eV   30.70 nm  f=0.0000  <S**2>=0.000
       6 -> 29         0.55444
       7 -> 30        -0.42867

 Excited state symmetry could not be determined.
 Excited State 114:      Singlet-?Sym   40.8290 eV   30.37 nm  f=0.0527  <S**2>=0.000
       4 -> 26         0.13011

 Unable to determine electronic state:  partially filled degenerate orbitals.
 Alpha  occ. eigenvalues --  -19.14023 -19.13987  -1.43046  -0.91564  -0.67558
 Alpha  occ. eigenvalues --   -0.67102  -0.66033  -0.38177
 Alpha virt. eigenvalues --   -0.08125   0.11556   0.15276   0.17191   0.18259
 Alpha virt. eigenvalues --    0.21821   0.22183   0.22186   0.34435   0.42844
 Alpha virt. eigenvalues --    0.47057   0.47087   0.63249   0.65566   0.66607

 Mulliken charges:
               1
     1  O   -0.000000
     2  O   -0.000000
 Sum of Mulliken charges =  -0.00000

 Dipole moment (field-independent basis, Debye):
    X=             -0.0000    Y=              0.0000    Z=             -0.0000  Tot=              0.0000
 Quadrupole moment (field-independent basis, Debye-Ang):
   XX=            -11.1920   YY=             -9.2456   ZZ=            -10.7966
   XY=              0.0000   XZ=              0.0000   YZ=              0.0000

 Normal termination of Gaussian 16 at Mon Mar 21 20:16:55 2022.
