 Gaussian 16, Revision C.01,
 Gaussian 16:  EM64L-G16RevC.01  3-Jul-2019

 ----------------------------------------------------------------------
 #P TD(Nstates=10000) lc-whpbe/Gen SCF(maxcycles=100) Int(Grid=ultrafin
 e)
 ----------------------------------------------------------------------

 ---------------------
 xGDB7_00001_tier4.com
 ---------------------
 Symbolic Z-matrix:
 Charge =  0 Multiplicity = 1

                         Standard orientation:
 ---------------------------------------------------------------------
 Center     Atomic      Atomic             Coordinates (Angstroms)
 Number     Number       Type             X           Y           Z
 ---------------------------------------------------------------------
      1          6           0        0.046419    0.658432    0.000000
      2          8           0        0.046419   -0.751929    0.000000
      3          1           0       -0.438905    1.073261    0.890797
      4          1           0       -0.438905    1.073261   -0.890797
      5          1           0        1.087855    0.977571    0.000000
      6          1           0       -0.859911   -1.059251    0.000000
 ---------------------------------------------------------------------

 SCF Done:  E(RLC-wHPBE) =  -115.582234154     A.U. after   11 cycles

 Excitation energies and oscillator strengths:

 Excited State   1:      Singlet-A"     7.3671 eV  168.29 nm  f=0.0036  <S**2>=0.000
       9 -> 10         0.64102
       9 -> 11        -0.24258
       9 -> 14         0.11742
 This state for optimization and/or second-order correction.
 Total Energy, E(TD-HF/TD-DFT) =  -115.311497503
 Copying the excited state density for this state as the 1-particle RhoCI density.

 Excited State   2:      Singlet-A"     8.9363 eV  138.74 nm  f=0.0418  <S**2>=0.000
       9 -> 10         0.24668
       9 -> 11         0.64226

 Excited State   3:      Singlet-A'     9.1827 eV  135.02 nm  f=0.0049  <S**2>=0.000
       8 -> 10         0.64493
       8 -> 11        -0.19331
       8 -> 14         0.12699

 Excited State   4:      Singlet-A"     9.7241 eV  127.50 nm  f=0.0134  <S**2>=0.000
       9 -> 13         0.65789
       9 -> 14        -0.14688
       9 -> 15        -0.12329

 Excited State   5:      Singlet-A'     9.8012 eV  126.50 nm  f=0.0671  <S**2>=0.000
       9 -> 12         0.68321

 Excited State   6:      Singlet-A'    10.4179 eV  119.01 nm  f=0.0728  <S**2>=0.000
       7 -> 10         0.12643
       8 -> 10         0.19898
       8 -> 11         0.64105

 Excited State   7:      Singlet-A"    10.4275 eV  118.90 nm  f=0.0035  <S**2>=0.000
       9 -> 10        -0.10333
       9 -> 13         0.17499
       9 -> 14         0.64290

 Excited State   8:      Singlet-A"    10.8740 eV  114.02 nm  f=0.0164  <S**2>=0.000
       9 -> 13         0.12070
       9 -> 15         0.62978
       9 -> 17        -0.20666

 Excited State   9:      Singlet-A'    11.3115 eV  109.61 nm  f=0.0833  <S**2>=0.000
       8 -> 10         0.10017
       8 -> 13         0.62965
       8 -> 14        -0.23140

 Excited State  10:      Singlet-A'    11.3679 eV  109.07 nm  f=0.0106  <S**2>=0.000
       9 -> 16         0.65419
       9 -> 18         0.20503

 Excited State  11:      Singlet-A"    11.4494 eV  108.29 nm  f=0.0437  <S**2>=0.000
       8 -> 12         0.68710

 Excited State  12:      Singlet-A'    11.8896 eV  104.28 nm  f=0.0650  <S**2>=0.000
       7 -> 10         0.46101
       7 -> 11        -0.22241
       8 -> 13         0.20708
       8 -> 14         0.33702
       8 -> 15         0.18466

 Excited State  13:      Singlet-A"    11.9979 eV  103.34 nm  f=0.0126  <S**2>=0.000
       6 -> 10        -0.28213
       9 -> 14        -0.10527
       9 -> 15         0.11160
       9 -> 17         0.55314
       9 -> 19         0.19994

 Excited State  14:      Singlet-A'    12.2428 eV  101.27 nm  f=0.0186  <S**2>=0.000
       7 -> 10         0.24728
       8 -> 13        -0.11125
       8 -> 14        -0.38778
       8 -> 15         0.14677
       9 -> 16        -0.11399
       9 -> 18         0.44131

 Excited State  15:      Singlet-A"    12.2848 eV  100.93 nm  f=0.0248  <S**2>=0.000
       6 -> 10         0.37854
       6 -> 14         0.13452
       9 -> 15         0.20854
       9 -> 17         0.32654
       9 -> 19        -0.37311
       9 -> 20         0.10953

 Excited State  16:      Singlet-A'    12.3120 eV  100.70 nm  f=0.0213  <S**2>=0.000
       7 -> 10        -0.37732
       7 -> 11        -0.13167
       8 -> 13         0.12330
       8 -> 14         0.27114
       8 -> 15         0.20187
       9 -> 16        -0.12069
       9 -> 18         0.39172

 Excited State  17:      Singlet-A"    12.6815 eV   97.77 nm  f=0.0093  <S**2>=0.000
       6 -> 10         0.37529
       8 -> 16         0.40429
       9 -> 19         0.37738

 Excited State  18:      Singlet-A"    12.8058 eV   96.82 nm  f=0.0468  <S**2>=0.000
       6 -> 10        -0.26911
       8 -> 16         0.52728
       9 -> 17        -0.12620
       9 -> 19        -0.27147
       9 -> 20         0.13239

 Excited State  19:      Singlet-A'    12.8448 eV   96.52 nm  f=0.0094  <S**2>=0.000
       7 -> 11         0.13208
       8 -> 14        -0.10808
       8 -> 15         0.53896
       8 -> 17        -0.32654
       9 -> 18        -0.19476

 Excited State  20:      Singlet-A"    13.1394 eV   94.36 nm  f=0.0734  <S**2>=0.000
       6 -> 11         0.48180
       6 -> 14        -0.13218
       8 -> 18         0.10943
       9 -> 19         0.14218
       9 -> 20         0.38659
       9 -> 21         0.13172

 Excited State  21:      Singlet-A'    13.1736 eV   94.12 nm  f=0.1830  <S**2>=0.000
       5 -> 10        -0.11859
       7 -> 10         0.13369
       7 -> 11         0.60258
       8 -> 14         0.18137
       9 -> 18         0.14575

 Excited State  22:      Singlet-A"    13.4658 eV   92.07 nm  f=0.0053  <S**2>=0.000
       7 -> 12        -0.30728
       8 -> 18         0.56896
       9 -> 20        -0.20662

 Excited State  23:      Singlet-A"    13.6744 eV   90.67 nm  f=0.0055  <S**2>=0.000
       6 -> 11        -0.42081
       7 -> 12        -0.13337
       8 -> 18         0.15077
       9 -> 19         0.13014
       9 -> 20         0.44554

 Excited State  24:      Singlet-A'    13.7490 eV   90.18 nm  f=0.0235  <S**2>=0.000
       6 -> 12         0.17196
       7 -> 13         0.28542
       7 -> 14        -0.15095
       8 -> 15         0.23000
       8 -> 17         0.50795
       9 -> 18        -0.13903

 Excited State  25:      Singlet-A'    14.2103 eV   87.25 nm  f=0.1415  <S**2>=0.000
       5 -> 10         0.40769
       5 -> 14         0.10147
       6 -> 12        -0.11211
       6 -> 16        -0.10542
       7 -> 13         0.29247
       7 -> 14        -0.18925
       8 -> 14         0.13984
       8 -> 17        -0.19425
       8 -> 19        -0.19779
       8 -> 20         0.12575
       9 -> 22         0.13276

 Excited State  26:      Singlet-A'    14.3246 eV   86.55 nm  f=0.0799  <S**2>=0.000
       5 -> 10        -0.30289
       6 -> 12         0.18984
       7 -> 13         0.43046
       7 -> 14        -0.12825
       8 -> 15        -0.13021
       8 -> 17        -0.25536
       8 -> 19         0.15785

 Excited State  27:      Singlet-A"    14.3699 eV   86.28 nm  f=0.0040  <S**2>=0.000
       7 -> 12         0.58569
       7 -> 16         0.15219
       8 -> 16        -0.11156
       8 -> 18         0.30910

 Excited State  28:      Singlet-A'    14.4899 eV   85.57 nm  f=0.0185  <S**2>=0.000
       5 -> 10         0.30915
       5 -> 11        -0.18614
       8 -> 19         0.49593
       8 -> 20        -0.18128

 Excited State  29:      Singlet-A"    14.5244 eV   85.36 nm  f=0.0028  <S**2>=0.000
       6 -> 11        -0.18482
       6 -> 13         0.54451
       6 -> 14        -0.30883
       6 -> 19        -0.13423
       6 -> 27        -0.10328

 Excited State  30:      Singlet-A"    14.7783 eV   83.90 nm  f=0.0058  <S**2>=0.000
       6 -> 17        -0.13576
       9 -> 20        -0.18451
       9 -> 21         0.63719

 Excited State  31:      Singlet-A'    14.8474 eV   83.51 nm  f=0.1120  <S**2>=0.000
       6 -> 12         0.33872
       7 -> 15         0.39933
       8 -> 19        -0.19072
       8 -> 20        -0.24296
       9 -> 22         0.27443

 Excited State  32:      Singlet-A'    14.9865 eV   82.73 nm  f=0.0588  <S**2>=0.000
       5 -> 10         0.13147
       6 -> 12         0.45633
       6 -> 16         0.15125
       7 -> 13        -0.10584
       7 -> 14         0.11809
       7 -> 15        -0.24046
       7 -> 17         0.14646
       8 -> 19        -0.15361
       8 -> 20         0.13122
       9 -> 22        -0.20642

 Excited State  33:      Singlet-A'    15.0303 eV   82.49 nm  f=0.0766  <S**2>=0.000
       5 -> 10        -0.11500
       7 -> 13        -0.24773
       7 -> 14        -0.27674
       7 -> 15        -0.28424
       9 -> 22         0.42341
       9 -> 24        -0.15207

 Excited State  34:      Singlet-A"    15.1130 eV   82.04 nm  f=0.0094  <S**2>=0.000
       6 -> 15         0.32076
       6 -> 17        -0.10164
       7 -> 16         0.46054
       7 -> 18         0.15013
       8 -> 22         0.14692
       9 -> 23         0.22239

 Excited State  35:      Singlet-A'    15.1733 eV   81.71 nm  f=0.1279  <S**2>=0.000
       5 -> 11         0.31373
       7 -> 14         0.11656
       7 -> 15         0.17885
       8 -> 19         0.24551
       8 -> 20         0.43242
       9 -> 22         0.17457

 Excited State  36:      Singlet-A'    15.3418 eV   80.81 nm  f=0.1777  <S**2>=0.000
       7 -> 13         0.18648
       7 -> 14         0.45362
       7 -> 15        -0.25363
       7 -> 17         0.11127
       9 -> 22         0.31138
       9 -> 24         0.16372

 Excited State  37:      Singlet-A"    15.3549 eV   80.75 nm  f=0.1973  <S**2>=0.000
       6 -> 13         0.22191
       6 -> 14         0.18407
       7 -> 16        -0.32305
       9 -> 21         0.13228
       9 -> 23         0.46399
       9 -> 30         0.12814

 Excited State  38:      Singlet-A'    15.5328 eV   79.82 nm  f=0.0579  <S**2>=0.000
       5 -> 10        -0.12841
       5 -> 11        -0.36111
       6 -> 12         0.16014
       6 -> 18        -0.13907
       7 -> 14        -0.11232
       8 -> 19         0.11060
       8 -> 20         0.20790
       9 -> 24         0.44698

 Excited State  39:      Singlet-A'    15.6265 eV   79.34 nm  f=0.2708  <S**2>=0.000
       5 -> 10         0.12756
       5 -> 11         0.39722
       6 -> 16         0.13453
       6 -> 18        -0.12142
       7 -> 14        -0.15283
       7 -> 15        -0.11857
       8 -> 20        -0.22731
       9 -> 24         0.40072

 Excited State  40:      Singlet-A"    15.6600 eV   79.17 nm  f=0.1693  <S**2>=0.000
       6 -> 15         0.49946
       6 -> 17        -0.12010
       7 -> 16        -0.26834
       9 -> 23        -0.30984
       9 -> 25        -0.13750

 Excited State  41:      Singlet-A"    15.8173 eV   78.39 nm  f=0.0904  <S**2>=0.000
       6 -> 10        -0.12016
       6 -> 13         0.25631
       6 -> 14         0.42903
       6 -> 15        -0.12602
       6 -> 17         0.22773
       6 -> 19         0.14873
       7 -> 16         0.13501
       9 -> 23        -0.26518

 Excited State  42:      Singlet-A'    16.0267 eV   77.36 nm  f=0.0951  <S**2>=0.000
       5 -> 11        -0.12377
       5 -> 13         0.14093
       6 -> 12        -0.12700
       6 -> 16         0.51477
       6 -> 18         0.12499
       7 -> 15         0.14881
       7 -> 17         0.20624
       8 -> 21         0.16651
       9 -> 22         0.16320

 Excited State  43:      Singlet-A'    16.1857 eV   76.60 nm  f=0.1925  <S**2>=0.000
       6 -> 16        -0.29277
       7 -> 15         0.10525
       7 -> 17         0.37888
       7 -> 19        -0.14689
       8 -> 20        -0.12898
       8 -> 21         0.40188

 Excited State  44:      Singlet-A"    16.2224 eV   76.43 nm  f=0.0342  <S**2>=0.000
       7 -> 16        -0.18362
       7 -> 18         0.61224
       8 -> 22         0.14272
       8 -> 24         0.19389

 Excited State  45:      Singlet-A"    16.3476 eV   75.84 nm  f=0.0270  <S**2>=0.000
       5 -> 12        -0.29869
       6 -> 15         0.20828
       9 -> 25         0.54451

 Excited State  46:      Singlet-A"    16.3797 eV   75.69 nm  f=0.0061  <S**2>=0.000
       5 -> 12         0.57107
       5 -> 16         0.11880
       8 -> 24        -0.12271
       9 -> 25         0.27227

 Excited State  47:      Singlet-A'    16.5700 eV   74.82 nm  f=0.0011  <S**2>=0.000
       5 -> 13        -0.31889
       5 -> 14         0.15503
       6 -> 18        -0.10410
       7 -> 15         0.12292
       7 -> 17         0.42706
       8 -> 20         0.11961
       8 -> 21        -0.28504
       8 -> 23         0.14991

 Excited State  48:      Singlet-A'    16.6402 eV   74.51 nm  f=0.0324  <S**2>=0.000
       5 -> 13         0.52062
       6 -> 18        -0.20342
       8 -> 21        -0.22980
       8 -> 23         0.21580

 Excited State  49:      Singlet-A"    16.6420 eV   74.50 nm  f=0.0004  <S**2>=0.000
       5 -> 16         0.11360
       6 -> 13        -0.11679
       6 -> 14        -0.15396
       6 -> 15         0.16181
       6 -> 17         0.45349
       7 -> 18         0.10981
       8 -> 22        -0.32846
       9 -> 25        -0.19279

 Excited State  50:      Singlet-A'    16.7957 eV   73.82 nm  f=0.0063  <S**2>=0.000
       5 -> 13         0.14533
       6 -> 16        -0.16825
       6 -> 18         0.51465
       7 -> 14        -0.10069
       7 -> 17         0.16132
       7 -> 19         0.21855
       7 -> 20        -0.12874
       9 -> 24         0.15117

 Excited State  51:      Singlet-A"    16.9302 eV   73.23 nm  f=0.1015  <S**2>=0.000
       6 -> 14        -0.10164
       6 -> 17         0.33452
       7 -> 18        -0.11246
       8 -> 22         0.54369
       9 -> 29         0.10270

 Excited State  52:      Singlet-A'    17.0597 eV   72.68 nm  f=0.0421  <S**2>=0.000
       5 -> 14         0.26803
       6 -> 18         0.15392
       7 -> 17        -0.13678
       8 -> 21         0.22693
       8 -> 23         0.51609
       9 -> 26        -0.11980

 Excited State  53:      Singlet-A"    17.0830 eV   72.58 nm  f=0.0310  <S**2>=0.000
       5 -> 12        -0.11698
       6 -> 17        -0.11140
       6 -> 20         0.12563
       8 -> 24        -0.15969
       9 -> 19        -0.10483
       9 -> 23        -0.10199
       9 -> 27         0.55898
       9 -> 29        -0.12780
       9 -> 30         0.18236

 Excited State  54:      Singlet-A'    17.2856 eV   71.73 nm  f=0.0231  <S**2>=0.000
       5 -> 14        -0.18670
       5 -> 17        -0.10080
       7 -> 19         0.28719
       8 -> 23         0.24745
       9 -> 26         0.44392
       9 -> 28         0.19558

 Excited State  55:      Singlet-A"    17.2973 eV   71.68 nm  f=0.0003  <S**2>=0.000
       5 -> 12         0.10885
       5 -> 18        -0.12263
       7 -> 18        -0.18765
       8 -> 24         0.58656
       9 -> 27         0.12399
       9 -> 29        -0.13847
       9 -> 30         0.14069

 Excited State  56:      Singlet-A'    17.3361 eV   71.52 nm  f=0.0014  <S**2>=0.000
       5 -> 14         0.17006
       5 -> 15         0.32683
       5 -> 17        -0.11555
       6 -> 18         0.17459
       7 -> 19        -0.26551
       7 -> 20         0.11948
       8 -> 23        -0.11923
       8 -> 25        -0.10247
       9 -> 26         0.39740

 Excited State  57:      Singlet-A'    17.3871 eV   71.31 nm  f=0.0059  <S**2>=0.000
       5 -> 13         0.17012
       5 -> 14         0.48409
       5 -> 15        -0.23738
       5 -> 17         0.12120
       7 -> 19         0.17974
       8 -> 23        -0.18522
       9 -> 26         0.11656
       9 -> 28         0.11358

 Excited State  58:      Singlet-A"    17.4433 eV   71.08 nm  f=0.0561  <S**2>=0.000
       5 -> 12        -0.10155
       5 -> 16         0.15700
       6 -> 14        -0.17449
       6 -> 19         0.40597
       6 -> 20        -0.12522
       8 -> 22         0.11043
       8 -> 24        -0.11430
       9 -> 27        -0.18257
       9 -> 29        -0.36362
       9 -> 30         0.11297

 Excited State  59:      Singlet-A"    17.6302 eV   70.32 nm  f=0.0005  <S**2>=0.000
       5 -> 16        -0.25801
       6 -> 14        -0.13343
       6 -> 17        -0.11505
       6 -> 19         0.38964
       6 -> 20        -0.17464
       9 -> 27         0.18618
       9 -> 29         0.29159
       9 -> 30        -0.19211

 Excited State  60:      Singlet-A'    17.6387 eV   70.29 nm  f=0.0279  <S**2>=0.000
       5 -> 15         0.24304
       5 -> 17        -0.11067
       6 -> 18        -0.11885
       7 -> 19         0.12109
       7 -> 20         0.11591
       9 -> 26        -0.29761
       9 -> 28         0.50406

 Excited State  61:      Singlet-A'    17.7364 eV   69.90 nm  f=0.1802  <S**2>=0.000
       5 -> 15         0.28183
       7 -> 19         0.38182
       7 -> 20         0.22876
       7 -> 21         0.12341
       8 -> 21         0.11669
       8 -> 25         0.10364
       8 -> 27        -0.10202
       9 -> 28        -0.33647

 Excited State  62:      Singlet-A"    17.8291 eV   69.54 nm  f=0.1185  <S**2>=0.000
       5 -> 16         0.54459
       6 -> 17        -0.11643
       9 -> 27         0.14619
       9 -> 29         0.12178
       9 -> 30        -0.30407

 Excited State  63:      Singlet-A'    17.8838 eV   69.33 nm  f=0.1059  <S**2>=0.000
       5 -> 17         0.13224
       7 -> 19        -0.10067
       7 -> 20         0.22175
       8 -> 21        -0.12578
       8 -> 25         0.55983
       9 -> 28         0.10101

 Excited State  64:      Singlet-A"    18.1259 eV   68.40 nm  f=0.0094  <S**2>=0.000
       5 -> 16         0.19299
       9 -> 23        -0.11263
       9 -> 27        -0.10061
       9 -> 29         0.42359
       9 -> 30         0.45596

 Excited State  65:      Singlet-A'    18.2743 eV   67.85 nm  f=0.1590  <S**2>=0.000
       5 -> 14        -0.13977
       5 -> 15        -0.20992
       5 -> 17         0.21336
       7 -> 20         0.45203
       8 -> 25        -0.30601
       8 -> 29         0.11991
       8 -> 30        -0.12483

 Excited State  66:      Singlet-A"    18.3095 eV   67.72 nm  f=0.0096  <S**2>=0.000
       5 -> 18         0.13409
       6 -> 15         0.11107
       6 -> 19         0.24945
       6 -> 20         0.52540
       6 -> 21         0.11699
       8 -> 28         0.10180
       9 -> 31         0.22238

 Excited State  67:      Singlet-A'    18.6788 eV   66.38 nm  f=0.0081  <S**2>=0.000
       5 -> 15         0.23832
       5 -> 17         0.44710
       8 -> 27         0.36833
       8 -> 30         0.11493

 Excited State  68:      Singlet-A"    18.7402 eV   66.16 nm  f=0.0003  <S**2>=0.000
       5 -> 18         0.61142
       6 -> 20        -0.10057
       8 -> 24         0.12417
       8 -> 26        -0.21716
       9 -> 31        -0.10176

 Excited State  69:      Singlet-A"    18.8410 eV   65.81 nm  f=0.0103  <S**2>=0.000
       5 -> 18         0.20094
       7 -> 22        -0.15294
       8 -> 26         0.63246

 Excited State  70:      Singlet-A'    18.8894 eV   65.64 nm  f=0.0738  <S**2>=0.000
       4 -> 10         0.10914
       5 -> 17        -0.28258
       7 -> 20         0.21255
       7 -> 21        -0.28297
       7 -> 23         0.10144
       8 -> 27         0.45426

 Excited State  71:      Singlet-A'    18.9775 eV   65.33 nm  f=0.0106  <S**2>=0.000
       5 -> 15        -0.13803
       5 -> 17        -0.23677
       5 -> 19         0.14605
       7 -> 20        -0.11896
       7 -> 21         0.48063
       8 -> 27         0.28307

 Excited State  72:      Singlet-A"    19.0381 eV   65.12 nm  f=0.0023  <S**2>=0.000
       6 -> 19        -0.12293
       6 -> 21        -0.19804
       7 -> 22        -0.12578
       8 -> 28        -0.22721
       9 -> 31         0.54565
       9 -> 33        -0.14382
       9 -> 34         0.13282

 Excited State  73:      Singlet-A"    19.1062 eV   64.89 nm  f=0.0341  <S**2>=0.000
       6 -> 20        -0.10555
       6 -> 21        -0.19085
       7 -> 22         0.22497
       7 -> 24         0.10763
       8 -> 28         0.55500
       9 -> 31         0.16738

 Excited State  74:      Singlet-A'    19.2517 eV   64.40 nm  f=0.0793  <S**2>=0.000
       5 -> 19        -0.32060
       7 -> 25         0.10243
       8 -> 29         0.46700
       8 -> 30        -0.18350
       9 -> 32         0.20668

 Excited State  75:      Singlet-A'    19.3323 eV   64.13 nm  f=0.0258  <S**2>=0.000
       5 -> 19        -0.22812
       6 -> 22         0.15789
       7 -> 23        -0.16895
       8 -> 29        -0.32077
       8 -> 30         0.12242
       9 -> 32         0.44183

 Excited State  76:      Singlet-A"    19.4153 eV   63.86 nm  f=0.0057  <S**2>=0.000
       6 -> 21        -0.10795
       7 -> 22         0.56711
       7 -> 24        -0.24299
       8 -> 26         0.14403
       8 -> 28        -0.22335

 Excited State  77:      Singlet-A'    19.4821 eV   63.64 nm  f=0.0299  <S**2>=0.000
       4 -> 10         0.47226
       5 -> 19         0.10520
       7 -> 21         0.10262
       7 -> 23         0.29007
       8 -> 29        -0.12820
       8 -> 30        -0.29443

 Excited State  78:      Singlet-A'    19.5184 eV   63.52 nm  f=0.0167  <S**2>=0.000
       4 -> 10        -0.31848
       5 -> 19        -0.28258
       5 -> 20         0.19561
       7 -> 23         0.40514
       8 -> 29        -0.18084

 Excited State  79:      Singlet-A"    19.5424 eV   63.44 nm  f=0.0140  <S**2>=0.000
       6 -> 20        -0.22247
       6 -> 21         0.46959
       6 -> 23        -0.24171
       7 -> 22         0.17305
       9 -> 31         0.14267

 The electronic state is 1-A'.
 Alpha  occ. eigenvalues --  -18.98251 -10.16346  -1.14807  -0.82141  -0.64195
 Alpha  occ. eigenvalues --   -0.57244  -0.55642  -0.45878  -0.39969
 Alpha virt. eigenvalues --    0.08607   0.11591   0.15773   0.15901   0.18786
 Alpha virt. eigenvalues --    0.21957   0.22435   0.24024   0.24174   0.28747
 Alpha virt. eigenvalues --    0.32536   0.35578   0.36005   0.37525   0.38077

 Mulliken charges:
               1
     1  C    0.444813
     2  O   -0.436464
     3  H   -0.032745
     4  H   -0.032745
     5  H   -0.096451
     6  H    0.153591
 Sum of Mulliken charges =   0.00000

 Dipole moment (field-independent basis, Debye):
    X=             -1.4202    Y=              1.0226    Z=             -0.0000  Tot=              1.7501
 Quadrupole moment (field-independent basis, Debye-Ang):
   XX=            -11.8068   YY=            -13.4443   ZZ=            -13.8592
   XY=              2.1419   XZ=              0.0000   YZ=             -0.0000

 Normal termination of Gaussian 16 at Mon Mar 21 20:17:02 2022.
