 Gaussian 16, Revision C.01,
 Gaussian 16:  EM64L-G16RevC.01  3-Jul-2019

 ----------------------------------------------------------------------
 #P TD(Nstates=10000) lc-whpbe/Gen SCF(maxcycles=100) Int(Grid=ultrafin
 e)
 ----------------------------------------------------------------------

 ---------------------
 xGDB7_00001_tier4.com
 ---------------------
 Symbolic Z-matrix:
 Charge =  0 Multiplicity = 1

                         Standard orientation:
 ---------------------------------------------------------------------
 Center     Atomic      Atomic             Coordinates (Angstroms)
 Number     Number       Type             X           Y           Z
 ---------------------------------------------------------------------
      1          6           0        0.000000    0.000000    0.660866
      2          6           0        0.000000    0.000000   -0.660866
      3          1           0        0.000000    0.922586    1.229258
      4          1           0       -0.000000   -0.922586    1.229258
      5          1           0        0.000000    0.922586   -1.229258
      6          1           0       -0.000000   -0.922586   -1.229258
 ---------------------------------------------------------------------

 SCF Done:  E(RLC-wHPBE) =  -78.4763754804     A.U. after   10 cycles

 Excitation energies and oscillator strengths:

 Excited State   1:      Singlet-B1U    7.9871 eV  155.23 nm  f=0.3793  <S**2>=0.000
       8 ->  9         0.70044
 This state for optimization and/or second-order correction.
 Total Energy, E(TD-HF/TD-DFT) =  -78.1828565739
 Copying the excited state density for this state as the 1-particle RhoCI density.

 Excited State   2:      Singlet-B1G    8.2449 eV  150.38 nm  f=0.0000  <S**2>=0.000
       7 ->  9         0.69981

 Excited State   3:      Singlet-B3U    8.3199 eV  149.02 nm  f=0.0823  <S**2>=0.000
       8 -> 10         0.69114
       8 -> 13        -0.10501

 Excited State   4:      Singlet-B2G    9.2619 eV  133.86 nm  f=0.0000  <S**2>=0.000
       8 -> 11         0.69595

 Excited State   5:      Singlet-B2G    9.7384 eV  127.31 nm  f=0.0000  <S**2>=0.000
       6 ->  9         0.69339
       6 -> 22         0.10104

 Excited State   6:      Singlet-B1G    9.7461 eV  127.21 nm  f=0.0000  <S**2>=0.000
       8 -> 12         0.69071
       8 -> 24         0.13535

 Excited State   7:      Singlet-B3G   10.3743 eV  119.51 nm  f=0.0000  <S**2>=0.000
       7 -> 10         0.68662

 Excited State   8:      Singlet-B3U   10.8078 eV  114.72 nm  f=0.1056  <S**2>=0.000
       8 -> 10         0.10105
       8 -> 13         0.67904
       8 -> 15        -0.12822

 Excited State   9:      Singlet-B2U   11.1419 eV  111.28 nm  f=0.1609  <S**2>=0.000
       5 -> 10         0.14234
       7 -> 11         0.68034

 Excited State  10:      Singlet-AU    11.4828 eV  107.97 nm  f=0.0000  <S**2>=0.000
       5 ->  9         0.66471
       8 -> 14        -0.21317

 Excited State  11:      Singlet-AU    11.7783 eV  105.27 nm  f=0.0000  <S**2>=0.000
       5 ->  9         0.21512
       8 -> 14         0.66478

 Excited State  12:      Singlet-B3U   11.8084 eV  105.00 nm  f=0.1318  <S**2>=0.000
       8 -> 13         0.12901
       8 -> 15         0.68038

 Excited State  13:      Singlet-AG    12.1145 eV  102.34 nm  f=0.0000  <S**2>=0.000
       6 -> 10         0.29128
       7 -> 14        -0.12328
       8 -> 16         0.61687

 Excited State  14:      Singlet-B2U   12.1285 eV  102.23 nm  f=0.1061  <S**2>=0.000
       8 -> 17         0.68749

 Excited State  15:      Singlet-B1U   12.1371 eV  102.15 nm  f=0.2641  <S**2>=0.000
       7 -> 12         0.68868

 Excited State  16:      Singlet-AG    12.6208 eV   98.24 nm  f=0.0000  <S**2>=0.000
       6 -> 10         0.62612
       7 -> 14         0.11641
       8 -> 16        -0.26899

 Excited State  17:      Singlet-B1G   12.8233 eV   96.69 nm  f=0.0000  <S**2>=0.000
       8 -> 19         0.69205
       8 -> 29        -0.11488

 Excited State  18:      Singlet-B2G   12.8334 eV   96.61 nm  f=0.0000  <S**2>=0.000
       8 -> 18         0.69088
       8 -> 33        -0.11964

 Excited State  19:      Singlet-B3G   12.8638 eV   96.38 nm  f=0.0000  <S**2>=0.000
       5 -> 11         0.15861
       7 -> 13         0.67120

 Excited State  20:      Singlet-B1U   13.1486 eV   94.29 nm  f=0.2319  <S**2>=0.000
       6 -> 11         0.68817

 Excited State  21:      Singlet-B3G   13.6065 eV   91.12 nm  f=0.0000  <S**2>=0.000
       5 -> 11         0.21682
       7 -> 13        -0.10707
       7 -> 15         0.65040

 Excited State  22:      Singlet-B2U   13.9014 eV   89.19 nm  f=0.1931  <S**2>=0.000
       6 -> 12         0.67111

 Excited State  23:      Singlet-AU    13.9595 eV   88.82 nm  f=0.0000  <S**2>=0.000
       5 -> 22         0.10789
       7 -> 16         0.69314

 Excited State  24:      Singlet-B2U   14.0896 eV   88.00 nm  f=0.2156  <S**2>=0.000
       5 -> 10         0.66339
       5 -> 13        -0.12142
       7 -> 11        -0.12205

 Excited State  25:      Singlet-B2G   14.1559 eV   87.58 nm  f=0.0000  <S**2>=0.000
       7 -> 17         0.65494
       8 -> 20        -0.22986

 Excited State  26:      Singlet-AG    14.1690 eV   87.50 nm  f=0.0000  <S**2>=0.000
       5 -> 12        -0.10158
       6 -> 13         0.14915
       6 -> 15         0.10584
       7 -> 14         0.64797
       8 -> 16         0.16022

 Excited State  27:      Singlet-B2G   14.5674 eV   85.11 nm  f=0.0000  <S**2>=0.000
       7 -> 17         0.22800
       8 -> 20         0.65580

 Excited State  28:      Singlet-AG    14.7089 eV   84.29 nm  f=0.0000  <S**2>=0.000
       6 -> 13         0.65395
       6 -> 15        -0.17497
       7 -> 14        -0.12576

 Excited State  29:      Singlet-B1U   14.7571 eV   84.02 nm  f=0.0830  <S**2>=0.000
       7 -> 19        -0.15905
       8 -> 22         0.66671

 Excited State  30:      Singlet-B3G   14.9176 eV   83.11 nm  f=0.0000  <S**2>=0.000
       5 -> 11         0.12189
       8 -> 21         0.68820

 Excited State  31:      Singlet-B2U   15.1734 eV   81.71 nm  f=0.6026  <S**2>=0.000
       5 -> 10        -0.10041
       5 -> 13        -0.15303
       6 -> 12         0.10640
       6 -> 19        -0.14074
       7 -> 18         0.63945

 Excited State  32:      Singlet-B3G   15.1824 eV   81.66 nm  f=0.0000  <S**2>=0.000
       5 -> 11         0.59695
       6 -> 14        -0.17079
       7 -> 10        -0.11629
       7 -> 15        -0.24744
       8 -> 21        -0.13105

 Excited State  33:      Singlet-B1U   15.3810 eV   80.61 nm  f=0.3805  <S**2>=0.000
       5 -> 14        -0.12169
       7 -> 19         0.66252
       8 -> 22         0.15091

 Excited State  34:      Singlet-B3U   15.5096 eV   79.94 nm  f=0.1262  <S**2>=0.000
       4 ->  9         0.62842
       5 -> 17        -0.14829
       6 -> 16         0.13659
       7 -> 21        -0.11057
       8 -> 23        -0.17088

 Excited State  35:      Singlet-AG    15.5679 eV   79.64 nm  f=0.0000  <S**2>=0.000
       4 -> 11         0.11760
       5 -> 12        -0.43514
       6 -> 15         0.49964
       7 -> 14        -0.15909

 Excited State  36:      Singlet-B3G   15.5744 eV   79.61 nm  f=0.0000  <S**2>=0.000
       4 -> 12        -0.16089
       5 -> 11         0.18326
       6 -> 14         0.64948

 Excited State  37:      Singlet-B1G   15.7524 eV   78.71 nm  f=0.0000  <S**2>=0.000
       5 -> 16        -0.26892
       6 -> 17         0.47224
       7 -> 22        -0.43991

 Excited State  38:      Singlet-B3U   15.9913 eV   77.53 nm  f=0.2971  <S**2>=0.000
       4 ->  9        -0.15772
       6 -> 16         0.66629
       7 -> 21        -0.10619

 Excited State  39:      Singlet-B3U   16.0867 eV   77.07 nm  f=0.0182  <S**2>=0.000
       4 ->  9         0.16728
       8 -> 23         0.67427

 Excited State  40:      Singlet-B1G   16.2327 eV   76.38 nm  f=0.0000  <S**2>=0.000
       5 -> 16         0.19407
       6 -> 17         0.51334
       7 -> 22         0.43255

 Excited State  41:      Singlet-B2U   16.2476 eV   76.31 nm  f=0.0099  <S**2>=0.000
       5 -> 15        -0.34665
       7 -> 20         0.58872

 Excited State  42:      Singlet-AG    16.5512 eV   74.91 nm  f=0.0000  <S**2>=0.000
       5 -> 12         0.50100
       6 -> 13         0.13367
       6 -> 15         0.40886
       8 -> 16        -0.10440
       8 -> 27        -0.18126

 Excited State  43:      Singlet-B2U   16.5908 eV   74.73 nm  f=0.0146  <S**2>=0.000
       5 -> 13         0.55146
       5 -> 15        -0.14082
       6 -> 19         0.31650
       7 -> 18         0.22766

 Excited State  44:      Singlet-B1G   16.6971 eV   74.25 nm  f=0.0000  <S**2>=0.000
       8 -> 12        -0.13211
       8 -> 24         0.68800

 Excited State  45:      Singlet-B3U   16.7793 eV   73.89 nm  f=0.3829  <S**2>=0.000
       4 ->  9         0.12372
       5 -> 17         0.28547
       6 -> 16         0.16039
       7 -> 21         0.60078

 Excited State  46:      Singlet-AG    16.8185 eV   73.72 nm  f=0.0000  <S**2>=0.000
       5 -> 12         0.13658
       8 -> 27         0.67143

 Excited State  47:      Singlet-B1U   16.8540 eV   73.56 nm  f=0.0201  <S**2>=0.000
       4 -> 13        -0.13403
       6 -> 18         0.66913

 Excited State  48:      Singlet-B2G   17.1304 eV   72.38 nm  f=0.0000  <S**2>=0.000
       8 -> 26         0.69374

 Excited State  49:      Singlet-B2U   17.3328 eV   71.53 nm  f=0.2172  <S**2>=0.000
       5 -> 13        -0.29553
       5 -> 15         0.17942
       6 -> 19         0.57504
       7 -> 20         0.13177

 Excited State  50:      Singlet-B1U   17.3536 eV   71.45 nm  f=0.0000  <S**2>=0.000
       4 -> 10         0.62440
       5 -> 14         0.26607

 Excited State  51:      Singlet-B1U   17.6178 eV   70.37 nm  f=0.0175  <S**2>=0.000
       4 -> 10        -0.25942
       5 -> 14         0.58063
       6 -> 20         0.18077
       7 -> 24         0.15600

 Excited State  52:      Singlet-AU    17.6710 eV   70.16 nm  f=0.0000  <S**2>=0.000
       8 -> 25         0.69895

 Excited State  53:      Singlet-B2U   17.7342 eV   69.91 nm  f=0.0287  <S**2>=0.000
       5 -> 13         0.21422
       5 -> 15         0.55222
       6 -> 19        -0.14027
       7 -> 20         0.33181

 Excited State  54:      Singlet-B2G   17.9869 eV   68.93 nm  f=0.0000  <S**2>=0.000
       4 -> 16         0.20311
       6 ->  9        -0.10071
       6 -> 22         0.65098

 Excited State  55:      Singlet-B1G   18.0066 eV   68.85 nm  f=0.0000  <S**2>=0.000
       5 -> 16         0.61881
       7 -> 22        -0.32491

 Excited State  56:      Singlet-AG    18.0888 eV   68.54 nm  f=0.0000  <S**2>=0.000
       4 -> 11         0.66969
       6 -> 15        -0.10650

 Excited State  57:      Singlet-B3U   18.1279 eV   68.39 nm  f=0.0242  <S**2>=0.000
       5 -> 17         0.56864
       7 -> 21        -0.32170
       8 -> 28        -0.22141

 Excited State  58:      Singlet-B3G   18.1778 eV   68.21 nm  f=0.0000  <S**2>=0.000
       4 -> 12         0.16934
       7 -> 23         0.66009

 Excited State  59:      Singlet-AG    18.4494 eV   67.20 nm  f=0.0000  <S**2>=0.000
       5 -> 19         0.62340
       7 -> 25         0.28213

 Excited State  60:      Singlet-B1U   18.4686 eV   67.13 nm  f=0.3100  <S**2>=0.000
       4 -> 13        -0.10227
       4 -> 15        -0.22363
       5 -> 14        -0.20011
       6 -> 20         0.57165
       7 -> 24         0.20296

 Excited State  61:      Singlet-B3G   18.5124 eV   66.97 nm  f=0.0000  <S**2>=0.000
       5 -> 18         0.66135
       7 -> 28         0.16559

 Excited State  62:      Singlet-AU    18.6672 eV   66.42 nm  f=0.0000  <S**2>=0.000
       4 -> 17         0.20038
       5 -> 22        -0.11953
       6 -> 21         0.65568

 Excited State  63:      Singlet-B3G   18.6704 eV   66.41 nm  f=0.0000  <S**2>=0.000
       4 -> 12         0.64317
       4 -> 24         0.11052
       6 -> 14         0.16082
       7 -> 23        -0.17811

 Excited State  64:      Singlet-B3U   18.7879 eV   65.99 nm  f=0.2886  <S**2>=0.000
       4 ->  9         0.11969
       5 -> 17         0.22798
       8 -> 28         0.64139

 Excited State  65:      Singlet-AU    18.8793 eV   65.67 nm  f=0.0000  <S**2>=0.000
       5 -> 22        -0.21463
       7 -> 27         0.65781

 Excited State  66:      Singlet-B1G   18.9073 eV   65.57 nm  f=0.0000  <S**2>=0.000
       8 -> 19         0.11313
       8 -> 29         0.69495

 Excited State  67:      Singlet-B2G   19.1471 eV   64.75 nm  f=0.0000  <S**2>=0.000
       8 -> 18         0.11385
       8 -> 33         0.67279
       8 -> 36        -0.14298

 Excited State  68:      Singlet-B2U   19.2163 eV   64.52 nm  f=0.0667  <S**2>=0.000
       5 -> 23         0.14606
       7 -> 26         0.60105
       8 -> 32        -0.29951

 Excited State  69:      Singlet-AU    19.2209 eV   64.50 nm  f=0.0000  <S**2>=0.000
       8 -> 31         0.68692

 Excited State  70:      Singlet-B1U   19.2403 eV   64.44 nm  f=0.3776  <S**2>=0.000
       6 -> 20        -0.26679
       7 -> 24         0.62154

 Excited State  71:      Singlet-B2U   19.3845 eV   63.96 nm  f=0.1568  <S**2>=0.000
       7 -> 26         0.30121
       8 -> 32         0.61208

 Excited State  72:      Singlet-B3U   19.3898 eV   63.94 nm  f=0.0572  <S**2>=0.000
       8 -> 28         0.13430
       8 -> 30         0.68186

 Excited State  73:      Singlet-B1U   19.6337 eV   63.15 nm  f=0.0001  <S**2>=0.000
       4 -> 13         0.64667
       4 -> 15        -0.16702
       6 -> 18         0.13833

 Excited State  74:      Singlet-AG    19.8266 eV   62.53 nm  f=0.0000  <S**2>=0.000
       5 -> 19        -0.27172
       5 -> 29         0.10656
       7 -> 25         0.62930

 Excited State  75:      Singlet-B2G   19.9613 eV   62.11 nm  f=0.0000  <S**2>=0.000
       3 ->  9         0.62258
       5 -> 21         0.14703
       6 -> 22         0.15669
       7 -> 32         0.10232
       8 -> 35         0.14440

 Excited State  76:      Singlet-B3G   20.0599 eV   61.81 nm  f=0.0000  <S**2>=0.000
       5 -> 18        -0.11723
       5 -> 20         0.61579
       5 -> 35        -0.10197
       7 -> 28         0.27130

 Excited State  77:      Singlet-AU    20.2288 eV   61.29 nm  f=0.0000  <S**2>=0.000
       5 ->  9        -0.10012
       5 -> 22         0.63913
       6 -> 21         0.13121
       7 -> 27         0.21206

 Excited State  78:      Singlet-B1U   20.2751 eV   61.15 nm  f=0.0069  <S**2>=0.000
       4 -> 15        -0.11794
       8 -> 34         0.68591

 Excited State  79:      Singlet-AG    20.2771 eV   61.15 nm  f=0.0000  <S**2>=0.000
       6 -> 23         0.67061

 Excited State  80:      Singlet-B2G   20.3518 eV   60.92 nm  f=0.0000  <S**2>=0.000
       3 ->  9        -0.18852
       5 -> 21         0.60129
       7 -> 32         0.27950

 Excited State  81:      Singlet-B1U   20.5351 eV   60.38 nm  f=0.0203  <S**2>=0.000
       4 -> 13         0.12941
       4 -> 15         0.57093
       6 -> 20         0.15422
       6 -> 26         0.19601
       7 -> 24         0.16857
       7 -> 29        -0.13877
       8 -> 34         0.14094

 Excited State  82:      Singlet-B3G   20.5638 eV   60.29 nm  f=0.0000  <S**2>=0.000
       4 -> 19         0.22130
       5 -> 20        -0.26460
       6 -> 25         0.15006
       7 -> 28         0.56382
       7 -> 30        -0.11286

 Excited State  83:      Singlet-B2U   20.5971 eV   60.19 nm  f=0.0030  <S**2>=0.000
       4 -> 14         0.65539
       6 -> 24         0.10804

 Excited State  84:      Singlet-B2U   20.8615 eV   59.43 nm  f=0.0121  <S**2>=0.000
       4 -> 14        -0.14805
       5 -> 23         0.10841
       6 -> 12        -0.12095
       6 -> 24         0.59931
       7 -> 33         0.25587

 Excited State  85:      Singlet-B3U   20.8626 eV   59.43 nm  f=0.1753  <S**2>=0.000
       4 -> 22        -0.16622
       6 -> 27         0.67719

 Excited State  86:      Singlet-B2G   20.8747 eV   59.39 nm  f=0.0000  <S**2>=0.000
       4 -> 16         0.60608
       5 -> 21         0.12882
       6 -> 22        -0.16335
       8 -> 35         0.25037
       8 -> 36        -0.11716

 Excited State  87:      Singlet-AU    21.0581 eV   58.88 nm  f=0.0000  <S**2>=0.000
       4 -> 17         0.65770
       6 -> 21        -0.19367
       7 -> 27         0.10258

 Excited State  88:      Singlet-B1U   21.2486 eV   58.35 nm  f=0.1841  <S**2>=0.000
       4 -> 15        -0.15502
       6 -> 26         0.63158
       7 -> 29         0.22925

 Excited State  89:      Singlet-B3G   21.3061 eV   58.19 nm  f=0.0000  <S**2>=0.000
       4 -> 19         0.28702
       6 -> 25         0.49514
       7 -> 28        -0.14155
       7 -> 30         0.34294

 Excited State  90:      Singlet-B3G   21.3717 eV   58.01 nm  f=0.0000  <S**2>=0.000
       4 -> 19        -0.22271
       5 -> 20        -0.13910
       5 -> 26         0.19079
       6 -> 25        -0.20874
       7 -> 28         0.17524
       7 -> 30         0.54288

 Excited State  91:      Singlet-B2G   21.3952 eV   57.95 nm  f=0.0000  <S**2>=0.000
       3 ->  9        -0.18098
       4 -> 16        -0.25089
       7 -> 32        -0.26739
       8 -> 35         0.51829
       8 -> 36        -0.18511

 Excited State  92:      Singlet-B1U   21.4169 eV   57.89 nm  f=0.0302  <S**2>=0.000
       4 -> 15         0.17648
       5 -> 25         0.13963
       6 -> 20         0.14916
       6 -> 26        -0.18041
       7 -> 29         0.61245

 Excited State  93:      Singlet-AG    21.4502 eV   57.80 nm  f=0.0000  <S**2>=0.000
       3 -> 13        -0.10599
       4 -> 18         0.58124
       5 -> 24        -0.12143
       6 -> 28         0.27333
       7 -> 31        -0.18166

 Excited State  94:      Singlet-B2G   21.7916 eV   56.90 nm  f=0.0000  <S**2>=0.000
       3 ->  9        -0.11366
       5 -> 21        -0.27798
       7 -> 32         0.57144
       8 -> 35         0.24689

 Excited State  95:      Singlet-B2U   21.7953 eV   56.89 nm  f=0.3492  <S**2>=0.000
       5 -> 23         0.51957
       6 -> 24        -0.23590
       6 -> 29        -0.20301
       7 -> 26        -0.13485
       7 -> 33         0.21053
       7 -> 35         0.17145

 Excited State  96:      Singlet-AG    21.8483 eV   56.75 nm  f=0.0000  <S**2>=0.000
       3 -> 10        -0.24797
       4 -> 18         0.16727
       4 -> 20         0.11929
       5 -> 24         0.12711
       6 -> 28         0.14747
       7 -> 31         0.56071

 Excited State  97:      Singlet-B1G   21.8636 eV   56.71 nm  f=0.0000  <S**2>=0.000
       4 -> 21        -0.11716
       5 -> 27         0.43749
       7 -> 34         0.53681

 Excited State  98:      Singlet-B2U   22.1698 eV   55.92 nm  f=0.0873  <S**2>=0.000
       5 -> 23        -0.38469
       6 -> 24        -0.17242
       6 -> 29        -0.15189
       7 -> 33         0.50564

 Excited State  99:      Singlet-B3G   22.2829 eV   55.64 nm  f=0.0000  <S**2>=0.000
       4 -> 19         0.53435
       6 -> 25        -0.40678
       7 -> 28        -0.10035

 Excited State 100:      Singlet-AG    22.3186 eV   55.55 nm  f=0.0000  <S**2>=0.000
       3 -> 10         0.60960
       4 -> 20         0.14620
       5 -> 24         0.11987
       6 -> 23        -0.11720
       6 -> 30         0.13296
       7 -> 31         0.17493

 Excited State 101:      Singlet-AG    22.6089 eV   54.84 nm  f=0.0000  <S**2>=0.000
       4 -> 18        -0.27834
       4 -> 20         0.13075
       6 -> 28         0.56717
       6 -> 30        -0.20527

 Excited State 102:      Singlet-B1G   22.7265 eV   54.55 nm  f=0.0000  <S**2>=0.000
       4 -> 21         0.35022
       5 -> 27         0.40789
       6 -> 32         0.38298
       7 -> 34        -0.23725

 Excited State 103:      Singlet-AG    22.7789 eV   54.43 nm  f=0.0000  <S**2>=0.000
       3 -> 10        -0.11729
       4 -> 20         0.19065
       5 -> 24         0.53859
       6 -> 30         0.21433
       7 -> 31        -0.27377

 Excited State 104:      Singlet-B2U   23.0347 eV   53.82 nm  f=0.0098  <S**2>=0.000
       3 -> 12        -0.13435
       5 -> 28        -0.21005
       5 -> 30         0.10434
       6 -> 29         0.47810
       7 -> 35         0.40093
       7 -> 36        -0.14696

 Excited State 105:      Singlet-B3G   23.0376 eV   53.82 nm  f=0.0000  <S**2>=0.000
       4 -> 24        -0.11039
       5 -> 26         0.45791
       6 -> 31        -0.45276
       7 -> 30        -0.18295

 Excited State 106:      Singlet-B1U   23.1040 eV   53.66 nm  f=0.0160  <S**2>=0.000
       3 -> 11         0.59119
       5 -> 25        -0.22182
       6 -> 33         0.24642

 Excited State 107:      Singlet-B3G   23.1992 eV   53.44 nm  f=0.0000  <S**2>=0.000
       5 -> 26         0.40570
       6 -> 31         0.37079
       7 -> 30        -0.11806
       8 -> 37        -0.39263

 Excited State 108:      Singlet-B1G   23.2111 eV   53.42 nm  f=0.0000  <S**2>=0.000
       4 -> 21         0.23011
       5 -> 27        -0.36642
       6 -> 32         0.40018
       7 -> 34         0.37521

 Excited State 109:      Singlet-B3U   23.2686 eV   53.28 nm  f=0.0006  <S**2>=0.000
       3 -> 16         0.10327
       4 -> 22         0.65930
       6 -> 27         0.15876

 Excited State 110:      Singlet-B2G   23.3239 eV   53.16 nm  f=0.0000  <S**2>=0.000
       8 -> 33         0.10714
       8 -> 35         0.26338
       8 -> 36         0.64228

 Excited State 111:      Singlet-AG    23.3489 eV   53.10 nm  f=0.0000  <S**2>=0.000
       3 -> 15        -0.14529
       4 -> 20         0.59882
       5 -> 24        -0.26665
       6 -> 28        -0.13402

 Excited State 112:      Singlet-B2U   23.3513 eV   53.10 nm  f=0.3100  <S**2>=0.000
       3 -> 12         0.13999
       5 -> 23        -0.17107
       5 -> 28        -0.23197
       6 -> 29        -0.37641
       7 -> 33        -0.25217
       7 -> 35         0.40268

 Excited State 113:      Singlet-B3G   23.3612 eV   53.07 nm  f=0.0000  <S**2>=0.000
       5 -> 26         0.24010
       6 -> 31         0.30608
       8 -> 37         0.55887

 Excited State 114:      Singlet-B1U   23.3972 eV   52.99 nm  f=0.0414  <S**2>=0.000
       3 -> 11         0.25074
       5 -> 25         0.63476
       7 -> 29        -0.13872

 Excited State 115:      Singlet-AG    23.6193 eV   52.49 nm  f=0.0000  <S**2>=0.000
       5 -> 24        -0.21756
       6 -> 28         0.20390
       6 -> 30         0.58157
       8 -> 40         0.15283

 Excited State 116:      Singlet-B1U   23.6775 eV   52.36 nm  f=0.1424  <S**2>=0.000
       3 -> 11        -0.22825
       5 -> 25         0.10041
       6 -> 33         0.62353
       6 -> 35        -0.10928

 Excited State 117:      Singlet-B1G   23.9561 eV   51.75 nm  f=0.0000  <S**2>=0.000
       3 -> 17         0.11031
       4 -> 21         0.52793

 The electronic state is 1-AG.
 Alpha  occ. eigenvalues --  -10.12052 -10.11977  -0.90350  -0.71089  -0.60107
 Alpha  occ. eigenvalues --   -0.54459  -0.47105  -0.39601
 Alpha virt. eigenvalues --    0.09249   0.10324   0.11925   0.17833   0.20983
 Alpha virt. eigenvalues --    0.22010   0.24993   0.25812   0.26814   0.27815
 Alpha virt. eigenvalues --    0.29834   0.34254   0.34473   0.34792   0.40492

 Mulliken charges:
               1
     1  C    0.076606
     2  C    0.076606
     3  H   -0.038303
     4  H   -0.038303
     5  H   -0.038303
     6  H   -0.038303
 Sum of Mulliken charges =   0.00000

 Dipole moment (field-independent basis, Debye):
    X=              0.0000    Y=              0.0000    Z=              0.0000  Tot=              0.0000
 Quadrupole moment (field-independent basis, Debye-Ang):
   XX=            -15.3216   YY=            -12.2917   ZZ=            -12.1893
   XY=              0.0000   XZ=             -0.0000   YZ=             -0.0000

 Normal termination of Gaussian 16 at Mon Mar 21 20:20:02 2022.
