 Gaussian 16, Revision C.01,
 Gaussian 16:  EM64L-G16RevC.01  3-Jul-2019

 ----------------------------------------------------------------------
 #P TD(Nstates=10000) lc-whpbe/Gen SCF(maxcycles=100) Int(Grid=ultrafin
 e)
 ----------------------------------------------------------------------

 ---------------------
 xGDB7_00001_tier4.com
 ---------------------
 Symbolic Z-matrix:
 Charge =  0 Multiplicity = 1

                         Standard orientation:
 ---------------------------------------------------------------------
 Center     Atomic      Atomic             Coordinates (Angstroms)
 Number     Number       Type             X           Y           Z
 ---------------------------------------------------------------------
      1          6           0        0.000000    1.267731   -0.259082
      2          6           0       -0.000000   -0.000000    0.585552
      3          6           0       -0.000000   -1.267731   -0.259082
      4          1           0        0.000000    2.164308    0.363087
      5          1           0       -0.881453    1.307675   -0.903652
      6          1           0        0.881453    1.307675   -0.903652
      7          1           0       -0.874532    0.000000    1.242055
      8          1           0        0.874532   -0.000000    1.242055
      9          1           0       -0.881453   -1.307675   -0.903652
     10          1           0       -0.000000   -2.164308    0.363087
     11          1           0        0.881453   -1.307675   -0.903652
 ---------------------------------------------------------------------

 SCF Done:  E(RLC-wHPBE) =  -118.992151904     A.U. after   11 cycles

 Excitation energies and oscillator strengths:

 Excited State   1:      Singlet-B1     9.5067 eV  130.42 nm  f=0.0013  <S**2>=0.000
      10 -> 15        -0.10376
      13 -> 14         0.65913
      13 -> 16         0.16422
 This state for optimization and/or second-order correction.
 Total Energy, E(TD-HF/TD-DFT) =  -118.642785273
 Copying the excited state density for this state as the 1-particle RhoCI density.

 Excited State   2:      Singlet-A1     9.9421 eV  124.71 nm  f=0.0066  <S**2>=0.000
       9 -> 15        -0.11476
      11 -> 15        -0.12875
      12 -> 14         0.65763
      12 -> 16         0.13310

 Excited State   3:      Singlet-B2     9.9770 eV  124.27 nm  f=0.0487  <S**2>=0.000
       8 -> 15         0.10604
      11 -> 14         0.67251
      12 -> 15        -0.10827

 Excited State   4:      Singlet-A2    10.3945 eV  119.28 nm  f=0.0000  <S**2>=0.000
      10 -> 14        -0.37065
      13 -> 15         0.57256

 Excited State   5:      Singlet-B1    10.5755 eV  117.24 nm  f=0.2192  <S**2>=0.000
       7 -> 14         0.11020
      10 -> 15         0.13365
      13 -> 14        -0.13678
      13 -> 16         0.64642

 Excited State   6:      Singlet-B2    10.7311 eV  115.54 nm  f=0.0044  <S**2>=0.000
       9 -> 14        -0.31802
      11 -> 14         0.10595
      12 -> 15         0.59094

 Excited State   7:      Singlet-A1    10.8592 eV  114.17 nm  f=0.1149  <S**2>=0.000
       8 -> 14         0.18399
      11 -> 15         0.56008
      12 -> 16         0.35119

 Excited State   8:      Singlet-A1    11.0240 eV  112.47 nm  f=0.1493  <S**2>=0.000
      11 -> 15        -0.32262
      12 -> 14        -0.16815
      12 -> 16         0.56712

 Excited State   9:      Singlet-B2    11.2010 eV  110.69 nm  f=0.0283  <S**2>=0.000
      11 -> 16         0.68119

 Excited State  10:      Singlet-A1    11.2413 eV  110.29 nm  f=0.1805  <S**2>=0.000
      13 -> 17         0.67109
      13 -> 19         0.11441

 Excited State  11:      Singlet-A2    11.4070 eV  108.69 nm  f=0.0000  <S**2>=0.000
      10 -> 14         0.47586
      10 -> 18         0.14612
      11 -> 17        -0.31035
      13 -> 15         0.32284

 Excited State  12:      Singlet-B1    11.4682 eV  108.11 nm  f=0.0640  <S**2>=0.000
      10 -> 15         0.18825
      12 -> 17         0.40506
      13 -> 18         0.50665

 Excited State  13:      Singlet-B1    11.5367 eV  107.47 nm  f=0.0373  <S**2>=0.000
      10 -> 15        -0.13493
      12 -> 17         0.53080
      12 -> 19         0.11216
      13 -> 18        -0.36138
      13 -> 20         0.14658

 Excited State  14:      Singlet-A2    11.6385 eV  106.53 nm  f=0.0000  <S**2>=0.000
      10 -> 14         0.23626
      11 -> 17         0.61021
      13 -> 15         0.16838

 Excited State  15:      Singlet-A1    11.8529 eV  104.60 nm  f=0.0127  <S**2>=0.000
       9 -> 15         0.20078
      12 -> 18         0.62569
      12 -> 20        -0.16917

 Excited State  16:      Singlet-B2    11.8782 eV  104.38 nm  f=0.2751  <S**2>=0.000
       8 -> 15        -0.14083
      11 -> 18         0.64564
      12 -> 15        -0.12263

 Excited State  17:      Singlet-B1    12.1136 eV  102.35 nm  f=0.0000  <S**2>=0.000
      10 -> 15         0.39066
      12 -> 19         0.17146
      13 -> 20         0.49501
      13 -> 24         0.14173

 Excited State  18:      Singlet-B2    12.1149 eV  102.34 nm  f=0.0254  <S**2>=0.000
       9 -> 14         0.55098
       9 -> 16         0.11982
       9 -> 18         0.11321
      10 -> 17        -0.10159
      11 -> 20         0.14302
      12 -> 15         0.27764

 Excited State  19:      Singlet-A2    12.1307 eV  102.21 nm  f=0.0000  <S**2>=0.000
      10 -> 14         0.15188
      10 -> 16         0.47513
      10 -> 24         0.16194
      13 -> 21         0.42474

 Excited State  20:      Singlet-A1    12.2945 eV  100.84 nm  f=0.0158  <S**2>=0.000
      12 -> 20        -0.11425
      13 -> 19         0.65472

 Excited State  21:      Singlet-B1    12.3333 eV  100.53 nm  f=0.0291  <S**2>=0.000
       9 -> 23         0.11078
      10 -> 15        -0.11032
      12 -> 19         0.63885
      13 -> 20        -0.12609

 Excited State  22:      Singlet-A2    12.4117 eV   99.89 nm  f=0.0000  <S**2>=0.000
       8 -> 23        -0.10651
      11 -> 19         0.65905
      11 -> 41        -0.10753

 Excited State  23:      Singlet-B2    12.5684 eV   98.65 nm  f=0.0127  <S**2>=0.000
       9 -> 14        -0.18572
       9 -> 16         0.36317
      10 -> 17        -0.17820
      11 -> 20         0.20978
      11 -> 24         0.10276
      12 -> 21         0.42450
      13 -> 22         0.10635

 Excited State  24:      Singlet-B2    12.5740 eV   98.60 nm  f=0.1675  <S**2>=0.000
       8 -> 15        -0.11639
       9 -> 16        -0.14865
      10 -> 17         0.16655
      11 -> 20         0.58102
      11 -> 24         0.12944
      12 -> 21        -0.13383
      13 -> 22        -0.10716
      13 -> 23        -0.11310

 Excited State  25:      Singlet-A1    12.5789 eV   98.57 nm  f=0.0013  <S**2>=0.000
       8 -> 14         0.12020
       9 -> 15         0.35150
      12 -> 20         0.52579
      12 -> 24         0.14873
      13 -> 19         0.11426

 Excited State  26:      Singlet-B1    12.6314 eV   98.16 nm  f=0.1210  <S**2>=0.000
       7 -> 14         0.18407
      10 -> 15         0.40131
      10 -> 21         0.11197
      10 -> 25        -0.10567
      13 -> 14         0.12579
      13 -> 16        -0.12450
      13 -> 18        -0.23954
      13 -> 20        -0.38060

 Excited State  27:      Singlet-B2    12.7214 eV   97.46 nm  f=0.3708  <S**2>=0.000
       9 -> 16         0.20634
      10 -> 17         0.46901
      10 -> 19        -0.18445
      11 -> 20        -0.11665
      12 -> 21         0.17614
      13 -> 22        -0.26583
      13 -> 23        -0.19973

 Excited State  28:      Singlet-A2    12.8361 eV   96.59 nm  f=0.0000  <S**2>=0.000
       9 -> 17         0.13306
       9 -> 19        -0.14290
      10 -> 16         0.13287
      10 -> 18         0.42369
      11 -> 19         0.12293
      12 -> 22        -0.12220
      12 -> 23        -0.27220
      13 -> 21        -0.23343
      13 -> 25         0.21973

 Excited State  29:      Singlet-A1    12.8799 eV   96.26 nm  f=0.0718  <S**2>=0.000
       8 -> 16        -0.24352
      11 -> 21         0.61210

 Excited State  30:      Singlet-A2    12.9088 eV   96.05 nm  f=0.0000  <S**2>=0.000
       9 -> 17         0.48330
      10 -> 16        -0.14982
      10 -> 18        -0.15957
      12 -> 22        -0.39202
      13 -> 25        -0.11446

 Excited State  31:      Singlet-A1    12.9483 eV   95.75 nm  f=0.0547  <S**2>=0.000
       8 -> 14         0.41677
       8 -> 18         0.11198
       9 -> 15         0.30902
       9 -> 25        -0.12181
      11 -> 15        -0.10624
      12 -> 18        -0.19357
      12 -> 20        -0.26931
      12 -> 28         0.10429

 Excited State  32:      Singlet-B2    13.0014 eV   95.36 nm  f=0.0002  <S**2>=0.000
      10 -> 17         0.13440
      10 -> 19         0.26059
      12 -> 21         0.11659
      13 -> 22        -0.28023
      13 -> 23         0.53602

 Excited State  33:      Singlet-A2    13.0360 eV   95.11 nm  f=0.0000  <S**2>=0.000
       7 -> 15        -0.17587
       9 -> 19         0.14534
      10 -> 16        -0.19327
      10 -> 18         0.22550
      10 -> 20         0.30124
      10 -> 24         0.11303
      12 -> 22        -0.12141
      12 -> 23         0.23944
      13 -> 21         0.20870
      13 -> 25         0.32677

 Excited State  34:      Singlet-B1    13.0644 eV   94.90 nm  f=0.0146  <S**2>=0.000
       7 -> 14        -0.18486
       7 -> 16        -0.20521
      10 -> 21         0.29769
      11 -> 22         0.11606
      13 -> 24         0.50393

 Excited State  35:      Singlet-B1    13.1776 eV   94.09 nm  f=0.0153  <S**2>=0.000
       8 -> 19        -0.16837
      11 -> 23         0.65417

 Excited State  36:      Singlet-B2    13.2442 eV   93.61 nm  f=0.0354  <S**2>=0.000
       9 -> 16         0.27929
       9 -> 18         0.42093
      12 -> 21        -0.24592
      12 -> 25         0.34080

 Excited State  37:      Singlet-A2    13.2730 eV   93.41 nm  f=0.0000  <S**2>=0.000
       9 -> 19         0.18127
      10 -> 16         0.32697
      12 -> 22        -0.13940
      12 -> 23         0.42590
      13 -> 21        -0.34342

 Excited State  38:      Singlet-B1    13.2761 eV   93.39 nm  f=0.0503  <S**2>=0.000
       8 -> 17         0.27728
      11 -> 22         0.59518
      13 -> 24        -0.10269

 Excited State  39:      Singlet-A1    13.3722 eV   92.72 nm  f=0.0011  <S**2>=0.000
       8 -> 14        -0.27494
       8 -> 16        -0.13750
       8 -> 18        -0.20765
       9 -> 15         0.28616
       9 -> 21         0.12258
      11 -> 21        -0.12630
      11 -> 25         0.28356
      11 -> 27        -0.11209
      12 -> 18        -0.13324
      12 -> 20        -0.23738
      12 -> 24         0.17720

 Excited State  40:      Singlet-A2    13.5797 eV   91.30 nm  f=0.0000  <S**2>=0.000
      10 -> 16         0.18858
      10 -> 18        -0.23558
      10 -> 20         0.47082
      10 -> 24         0.11405
      12 -> 23        -0.23115
      13 -> 21        -0.19964
      13 -> 25         0.12187
      13 -> 27         0.15971

 Excited State  41:      Singlet-B2    13.5897 eV   91.23 nm  f=0.0118  <S**2>=0.000
       9 -> 16         0.34496
       9 -> 18        -0.16136
       9 -> 20        -0.14961
      10 -> 17         0.20086
      11 -> 24         0.10424
      12 -> 21        -0.31140
      12 -> 25        -0.25138
      13 -> 22         0.19404
      13 -> 23         0.17701

 Excited State  42:      Singlet-A1    13.7024 eV   90.48 nm  f=0.0045  <S**2>=0.000
       8 -> 14         0.31124
       9 -> 15        -0.23689
       9 -> 21         0.17545
      10 -> 22         0.10010
      11 -> 21        -0.10179
      11 -> 25         0.16849
      12 -> 24         0.44793

 Excited State  43:      Singlet-B2    13.7586 eV   90.11 nm  f=0.0755  <S**2>=0.000
       9 -> 16        -0.15164
       9 -> 18         0.15806
      10 -> 17         0.30785
      12 -> 21         0.14454
      12 -> 25         0.16431
      13 -> 22         0.48018
      13 -> 23         0.16557

 Excited State  44:      Singlet-B2    13.8742 eV   89.36 nm  f=0.0629  <S**2>=0.000
       8 -> 21        -0.10242
       9 -> 16        -0.18001
       9 -> 18         0.13313
       9 -> 20        -0.16625
      11 -> 20        -0.17308
      11 -> 24         0.53892
      12 -> 21         0.10796
      12 -> 27        -0.18199

 Excited State  45:      Singlet-B1    13.9014 eV   89.19 nm  f=0.0902  <S**2>=0.000
       7 -> 14         0.55884
       7 -> 18         0.16709
      10 -> 15        -0.21063
      12 -> 29         0.13103
      13 -> 24         0.21667

 Excited State  46:      Singlet-A1    13.9411 eV   88.93 nm  f=0.0047  <S**2>=0.000
       7 -> 17        -0.18576
       8 -> 14         0.14883
       8 -> 16        -0.10648
       9 -> 15        -0.18894
      10 -> 22        -0.26545
      11 -> 25         0.39481
      12 -> 24        -0.20713
      13 -> 26         0.27376

 Excited State  47:      Singlet-B2    13.9509 eV   88.87 nm  f=0.0006  <S**2>=0.000
       9 -> 18        -0.21893
       9 -> 20         0.35728
      10 -> 19         0.12335
      11 -> 24         0.30389
      12 -> 25         0.24355
      12 -> 27         0.29594

 Excited State  48:      Singlet-A2    13.9692 eV   88.76 nm  f=0.0000  <S**2>=0.000
       9 -> 19        -0.12800
      10 -> 14         0.12442
      10 -> 18        -0.14464
      10 -> 20        -0.19892
      10 -> 24        -0.20788
      13 -> 15         0.14727
      13 -> 25         0.31238
      13 -> 27         0.37062
      13 -> 30         0.24120

 Excited State  49:      Singlet-B2    14.0777 eV   88.07 nm  f=0.1094  <S**2>=0.000
       7 -> 23        -0.11694
       8 -> 15         0.17596
       9 -> 20        -0.10487
      10 -> 17         0.14844
      10 -> 19         0.52301
      11 -> 24        -0.11094
      11 -> 28        -0.12230
      13 -> 23        -0.26121

 Excited State  50:      Singlet-A2    14.1227 eV   87.79 nm  f=0.0000  <S**2>=0.000
       9 -> 17         0.43505
       9 -> 26        -0.11966
      12 -> 22         0.49211
      12 -> 23         0.11208

 Excited State  51:      Singlet-B1    14.2023 eV   87.30 nm  f=0.0234  <S**2>=0.000
       7 -> 14        -0.19046
       7 -> 20        -0.12318
       9 -> 22        -0.14113
       9 -> 23         0.17923
      10 -> 27         0.12599
      11 -> 22         0.10718
      12 -> 26         0.28041
      12 -> 29         0.24034
      13 -> 28         0.41363

 Excited State  52:      Singlet-A2    14.3610 eV   86.33 nm  f=0.0000  <S**2>=0.000
       8 -> 22         0.10351
       8 -> 23        -0.15336
       9 -> 19         0.41365
      10 -> 18         0.12207
      11 -> 26         0.29586
      11 -> 29         0.12192
      12 -> 23        -0.23190
      13 -> 25        -0.13163
      13 -> 27         0.24003

 Excited State  53:      Singlet-A1    14.3672 eV   86.30 nm  f=0.0041  <S**2>=0.000
       8 -> 14        -0.11115
       8 -> 16        -0.28352
       8 -> 18         0.20524
       8 -> 20        -0.11075
       9 -> 21         0.11656
      10 -> 22         0.10998
      11 -> 21        -0.17906
      11 -> 27         0.38182
      12 -> 24        -0.18422
      13 -> 26        -0.19771
      13 -> 29         0.10321

 Excited State  54:      Singlet-B2    14.3761 eV   86.24 nm  f=0.0035  <S**2>=0.000
       8 -> 15         0.49419
       8 -> 25        -0.11122
       9 -> 14        -0.15223
       9 -> 20         0.18281
       9 -> 24         0.11341
      10 -> 19        -0.12502
      11 -> 28        -0.17685
      11 -> 31        -0.10073
      12 -> 25         0.13199
      12 -> 27        -0.18028
      12 -> 30        -0.14867

 Excited State  55:      Singlet-A1    14.4202 eV   85.98 nm  f=0.0864  <S**2>=0.000
       8 -> 14        -0.17912
       8 -> 16         0.33943
       8 -> 20        -0.11457
      11 -> 21         0.12588
      11 -> 27         0.28617
      12 -> 24         0.22622
      12 -> 28         0.20225
      13 -> 26         0.16357
      13 -> 29         0.22931

 Excited State  56:      Singlet-A2    14.4646 eV   85.72 nm  f=0.0000  <S**2>=0.000
       7 -> 15         0.12739
       9 -> 19         0.16455
      10 -> 18        -0.24823
      10 -> 20        -0.11408
      11 -> 26         0.16799
      11 -> 29         0.17532
      13 -> 25         0.37956
      13 -> 27        -0.35140

 Excited State  57:      Singlet-B1    14.4857 eV   85.59 nm  f=0.0001  <S**2>=0.000
       7 -> 16        -0.17578
       8 -> 17        -0.16347
       9 -> 22        -0.26529
      10 -> 21         0.26784
      11 -> 22         0.14953
      12 -> 26         0.31386
      12 -> 29        -0.18300
      13 -> 24        -0.23584
      13 -> 28        -0.20100

 Excited State  58:      Singlet-B1    14.5210 eV   85.38 nm  f=0.0572  <S**2>=0.000
       7 -> 16        -0.16675
       7 -> 18         0.20097
       8 -> 17         0.16852
       9 -> 22         0.20641
      10 -> 21         0.37634
      11 -> 22        -0.11644
      12 -> 26        -0.23009
      12 -> 29         0.17733
      13 -> 20         0.11713
      13 -> 24        -0.25016

 Excited State  59:      Singlet-A1    14.5475 eV   85.23 nm  f=0.3192  <S**2>=0.000
       7 -> 19        -0.11878
       8 -> 16        -0.24188
       8 -> 20         0.18295
      10 -> 22         0.10244
      10 -> 23         0.31250
      11 -> 27        -0.13539
      13 -> 26         0.21180
      13 -> 29         0.41588

 Excited State  60:      Singlet-A2    14.7341 eV   84.15 nm  f=0.0000  <S**2>=0.000
       9 -> 19        -0.38925
      11 -> 26         0.44319
      11 -> 29         0.25351
      12 -> 23         0.14280

 Excited State  61:      Singlet-B2    14.8013 eV   83.77 nm  f=0.0789  <S**2>=0.000
       8 -> 15        -0.29604
       9 -> 20         0.32090
       9 -> 24         0.18548
      11 -> 28        -0.28454
      11 -> 31        -0.12914
      12 -> 25        -0.22566
      12 -> 27        -0.13558
      12 -> 30        -0.16890

 Excited State  62:      Singlet-A1    14.8108 eV   83.71 nm  f=0.0037  <S**2>=0.000
       8 -> 16        -0.27167
       9 -> 27         0.10641
      10 -> 22        -0.10916
      11 -> 25        -0.23735
      12 -> 24         0.10685
      12 -> 28         0.45825
      13 -> 26         0.15946
      13 -> 29        -0.21294

 Excited State  63:      Singlet-A1    14.8900 eV   83.27 nm  f=0.0001  <S**2>=0.000
       8 -> 16         0.12082
      11 -> 25         0.19914
      11 -> 27        -0.26254
      12 -> 24        -0.14549
      12 -> 28         0.37285
      13 -> 19         0.10083
      13 -> 26        -0.30726
      13 -> 29         0.17251

 Excited State  64:      Singlet-A2    14.8957 eV   83.23 nm  f=0.0000  <S**2>=0.000
       8 -> 22        -0.14413
      11 -> 26        -0.30638
      11 -> 29         0.56138

 Excited State  65:      Singlet-B2    14.9532 eV   82.91 nm  f=0.0444  <S**2>=0.000
       8 -> 15         0.15751
       9 -> 18         0.33114
      10 -> 19        -0.11225
      11 -> 28        -0.11400
      12 -> 25        -0.27057
      12 -> 27         0.45411

 Excited State  66:      Singlet-B1    15.0111 eV   82.60 nm  f=0.0002  <S**2>=0.000
       7 -> 16         0.40923
       8 -> 17         0.32323
      10 -> 21         0.13305
      10 -> 25        -0.27147
      11 -> 22        -0.11587
      12 -> 26         0.17548
      12 -> 29        -0.11006
      13 -> 28        -0.11961

 Excited State  67:      Singlet-A2    15.0395 eV   82.44 nm  f=0.0000  <S**2>=0.000
       7 -> 15         0.60287
       7 -> 25        -0.12043
      10 -> 14        -0.11541
      10 -> 18         0.13597
      13 -> 21         0.10108
      13 -> 27         0.13648

 Excited State  68:      Singlet-B1    15.0513 eV   82.37 nm  f=0.1051  <S**2>=0.000
       7 -> 16        -0.34211
       8 -> 17         0.36980
       9 -> 23         0.10121
      10 -> 21        -0.22501
      10 -> 27         0.10770
      11 -> 22        -0.15654
      12 -> 26         0.26904
      13 -> 28        -0.15437

 Excited State  69:      Singlet-A1    15.1397 eV   81.89 nm  f=0.0124  <S**2>=0.000
       7 -> 17        -0.10969
       7 -> 19        -0.17463
      10 -> 23         0.51171
      11 -> 25         0.10503
      13 -> 26        -0.19016
      13 -> 29        -0.30279

 Excited State  70:      Singlet-B1    15.1438 eV   81.87 nm  f=0.1441  <S**2>=0.000
       7 -> 14        -0.14182
       7 -> 18         0.12209
       8 -> 17        -0.23517
       9 -> 23         0.10308
      10 -> 25        -0.19278
      12 -> 29         0.39676
      13 -> 28        -0.38694

 Excited State  71:      Singlet-A1    15.2326 eV   81.39 nm  f=0.0114  <S**2>=0.000
       7 -> 17         0.23213
       8 -> 16         0.15761
       8 -> 18         0.20871
       9 -> 21         0.38504
       9 -> 25        -0.10354
      10 -> 22         0.15304
      11 -> 25         0.11106
      11 -> 27        -0.13831
      12 -> 24        -0.15892
      13 -> 26         0.26940
      13 -> 29        -0.13587

 Excited State  72:      Singlet-A2    15.2391 eV   81.36 nm  f=0.0000  <S**2>=0.000
       7 -> 21        -0.16331
      10 -> 20        -0.20040
      10 -> 24         0.54861
      11 -> 29         0.10377
      13 -> 21        -0.10970
      13 -> 27         0.17393
      13 -> 34         0.11975

 Excited State  73:      Singlet-B1    15.3423 eV   80.81 nm  f=0.0098  <S**2>=0.000
       7 -> 16        -0.13204
       7 -> 18         0.12638
       8 -> 17        -0.13066
       8 -> 19        -0.25622
       9 -> 23         0.36377
      10 -> 21        -0.13212
      10 -> 25        -0.18925
      10 -> 27         0.10106
      12 -> 26        -0.17697
      12 -> 29        -0.31754

 Excited State  74:      Singlet-B2    15.3454 eV   80.80 nm  f=0.3328  <S**2>=0.000
       9 -> 18         0.14912
       9 -> 20         0.19617
       9 -> 24         0.16969
      10 -> 19         0.11554
      11 -> 28         0.53772
      12 -> 25        -0.19886

 Excited State  75:      Singlet-A1    15.4697 eV   80.15 nm  f=0.0423  <S**2>=0.000
       8 -> 18        -0.12471

 The electronic state is 1-A1.
 Alpha  occ. eigenvalues --  -10.11287 -10.10462 -10.10458  -0.92532  -0.81794
 Alpha  occ. eigenvalues --   -0.71620  -0.58730  -0.56441  -0.52101  -0.50002
 Alpha  occ. eigenvalues --   -0.45379  -0.45167  -0.43987
 Alpha virt. eigenvalues --    0.09521   0.11988   0.12890   0.16267   0.17877
 Alpha virt. eigenvalues --    0.19535   0.20540   0.20871   0.22262   0.24062
 Alpha virt. eigenvalues --    0.24584   0.25720   0.27239   0.28185   0.29120

 Mulliken charges:
               1
     1  C    0.279572
     2  C   -0.631521
     3  C    0.279572
     4  H    0.008544
     5  H    0.027089
     6  H    0.027089
     7  H   -0.026534
     8  H   -0.026534
     9  H    0.027089
    10  H    0.008544
    11  H    0.027089
 Sum of Mulliken charges =   0.00000

 Dipole moment (field-independent basis, Debye):
    X=              0.0000    Y=              0.0000    Z=              0.0790  Tot=              0.0790
 Quadrupole moment (field-independent basis, Debye-Ang):
   XX=            -21.2877   YY=            -22.1283   ZZ=            -21.7697
   XY=             -0.0000   XZ=             -0.0000   YZ=             -0.0000

 Normal termination of Gaussian 16 at Mon Mar 21 20:21:28 2022.
