 Gaussian 16, Revision C.01,
 Gaussian 16:  EM64L-G16RevC.01  3-Jul-2019

 ----------------------------------------------------------------------
 #P TD(Nstates=10000) lc-blyp/Gen SCF(maxcycles=100) Int(Grid=ultrafine
 )
 ----------------------------------------------------------------------

 ---------------------
 xGDB7_00001_tier4.com
 ---------------------
 Symbolic Z-matrix:
 Charge =  0 Multiplicity = 1

                         Standard orientation:
 ---------------------------------------------------------------------
 Center     Atomic      Atomic             Coordinates (Angstroms)
 Number     Number       Type             X           Y           Z
 ---------------------------------------------------------------------
      1          8           0        0.000000   -0.000000    0.116015
      2          1           0        0.000000    0.761895   -0.464058
      3          1           0       -0.000000   -0.761895   -0.464058
 ---------------------------------------------------------------------

 SCF Done:  E(RLC-B+HF-LYP) =  -76.2299593355     A.U. after   11 cycles

 Excitation energies and oscillator strengths:

 Excited State   1:      Singlet-B1     7.8900 eV  157.14 nm  f=0.0541  <S**2>=0.000
       5 ->  6         0.69325
 This state for optimization and/or second-order correction.
 Total Energy, E(TD-HF/TD-DFT) =  -75.9400063204
 Copying the excited state density for this state as the 1-particle RhoCI density.

 Excited State   2:      Singlet-A2     9.7935 eV  126.60 nm  f=0.0000  <S**2>=0.000
       5 ->  7         0.66734
       5 -> 10         0.18836
       5 -> 17        -0.12086

 Excited State   3:      Singlet-A1     9.9225 eV  124.95 nm  f=0.0959  <S**2>=0.000
       4 ->  6         0.68193
       5 ->  8         0.10423

 Excited State   4:      Singlet-B1    11.2285 eV  110.42 nm  f=0.0052  <S**2>=0.000
       5 ->  9         0.68977
       5 -> 13         0.13878

 Excited State   5:      Singlet-A1    11.7178 eV  105.81 nm  f=0.0018  <S**2>=0.000
       4 ->  9        -0.18740
       5 ->  8         0.66521

 Excited State   6:      Singlet-B2    11.8810 eV  104.35 nm  f=0.0095  <S**2>=0.000
       4 ->  7         0.68536
       4 -> 10         0.10698
       4 -> 17        -0.10075

 Excited State   7:      Singlet-A2    12.2471 eV  101.24 nm  f=0.0000  <S**2>=0.000
       5 ->  7        -0.19971
       5 -> 10         0.66614
       5 -> 18         0.10353

 Excited State   8:      Singlet-B1    12.9475 eV   95.76 nm  f=0.0445  <S**2>=0.000
       4 ->  8         0.39694
       5 -> 11         0.57003

 Excited State   9:      Singlet-B1    13.1395 eV   94.36 nm  f=0.0058  <S**2>=0.000
       4 ->  8         0.57321
       5 -> 11        -0.39918

 Excited State  10:      Singlet-A1    13.5259 eV   91.66 nm  f=0.0383  <S**2>=0.000
       3 ->  7         0.13370
       4 ->  9         0.65226
       5 ->  8         0.16697

 Excited State  11:      Singlet-B2    13.7589 eV   90.11 nm  f=0.0739  <S**2>=0.000
       3 ->  6         0.67544
       4 -> 10        -0.11992
       5 -> 12        -0.11426

 Excited State  12:      Singlet-B2    14.1553 eV   87.59 nm  f=0.0145  <S**2>=0.000
       4 ->  7         0.10884
       4 -> 10        -0.35811
       5 -> 12         0.59217

 Excited State  13:      Singlet-B1    14.6458 eV   84.66 nm  f=0.0859  <S**2>=0.000
       5 ->  9        -0.13370
       5 -> 13         0.68009

 Excited State  14:      Singlet-B2    14.7261 eV   84.19 nm  f=0.3658  <S**2>=0.000
       3 ->  6         0.16961
       4 -> 10         0.57613
       5 -> 12         0.35569

 Excited State  15:      Singlet-A1    14.9552 eV   82.90 nm  f=0.0576  <S**2>=0.000
       4 -> 11         0.68791

 Excited State  16:      Singlet-A1    15.3952 eV   80.53 nm  f=0.0370  <S**2>=0.000
       3 ->  7        -0.24184
       3 -> 10        -0.10167
       5 -> 14         0.63721

 Excited State  17:      Singlet-A2    16.0937 eV   77.04 nm  f=0.0000  <S**2>=0.000
       4 -> 12         0.70130

 Excited State  18:      Singlet-A1    16.2364 eV   76.36 nm  f=0.0002  <S**2>=0.000
       3 ->  7         0.47345
       3 -> 10         0.10948
       4 ->  9        -0.14596
       4 -> 11        -0.10810
       4 -> 13         0.44541
       5 -> 14         0.13778

 Excited State  19:      Singlet-A2    17.1099 eV   72.46 nm  f=0.0000  <S**2>=0.000
       3 ->  8         0.68190
       3 -> 14        -0.15136

 Excited State  20:      Singlet-B2    17.3049 eV   71.65 nm  f=0.0461  <S**2>=0.000
       3 ->  9         0.68403
       3 -> 13         0.15755

 Excited State  21:      Singlet-B1    17.3233 eV   71.57 nm  f=0.0221  <S**2>=0.000
       4 -> 14         0.61166
       5 -> 16         0.32990

 Excited State  22:      Singlet-A1    17.6140 eV   70.39 nm  f=0.0459  <S**2>=0.000
       3 ->  7        -0.42875
       3 -> 10         0.26209
       4 -> 13         0.44715
       5 -> 14        -0.16693

 Excited State  23:      Singlet-A2    17.6554 eV   70.22 nm  f=0.0000  <S**2>=0.000
       5 ->  7        -0.10567
       5 -> 15         0.59773
       5 -> 17        -0.34195

 Excited State  24:      Singlet-B1    17.7312 eV   69.92 nm  f=0.1853  <S**2>=0.000
       4 -> 14        -0.32709
       5 -> 16         0.61348

 Excited State  25:      Singlet-A2    18.6430 eV   66.50 nm  f=0.0000  <S**2>=0.000
       5 -> 10         0.10024
       5 -> 15         0.36226
       5 -> 17         0.59076

 Excited State  26:      Singlet-A1    18.9688 eV   65.36 nm  f=0.2867  <S**2>=0.000
       3 -> 10         0.57948
       4 -> 13        -0.23674
       4 -> 16         0.27674
       5 -> 14         0.12350

 Excited State  27:      Singlet-B2    19.1681 eV   64.68 nm  f=0.2301  <S**2>=0.000
       3 -> 11         0.67981
       4 -> 17        -0.13387

 Excited State  28:      Singlet-A1    19.5012 eV   63.58 nm  f=0.0790  <S**2>=0.000
       3 -> 10        -0.24516
       4 -> 16         0.63881

 Excited State  29:      Singlet-B2    19.6460 eV   63.11 nm  f=0.0021  <S**2>=0.000
       4 -> 15         0.63306
       4 -> 17        -0.27489

 Excited State  30:      Singlet-B1    20.0508 eV   61.84 nm  f=0.1205  <S**2>=0.000
       3 -> 12         0.69725

 Excited State  31:      Singlet-B2    20.4352 eV   60.67 nm  f=0.0044  <S**2>=0.000
       3 ->  9        -0.14621
       3 -> 13         0.64030
       4 -> 15        -0.13665
       4 -> 17        -0.17918

 Excited State  32:      Singlet-B2    20.8789 eV   59.38 nm  f=0.0291  <S**2>=0.000
       3 -> 11         0.10137
       3 -> 13         0.22043
       4 -> 15         0.27021
       4 -> 17         0.59472

 Excited State  33:      Singlet-A2    21.1300 eV   58.68 nm  f=0.0000  <S**2>=0.000
       3 ->  8         0.14901
       3 -> 14         0.68582

 Excited State  34:      Singlet-A2    21.6292 eV   57.32 nm  f=0.0000  <S**2>=0.000
       5 -> 18         0.69419

 Excited State  35:      Singlet-B1    22.5434 eV   55.00 nm  f=0.2121  <S**2>=0.000
       4 -> 20        -0.13056
       5 -> 19         0.68169

 Excited State  36:      Singlet-A1    23.2722 eV   53.28 nm  f=0.0825  <S**2>=0.000
       3 -> 15        -0.13967
       4 -> 19         0.15772
       4 -> 21         0.10517
       5 -> 20         0.65654

 Excited State  37:      Singlet-B2    23.3612 eV   53.07 nm  f=0.0194  <S**2>=0.000
       3 -> 16         0.68906

 Excited State  38:      Singlet-B2    23.7382 eV   52.23 nm  f=0.0073  <S**2>=0.000
       4 -> 18         0.57061
       5 -> 22        -0.40049

 Excited State  39:      Singlet-B1    23.7995 eV   52.10 nm  f=0.0026  <S**2>=0.000
       5 -> 21         0.70000

 Excited State  40:      Singlet-A1    23.8043 eV   52.08 nm  f=0.0186  <S**2>=0.000
       3 -> 15         0.33355
       4 -> 19         0.60824

 Excited State  41:      Singlet-A1    24.1229 eV   51.40 nm  f=0.0158  <S**2>=0.000
       3 -> 15         0.59156
       4 -> 19        -0.28933
       4 -> 21         0.11044
       5 -> 20         0.16969

 Excited State  42:      Singlet-B2    24.8335 eV   49.93 nm  f=0.3317  <S**2>=0.000
       3 -> 19        -0.12043
       4 -> 18         0.37691
       5 -> 22         0.55984

 Excited State  43:      Singlet-B1    25.1163 eV   49.36 nm  f=0.2580  <S**2>=0.000
       4 -> 20         0.68634
       5 -> 19         0.12611

 Excited State  44:      Singlet-A1    25.2983 eV   49.01 nm  f=0.0402  <S**2>=0.000
       2 ->  6        -0.20940
       3 -> 17         0.64982

 Excited State  45:      Singlet-A2    25.8016 eV   48.05 nm  f=0.0000  <S**2>=0.000
       4 -> 22         0.70228

 Excited State  46:      Singlet-A1    26.2751 eV   47.19 nm  f=0.2777  <S**2>=0.000
       2 ->  6        -0.16083
       3 -> 17        -0.11377
       3 -> 18        -0.17718
       4 -> 21         0.64013

 Excited State  47:      Singlet-A1    27.4612 eV   45.15 nm  f=0.0188  <S**2>=0.000
       2 ->  6         0.62886
       3 -> 17         0.16036
       3 -> 18        -0.18678
       4 -> 21         0.12714

 Excited State  48:      Singlet-B2    28.2323 eV   43.92 nm  f=0.1192  <S**2>=0.000
       3 -> 19         0.67640
       3 -> 21         0.13607

 Excited State  49:      Singlet-A1    28.5995 eV   43.35 nm  f=0.3123  <S**2>=0.000
       2 ->  6         0.12267
       2 ->  9         0.11617
       3 -> 18         0.64143
       4 -> 21         0.19414
       5 -> 20        -0.10492

 Excited State  50:      Singlet-A2    28.9327 eV   42.85 nm  f=0.0000  <S**2>=0.000
       3 -> 20         0.70098

 Excited State  51:      Singlet-B2    28.9984 eV   42.76 nm  f=0.0220  <S**2>=0.000
       2 ->  7         0.65830
       2 -> 10         0.18818
       3 -> 21         0.12046

 Excited State  52:      Singlet-B1    30.1039 eV   41.19 nm  f=0.1303  <S**2>=0.000
       2 ->  8         0.50012
       3 -> 22         0.48509

 Excited State  53:      Singlet-A1    30.4554 eV   40.71 nm  f=0.0078  <S**2>=0.000
       2 ->  9         0.66754
       2 -> 11        -0.14024
       2 -> 13         0.11868
       3 -> 18        -0.10158

 Excited State  54:      Singlet-B2    30.6566 eV   40.44 nm  f=0.2770  <S**2>=0.000
       2 ->  7        -0.11009
       3 -> 19        -0.12006
       3 -> 21         0.67168

 Excited State  55:      Singlet-B1    30.7077 eV   40.38 nm  f=0.1200  <S**2>=0.000
       2 ->  8        -0.46599
       3 -> 22         0.49663
       5 -> 23         0.12774

 Excited State  56:      Singlet-B2    31.4277 eV   39.45 nm  f=0.0153  <S**2>=0.000
       2 ->  7        -0.19686
       2 -> 10         0.66685

 Excited State  57:      Singlet-B1    32.0159 eV   38.73 nm  f=0.0075  <S**2>=0.000
       5 -> 23         0.68921

 Excited State  58:      Singlet-A1    32.0430 eV   38.69 nm  f=0.0026  <S**2>=0.000
       2 ->  9         0.13275
       2 -> 11         0.68543

 Excited State  59:      Singlet-A2    32.9839 eV   37.59 nm  f=0.0000  <S**2>=0.000
       2 -> 12         0.69948

 Excited State  60:      Singlet-A1    33.5653 eV   36.94 nm  f=0.0067  <S**2>=0.000
       2 ->  9        -0.11667
       2 -> 13         0.65251
       4 -> 23        -0.21436

 Excited State  61:      Singlet-B1    34.1873 eV   36.27 nm  f=0.0108  <S**2>=0.000
       2 ->  8         0.13083
       2 -> 14         0.68618

 Excited State  62:      Singlet-A1    34.4515 eV   35.99 nm  f=0.0220  <S**2>=0.000
       2 -> 13         0.20077
       2 -> 16        -0.10563
       4 -> 23         0.65294

 Excited State  63:      Singlet-A2    34.8953 eV   35.53 nm  f=0.0000  <S**2>=0.000
       5 -> 24         0.70185

 Excited State  64:      Singlet-B2    36.6267 eV   33.85 nm  f=0.0057  <S**2>=0.000
       2 -> 15         0.58746
       2 -> 17        -0.20176
       3 -> 23         0.13482
       4 -> 24        -0.29436

 Excited State  65:      Singlet-A1    36.7576 eV   33.73 nm  f=0.0074  <S**2>=0.000
       2 -> 16         0.67415
       5 -> 25         0.15971

 Excited State  66:      Singlet-B2    37.1764 eV   33.35 nm  f=0.0021  <S**2>=0.000
       2 -> 15         0.29626
       2 -> 17        -0.10167
       3 -> 23        -0.11028
       4 -> 24         0.61937

 Excited State  67:      Singlet-B2    37.6919 eV   32.89 nm  f=0.0036  <S**2>=0.000
       2 -> 15         0.24596
       2 -> 17         0.63952
       3 -> 23        -0.11682

 Excited State  68:      Singlet-B2    38.6994 eV   32.04 nm  f=0.0558  <S**2>=0.000
       2 -> 17         0.13901
       3 -> 23         0.67015
       4 -> 24         0.15321

 Excited State  69:      Singlet-B1    39.4398 eV   31.44 nm  f=0.0078  <S**2>=0.000
       4 -> 25        -0.10714
       5 -> 26         0.69672

 Excited State  70:      Singlet-A1    39.9526 eV   31.03 nm  f=0.0091  <S**2>=0.000
       2 -> 19        -0.17454
       3 -> 24         0.27979
       4 -> 26        -0.29984
       5 -> 25         0.53475

 Excited State  71:      Singlet-B1    40.8125 eV   30.38 nm  f=0.0027  <S**2>=0.000
       4 -> 25         0.69636
       5 -> 26         0.10526

 Excited State  72:      Singlet-B2    40.9577 eV   30.27 nm  f=0.0000  <S**2>=0.000
       2 -> 18         0.69633

 Excited State  73:      Singlet-A1    41.0602 eV   30.20 nm  f=0.0001  <S**2>=0.000
       2 -> 19         0.67454
       4 -> 26        -0.13696
       5 -> 25         0.12094

 Excited State  74:      Singlet-A1    41.3709 eV   29.97 nm  f=0.0277  <S**2>=0.000
       3 -> 24         0.56935
       4 -> 26         0.40406

 Excited State  75:      Singlet-B1    42.1608 eV   29.41 nm  f=0.0005  <S**2>=0.000
       2 -> 20         0.69988

 Excited State  76:      Singlet-A2    42.9962 eV   28.84 nm  f=0.0000  <S**2>=0.000
       2 -> 22         0.69537
       3 -> 25         0.10932

 Excited State  77:      Singlet-A1    43.2272 eV   28.68 nm  f=0.0091  <S**2>=0.000
       2 -> 21         0.69992

 Excited State  78:      Singlet-A2    44.7308 eV   27.72 nm  f=0.0000  <S**2>=0.000
       2 -> 22        -0.10838
       3 -> 25         0.69735

 Excited State  79:      Singlet-B2    45.6405 eV   27.17 nm  f=0.0631  <S**2>=0.000
       3 -> 26         0.70138

 Excited State  80:      Singlet-A1    47.7077 eV   25.99 nm  f=0.0113  <S**2>=0.000
       2 -> 16        -0.11818
       2 -> 23        -0.24218
       3 -> 24        -0.27043
       3 -> 27         0.17513
       4 -> 26         0.42827
       5 -> 25         0.33620

 Excited State  81:      Singlet-A2    47.8477 eV   25.91 nm  f=0.0000  <S**2>=0.000
       5 -> 27         0.70583

 Excited State  82:      Singlet-B2    50.0159 eV   24.79 nm  f=0.0476  <S**2>=0.000
       4 -> 27         0.69089
       5 -> 29         0.13689

 Excited State  83:      Singlet-B1    51.0791 eV   24.27 nm  f=0.0956  <S**2>=0.000
       5 -> 28         0.70409

 Excited State  84:      Singlet-A1    51.7530 eV   23.96 nm  f=0.0866  <S**2>=0.000
       2 -> 23         0.64005
       3 -> 27         0.23010
       4 -> 26         0.10071
       5 -> 25         0.10606

 Excited State  85:      Singlet-B2    52.6766 eV   23.54 nm  f=0.1229  <S**2>=0.000
       4 -> 27        -0.12817
       5 -> 29         0.68550

 Excited State  86:      Singlet-A1    52.8231 eV   23.47 nm  f=0.0205  <S**2>=0.000
       3 -> 27         0.11471
       4 -> 28         0.69564

 Excited State  87:      Singlet-A2    54.1119 eV   22.91 nm  f=0.0000  <S**2>=0.000
       4 -> 29         0.70645

 Excited State  88:      Singlet-B2    54.1121 eV   22.91 nm  f=0.0490  <S**2>=0.000
       2 -> 24         0.70430

 Excited State  89:      Singlet-A1    56.1752 eV   22.07 nm  f=0.0037  <S**2>=0.000
       2 -> 23        -0.13873
       2 -> 26         0.14132
       3 -> 27         0.53101
       4 -> 26        -0.12102
       5 -> 25        -0.12358
       5 -> 30         0.34423

 Excited State  90:      Singlet-A1    56.9009 eV   21.79 nm  f=0.0582  <S**2>=0.000
       3 -> 27        -0.31228
       4 -> 31        -0.12767
       5 -> 30         0.60714

 Excited State  91:      Singlet-B2    57.0395 eV   21.74 nm  f=0.0089  <S**2>=0.000
       3 -> 28         0.69933

 Excited State  92:      Singlet-B1    58.0505 eV   21.36 nm  f=0.1665  <S**2>=0.000
       2 -> 25         0.69052
       4 -> 30         0.13241

 Excited State  93:      Singlet-B1    58.2100 eV   21.30 nm  f=0.0228  <S**2>=0.000
       2 -> 25         0.13279
       3 -> 29         0.49937
       4 -> 30        -0.47668

 Excited State  94:      Singlet-A1    58.9164 eV   21.04 nm  f=0.0986  <S**2>=0.000
       2 -> 26         0.68788

 Excited State  95:      Singlet-B1    58.9437 eV   21.03 nm  f=0.1066  <S**2>=0.000
       3 -> 29         0.36242
       4 -> 30         0.42887
       5 -> 31         0.42164

 Excited State  96:      Singlet-A2    59.5521 eV   20.82 nm  f=0.0000  <S**2>=0.000
       5 -> 32         0.70548

 Excited State  97:      Singlet-B1    59.8769 eV   20.71 nm  f=0.2123  <S**2>=0.000
       3 -> 29        -0.33305
       4 -> 30        -0.26105
       5 -> 31         0.56170

 Excited State  98:      Singlet-B2    61.8823 eV   20.04 nm  f=0.0156  <S**2>=0.000
       4 -> 32         0.70442

 Excited State  99:      Singlet-A2    62.4081 eV   19.87 nm  f=0.0000  <S**2>=0.000
       3 -> 30         0.70450

 Excited State 100:      Singlet-A1    62.4603 eV   19.85 nm  f=0.2262  <S**2>=0.000
       4 -> 31         0.68781

 Excited State 101:      Singlet-B2    65.8669 eV   18.82 nm  f=0.1071  <S**2>=0.000
       2 -> 27         0.12484
       3 -> 31         0.69017

 Excited State 102:      Singlet-A1    65.9652 eV   18.80 nm  f=0.0010  <S**2>=0.000
       3 -> 32         0.69934

 Excited State 103:      Singlet-B2    67.3194 eV   18.42 nm  f=0.0398  <S**2>=0.000
       2 -> 27         0.69335
       3 -> 31        -0.12011

 Excited State 104:      Singlet-A2    67.6353 eV   18.33 nm  f=0.0000  <S**2>=0.000
       5 -> 33         0.70569

 Excited State 105:      Singlet-B2    70.4691 eV   17.59 nm  f=0.0125  <S**2>=0.000
       4 -> 33         0.69791

 Excited State 106:      Singlet-A2    71.1560 eV   17.42 nm  f=0.0000  <S**2>=0.000
       2 -> 29         0.70623

 Excited State 107:      Singlet-A1    71.4182 eV   17.36 nm  f=0.0032  <S**2>=0.000
       2 -> 28         0.66774
       3 -> 33        -0.14349
       4 -> 34        -0.11779

 Excited State 108:      Singlet-B1    72.4833 eV   17.11 nm  f=0.1474  <S**2>=0.000
       5 -> 34         0.69765

 Excited State 109:      Singlet-A1    73.0938 eV   16.96 nm  f=0.0075  <S**2>=0.000
       3 -> 33        -0.24502
       4 -> 34         0.65968

 Excited State 110:      Singlet-B1    75.2341 eV   16.48 nm  f=0.0250  <S**2>=0.000
       2 -> 30         0.70551

 Excited State 111:      Singlet-A1    75.4911 eV   16.42 nm  f=0.0294  <S**2>=0.000
       2 -> 28         0.16458
       3 -> 33         0.63872
       4 -> 34         0.21959

 Excited State 112:      Singlet-B2    77.4485 eV   16.01 nm  f=0.0143  <S**2>=0.000
       2 -> 32         0.16156
       3 -> 34         0.68181

 Excited State 113:      Singlet-B2    78.3838 eV   15.82 nm  f=0.0001  <S**2>=0.000
       2 -> 32         0.68745
       3 -> 34        -0.16051

 Excited State 114:      Singlet-A1    78.7677 eV   15.74 nm  f=0.0039  <S**2>=0.000
       2 -> 31         0.70559

 Excited State 115:      Singlet-B2    87.0783 eV   14.24 nm  f=0.0166  <S**2>=0.000
       2 -> 33         0.70484

 Excited State 116:      Singlet-A1    89.0495 eV   13.92 nm  f=0.1583  <S**2>=0.000
       4 -> 37        -0.20699
       5 -> 35         0.67175

 Excited State 117:      Singlet-B1    90.5412 eV   13.69 nm  f=0.0875  <S**2>=0.000
       3 -> 36        -0.18640
       4 -> 35         0.65989
       5 -> 37         0.15653

 Excited State 118:      Singlet-A1    90.7851 eV   13.66 nm  f=0.0148  <S**2>=0.000
       2 -> 34         0.70539

 Excited State 119:      Singlet-A2    90.9286 eV   13.64 nm  f=0.0000  <S**2>=0.000
       4 -> 36         0.70670

 Excited State 120:      Singlet-B2    91.0231 eV   13.62 nm  f=0.2049  <S**2>=0.000
       3 -> 37         0.12232
       5 -> 36         0.68815

 Excited State 121:      Singlet-B1    92.9411 eV   13.34 nm  f=0.0147  <S**2>=0.000
       3 -> 36         0.18861
       4 -> 35        -0.10275
       5 -> 37         0.67263

 Excited State 122:      Singlet-A2    93.1177 eV   13.31 nm  f=0.0000  <S**2>=0.000
       3 -> 35         0.70690

 Excited State 123:      Singlet-B1    96.9943 eV   12.78 nm  f=0.1891  <S**2>=0.000
       3 -> 36         0.63692
       4 -> 35         0.19331
       5 -> 37        -0.13917
       5 -> 38         0.18185

 Excited State 124:      Singlet-A1    97.8337 eV   12.67 nm  f=0.2968  <S**2>=0.000
       4 -> 37         0.67261
       5 -> 35         0.19847

 Excited State 125:      Singlet-B2    99.7509 eV   12.43 nm  f=0.0721  <S**2>=0.000
       3 -> 37         0.69271
       5 -> 36        -0.11103

 Excited State 126:      Singlet-B1   106.5763 eV   11.63 nm  f=0.1859  <S**2>=0.000
       2 -> 35        -0.37484
       3 -> 36        -0.11644
       5 -> 38         0.57872

 Excited State 127:      Singlet-A1   106.9138 eV   11.60 nm  f=0.0085  <S**2>=0.000
       4 -> 38         0.70531

 Excited State 128:      Singlet-B1   107.3997 eV   11.54 nm  f=0.1341  <S**2>=0.000
       2 -> 35         0.59913
       5 -> 38         0.35692

 Excited State 129:      Singlet-A2   108.6993 eV   11.41 nm  f=0.0000  <S**2>=0.000
       2 -> 36         0.70645

 Excited State 130:      Singlet-B2   111.3547 eV   11.13 nm  f=0.0526  <S**2>=0.000
       3 -> 38         0.69427
       4 -> 39         0.11877

 Excited State 131:      Singlet-A1   112.6065 eV   11.01 nm  f=0.0057  <S**2>=0.000
       2 -> 37         0.70600

 Excited State 132:      Singlet-A2   115.3205 eV   10.75 nm  f=0.0000  <S**2>=0.000
       5 -> 39         0.70670

 Excited State 133:      Singlet-B2   118.9804 eV   10.42 nm  f=0.1692  <S**2>=0.000
       3 -> 38        -0.11232
       4 -> 39         0.69402

 Excited State 134:      Singlet-A1   122.7213 eV   10.10 nm  f=0.0887  <S**2>=0.000
       2 -> 38         0.10475
       3 -> 39         0.69583

 Excited State 135:      Singlet-A1   124.0370 eV    10.00 nm  f=0.0193  <S**2>=0.000
       2 -> 38         0.69905
       3 -> 39        -0.10405

 Excited State 136:      Singlet-B2   134.8164 eV    9.20 nm  f=0.0025  <S**2>=0.000
       2 -> 39         0.70695

 The electronic state is 1-A1.
 Alpha  occ. eigenvalues --  -19.02862  -1.16374  -0.68325  -0.53477  -0.46506
 Alpha virt. eigenvalues --    0.06565   0.12244   0.17148   0.17226   0.23066
 Alpha virt. eigenvalues --    0.25459   0.29230   0.32286   0.34582   0.42367
 Alpha virt. eigenvalues --    0.43066   0.47281   0.60831   0.62255   0.66312

 Mulliken charges:
               1
     1  O   -0.210167
     2  H    0.105083
     3  H    0.105083
 Sum of Mulliken charges =   0.00000

 Dipole moment (field-independent basis, Debye):
    X=             -0.0000    Y=             -0.0000    Z=             -1.9846  Tot=              1.9846
 Quadrupole moment (field-independent basis, Debye-Ang):
   XX=             -7.8698   YY=             -4.5202   ZZ=             -6.5676
   XY=              0.0000   XZ=              0.0000   YZ=              0.0000

 Normal termination of Gaussian 16 at Mon Mar 21 20:06:41 2022.
