 Gaussian 16, Revision C.01,
 Gaussian 16:  EM64L-G16RevC.01  3-Jul-2019

 ----------------------------------------------------------------------
 #P TD(Nstates=10000) lc-blyp/Gen SCF(maxcycles=100) Int(Grid=ultrafine
 )
 ----------------------------------------------------------------------

 ---------------------
 xGDB7_00001_tier4.com
 ---------------------
 Symbolic Z-matrix:
 Charge =  0 Multiplicity = 1

                         Standard orientation:
 ---------------------------------------------------------------------
 Center     Atomic      Atomic             Coordinates (Angstroms)
 Number     Number       Type             X           Y           Z
 ---------------------------------------------------------------------
      1          7           0        1.078471   -0.156900   -0.000001
      2          6           0       -0.161963    0.384944   -0.000002
      3          8           0       -1.189170   -0.245458    0.000001
      4          1           0        1.898427    0.419427    0.000004
      5          1           0        1.178124   -1.157073    0.000005
      6          1           0       -0.140706    1.489948    0.000007
 ---------------------------------------------------------------------

 SCF Done:  E(RLC-B+HF-LYP) =  -169.392233780     A.U. after   14 cycles

 Excitation energies and oscillator strengths:

 Excited State   1:      Singlet-A      5.6811 eV  218.24 nm  f=0.0007  <S**2>=0.000
      12 -> 15         0.69407
 This state for optimization and/or second-order correction.
 Total Energy, E(TD-HF/TD-DFT) =  -169.183457007
 Copying the excited state density for this state as the 1-particle RhoCI density.

 Excited State   2:      Singlet-A      7.7770 eV  159.42 nm  f=0.1015  <S**2>=0.000
      11 -> 15         0.57568
      12 -> 13         0.37309

 Excited State   3:      Singlet-A      7.8365 eV  158.21 nm  f=0.0159  <S**2>=0.000
      11 -> 13         0.66573
      11 -> 14         0.16234

 Excited State   4:      Singlet-A      8.2427 eV  150.42 nm  f=0.1664  <S**2>=0.000
      11 -> 15        -0.32646
      12 -> 13         0.47959
      12 -> 14        -0.32668
      12 -> 16         0.15201

 Excited State   5:      Singlet-A      8.8149 eV  140.65 nm  f=0.0025  <S**2>=0.000
      11 -> 13        -0.13853
      11 -> 14         0.61893
      11 -> 16         0.24412

 Excited State   6:      Singlet-A      8.9991 eV  137.77 nm  f=0.1517  <S**2>=0.000
      11 -> 15        -0.15904
      12 -> 13         0.20282
      12 -> 14         0.57323
      12 -> 16         0.26433
      12 -> 19        -0.11573

 Excited State   7:      Singlet-A      9.5788 eV  129.44 nm  f=0.0903  <S**2>=0.000
      12 -> 13        -0.26063
      12 -> 14        -0.14965
      12 -> 16         0.53349
      12 -> 18         0.28989

 Excited State   8:      Singlet-A      9.6724 eV  128.18 nm  f=0.0127  <S**2>=0.000
       9 -> 13         0.11782
      11 -> 14        -0.23601
      11 -> 16         0.61441
      11 -> 18        -0.10884

 Excited State   9:      Singlet-A      9.8926 eV  125.33 nm  f=0.0057  <S**2>=0.000
      12 -> 17         0.69604

 Excited State  10:      Singlet-A     10.3546 eV  119.74 nm  f=0.0028  <S**2>=0.000
      10 -> 15         0.64988
      11 -> 18         0.20936

 Excited State  11:      Singlet-A     10.4079 eV  119.12 nm  f=0.0000  <S**2>=0.000
      10 -> 15        -0.22572
      11 -> 18         0.48858
      11 -> 19         0.25888
      11 -> 20        -0.30714

 Excited State  12:      Singlet-A     10.6773 eV  116.12 nm  f=0.0029  <S**2>=0.000
      11 -> 17         0.54482
      12 -> 14        -0.10138
      12 -> 16         0.14995
      12 -> 18        -0.30093
      12 -> 19        -0.21387

 Excited State  13:      Singlet-A     10.7887 eV  114.92 nm  f=0.0247  <S**2>=0.000
      11 -> 17         0.30655
      12 -> 16        -0.23616
      12 -> 18         0.54440
      12 -> 19        -0.13880

 Excited State  14:      Singlet-A     10.8656 eV  114.11 nm  f=0.0007  <S**2>=0.000
       9 -> 15        -0.11930
      11 -> 17         0.25793
      12 -> 19         0.45838
      12 -> 20        -0.41152

 Excited State  15:      Singlet-A     10.9710 eV  113.01 nm  f=0.0018  <S**2>=0.000
       9 -> 14        -0.13801
      11 -> 18        -0.17999
      11 -> 19         0.58112
      11 -> 20         0.18818
      11 -> 22         0.16093

 Excited State  16:      Singlet-A     11.1293 eV  111.40 nm  f=0.0253  <S**2>=0.000
       9 -> 15        -0.11302
      12 -> 14         0.11696
      12 -> 19         0.38418
      12 -> 20         0.53874

 Excited State  17:      Singlet-A     11.4919 eV  107.89 nm  f=0.0529  <S**2>=0.000
       9 -> 14        -0.10102
      11 -> 16         0.10242
      11 -> 18         0.29571
      11 -> 20         0.54591
      11 -> 22        -0.10346
      11 -> 23        -0.22630

 Excited State  18:      Singlet-A     11.7091 eV  105.89 nm  f=0.1074  <S**2>=0.000
       8 -> 13         0.11015
       9 -> 15         0.62660
      10 -> 13        -0.12151
      11 -> 21         0.16589
      12 -> 19         0.13768

 Excited State  19:      Singlet-A     12.1020 eV  102.45 nm  f=0.0138  <S**2>=0.000
       8 -> 15        -0.37790
      12 -> 21         0.50891
      12 -> 24        -0.18092
      12 -> 26         0.14794

 Excited State  20:      Singlet-A     12.1616 eV  101.95 nm  f=0.0296  <S**2>=0.000
      11 -> 21         0.27301
      12 -> 16         0.11024
      12 -> 22         0.23075
      12 -> 23         0.55860

 Excited State  21:      Singlet-A     12.2996 eV  100.80 nm  f=0.0517  <S**2>=0.000
      11 -> 21         0.55009
      11 -> 24        -0.15952
      12 -> 19        -0.12774
      12 -> 22        -0.24162
      12 -> 23        -0.17788

 Excited State  22:      Singlet-A     12.3582 eV  100.33 nm  f=0.0126  <S**2>=0.000
       8 -> 15         0.46886
       9 -> 13         0.30837
      12 -> 21         0.33438
      12 -> 24        -0.10609

 Excited State  23:      Singlet-A     12.4063 eV   99.94 nm  f=0.0250  <S**2>=0.000
       8 -> 15        -0.30335
       9 -> 13         0.56144
      11 -> 22         0.11969
      12 -> 21        -0.12711

 Excited State  24:      Singlet-A     12.4488 eV   99.60 nm  f=0.0087  <S**2>=0.000
      11 -> 18         0.16178
      11 -> 19        -0.16277
      11 -> 20         0.15124
      11 -> 22         0.37148
      11 -> 23         0.47477

 Excited State  25:      Singlet-A     12.5291 eV   98.96 nm  f=0.1080  <S**2>=0.000
       9 -> 15         0.14705
      10 -> 13         0.63020
      10 -> 16         0.14354

 Excited State  26:      Singlet-A     12.7755 eV   97.05 nm  f=0.0343  <S**2>=0.000
      11 -> 24        -0.19614
      12 -> 22         0.57266
      12 -> 23        -0.29552

 Excited State  27:      Singlet-A     12.8030 eV   96.84 nm  f=0.0129  <S**2>=0.000
       9 -> 13        -0.16608
       9 -> 14         0.21754
       9 -> 19        -0.13722
      11 -> 18        -0.10111
      11 -> 22         0.45011
      11 -> 23        -0.38694

 Excited State  28:      Singlet-A     13.1352 eV   94.39 nm  f=0.0268  <S**2>=0.000
       9 -> 17        -0.11254
      10 -> 14        -0.21082
      10 -> 16        -0.17167
      11 -> 21         0.14374
      11 -> 24         0.56490
      12 -> 22         0.12541
      12 -> 23        -0.10927

 Excited State  29:      Singlet-A     13.2525 eV   93.56 nm  f=0.0061  <S**2>=0.000
       9 -> 14         0.18016
      12 -> 21         0.23316
      12 -> 24         0.61046
      12 -> 31        -0.11018

 Excited State  30:      Singlet-A     13.2651 eV   93.47 nm  f=0.1235  <S**2>=0.000
       8 -> 13        -0.11013
      10 -> 14         0.61888
      10 -> 19        -0.11769
      11 -> 24         0.20340

 Excited State  31:      Singlet-A     13.3131 eV   93.13 nm  f=0.0206  <S**2>=0.000
       9 -> 14         0.57593
       9 -> 16         0.14580
      11 -> 19         0.17523
      11 -> 22        -0.18440
      12 -> 24        -0.18085

 Excited State  32:      Singlet-A     13.5939 eV   91.21 nm  f=0.0106  <S**2>=0.000
       8 -> 13         0.39450
      10 -> 16         0.44883
      10 -> 18         0.22435
      10 -> 20        -0.10318
      11 -> 24         0.10718

 Excited State  33:      Singlet-A     14.1536 eV   87.60 nm  f=0.0815  <S**2>=0.000
       9 -> 14        -0.15334
       9 -> 16         0.61005
       9 -> 20        -0.17421
      11 -> 18        -0.11918

 Excited State  34:      Singlet-A     14.2910 eV   86.76 nm  f=0.1120  <S**2>=0.000
       8 -> 13         0.45729
       8 -> 14         0.13855
      10 -> 13         0.16870
      10 -> 16        -0.23917
      10 -> 18        -0.35899

 Excited State  35:      Singlet-A     14.2910 eV   86.76 nm  f=0.0440  <S**2>=0.000
      10 -> 17         0.68632

 Excited State  36:      Singlet-A     14.4826 eV   85.61 nm  f=0.0478  <S**2>=0.000
       7 -> 13         0.13192
       8 -> 13        -0.20820
       8 -> 14         0.51977
       9 -> 17         0.10654
      10 -> 16         0.15029
      10 -> 18        -0.16106
      10 -> 19        -0.25792

 Excited State  37:      Singlet-A     14.5742 eV   85.07 nm  f=0.1154  <S**2>=0.000
       7 -> 15         0.12962
       9 -> 18         0.14739
       9 -> 20         0.10407
      11 -> 25         0.58923
      11 -> 27         0.16765
      11 -> 32        -0.10859

 Excited State  38:      Singlet-A     14.6633 eV   84.55 nm  f=0.0246  <S**2>=0.000
       9 -> 17        -0.14988
      11 -> 26         0.11872
      12 -> 25         0.61002
      12 -> 27         0.20684

 Excited State  39:      Singlet-A     14.7996 eV   83.78 nm  f=0.0074  <S**2>=0.000
       7 -> 15        -0.41622
      12 -> 21        -0.10429
      12 -> 24         0.11076
      12 -> 26         0.50136

 Excited State  40:      Singlet-A     14.8152 eV   83.69 nm  f=0.0670  <S**2>=0.000
       9 -> 17         0.55089
      10 -> 20         0.10022
      11 -> 24         0.10171
      11 -> 26        -0.16634
      12 -> 25         0.24386
      12 -> 27        -0.18828

 Excited State  41:      Singlet-A     14.8607 eV   83.43 nm  f=0.0004  <S**2>=0.000
       7 -> 15         0.51621
       8 -> 15         0.12025
      12 -> 21        -0.10635
      12 -> 26         0.41461

 Excited State  42:      Singlet-A     14.9794 eV   82.77 nm  f=0.0589  <S**2>=0.000
       8 -> 16        -0.19307
       9 -> 17         0.18450
       9 -> 21         0.13390
      10 -> 16         0.12774
      10 -> 18        -0.23732
      10 -> 19         0.25132
      10 -> 20        -0.10346
      11 -> 24         0.12818
      11 -> 26         0.40893
      12 -> 25        -0.12161
      12 -> 27         0.12684

 Excited State  43:      Singlet-A     15.0035 eV   82.64 nm  f=0.0581  <S**2>=0.000
       6 -> 15        -0.10304
       9 -> 16        -0.15664
       9 -> 18         0.50847
       9 -> 20        -0.33955
       9 -> 32         0.10756
      11 -> 23        -0.11026
      12 -> 26        -0.11570

 Excited State  44:      Singlet-A     15.0290 eV   82.50 nm  f=0.1978  <S**2>=0.000
       8 -> 16         0.13294
       9 -> 17         0.18554
      10 -> 16        -0.16382
      10 -> 18         0.20169
      10 -> 19        -0.19568
      10 -> 20         0.30122
      11 -> 26         0.15538
      12 -> 25        -0.11304
      12 -> 27         0.40072

 Excited State  45:      Singlet-A     15.1224 eV   81.99 nm  f=0.0000  <S**2>=0.000
      11 -> 25        -0.20623
      11 -> 27         0.59669
      11 -> 28         0.15098
      11 -> 32        -0.11979

 Excited State  46:      Singlet-A     15.1708 eV   81.73 nm  f=0.0341  <S**2>=0.000
       8 -> 14         0.20812
       8 -> 16         0.11674
      10 -> 14         0.10083
      10 -> 16        -0.21311
      10 -> 18         0.31352
      10 -> 20        -0.10093
      11 -> 26         0.33563
      12 -> 27        -0.30004

 Excited State  47:      Singlet-A     15.2519 eV   81.29 nm  f=0.1117  <S**2>=0.000
       7 -> 14        -0.10003
       8 -> 14         0.25063
       9 -> 17         0.11467
      10 -> 14         0.11692
      10 -> 18         0.13121
      10 -> 19         0.40860
      10 -> 20        -0.10140
      11 -> 26        -0.28183
      12 -> 27         0.24038

 Excited State  48:      Singlet-A     15.5675 eV   79.64 nm  f=0.0000  <S**2>=0.000
       9 -> 19         0.64048
       9 -> 20         0.14096
      11 -> 22         0.12832

 Excited State  49:      Singlet-A     15.5835 eV   79.56 nm  f=0.0230  <S**2>=0.000
       7 -> 13        -0.10100
       7 -> 14        -0.15283
       8 -> 14         0.13746
       8 -> 18         0.12313
       9 -> 17        -0.13190
      10 -> 16         0.16533
      10 -> 19         0.23831
      10 -> 20         0.51696
      12 -> 27        -0.10606
      12 -> 28         0.10290

 Excited State  50:      Singlet-A     15.7868 eV   78.54 nm  f=0.0092  <S**2>=0.000
       6 -> 15         0.10180
       9 -> 18         0.27881
       9 -> 20         0.44355
       9 -> 22        -0.12747
       9 -> 23        -0.32189
      11 -> 25        -0.18326
      11 -> 28         0.11372

 Excited State  51:      Singlet-A     15.8012 eV   78.46 nm  f=0.0067  <S**2>=0.000
       8 -> 16         0.53202
       8 -> 20        -0.19366
      10 -> 18        -0.18856
      10 -> 19         0.11048
      10 -> 20        -0.12007
      10 -> 23        -0.10158
      12 -> 28         0.11480

 Excited State  52:      Singlet-A     15.9812 eV   77.58 nm  f=0.0816  <S**2>=0.000
       7 -> 13         0.57716
       7 -> 14         0.19226
       8 -> 16         0.11409
       8 -> 19         0.11804
      10 -> 19         0.10436
      10 -> 20         0.14175

 Excited State  53:      Singlet-A     16.1037 eV   76.99 nm  f=0.0035  <S**2>=0.000
       8 -> 17         0.50076
       8 -> 21         0.16023
      10 -> 21        -0.38906
      12 -> 31         0.16533

 Excited State  54:      Singlet-A     16.2777 eV   76.17 nm  f=0.0362  <S**2>=0.000
       8 -> 18         0.31942
       8 -> 19         0.29993
      10 -> 22        -0.11604
      10 -> 23         0.40290
      12 -> 29         0.15520

 Excited State  55:      Singlet-A     16.3891 eV   75.65 nm  f=0.0026  <S**2>=0.000
       6 -> 15        -0.13981
       8 -> 17        -0.11112
       9 -> 16         0.10396
       9 -> 18         0.15273
       9 -> 20         0.16986
       9 -> 22         0.16946
       9 -> 23         0.17182
      10 -> 21         0.10467
      11 -> 27         0.10781
      11 -> 28        -0.26852
      12 -> 31         0.44328

 Excited State  56:      Singlet-A     16.4215 eV   75.50 nm  f=0.0032  <S**2>=0.000
       8 -> 19        -0.13698
      10 -> 22         0.20357
      10 -> 23         0.15637
      12 -> 28         0.40783
      12 -> 29        -0.24939
      12 -> 32        -0.28047
      12 -> 33        -0.12193
      12 -> 36        -0.10645

 Excited State  57:      Singlet-A     16.4864 eV   75.20 nm  f=0.0298  <S**2>=0.000
       6 -> 15        -0.10523
       9 -> 18        -0.17467
       9 -> 20        -0.15183
       9 -> 22        -0.16755
       9 -> 23        -0.24148
      11 -> 28         0.27582
      11 -> 29         0.13107
      12 -> 31         0.44506

 Excited State  58:      Singlet-A     16.5012 eV   75.14 nm  f=0.0053  <S**2>=0.000
       8 -> 18        -0.21333
       8 -> 20         0.17315
       9 -> 21         0.14927
      12 -> 29         0.50903
      12 -> 32        -0.26152

 Excited State  59:      Singlet-A     16.6258 eV   74.57 nm  f=0.0166  <S**2>=0.000
       7 -> 14        -0.17791
       8 -> 18         0.15491
       8 -> 20        -0.13391
       9 -> 21         0.41409
       9 -> 24        -0.16975
      10 -> 22         0.25012
      10 -> 23         0.10958
      11 -> 26        -0.17285
      12 -> 32         0.18334

 Excited State  60:      Singlet-A     16.6780 eV   74.34 nm  f=0.0106  <S**2>=0.000
       9 -> 22        -0.19652
       9 -> 23         0.35838
      11 -> 28         0.31489
      11 -> 29        -0.34288
      11 -> 30        -0.20607
      11 -> 32        -0.11868

 Excited State  61:      Singlet-A     16.7648 eV   73.96 nm  f=0.1773  <S**2>=0.000
       8 -> 16         0.16712
       8 -> 19        -0.14267
       9 -> 21        -0.35905
      10 -> 22         0.36728
      10 -> 23         0.25587
      11 -> 26         0.10449
      12 -> 28        -0.13772
      12 -> 29         0.11981

 Excited State  62:      Singlet-A     16.7791 eV   73.89 nm  f=0.0051  <S**2>=0.000
       9 -> 19        -0.10456
       9 -> 20         0.10840
       9 -> 22         0.20248
       9 -> 23         0.22535
      11 -> 28         0.29528
      11 -> 29         0.43590
      11 -> 30        -0.10240
      11 -> 32         0.20303
      11 -> 34         0.10102

 Excited State  63:      Singlet-A     16.8094 eV   73.76 nm  f=0.0168  <S**2>=0.000
       8 -> 17         0.39212
      10 -> 21         0.47331
      10 -> 24        -0.26565
      10 -> 26         0.10538

 Excited State  64:      Singlet-A     16.8916 eV   73.40 nm  f=0.1485  <S**2>=0.000
       7 -> 14         0.16402
       9 -> 21        -0.11929
       9 -> 24        -0.29739
      10 -> 23         0.13089
      11 -> 31         0.53773
      12 -> 29        -0.11019

 Excited State  65:      Singlet-A     17.0274 eV   72.81 nm  f=0.0244  <S**2>=0.000
       7 -> 13        -0.16720
       7 -> 14         0.29454
       8 -> 18        -0.19493
       8 -> 20         0.19787
       9 -> 21         0.23091
      10 -> 23         0.18839
      11 -> 31        -0.22583
      12 -> 28        -0.11121
      12 -> 29        -0.20051
      12 -> 32         0.14646

 Excited State  66:      Singlet-A     17.0390 eV   72.76 nm  f=0.0018  <S**2>=0.000
       9 -> 22        -0.29407
      11 -> 27         0.20390
      11 -> 30        -0.16126
      11 -> 32         0.50362
      11 -> 34        -0.17989

 Excited State  67:      Singlet-A     17.0769 eV   72.60 nm  f=0.0065  <S**2>=0.000
       6 -> 14         0.10070
       7 -> 14         0.39515
       7 -> 16         0.18338
       8 -> 18         0.23369
       8 -> 19        -0.16658
       8 -> 20        -0.20222
      10 -> 19         0.12084
      10 -> 22         0.18335
      10 -> 23        -0.14332
      12 -> 28        -0.12163
      12 -> 32        -0.15380

 Excited State  68:      Singlet-A     17.1011 eV   72.50 nm  f=0.0018  <S**2>=0.000
       6 -> 15         0.13500
       9 -> 22         0.35995
       9 -> 23        -0.10117
      11 -> 28         0.27743
      11 -> 29        -0.29836
      11 -> 30         0.19585
      11 -> 32         0.23488
      11 -> 33         0.14115

 Excited State  69:      Singlet-A     17.2296 eV   71.96 nm  f=0.1695  <S**2>=0.000
       6 -> 15         0.56110
       9 -> 20        -0.11385
       9 -> 23         0.10964
      10 -> 24        -0.17154
      12 -> 31         0.18548

 Excited State  70:      Singlet-A     17.2947 eV   71.69 nm  f=0.0356  <S**2>=0.000
       7 -> 14         0.13391
       7 -> 16         0.14714
       8 -> 19        -0.14055
      12 -> 28         0.41179
      12 -> 29         0.15982
      12 -> 30         0.14932
      12 -> 32         0.35006

 Excited State  71:      Singlet-A     17.4281 eV   71.14 nm  f=0.0050  <S**2>=0.000
       8 -> 18         0.17194
       8 -> 19         0.18342
       8 -> 20         0.33411
       8 -> 23        -0.20969
      10 -> 22         0.21374
      10 -> 23        -0.29332
      10 -> 25         0.11175
      12 -> 28         0.13013
      12 -> 32         0.13170

 Excited State  72:      Singlet-A     17.4870 eV   70.90 nm  f=0.0875  <S**2>=0.000
       6 -> 15         0.23742
       7 -> 17        -0.20957
       7 -> 24        -0.10073
       8 -> 17         0.16910
       8 -> 24        -0.14802
      10 -> 21         0.16601
      10 -> 24         0.50464

 Excited State  73:      Singlet-A     17.5997 eV   70.45 nm  f=0.0617  <S**2>=0.000
       6 -> 13         0.16434
       8 -> 18        -0.16518
       8 -> 19         0.27712
       8 -> 20        -0.14180
       8 -> 22         0.18594
       8 -> 23         0.15148
       9 -> 24         0.34099
      10 -> 22         0.25095
      11 -> 31         0.15358

 Excited State  74:      Singlet-A     17.6548 eV   70.23 nm  f=0.0212  <S**2>=0.000
       6 -> 13         0.15939
       7 -> 16        -0.18251
       8 -> 18         0.15142
       8 -> 19        -0.24352
       8 -> 20         0.20923
       8 -> 23        -0.10564
       9 -> 21         0.10989
       9 -> 24         0.35997
      10 -> 22        -0.16110
      11 -> 31         0.22146
      12 -> 30         0.15917

 Excited State  75:      Singlet-A     17.7439 eV   69.87 nm  f=0.0734  <S**2>=0.000
       8 -> 19         0.12384
       8 -> 22         0.10056
      12 -> 30         0.58913
      12 -> 32        -0.17139
      12 -> 33         0.14871
      12 -> 36        -0.10500

 Excited State  76:      Singlet-A     17.7706 eV   69.77 nm  f=0.0049  <S**2>=0.000
       9 -> 22        -0.21940
       9 -> 23         0.15878
       9 -> 27         0.11417
      11 -> 30         0.52866
      11 -> 33        -0.24623
      11 -> 34         0.11878

 Excited State  77:      Singlet-A     18.0398 eV   68.73 nm  f=0.0515  <S**2>=0.000
       6 -> 13         0.45641
       7 -> 16        -0.21416
       7 -> 18         0.16524
       8 -> 19        -0.11851
       8 -> 20        -0.12750
       9 -> 24        -0.24099
      11 -> 31        -0.12702
      12 -> 34        -0.16209

 Excited State  78:      Singlet-A     18.0465 eV   68.70 nm  f=0.0156  <S**2>=0.000
       8 -> 21         0.47689
       8 -> 24        -0.19450
      11 -> 29        -0.10267
      11 -> 33        -0.36481

 The electronic state is 1-A.
 Alpha  occ. eigenvalues --  -18.99701 -14.28722 -10.27498  -1.20245  -1.07457
 Alpha  occ. eigenvalues --   -0.78428  -0.71519  -0.63269  -0.56789  -0.56479
 Alpha  occ. eigenvalues --   -0.41654  -0.40235
 Alpha virt. eigenvalues --    0.07389   0.10364   0.10505   0.14133   0.16508
 Alpha virt. eigenvalues --    0.17458   0.18006   0.20632   0.23356   0.24613
 Alpha virt. eigenvalues --    0.25231   0.27272   0.32716   0.33139   0.34980

 Mulliken charges:
               1
     1  N    0.352443
     2  C    0.456510
     3  O   -0.267362
     4  H   -0.153826
     5  H   -0.116084
     6  H   -0.271682
 Sum of Mulliken charges =  -0.00000

 Dipole moment (field-independent basis, Debye):
    X=              4.0211    Y=              1.0308    Z=              0.0000  Tot=              4.1511
 Quadrupole moment (field-independent basis, Debye-Ang):
   XX=            -18.5667   YY=            -15.5481   ZZ=            -19.0936
   XY=             -1.3508   XZ=              0.0000   YZ=             -0.0000

 Normal termination of Gaussian 16 at Mon Mar 21 20:08:50 2022.
