 Gaussian 16, Revision C.01,
 Gaussian 16:  EM64L-G16RevC.01  3-Jul-2019

 ----------------------------------------------------------------------
 #P TD(Nstates=10000) lc-blyp/Gen SCF(maxcycles=100) Int(Grid=ultrafine
 )
 ----------------------------------------------------------------------

 ---------------------
 xGDB7_00001_tier4.com
 ---------------------
 Symbolic Z-matrix:
 Charge =  0 Multiplicity = 1

                         Standard orientation:
 ---------------------------------------------------------------------
 Center     Atomic      Atomic             Coordinates (Angstroms)
 Number     Number       Type             X           Y           Z
 ---------------------------------------------------------------------
      1          9           0        0.000000    0.000000    0.091801
      2          1           0        0.000000    0.000000   -0.826212
 ---------------------------------------------------------------------

 SCF Done:  E(RLC-B+HF-LYP) =  -100.221181215     A.U. after   10 cycles

 Excitation energies and oscillator strengths:

 Excited state symmetry could not be determined.
 Excited State   1:      Singlet-?Sym   10.3907 eV  119.32 nm  f=0.0337  <S**2>=0.000
       4 ->  6         0.67987
       4 -> 13         0.11838
       5 ->  6        -0.12122
 This state for optimization and/or second-order correction.
 Total Energy, E(TD-HF/TD-DFT) =  -99.8393294545
 Copying the excited state density for this state as the 1-particle RhoCI density.

 Excited state symmetry could not be determined.
 Excited State   2:      Singlet-?Sym   10.3907 eV  119.32 nm  f=0.0337  <S**2>=0.000
       4 ->  6         0.12122
       5 ->  6         0.67987
       5 -> 13         0.11838

 Excited State   3:      Singlet-SG    14.1900 eV   87.37 nm  f=0.1286  <S**2>=0.000
       3 ->  6         0.63523
       4 ->  9         0.19315
       5 ->  8         0.19315

 Excited state symmetry could not be determined.
 Excited State   4:      Singlet-?Sym   14.2566 eV   86.97 nm  f=0.0000  <S**2>=0.000
       4 ->  8        -0.49281
       5 ->  9         0.49281

 Excited state symmetry could not be determined.
 Excited State   5:      Singlet-?Sym   14.3682 eV   86.29 nm  f=0.0262  <S**2>=0.000
       4 ->  7         0.65936
       4 -> 10         0.20505
       5 ->  7        -0.12926

 Excited state symmetry could not be determined.
 Excited State   6:      Singlet-?Sym   14.3682 eV   86.29 nm  f=0.0262  <S**2>=0.000
       4 ->  7         0.12926
       5 ->  7         0.65936
       5 -> 10         0.20505

 Excited state symmetry could not be determined.
 Excited State   7:      Singlet-?Sym   14.3994 eV   86.10 nm  f=0.0000  <S**2>=0.000
       4 ->  8         0.49427
       5 ->  9         0.49427

 Excited state symmetry could not be determined.
 Excited State   8:      Singlet-?Sym   14.3994 eV   86.10 nm  f=0.0000  <S**2>=0.000
       4 ->  9        -0.49427
       5 ->  8         0.49427

 Excited state symmetry could not be determined.
 Excited State   9:      Singlet-?Sym   16.0931 eV   77.04 nm  f=0.0176  <S**2>=0.000
       3 ->  6        -0.23340
       3 ->  7        -0.22196
       3 -> 10        -0.13346
       4 ->  9         0.43127
       5 ->  8         0.43127

 Excited state symmetry could not be determined.
 Excited State  10:      Singlet-?Sym   16.3307 eV   75.92 nm  f=0.0709  <S**2>=0.000
       4 ->  7        -0.18629
       4 -> 10         0.61530
       5 -> 10         0.24515

 Excited state symmetry could not be determined.
 Excited State  11:      Singlet-?Sym   16.3307 eV   75.92 nm  f=0.0709  <S**2>=0.000
       4 -> 10        -0.24515
       5 ->  7        -0.18629
       5 -> 10         0.61530

 Excited state symmetry could not be determined.
 Excited State  12:      Singlet-?Sym   17.1671 eV   72.22 nm  f=0.0000  <S**2>=0.000
       4 -> 11        -0.49094
       5 -> 12         0.49094

 Excited state symmetry could not be determined.
 Excited State  13:      Singlet-?Sym   17.1710 eV   72.21 nm  f=0.0000  <S**2>=0.000
       4 -> 12        -0.49258
       5 -> 11         0.49258

 Excited state symmetry could not be determined.
 Excited State  14:      Singlet-?Sym   17.1710 eV   72.21 nm  f=0.0000  <S**2>=0.000
       4 -> 11         0.49258
       5 -> 12         0.49258

 Excited state symmetry could not be determined.
 Excited State  15:      Singlet-?Sym   17.3991 eV   71.26 nm  f=0.2255  <S**2>=0.000
       3 ->  7        -0.14422
       3 -> 10        -0.12937
       4 -> 12         0.47516
       5 -> 11         0.47516

 Excited state symmetry could not be determined.
 Excited State  16:      Singlet-?Sym   17.9646 eV   69.02 nm  f=0.0000  <S**2>=0.000
       3 ->  9         0.69754
       3 -> 12         0.10256

 Excited state symmetry could not be determined.
 Excited State  17:      Singlet-?Sym   17.9646 eV   69.02 nm  f=0.0000  <S**2>=0.000
       3 ->  8         0.69754
       3 -> 11         0.10256

 Excited State  18:      Singlet-SG    18.6798 eV   66.37 nm  f=0.0184  <S**2>=0.000
       3 ->  6        -0.16646
       3 ->  7         0.64900
       4 ->  9         0.12749
       5 ->  8         0.12749

 Excited state symmetry could not be determined.
 Excited State  19:      Singlet-?Sym   19.8273 eV   62.53 nm  f=0.0080  <S**2>=0.000
       4 -> 13         0.59939
       5 -> 13         0.33653

 Excited state symmetry could not be determined.
 Excited State  20:      Singlet-?Sym   19.8273 eV   62.53 nm  f=0.0080  <S**2>=0.000
       4 -> 13        -0.33653
       5 -> 13         0.59939

 Excited state symmetry could not be determined.
 Excited State  21:      Singlet-?Sym   20.8627 eV   59.43 nm  f=0.0787  <S**2>=0.000
       3 ->  8        -0.10080
       3 -> 11         0.68242
       3 -> 12        -0.11743

 Excited state symmetry could not be determined.
 Excited State  22:      Singlet-?Sym   20.8627 eV   59.43 nm  f=0.0787  <S**2>=0.000
       3 ->  9        -0.10080
       3 -> 11         0.11743
       3 -> 12         0.68242

 Excited State  23:      Singlet-SG    20.9162 eV   59.28 nm  f=0.1409  <S**2>=0.000
       3 -> 10         0.66746
       3 -> 13         0.14175

 Excited State  24:      Singlet-SG    24.1580 eV   51.32 nm  f=0.0700  <S**2>=0.000
       3 -> 10        -0.12027
       3 -> 13         0.67753

 Excited state symmetry could not be determined.
 Excited State  25:      Singlet-?Sym   24.7176 eV   50.16 nm  f=0.0000  <S**2>=0.000
       4 -> 15        -0.49771
       5 -> 14         0.49771

 Excited state symmetry could not be determined.
 Excited State  26:      Singlet-?Sym   24.7176 eV   50.16 nm  f=0.0000  <S**2>=0.000
       4 -> 14         0.49771
       5 -> 15         0.49771

 Excited state symmetry could not be determined.
 Excited State  27:      Singlet-?Sym   25.6136 eV   48.41 nm  f=0.4438  <S**2>=0.000
       4 -> 15         0.47556
       4 -> 16        -0.19417
       5 -> 14         0.47556

 Excited state symmetry could not be determined.
 Excited State  28:      Singlet-?Sym   25.6136 eV   48.41 nm  f=0.4438  <S**2>=0.000
       4 -> 14         0.47556
       5 -> 15        -0.47556
       5 -> 16        -0.19417

 Excited state symmetry could not be determined.
 Excited State  29:      Singlet-?Sym   27.6027 eV   44.92 nm  f=0.1774  <S**2>=0.000
       4 -> 15         0.13089
       4 -> 16         0.65561
       5 -> 14         0.13089
       5 -> 16         0.14940

 Excited state symmetry could not be determined.
 Excited State  30:      Singlet-?Sym   27.6027 eV   44.92 nm  f=0.1774  <S**2>=0.000
       4 -> 14         0.13089
       4 -> 16        -0.14940
       5 -> 15        -0.13089
       5 -> 16         0.65561

 Excited state symmetry could not be determined.
 Excited State  31:      Singlet-?Sym   28.2975 eV   43.81 nm  f=0.0000  <S**2>=0.000
       3 -> 15         0.70634

 Excited state symmetry could not be determined.
 Excited State  32:      Singlet-?Sym   28.2975 eV   43.81 nm  f=0.0000  <S**2>=0.000
       3 -> 14         0.70634

 Excited state symmetry could not be determined.
 Excited State  33:      Singlet-?Sym   29.3200 eV   42.29 nm  f=0.0000  <S**2>=0.000
       4 -> 17        -0.49761
       5 -> 18         0.49761

 Excited state symmetry could not be determined.
 Excited State  34:      Singlet-?Sym   29.4208 eV   42.14 nm  f=0.0000  <S**2>=0.000
       4 -> 18        -0.49735
       5 -> 17         0.49735

 Excited state symmetry could not be determined.
 Excited State  35:      Singlet-?Sym   29.4208 eV   42.14 nm  f=0.0000  <S**2>=0.000
       4 -> 17         0.49735
       5 -> 18         0.49735

 Excited state symmetry could not be determined.
 Excited State  36:      Singlet-?Sym   30.1419 eV   41.13 nm  f=0.1398  <S**2>=0.000
       2 ->  6         0.10090
       3 -> 16         0.33658
       4 -> 18         0.42861
       5 -> 17         0.42861

 Excited State  37:      Singlet-SG    31.6378 eV   39.19 nm  f=0.0795  <S**2>=0.000
       2 ->  6         0.66691
       3 -> 16        -0.19189

 Excited State  38:      Singlet-SG    32.5545 eV   38.09 nm  f=0.5284  <S**2>=0.000
       2 ->  6         0.15850
       2 ->  7         0.10399
       3 -> 16         0.58258
       4 -> 18        -0.24552
       5 -> 17        -0.24552

 Excited state symmetry could not be determined.
 Excited State  39:      Singlet-?Sym   33.6284 eV   36.87 nm  f=0.2875  <S**2>=0.000
       2 ->  9        -0.10777
       3 -> 17         0.45686
       3 -> 18         0.51225

 Excited state symmetry could not be determined.
 Excited State  40:      Singlet-?Sym   33.6284 eV   36.87 nm  f=0.2875  <S**2>=0.000
       2 ->  8        -0.10777
       3 -> 17         0.51225
       3 -> 18        -0.45686

 Excited state symmetry could not be determined.
 Excited State  41:      Singlet-?Sym   35.5094 eV   34.92 nm  f=0.0037  <S**2>=0.000
       2 ->  8         0.31230
       2 ->  9         0.59615
       2 -> 12         0.13111
       3 -> 18         0.12087

 Excited state symmetry could not be determined.
 Excited State  42:      Singlet-?Sym   35.5094 eV   34.92 nm  f=0.0037  <S**2>=0.000
       2 ->  8         0.59615
       2 ->  9        -0.31230
       2 -> 11         0.13111
       3 -> 17         0.12087

 Excited State  43:      Singlet-SG    35.5292 eV   34.90 nm  f=0.0076  <S**2>=0.000
       2 ->  7         0.66167
       2 -> 10         0.21198

 Excited State  44:      Singlet-SG    37.2118 eV   33.32 nm  f=0.0112  <S**2>=0.000
       2 ->  7        -0.20860
       2 -> 10         0.66804

 Excited state symmetry could not be determined.
 Excited State  45:      Singlet-?Sym   37.6867 eV   32.90 nm  f=0.0000  <S**2>=0.000
       2 -> 11         0.24641
       2 -> 12        -0.27666
       4 -> 19         0.44297
       5 -> 19        -0.39452

 Excited state symmetry could not be determined.
 Excited State  46:      Singlet-?Sym   37.6867 eV   32.90 nm  f=0.0000  <S**2>=0.000
       2 -> 11        -0.27666
       2 -> 12        -0.24641
       4 -> 19         0.39452
       5 -> 19         0.44297

 Excited state symmetry could not be determined.
 Excited State  47:      Singlet-?Sym   38.0215 eV   32.61 nm  f=0.0075  <S**2>=0.000
       2 -> 11         0.47549
       2 -> 12        -0.33255
       4 -> 19        -0.21841
       5 -> 19         0.31229

 Excited state symmetry could not be determined.
 Excited State  48:      Singlet-?Sym   38.0215 eV   32.61 nm  f=0.0075  <S**2>=0.000
       2 -> 11         0.33255
       2 -> 12         0.47549
       4 -> 19         0.31229
       5 -> 19         0.21841

 Excited State  49:      Singlet-SG    40.8768 eV   30.33 nm  f=0.0148  <S**2>=0.000
       2 -> 13         0.66695
       3 -> 19         0.19824

 Excited State  50:      Singlet-SG    42.2606 eV   29.34 nm  f=0.0027  <S**2>=0.000
       2 -> 13        -0.17216
       3 -> 19         0.65046
       4 -> 20        -0.14994
       5 -> 21        -0.14994

 Excited state symmetry could not be determined.
 Excited State  51:      Singlet-?Sym   44.6082 eV   27.79 nm  f=0.0000  <S**2>=0.000
       4 -> 21        -0.49953
       5 -> 20         0.49953

 Excited state symmetry could not be determined.
 Excited State  52:      Singlet-?Sym   44.9230 eV   27.60 nm  f=0.0000  <S**2>=0.000
       2 -> 14        -0.22648
       4 -> 21         0.47325
       5 -> 20         0.47325

 Excited state symmetry could not be determined.
 Excited State  53:      Singlet-?Sym   44.9230 eV   27.60 nm  f=0.0000  <S**2>=0.000
       2 -> 15        -0.22648
       4 -> 20         0.47325
       5 -> 21        -0.47325

 Excited state symmetry could not be determined.
 Excited State  54:      Singlet-?Sym   45.6642 eV   27.15 nm  f=0.0000  <S**2>=0.000
       2 -> 14         0.66976
       4 -> 21         0.16034
       5 -> 20         0.16034

 Excited state symmetry could not be determined.
 Excited State  55:      Singlet-?Sym   45.6642 eV   27.15 nm  f=0.0000  <S**2>=0.000
       2 -> 15         0.66976
       4 -> 20         0.16034
       5 -> 21        -0.16034

 Excited State  56:      Singlet-SG    48.3937 eV   25.62 nm  f=0.0003  <S**2>=0.000
       2 -> 16         0.69227

 Excited state symmetry could not be determined.
 Excited State  57:      Singlet-?Sym   48.5699 eV   25.53 nm  f=0.0000  <S**2>=0.000
       3 -> 20         0.63272
       3 -> 21        -0.29165

 Excited state symmetry could not be determined.
 Excited State  58:      Singlet-?Sym   48.5699 eV   25.53 nm  f=0.0000  <S**2>=0.000
       3 -> 20         0.29165
       3 -> 21         0.63272

 Excited state symmetry could not be determined.
 Excited State  59:      Singlet-?Sym   50.3811 eV   24.61 nm  f=0.0116  <S**2>=0.000
       2 -> 17        -0.46106
       2 -> 18        -0.14370
       4 -> 22         0.15269
       5 -> 22         0.48990

 Excited state symmetry could not be determined.
 Excited State  60:      Singlet-?Sym   50.3811 eV   24.61 nm  f=0.0116  <S**2>=0.000
       2 -> 17         0.14370
       2 -> 18        -0.46106
       4 -> 22         0.48990
       5 -> 22        -0.15269

 Excited state symmetry could not be determined.
 Excited State  61:      Singlet-?Sym   50.6810 eV   24.46 nm  f=0.0403  <S**2>=0.000
       2 -> 17         0.48322
       2 -> 18         0.15355
       3 -> 21         0.10991
       4 -> 22         0.14433
       5 -> 22         0.45422

 Excited state symmetry could not be determined.
 Excited State  62:      Singlet-?Sym   50.6810 eV   24.46 nm  f=0.0403  <S**2>=0.000
       2 -> 17        -0.15355
       2 -> 18         0.48322
       3 -> 20         0.10991
       4 -> 22         0.45422
       5 -> 22        -0.14433

 Excited State  63:      Singlet-SG    51.3786 eV   24.13 nm  f=0.0843  <S**2>=0.000
       2 -> 16        -0.11094
       3 -> 19        -0.13193
       3 -> 22         0.45152
       4 -> 20        -0.34849
       5 -> 21        -0.34849

 Excited State  64:      Singlet-SG    58.1572 eV   21.32 nm  f=0.0155  <S**2>=0.000
       2 -> 19         0.45739
       3 -> 22        -0.41248
       4 -> 20        -0.18049
       4 -> 24        -0.12811
       5 -> 21        -0.18049
       5 -> 23        -0.12811

 Excited state symmetry could not be determined.
 Excited State  65:      Singlet-?Sym   59.2047 eV   20.94 nm  f=0.0000  <S**2>=0.000
       4 -> 23         0.49989
       5 -> 24        -0.49989

 Excited state symmetry could not be determined.
 Excited State  66:      Singlet-?Sym   59.2437 eV   20.93 nm  f=0.0000  <S**2>=0.000
       4 -> 24        -0.49990
       5 -> 23         0.49990

 Excited state symmetry could not be determined.
 Excited State  67:      Singlet-?Sym   59.2437 eV   20.93 nm  f=0.0000  <S**2>=0.000
       4 -> 23         0.49990
       5 -> 24         0.49990

 Excited State  68:      Singlet-SG    59.5355 eV   20.83 nm  f=0.1011  <S**2>=0.000
       2 -> 19         0.49575
       3 -> 22         0.20669
       4 -> 20         0.13592
       4 -> 24         0.27488
       5 -> 21         0.13592
       5 -> 23         0.27488

 Excited state symmetry could not be determined.
 Excited State  69:      Singlet-?Sym   60.7783 eV   20.40 nm  f=0.0370  <S**2>=0.000
       2 -> 19        -0.18319
       2 -> 22        -0.11673
       3 -> 22        -0.24350
       3 -> 25         0.19869
       4 -> 20        -0.15026
       4 -> 24         0.38818
       5 -> 21        -0.15026
       5 -> 23         0.38818

 Excited state symmetry could not be determined.
 Excited State  70:      Singlet-?Sym   62.0787 eV   19.97 nm  f=0.0142  <S**2>=0.000
       3 -> 23        -0.18743
       4 -> 25         0.19434
       5 -> 25         0.64817

 Excited state symmetry could not be determined.
 Excited State  71:      Singlet-?Sym   62.0787 eV   19.97 nm  f=0.0142  <S**2>=0.000
       3 -> 24        -0.18743
       4 -> 25         0.64817
       5 -> 25        -0.19434

 Excited state symmetry could not be determined.
 Excited State  72:      Singlet-?Sym   63.6407 eV   19.48 nm  f=0.1472  <S**2>=0.000
       3 -> 23         0.67708
       5 -> 25         0.19418

 Excited state symmetry could not be determined.
 Excited State  73:      Singlet-?Sym   63.6407 eV   19.48 nm  f=0.1472  <S**2>=0.000
       3 -> 24         0.67708
       4 -> 25         0.19418

 Excited state symmetry could not be determined.
 Excited State  74:      Singlet-?Sym   66.3451 eV   18.69 nm  f=0.2000  <S**2>=0.000
       2 -> 20         0.39889
       2 -> 21         0.57916

 Excited state symmetry could not be determined.
 Excited State  75:      Singlet-?Sym   66.3451 eV   18.69 nm  f=0.2000  <S**2>=0.000
       2 -> 20         0.57916
       2 -> 21        -0.39889

 Excited State  76:      Singlet-SG    66.6418 eV   18.60 nm  f=0.0199  <S**2>=0.000
       2 -> 22         0.16570
       3 -> 25         0.66016

 Excited State  77:      Singlet-SG    73.3084 eV   16.91 nm  f=0.0760  <S**2>=0.000
       2 -> 22         0.64577
       2 -> 25         0.13336
       3 -> 25        -0.10832
       3 -> 26        -0.13103
       4 -> 20        -0.10031
       5 -> 21        -0.10031

 Excited state symmetry could not be determined.
 Excited State  78:      Singlet-?Sym   73.3741 eV   16.90 nm  f=0.0184  <S**2>=0.000
       4 -> 26         0.52485
       5 -> 26         0.46993

 Excited state symmetry could not be determined.
 Excited State  79:      Singlet-?Sym   73.3741 eV   16.90 nm  f=0.0184  <S**2>=0.000
       4 -> 26        -0.46993
       5 -> 26         0.52485

 Excited State  80:      Singlet-SG    78.6847 eV   15.76 nm  f=0.0222  <S**2>=0.000
       2 -> 22         0.10225
       2 -> 25         0.10283
       3 -> 26         0.68424

 Excited state symmetry could not be determined.
 Excited State  81:      Singlet-?Sym   80.0884 eV   15.48 nm  f=0.0014  <S**2>=0.000
       2 -> 23         0.70672

 Excited state symmetry could not be determined.
 Excited State  82:      Singlet-?Sym   80.0884 eV   15.48 nm  f=0.0014  <S**2>=0.000
       2 -> 24         0.70672

 Excited State  83:      Singlet-SG    85.1757 eV   14.56 nm  f=0.0373  <S**2>=0.000
       2 -> 22        -0.10739
       2 -> 25         0.67939

 Excited State  84:      Singlet-SG    94.8870 eV   13.07 nm  f=0.0188  <S**2>=0.000
       2 -> 26         0.70480

 Excited state symmetry could not be determined.
 Excited State  85:      Singlet-?Sym   97.6855 eV   12.69 nm  f=0.0000  <S**2>=0.000
       4 -> 27         0.19526
       4 -> 28         0.46028
       5 -> 27         0.46028
       5 -> 28        -0.19526

 Excited state symmetry could not be determined.
 Excited State  86:      Singlet-?Sym   97.6855 eV   12.69 nm  f=0.0000  <S**2>=0.000
       4 -> 27         0.46028
       4 -> 28        -0.19526
       5 -> 27        -0.19526
       5 -> 28        -0.46028

 Excited state symmetry could not be determined.
 Excited State  87:      Singlet-?Sym  101.3855 eV   12.23 nm  f=0.0000  <S**2>=0.000
       3 -> 28         0.70422

 Excited state symmetry could not be determined.
 Excited State  88:      Singlet-?Sym  101.3855 eV   12.23 nm  f=0.0000  <S**2>=0.000
       3 -> 27         0.70422

 Excited state symmetry could not be determined.
 Excited State  89:      Singlet-?Sym  101.9366 eV   12.16 nm  f=0.2694  <S**2>=0.000
       3 -> 29         0.34143
       3 -> 30        -0.11461
       4 -> 27         0.13641
       4 -> 28        -0.40637
       5 -> 27         0.40637
       5 -> 28         0.13641

 Excited state symmetry could not be determined.
 Excited State  90:      Singlet-?Sym  101.9366 eV   12.16 nm  f=0.2694  <S**2>=0.000
       3 -> 29        -0.11461
       3 -> 30        -0.34143
       4 -> 27         0.40637
       4 -> 28         0.13641
       5 -> 27        -0.13641
       5 -> 28         0.40637

 Excited state symmetry could not be determined.
 Excited State  91:      Singlet-?Sym  102.3118 eV   12.12 nm  f=0.0000  <S**2>=0.000
       4 -> 29         0.49995
       5 -> 30        -0.49995

 Excited state symmetry could not be determined.
 Excited State  92:      Singlet-?Sym  102.4679 eV   12.10 nm  f=0.0000  <S**2>=0.000
       4 -> 29         0.49807
       5 -> 30         0.49807

 Excited state symmetry could not be determined.
 Excited State  93:      Singlet-?Sym  102.4679 eV   12.10 nm  f=0.0000  <S**2>=0.000
       4 -> 30        -0.49807
       5 -> 29         0.49807

 Excited state symmetry could not be determined.
 Excited State  94:      Singlet-?Sym  108.4739 eV   11.43 nm  f=0.5549  <S**2>=0.000
       4 -> 30         0.49214
       5 -> 29         0.49214

 Excited state symmetry could not be determined.
 Excited State  95:      Singlet-?Sym  110.9054 eV   11.18 nm  f=0.6493  <S**2>=0.000
       3 -> 29        -0.10534
       3 -> 30         0.59604
       4 -> 27         0.24519
       5 -> 28         0.24519

 Excited state symmetry could not be determined.
 Excited State  96:      Singlet-?Sym  110.9054 eV   11.18 nm  f=0.6493  <S**2>=0.000
       3 -> 29         0.59604
       3 -> 30         0.10534
       4 -> 28         0.24519
       5 -> 27        -0.24519

 Excited state symmetry could not be determined.
 Excited State  97:      Singlet-?Sym  120.0547 eV   10.33 nm  f=0.0000  <S**2>=0.000
       2 -> 27         0.70694

 Excited state symmetry could not be determined.
 Excited State  98:      Singlet-?Sym  120.0547 eV   10.33 nm  f=0.0000  <S**2>=0.000
       2 -> 28         0.70694

 Excited state symmetry could not be determined.
 Excited State  99:      Singlet-?Sym  124.8790 eV    9.93 nm  f=0.0101  <S**2>=0.000
       2 -> 29         0.41271
       2 -> 30         0.57284

 Excited state symmetry could not be determined.
 Excited State 100:      Singlet-?Sym  124.8790 eV    9.93 nm  f=0.0101  <S**2>=0.000
       2 -> 29         0.57284
       2 -> 30        -0.41271

 Excited state symmetry could not be determined.
 Excited State 101:      Singlet-?Sym  128.5252 eV    9.65 nm  f=0.1128  <S**2>=0.000
       5 -> 31         0.70022

 Excited state symmetry could not be determined.
 Excited State 102:      Singlet-?Sym  128.5252 eV    9.65 nm  f=0.1128  <S**2>=0.000
       4 -> 31         0.70022

 Excited State 103:      Singlet-SG   133.9724 eV    9.25 nm  f=0.2311  <S**2>=0.000
       3 -> 31         0.70002

 Excited State 104:      Singlet-SG   149.2353 eV    8.31 nm  f=0.0001  <S**2>=0.000
       2 -> 31         0.70692

 The electronic state is 1-SG.
 Alpha  occ. eigenvalues --  -24.53773  -1.33798  -0.70245  -0.57084  -0.57084
 Alpha virt. eigenvalues --    0.07376   0.20546   0.21372   0.21372   0.29861
 Alpha virt. eigenvalues --    0.30465   0.30465   0.42307   0.66122   0.66122
 Alpha virt. eigenvalues --    0.73471   0.82391   0.82391   1.15028   1.45793

 Mulliken charges:
               1
     1  F   -0.228343
     2  H    0.228343
 Sum of Mulliken charges =  -0.00000

 Dipole moment (field-independent basis, Debye):
    X=              0.0000    Y=              0.0000    Z=             -1.8945  Tot=              1.8945
 Quadrupole moment (field-independent basis, Debye-Ang):
   XX=             -5.9965   YY=             -5.9965   ZZ=             -3.8522
   XY=              0.0000   XZ=              0.0000   YZ=              0.0000

 Normal termination of Gaussian 16 at Mon Mar 21 20:06:42 2022.
