 Gaussian 16, Revision C.01,
 Gaussian 16:  EM64L-G16RevC.01  3-Jul-2019

 ----------------------------------------------------------------------
 #P TD(Nstates=10000) lc-blyp/Gen SCF(maxcycles=100) Int(Grid=ultrafine
 )
 ----------------------------------------------------------------------

 ---------------------
 xGDB7_00001_tier4.com
 ---------------------
 Symbolic Z-matrix:
 Charge =  0 Multiplicity = 1

                         Standard orientation:
 ---------------------------------------------------------------------
 Center     Atomic      Atomic             Coordinates (Angstroms)
 Number     Number       Type             X           Y           Z
 ---------------------------------------------------------------------
      1          6           0        0.037922   -0.393776    0.738519
      2          6           0        0.037922   -0.393776   -0.738519
      3          7           0        0.037922    0.865964    0.000000
      4          1           0        0.953211   -0.606479    1.276872
      5          1           0       -0.870248   -0.700655    1.244917
      6          1           0       -0.870248   -0.700655   -1.244917
      7          1           0        0.953211   -0.606479   -1.276872
      8          1           0       -0.886454    1.277834    0.000000
 ---------------------------------------------------------------------

 SCF Done:  E(RLC-B+HF-LYP) =  -133.448219555     A.U. after   12 cycles

 Excitation energies and oscillator strengths:

 Excited State   1:      Singlet-A'     7.2999 eV  169.84 nm  f=0.0026  <S**2>=0.000
      12 -> 13         0.55660
      12 -> 15         0.41200
 This state for optimization and/or second-order correction.
 Total Energy, E(TD-HF/TD-DFT) =  -133.179953250
 Copying the excited state density for this state as the 1-particle RhoCI density.

 Excited State   2:      Singlet-A'     8.3760 eV  148.02 nm  f=0.0355  <S**2>=0.000
      12 -> 13        -0.39893
      12 -> 15         0.53841
      12 -> 17        -0.15870

 Excited State   3:      Singlet-A"     8.4181 eV  147.28 nm  f=0.0075  <S**2>=0.000
      12 -> 14         0.67736
      12 -> 18         0.13010

 Excited State   4:      Singlet-A'     8.9396 eV  138.69 nm  f=0.0815  <S**2>=0.000
      12 -> 16         0.66809
      12 -> 20        -0.10418

 Excited State   5:      Singlet-A"     9.2580 eV  133.92 nm  f=0.0528  <S**2>=0.000
      12 -> 18         0.60525
      12 -> 19        -0.18888
      12 -> 21        -0.20074
      12 -> 31        -0.10554

 Excited State   6:      Singlet-A'     9.6014 eV  129.13 nm  f=0.0227  <S**2>=0.000
      11 -> 13         0.58359
      11 -> 15         0.29908
      12 -> 17        -0.13753

 Excited State   7:      Singlet-A"     9.9307 eV  124.85 nm  f=0.0000  <S**2>=0.000
      10 -> 13         0.58472
      10 -> 15         0.35617

 Excited State   8:      Singlet-A'    10.0399 eV  123.49 nm  f=0.0087  <S**2>=0.000
      11 -> 13         0.23463
      11 -> 15        -0.12787
      12 -> 17         0.61098
      12 -> 20        -0.10716

 Excited State   9:      Singlet-A"    10.4650 eV  118.48 nm  f=0.0408  <S**2>=0.000
       9 -> 13        -0.42214
      10 -> 13        -0.12273
      10 -> 15         0.13745
      11 -> 14         0.50727

 Excited State  10:      Singlet-A'    10.5049 eV  118.03 nm  f=0.0651  <S**2>=0.000
       9 -> 14         0.10997
      11 -> 13        -0.23303
      11 -> 15         0.57008
      12 -> 17         0.22006
      12 -> 20         0.14605

 Excited State  11:      Singlet-A"    10.8422 eV  114.35 nm  f=0.0482  <S**2>=0.000
       9 -> 13         0.45786
       9 -> 17         0.10704
      11 -> 14         0.40291
      12 -> 19         0.14177
      12 -> 21         0.18389
      12 -> 23        -0.12894

 Excited State  12:      Singlet-A"    10.9109 eV  113.63 nm  f=0.1247  <S**2>=0.000
       9 -> 13         0.18563
      10 -> 13        -0.30027
      10 -> 15         0.55865
      10 -> 17        -0.12529

 Excited State  13:      Singlet-A'    10.9743 eV  112.98 nm  f=0.0072  <S**2>=0.000
       9 -> 14         0.11657
      10 -> 14        -0.19941
      11 -> 15        -0.16490
      12 -> 16         0.11311
      12 -> 20         0.59500

 Excited State  14:      Singlet-A'    11.0230 eV  112.48 nm  f=0.0279  <S**2>=0.000
      10 -> 14         0.64020
      10 -> 18         0.12052
      11 -> 16        -0.12719
      12 -> 20         0.16080

 Excited State  15:      Singlet-A"    11.0397 eV  112.31 nm  f=0.0094  <S**2>=0.000
       9 -> 13        -0.10517
       9 -> 15        -0.17314
      10 -> 13        -0.10671
      11 -> 14        -0.17796
      12 -> 18         0.21692
      12 -> 19         0.55270
      12 -> 21         0.15058

 Excited State  16:      Singlet-A'    11.1570 eV  111.13 nm  f=0.0469  <S**2>=0.000
      11 -> 16         0.63289
      11 -> 17         0.13223
      12 -> 22         0.10574

 Excited State  17:      Singlet-A"    11.3558 eV  109.18 nm  f=0.0348  <S**2>=0.000
       9 -> 15        -0.33116
      10 -> 16         0.43794
      11 -> 18         0.34630
      12 -> 19        -0.11983

 Excited State  18:      Singlet-A"    11.5258 eV  107.57 nm  f=0.0289  <S**2>=0.000
       9 -> 15        -0.30661
      10 -> 16        -0.13020
      11 -> 18        -0.17492
      12 -> 19        -0.27460
      12 -> 21         0.41878
      12 -> 23        -0.15708

 Excited State  19:      Singlet-A'    11.5807 eV  107.06 nm  f=0.0802  <S**2>=0.000
       9 -> 14         0.59505
       9 -> 18         0.14959
      11 -> 16        -0.10991
      11 -> 17         0.13662
      12 -> 20        -0.15693

 Excited State  20:      Singlet-A"    11.6568 eV  106.36 nm  f=0.0699  <S**2>=0.000
       9 -> 13        -0.11266
       9 -> 15         0.33189
      10 -> 16         0.46215
      11 -> 18        -0.22871
      12 -> 18         0.12884
      12 -> 21         0.18073
      12 -> 23        -0.10721

 Excited State  21:      Singlet-A"    11.9406 eV  103.83 nm  f=0.0559  <S**2>=0.000
       9 -> 15         0.27298
       9 -> 16         0.13807
      10 -> 16        -0.16357
      11 -> 14        -0.10100
      11 -> 18         0.40855
      11 -> 21        -0.10439
      12 -> 21         0.18249
      12 -> 23        -0.30707

 Excited State  22:      Singlet-A'    11.9859 eV  103.44 nm  f=0.0802  <S**2>=0.000
       9 -> 14        -0.12385
      10 -> 18         0.47510
      10 -> 19        -0.12625
      10 -> 21        -0.13454
      11 -> 16        -0.11473
      12 -> 22         0.31554
      12 -> 24         0.21258

 Excited State  23:      Singlet-A'    12.2444 eV  101.26 nm  f=0.0346  <S**2>=0.000
       9 -> 18        -0.12114
      10 -> 18         0.13024
      11 -> 17         0.47679
      11 -> 20        -0.14517
      12 -> 22        -0.36405
      12 -> 24         0.12094
      12 -> 27        -0.12997

 Excited State  24:      Singlet-A"    12.3022 eV  100.78 nm  f=0.0053  <S**2>=0.000
       9 -> 15         0.16535
       9 -> 16        -0.20281
       9 -> 17        -0.13020
      11 -> 18         0.15659
      12 -> 21         0.33736
      12 -> 23         0.48808

 Excited State  25:      Singlet-A'    12.3855 eV  100.10 nm  f=0.0087  <S**2>=0.000
       9 -> 14        -0.16151
       9 -> 18         0.58053
       9 -> 19        -0.17034
       9 -> 21        -0.14164
      12 -> 22        -0.14978

 Excited State  26:      Singlet-A"    12.4350 eV   99.71 nm  f=0.0688  <S**2>=0.000
       9 -> 16         0.54694
      10 -> 17         0.26926
      11 -> 19         0.11932
      12 -> 21         0.10621
      12 -> 23         0.21692

 Excited State  27:      Singlet-A'    12.4792 eV   99.35 nm  f=0.0147  <S**2>=0.000
       9 -> 18        -0.11143
      11 -> 17        -0.33813
      12 -> 22        -0.32058
      12 -> 24         0.43199
      12 -> 25         0.17792

 Excited State  28:      Singlet-A"    12.6404 eV   98.09 nm  f=0.0547  <S**2>=0.000
       9 -> 16        -0.24794
      10 -> 17         0.60896

 Excited State  29:      Singlet-A'    12.7439 eV   97.29 nm  f=0.0318  <S**2>=0.000
      10 -> 18        -0.22215
      11 -> 17         0.27757
      11 -> 20         0.23268
      12 -> 22         0.25245
      12 -> 24         0.24931
      12 -> 25         0.34711

 Excited State  30:      Singlet-A'    12.8748 eV   96.30 nm  f=0.0029  <S**2>=0.000
       8 -> 13        -0.10759
      12 -> 20        -0.11918
      12 -> 24        -0.31597
      12 -> 25         0.51195
      12 -> 27        -0.21125

 Excited State  31:      Singlet-A"    13.1699 eV   94.14 nm  f=0.0035  <S**2>=0.000
       8 -> 14         0.11275
       9 -> 17         0.30829
      11 -> 19         0.50393
      12 -> 26        -0.24412

 Excited State  32:      Singlet-A"    13.2951 eV   93.26 nm  f=0.0000  <S**2>=0.000
       8 -> 14         0.10778
       9 -> 17         0.49360
       9 -> 20         0.10947
      11 -> 18        -0.10432
      11 -> 19        -0.38228
      12 -> 21         0.10658

 Excited State  33:      Singlet-A"    13.4568 eV   92.14 nm  f=0.0572  <S**2>=0.000
       9 -> 17         0.13587
       9 -> 20         0.11346
      10 -> 20         0.10501
      11 -> 19         0.14161
      12 -> 26         0.60436

 Excited State  34:      Singlet-A'    13.4836 eV   91.95 nm  f=0.1119  <S**2>=0.000
       8 -> 15         0.14099
      10 -> 18        -0.12549
      10 -> 19        -0.24665
      10 -> 21        -0.15385
      11 -> 20         0.42292
      12 -> 25        -0.18776
      12 -> 27        -0.28017
      12 -> 28         0.13944

 Excited State  35:      Singlet-A"    13.5106 eV   91.77 nm  f=0.0007  <S**2>=0.000
      10 -> 16         0.11766
      10 -> 20         0.64915
      10 -> 39         0.10441

 Excited State  36:      Singlet-A'    13.5799 eV   91.30 nm  f=0.0139  <S**2>=0.000
      10 -> 19         0.57886
      11 -> 20         0.10441
      12 -> 27        -0.23983
      12 -> 28         0.13036

 Excited State  37:      Singlet-A'    13.8224 eV   89.70 nm  f=0.0693  <S**2>=0.000
       8 -> 13         0.27061
       8 -> 15         0.21138
       9 -> 19        -0.14021
      10 -> 18         0.19787
      11 -> 20         0.16527
      11 -> 22         0.18245
      12 -> 22        -0.11642
      12 -> 24        -0.14930
      12 -> 27         0.34382
      12 -> 28         0.18877

 Excited State  38:      Singlet-A"    13.8376 eV   89.60 nm  f=0.0081  <S**2>=0.000
       9 -> 20        -0.15273
      11 -> 18         0.16721
      11 -> 21         0.51930
      11 -> 23        -0.34492

 Excited State  39:      Singlet-A'    13.9207 eV   89.06 nm  f=0.0914  <S**2>=0.000
       8 -> 13         0.43145
       8 -> 15         0.16136
       9 -> 19        -0.13079
      10 -> 21         0.15579
      11 -> 20        -0.28267
      11 -> 24        -0.10983
      12 -> 27        -0.28381

 Excited State  40:      Singlet-A'    14.1294 eV   87.75 nm  f=0.0713  <S**2>=0.000
       8 -> 13        -0.28688
       8 -> 16        -0.10648
       9 -> 19        -0.26758
      10 -> 19        -0.15695
      10 -> 21         0.40326
      12 -> 28         0.23972

 Excited State  41:      Singlet-A'    14.1985 eV   87.32 nm  f=0.0647  <S**2>=0.000
       8 -> 13        -0.10586
       9 -> 19         0.21395
      10 -> 18        -0.17215
      11 -> 20        -0.14493
      11 -> 22         0.35919
      11 -> 24        -0.14128
      12 -> 28         0.40449

 Excited State  42:      Singlet-A"    14.3910 eV   86.15 nm  f=0.0030  <S**2>=0.000
       8 -> 14         0.16036
       8 -> 18         0.13395
       9 -> 16         0.11572
       9 -> 17        -0.22089
       9 -> 20         0.43183
      11 -> 23        -0.31670
      12 -> 29        -0.16686

 Excited State  43:      Singlet-A'    14.4144 eV   86.01 nm  f=0.0377  <S**2>=0.000
       8 -> 15        -0.17559
       9 -> 19        -0.20544
      10 -> 21         0.10515
      11 -> 22         0.50768
      12 -> 27        -0.13015
      12 -> 28        -0.23279

 Excited State  44:      Singlet-A"    14.4289 eV   85.93 nm  f=0.0734  <S**2>=0.000
       8 -> 14         0.21776
       9 -> 20         0.21022
      11 -> 21         0.35409
      11 -> 23         0.44965

 Excited State  45:      Singlet-A'    14.5386 eV   85.28 nm  f=0.0871  <S**2>=0.000
       8 -> 13        -0.25011
       8 -> 15         0.44346
       9 -> 21        -0.21215
      11 -> 24        -0.22732
      12 -> 28        -0.22973

 Excited State  46:      Singlet-A"    14.6376 eV   84.70 nm  f=0.0561  <S**2>=0.000
       8 -> 14         0.18705
      10 -> 22         0.64118
      10 -> 24         0.15391

 Excited State  47:      Singlet-A'    14.6529 eV   84.61 nm  f=0.0293  <S**2>=0.000
       7 -> 13        -0.15693
       8 -> 15         0.14789
       9 -> 19        -0.20755
      10 -> 18        -0.10671
      10 -> 21        -0.15746
      10 -> 23         0.27053
      11 -> 20        -0.17349
      11 -> 24         0.43994

 Excited State  48:      Singlet-A"    14.7871 eV   83.85 nm  f=0.0001  <S**2>=0.000
       8 -> 18        -0.23080
       9 -> 20         0.28002
      10 -> 24         0.20806
      12 -> 29         0.47240
      12 -> 37        -0.11323

 Excited State  49:      Singlet-A'    14.8657 eV   83.40 nm  f=0.0236  <S**2>=0.000
       7 -> 13         0.14264
       8 -> 15         0.10050
       9 -> 19         0.21351
       9 -> 21        -0.11876
      10 -> 18         0.11663
      10 -> 21         0.31174
      10 -> 23         0.48573

 Excited State  50:      Singlet-A"    14.9194 eV   83.10 nm  f=0.1091  <S**2>=0.000
       8 -> 14         0.43822
       9 -> 17        -0.10362
       9 -> 20        -0.21573
      10 -> 22        -0.23027
      10 -> 24         0.36738

 Excited State  51:      Singlet-A'    14.9482 eV   82.94 nm  f=0.0218  <S**2>=0.000
       8 -> 15         0.12684
       9 -> 19         0.32097
       9 -> 21        -0.14409
      10 -> 21         0.14649
      10 -> 23        -0.31589
      11 -> 24         0.36454
      11 -> 25        -0.15088
      12 -> 27        -0.11423

 Excited State  52:      Singlet-A"    15.0220 eV   82.53 nm  f=0.0056  <S**2>=0.000
       8 -> 14        -0.30179
      10 -> 24         0.47602
      12 -> 29        -0.32407

 Excited State  53:      Singlet-A'    15.1382 eV   81.90 nm  f=0.2903  <S**2>=0.000
       7 -> 15        -0.17139
       8 -> 15         0.26605
       8 -> 16        -0.24159
       9 -> 18         0.16229
       9 -> 19         0.10096
       9 -> 21         0.41400
       9 -> 23        -0.13748
       9 -> 26         0.10260
      11 -> 25         0.11455

 Excited State  54:      Singlet-A"    15.2225 eV   81.45 nm  f=0.0020  <S**2>=0.000
       8 -> 14        -0.12645
       8 -> 18         0.38491
       8 -> 19        -0.10736
       8 -> 21        -0.10845
       9 -> 22        -0.31642
       9 -> 25         0.11275
      10 -> 25         0.35502
      12 -> 29         0.11466

 Excited State  55:      Singlet-A"    15.3026 eV   81.02 nm  f=0.0917  <S**2>=0.000
       8 -> 14        -0.13090
       8 -> 18         0.33317
       9 -> 22         0.41010
       9 -> 24        -0.20720
      10 -> 24         0.14496
      10 -> 25        -0.15237
      11 -> 26        -0.14001
      12 -> 29         0.16684

 Excited State  56:      Singlet-A'    15.3085 eV   80.99 nm  f=0.2229  <S**2>=0.000
       7 -> 15         0.11174
      11 -> 25         0.58558
      11 -> 27        -0.16536
      12 -> 30         0.18046

 Excited State  57:      Singlet-A'    15.4210 eV   80.40 nm  f=0.5227  <S**2>=0.000
       7 -> 13         0.41032
       8 -> 16         0.24898
       9 -> 19        -0.10741
       9 -> 23        -0.34941
      10 -> 26        -0.11083
      11 -> 22        -0.12894
      11 -> 27         0.10224

 Excited State  58:      Singlet-A'    15.5093 eV   79.94 nm  f=0.0205  <S**2>=0.000
       7 -> 13        -0.14118
       9 -> 23        -0.15767
      11 -> 25        -0.16953
      12 -> 30         0.57230
      12 -> 32         0.18755

 Excited State  59:      Singlet-A'    15.5515 eV   79.73 nm  f=0.0003  <S**2>=0.000
       7 -> 13         0.36969
       7 -> 15         0.15092
       8 -> 16        -0.17170
       8 -> 17        -0.16631
       9 -> 23         0.33616
      10 -> 21        -0.13249
      10 -> 26         0.14082
      11 -> 27         0.16594
      11 -> 28        -0.10457
      12 -> 30         0.22596

 Excited State  60:      Singlet-A"    15.6105 eV   79.42 nm  f=0.1094  <S**2>=0.000
       7 -> 14         0.10928
       9 -> 22         0.25515
       9 -> 24         0.17338
      10 -> 25         0.44060
      10 -> 27        -0.10922
      11 -> 26        -0.32181

 Excited State  61:      Singlet-A'    15.6151 eV   79.40 nm  f=0.1211  <S**2>=0.000
       8 -> 16         0.45449
       9 -> 21         0.28149
       9 -> 23         0.31177
      10 -> 21         0.13692

 Excited State  62:      Singlet-A"    15.7842 eV   78.55 nm  f=0.3866  <S**2>=0.000
       8 -> 19        -0.12999
       9 -> 22        -0.13776
       9 -> 24         0.45616
      10 -> 25        -0.29762
      11 -> 26        -0.29350

 Excited State  63:      Singlet-A"    15.8988 eV   77.98 nm  f=0.0251  <S**2>=0.000
       9 -> 22         0.11209
       9 -> 24         0.20536
      10 -> 25         0.11028
      10 -> 27         0.32824
      10 -> 28        -0.10594
      11 -> 26         0.16861
      12 -> 31         0.43969
      12 -> 33        -0.13125

 Excited State  64:      Singlet-A'    15.9225 eV   77.87 nm  f=0.0386  <S**2>=0.000
       7 -> 13        -0.15390
       7 -> 15        -0.19028
       8 -> 16         0.13808
       9 -> 21        -0.14555
      10 -> 26        -0.12819
      11 -> 20         0.11220
      11 -> 25         0.16131
      11 -> 27         0.51093
      11 -> 28        -0.10098

 Excited State  65:      Singlet-A"    15.9371 eV   77.80 nm  f=0.0202  <S**2>=0.000
       9 -> 22         0.22148
       9 -> 24         0.28469
       9 -> 25        -0.15385
      10 -> 27        -0.16119
      10 -> 28         0.10107
      11 -> 26         0.42932
      12 -> 31        -0.17905

 Excited State  66:      Singlet-A"    16.0311 eV   77.34 nm  f=0.0002  <S**2>=0.000
       7 -> 18        -0.14500
       9 -> 25        -0.29317
      10 -> 27         0.43138
      11 -> 26        -0.10718
      12 -> 31        -0.31856

 Excited State  67:      Singlet-A'    16.0602 eV   77.20 nm  f=0.1166  <S**2>=0.000
       9 -> 21         0.17352
       9 -> 23         0.11410
      10 -> 26        -0.30858
      12 -> 28        -0.10729
      12 -> 30        -0.17378
      12 -> 32         0.48266

 Excited State  68:      Singlet-A'    16.2246 eV   76.42 nm  f=0.2118  <S**2>=0.000
       7 -> 13        -0.14934
       7 -> 15         0.36781
       8 -> 16         0.14790
       9 -> 23        -0.13031
      10 -> 26         0.31546
      11 -> 24         0.10517
      11 -> 27         0.19588
      11 -> 28         0.11176
      12 -> 28        -0.11189
      12 -> 32         0.14253
      12 -> 34        -0.21106

 Excited State  69:      Singlet-A'    16.2478 eV   76.31 nm  f=0.0899  <S**2>=0.000
       7 -> 13        -0.14245
       7 -> 15         0.40053
       7 -> 16         0.13619
       8 -> 20        -0.12341
       9 -> 21         0.12925
       9 -> 26        -0.11801
      10 -> 26        -0.34705
      12 -> 32        -0.24216

 Excited State  70:      Singlet-A"    16.2603 eV   76.25 nm  f=0.0023  <S**2>=0.000
       7 -> 14         0.37071
       7 -> 18         0.34496
       9 -> 25         0.22658
       9 -> 27        -0.10461
      10 -> 27         0.15876
      11 -> 29        -0.16513
      12 -> 31        -0.17283

 Excited State  71:      Singlet-A"    16.4169 eV   75.52 nm  f=0.0924  <S**2>=0.000
       7 -> 14         0.44665
       9 -> 20        -0.12717
       9 -> 22        -0.10959
       9 -> 24        -0.13380
       9 -> 25        -0.33717
       9 -> 27         0.19945
      12 -> 31         0.18285

 Excited State  72:      Singlet-A'    16.5328 eV   74.99 nm  f=0.0404  <S**2>=0.000
       7 -> 15         0.10097
       7 -> 16         0.19328
       8 -> 17         0.54227
      10 -> 26         0.12798
      11 -> 28        -0.23028

 Excited State  73:      Singlet-A"    16.5647 eV   74.85 nm  f=0.0000  <S**2>=0.000
       7 -> 14        -0.24968
       7 -> 18         0.30771
       7 -> 19        -0.13202
       7 -> 21        -0.16172
       9 -> 25        -0.30469
      10 -> 27        -0.19998
      10 -> 28        -0.22880
      11 -> 29        -0.20659

 Excited State  74:      Singlet-A'    16.6802 eV   74.33 nm  f=0.0943  <S**2>=0.000
       8 -> 16        -0.13641
       8 -> 17         0.22141
      10 -> 26        -0.13320
      11 -> 27         0.12846
      11 -> 28         0.47406
      12 -> 32        -0.11428
      12 -> 34        -0.25184

 Excited State  75:      Singlet-A'    16.8267 eV   73.68 nm  f=0.1332  <S**2>=0.000
      11 -> 27         0.19046
      11 -> 28         0.21981
      11 -> 30         0.13043
      12 -> 34         0.55795

 Excited State  76:      Singlet-A'    16.9121 eV   73.31 nm  f=0.2366  <S**2>=0.000
       7 -> 15         0.13243
       8 -> 20         0.13977
       8 -> 22        -0.11323
       9 -> 26         0.57994
      10 -> 26        -0.13082

 Excited State  77:      Singlet-A"    16.9152 eV   73.30 nm  f=0.1054  <S**2>=0.000
       7 -> 18         0.22123
       9 -> 25        -0.17404
      10 -> 27         0.17323
      10 -> 28         0.51872
      10 -> 32         0.13411

 Excited State  78:      Singlet-A"    17.1269 eV   72.39 nm  f=0.0278  <S**2>=0.000
       8 -> 18        -0.16036
       8 -> 19        -0.35003
       9 -> 27        -0.21865
       9 -> 28         0.16603
      11 -> 29         0.40337

 Excited State  79:      Singlet-A'    17.1391 eV   72.34 nm  f=0.0400  <S**2>=0.000
       7 -> 16         0.58509
       8 -> 16         0.11795

 The electronic state is 1-A'.
 Alpha  occ. eigenvalues --  -14.24646 -10.18339 -10.18322  -1.12478  -0.81014
 Alpha  occ. eigenvalues --   -0.76994  -0.67035  -0.61406  -0.50646  -0.48048
 Alpha  occ. eigenvalues --   -0.46831  -0.38091
 Alpha virt. eigenvalues --    0.08484   0.10386   0.12216   0.15289   0.18566
 Alpha virt. eigenvalues --    0.20016   0.20430   0.22448   0.25274   0.26115
 Alpha virt. eigenvalues --    0.26328   0.27918   0.29950   0.31518   0.33240

 Mulliken charges:
               1
     1  C    0.734887
     2  C    0.734887
     3  N   -0.305490
     4  H   -0.314090
     5  H   -0.249601
     6  H   -0.249601
     7  H   -0.314090
     8  H   -0.036902
 Sum of Mulliken charges =  -0.00000

 Dipole moment (field-independent basis, Debye):
    X=             -1.3845    Y=             -1.1985    Z=              0.0000  Tot=              1.8312
 Quadrupole moment (field-independent basis, Debye-Ang):
   XX=            -17.8981   YY=            -21.5687   ZZ=            -18.7730
   XY=             -2.2167   XZ=             -0.0000   YZ=              0.0000

 1\1\GINC-HEL24\SP\RLC-BLYP TD-FC\Gen\C2H5N1\SABYASACHI\21-Mar-2022\0\\
 #P TD(Nstates=10000) lc-blyp/Gen SCF(maxcycles=100) Int(Grid=ultrafine
 )\\xGDB7_00001_tier4.com\\0,1\C,0,0.738519,-0.394885,0.023737\C,0,-0.7
 38519,-0.394885,0.023737\N,0,0.,0.849548,-0.172046\H,0,1.276872,-0.747
 254,-0.847373\H,0,1.244917,-0.556892,0.968566\H,0,-1.244917,-0.556892,
 0.968566\H,0,-1.276872,-0.747254,-0.847373\H,0,0.,1.400076,0.677088\\V
 ersion=EM64L-G16RevC.01\State=1-A'\HF=-133.4482196\RMSD=3.856e-09\PG=C
 S [SG(H1N1),X(C2H4)]\\@

 Normal termination of Gaussian 16 at Mon Mar 21 20:17:26 2022.
