 Gaussian 16, Revision C.01,
 Gaussian 16:  EM64L-G16RevC.01  3-Jul-2019

 ----------------------------------------------------------------------
 #P TD(Nstates=10000) lc-blyp/Gen SCF(maxcycles=100) Int(Grid=ultrafine
 )
 ----------------------------------------------------------------------

 ---------------------
 xGDB7_00001_tier4.com
 ---------------------
 Symbolic Z-matrix:
 Charge =  0 Multiplicity = 1

                         Standard orientation:
 ---------------------------------------------------------------------
 Center     Atomic      Atomic             Coordinates (Angstroms)
 Number     Number       Type             X           Y           Z
 ---------------------------------------------------------------------
      1          6           0        0.046419    0.658432    0.000000
      2          8           0        0.046419   -0.751929    0.000000
      3          1           0       -0.438905    1.073261    0.890797
      4          1           0       -0.438905    1.073261   -0.890797
      5          1           0        1.087855    0.977571    0.000000
      6          1           0       -0.859911   -1.059251    0.000000
 ---------------------------------------------------------------------

 SCF Done:  E(RLC-B+HF-LYP) =  -115.371480602     A.U. after   12 cycles

 Excitation energies and oscillator strengths:

 Excited State   1:      Singlet-A"     7.2691 eV  170.56 nm  f=0.0033  <S**2>=0.000
       9 -> 10         0.63932
       9 -> 11        -0.24237
       9 -> 14         0.11311
 This state for optimization and/or second-order correction.
 Total Energy, E(TD-HF/TD-DFT) =  -115.104347165
 Copying the excited state density for this state as the 1-particle RhoCI density.

 Excited State   2:      Singlet-A"     8.9200 eV  139.00 nm  f=0.0435  <S**2>=0.000
       9 -> 10         0.24832
       9 -> 11         0.63927

 Excited State   3:      Singlet-A'     9.0525 eV  136.96 nm  f=0.0041  <S**2>=0.000
       8 -> 10         0.64408
       8 -> 11        -0.19064
       8 -> 14         0.12214

 Excited State   4:      Singlet-A"     9.6978 eV  127.85 nm  f=0.0117  <S**2>=0.000
       9 -> 13         0.65190
       9 -> 14        -0.14799
       9 -> 15        -0.14123

 Excited State   5:      Singlet-A'     9.8029 eV  126.48 nm  f=0.0679  <S**2>=0.000
       8 -> 11         0.10144
       9 -> 12         0.67797

 Excited State   6:      Singlet-A'    10.3358 eV  119.96 nm  f=0.0696  <S**2>=0.000
       7 -> 10         0.13165
       8 -> 10         0.19611
       8 -> 11         0.63521
       9 -> 12        -0.12040

 Excited State   7:      Singlet-A"    10.4053 eV  119.16 nm  f=0.0049  <S**2>=0.000
       9 -> 13         0.17779
       9 -> 14         0.63875

 Excited State   8:      Singlet-A"    10.8501 eV  114.27 nm  f=0.0200  <S**2>=0.000
       9 -> 13         0.13959
       9 -> 15         0.62875
       9 -> 17        -0.18146

 Excited State   9:      Singlet-A'    11.2384 eV  110.32 nm  f=0.0750  <S**2>=0.000
       8 -> 10         0.10217
       8 -> 13         0.61724
       8 -> 14        -0.24228

 Excited State  10:      Singlet-A'    11.3418 eV  109.32 nm  f=0.0103  <S**2>=0.000
       9 -> 16         0.66736
       9 -> 18         0.15531

 Excited State  11:      Singlet-A"    11.3637 eV  109.11 nm  f=0.0413  <S**2>=0.000
       8 -> 12         0.68604

 Excited State  12:      Singlet-A'    11.7786 eV  105.26 nm  f=0.0700  <S**2>=0.000
       7 -> 10         0.46496
       7 -> 11        -0.22439
       8 -> 13         0.23326
       8 -> 14         0.30723
       8 -> 15         0.18367

 Excited State  13:      Singlet-A"    11.9282 eV  103.94 nm  f=0.0098  <S**2>=0.000
       6 -> 10        -0.28413
       9 -> 14        -0.11052
       9 -> 17         0.55969
       9 -> 19         0.18175

 Excited State  14:      Singlet-A'    12.1977 eV  101.65 nm  f=0.0214  <S**2>=0.000
       7 -> 10        -0.26577
       7 -> 14        -0.10032
       8 -> 13         0.12723
       8 -> 14         0.43694
       8 -> 15        -0.13786
       9 -> 18        -0.38356

 Excited State  15:      Singlet-A'    12.2528 eV  101.19 nm  f=0.0252  <S**2>=0.000
       7 -> 10        -0.34290
       7 -> 11        -0.12703
       8 -> 13         0.10865
       8 -> 14         0.22219
       8 -> 15         0.22420
       9 -> 18         0.44535

 Excited State  16:      Singlet-A"    12.2628 eV  101.11 nm  f=0.0294  <S**2>=0.000
       6 -> 10         0.41593
       6 -> 14         0.14098
       9 -> 15         0.20239
       9 -> 17         0.32675
       9 -> 19        -0.31862
       9 -> 20        -0.10897

 Excited State  17:      Singlet-A"    12.6471 eV   98.03 nm  f=0.0020  <S**2>=0.000
       6 -> 10         0.17013
       8 -> 16         0.62006
       9 -> 19         0.20081

 Excited State  18:      Singlet-A'    12.7707 eV   97.08 nm  f=0.0082  <S**2>=0.000
       7 -> 11         0.14606
       8 -> 15         0.52967
       8 -> 17        -0.33218
       9 -> 18        -0.20696

 Excited State  19:      Singlet-A"    12.8184 eV   96.72 nm  f=0.0421  <S**2>=0.000
       6 -> 10         0.37960
       8 -> 16        -0.25548
       9 -> 19         0.43278
       9 -> 20         0.15603

 Excited State  20:      Singlet-A"    13.1294 eV   94.43 nm  f=0.0760  <S**2>=0.000
       6 -> 10         0.10367
       6 -> 11         0.47883
       6 -> 14        -0.12581
       8 -> 18         0.19758
       9 -> 19         0.17941
       9 -> 20        -0.29913
       9 -> 22         0.14488

 Excited State  21:      Singlet-A'    13.1557 eV   94.24 nm  f=0.1896  <S**2>=0.000
       5 -> 10        -0.13586
       7 -> 10         0.14622
       7 -> 11         0.59457
       8 -> 14         0.17273
       9 -> 18         0.15664

 Excited State  22:      Singlet-A"    13.3396 eV   92.94 nm  f=0.0107  <S**2>=0.000
       7 -> 12        -0.31070
       8 -> 18         0.56056
       9 -> 20         0.19099

 Excited State  23:      Singlet-A'    13.6905 eV   90.56 nm  f=0.0240  <S**2>=0.000
       6 -> 12         0.16499
       7 -> 13         0.29076
       7 -> 14        -0.14925
       8 -> 15         0.22504
       8 -> 17         0.49959
       9 -> 18        -0.15993

 Excited State  24:      Singlet-A"    13.7013 eV   90.49 nm  f=0.0079  <S**2>=0.000
       6 -> 11         0.39957
       9 -> 19        -0.15914
       9 -> 20         0.46535
       9 -> 22        -0.12152

 Excited State  25:      Singlet-A'    14.1442 eV   87.66 nm  f=0.1230  <S**2>=0.000
       5 -> 10         0.42277
       5 -> 14         0.10843
       6 -> 12        -0.12102
       6 -> 16        -0.11487
       7 -> 13         0.25768
       7 -> 14        -0.16428
       8 -> 14         0.15316
       8 -> 17        -0.18709
       8 -> 19        -0.18553
       8 -> 20        -0.12681
       9 -> 18         0.10248
       9 -> 21         0.13627

 Excited State  26:      Singlet-A'    14.2795 eV   86.83 nm  f=0.0774  <S**2>=0.000
       5 -> 10        -0.30030
       6 -> 12         0.16012
       7 -> 13         0.45136
       7 -> 14        -0.14626
       8 -> 15        -0.12648
       8 -> 17        -0.26412
       8 -> 19         0.10718

 Excited State  27:      Singlet-A"    14.3254 eV   86.55 nm  f=0.0060  <S**2>=0.000
       7 -> 12         0.58955
       7 -> 16         0.14406
       8 -> 18         0.31758

 Excited State  28:      Singlet-A'    14.5156 eV   85.41 nm  f=0.0256  <S**2>=0.000
       5 -> 10         0.27107
       5 -> 11        -0.18158
       7 -> 14         0.10090
       8 -> 19         0.49028
       8 -> 20         0.18275

 Excited State  29:      Singlet-A"    14.5212 eV   85.38 nm  f=0.0029  <S**2>=0.000
       6 -> 11        -0.19953
       6 -> 13         0.54697
       6 -> 14        -0.29053
       6 -> 19        -0.12576
       6 -> 27        -0.10879

 Excited State  30:      Singlet-A"    14.7467 eV   84.08 nm  f=0.0120  <S**2>=0.000
       6 -> 17        -0.13687
       9 -> 20         0.25626
       9 -> 22         0.59507

 Excited State  31:      Singlet-A'    14.7914 eV   83.82 nm  f=0.1125  <S**2>=0.000
       6 -> 12         0.27304
       7 -> 15         0.45549
       8 -> 19        -0.17537
       8 -> 20         0.25222
       8 -> 22        -0.11107
       9 -> 21         0.23566

 Excited State  32:      Singlet-A'    14.9734 eV   82.80 nm  f=0.0961  <S**2>=0.000
       5 -> 10         0.15067
       6 -> 12         0.44146
       6 -> 16         0.16423
       7 -> 14         0.19361
       7 -> 15        -0.12638
       7 -> 17         0.12585
       8 -> 19        -0.17566
       8 -> 20        -0.10319
       8 -> 22         0.10565
       9 -> 21        -0.27519

 Excited State  33:      Singlet-A'    15.0123 eV   82.59 nm  f=0.0709  <S**2>=0.000
       6 -> 12         0.25915
       7 -> 13        -0.25913
       7 -> 14        -0.18726
       7 -> 15        -0.23947
       9 -> 21         0.43151
       9 -> 23         0.16900

 Excited State  34:      Singlet-A"    15.0882 eV   82.17 nm  f=0.0000  <S**2>=0.000
       6 -> 15         0.29307
       7 -> 12        -0.10503
       7 -> 16         0.51999
       7 -> 18         0.10354
       8 -> 21         0.15441
       9 -> 24         0.16113

 Excited State  35:      Singlet-A'    15.1632 eV   81.77 nm  f=0.1303  <S**2>=0.000
       5 -> 11        -0.30722
       7 -> 14        -0.16326
       7 -> 15        -0.22228
       7 -> 17         0.11124
       8 -> 19        -0.27053
       8 -> 20         0.38552
       9 -> 21        -0.13344

 Excited State  36:      Singlet-A'    15.3161 eV   80.95 nm  f=0.1985  <S**2>=0.000
       5 -> 10        -0.10835
       7 -> 13         0.18427
       7 -> 14         0.43774
       7 -> 15        -0.24929
       7 -> 17         0.11365
       9 -> 21         0.28944
       9 -> 23        -0.21532

 Excited State  37:      Singlet-A"    15.4050 eV   80.48 nm  f=0.2847  <S**2>=0.000
       6 -> 13         0.23706
       6 -> 14         0.25015
       6 -> 15         0.20881
       6 -> 19         0.11200
       7 -> 16        -0.31186
       9 -> 22         0.18323
       9 -> 24         0.34340
       9 -> 30         0.14413

 Excited State  38:      Singlet-A'    15.5050 eV   79.96 nm  f=0.1394  <S**2>=0.000
       5 -> 11         0.23628
       6 -> 12        -0.16773
       6 -> 18         0.17047
       7 -> 14         0.16223
       8 -> 19        -0.13721
       8 -> 20         0.15380
       9 -> 23         0.52069

 Excited State  39:      Singlet-A'    15.6043 eV   79.46 nm  f=0.1791  <S**2>=0.000
       5 -> 10         0.16048
       5 -> 11         0.47547
       6 -> 16         0.11671
       7 -> 14        -0.15803
       7 -> 15        -0.10186
       8 -> 20         0.26608
       9 -> 23        -0.25866

 Excited State  40:      Singlet-A"    15.7126 eV   78.91 nm  f=0.1678  <S**2>=0.000
       6 -> 13        -0.13145
       6 -> 14        -0.15240
       6 -> 15         0.49533
       6 -> 17        -0.21349
       7 -> 16        -0.21580
       9 -> 22        -0.10223
       9 -> 24        -0.20335
       9 -> 25        -0.15646

 Excited State  41:      Singlet-A"    15.9008 eV   77.97 nm  f=0.0304  <S**2>=0.000
       6 -> 10         0.11213
       6 -> 13        -0.17245
       6 -> 14        -0.38148
       6 -> 17        -0.15858
       6 -> 19        -0.11254
       9 -> 20        -0.13087
       9 -> 24         0.44968

 Excited State  42:      Singlet-A'    16.0406 eV   77.29 nm  f=0.0859  <S**2>=0.000
       5 -> 11        -0.12894
       5 -> 13         0.14420
       6 -> 12        -0.11609
       6 -> 16         0.50071
       7 -> 15         0.15101
       7 -> 17         0.23441
       8 -> 22         0.19631
       9 -> 21         0.16448

 Excited State  43:      Singlet-A"    16.1328 eV   76.85 nm  f=0.0292  <S**2>=0.000
       7 -> 16        -0.13556
       7 -> 18         0.61492
       8 -> 21         0.15597
       8 -> 23        -0.20950

 Excited State  44:      Singlet-A'    16.1594 eV   76.73 nm  f=0.2058  <S**2>=0.000
       6 -> 16        -0.33628
       7 -> 15         0.11512
       7 -> 17         0.37670
       7 -> 19        -0.13145
       8 -> 20         0.15983
       8 -> 22         0.35572

 Excited State  45:      Singlet-A"    16.3344 eV   75.90 nm  f=0.0172  <S**2>=0.000
       5 -> 12         0.63795
       5 -> 16         0.14223
       8 -> 23         0.15370

 Excited State  46:      Singlet-A"    16.4079 eV   75.56 nm  f=0.0045  <S**2>=0.000
       6 -> 15         0.20789
       6 -> 17         0.11847
       9 -> 25         0.59399
       9 -> 27         0.12208

 Excited State  47:      Singlet-A'    16.5373 eV   74.97 nm  f=0.0016  <S**2>=0.000
       5 -> 13        -0.27964
       5 -> 14         0.14370
       7 -> 17         0.43411
       8 -> 20        -0.17719
       8 -> 22        -0.29431
       8 -> 24         0.14393

 Excited State  48:      Singlet-A"    16.6165 eV   74.62 nm  f=0.0081  <S**2>=0.000
       5 -> 16        -0.13175
       6 -> 14         0.12636
       6 -> 15        -0.12306
       6 -> 17        -0.37744
       7 -> 18        -0.13046
       8 -> 21         0.41729
       8 -> 23         0.13160
       9 -> 25         0.21031

 Excited State  49:      Singlet-A'    16.6388 eV   74.51 nm  f=0.0293  <S**2>=0.000
       5 -> 13         0.54343
       6 -> 18        -0.19823
       8 -> 20        -0.11966
       8 -> 22        -0.18172
       8 -> 24         0.18280

 Excited State  50:      Singlet-A'    16.8014 eV   73.79 nm  f=0.0078  <S**2>=0.000
       5 -> 13         0.15914
       6 -> 16        -0.12675
       6 -> 18         0.53294
       7 -> 14        -0.10436
       7 -> 17         0.13231
       7 -> 19         0.20671
       7 -> 20         0.11906
       9 -> 23        -0.15078

 Excited State  51:      Singlet-A"    16.8813 eV   73.44 nm  f=0.0929  <S**2>=0.000
       6 -> 13        -0.10437
       6 -> 14        -0.13070
       6 -> 17         0.42507
       8 -> 21         0.46526
       9 -> 28         0.10797

 Excited State  52:      Singlet-A'    17.0968 eV   72.52 nm  f=0.0316  <S**2>=0.000
       5 -> 14         0.34173
       5 -> 15         0.11277
       6 -> 18         0.17398
       7 -> 17        -0.10359
       7 -> 19        -0.13750
       8 -> 22         0.23849
       8 -> 24         0.41413

 Excited State  53:      Singlet-A"    17.1239 eV   72.40 nm  f=0.0287  <S**2>=0.000
       5 -> 12        -0.19071
       5 -> 18         0.13400
       7 -> 18         0.19002
       8 -> 23         0.47413
       9 -> 27         0.35044

 Excited State  54:      Singlet-A"    17.2210 eV   72.00 nm  f=0.0100  <S**2>=0.000
       7 -> 18        -0.12047
       8 -> 23        -0.37420
       9 -> 19        -0.10620
       9 -> 24        -0.10449
       9 -> 27         0.46215
       9 -> 30         0.20710

 Excited State  55:      Singlet-A'    17.2856 eV   71.73 nm  f=0.0308  <S**2>=0.000
       5 -> 15         0.17401
       5 -> 17        -0.15000
       9 -> 26         0.61603
       9 -> 29         0.12616

 Excited State  56:      Singlet-A'    17.3714 eV   71.37 nm  f=0.0017  <S**2>=0.000
       5 -> 15        -0.35937
       6 -> 18        -0.15228
       7 -> 19         0.39491
       7 -> 20         0.12838
       7 -> 22        -0.11076
       8 -> 22         0.16694
       8 -> 24         0.24115

 Excited State  57:      Singlet-A'    17.4260 eV   71.15 nm  f=0.0093  <S**2>=0.000
       5 -> 13         0.13654
       5 -> 14         0.49297
       5 -> 15        -0.13033
       5 -> 17         0.11240
       8 -> 24        -0.33317
       9 -> 26         0.18397

 Excited State  58:      Singlet-A"    17.5008 eV   70.85 nm  f=0.0317  <S**2>=0.000
       5 -> 16         0.21298
       6 -> 14        -0.17868
       6 -> 19         0.41700
       6 -> 20         0.13404
       6 -> 22        -0.12562
       8 -> 21         0.11295
       9 -> 28        -0.35328
       9 -> 30         0.10480

 Excited State  59:      Singlet-A'    17.6701 eV   70.17 nm  f=0.0659  <S**2>=0.000
       5 -> 15         0.34665
       5 -> 17        -0.13480
       6 -> 18        -0.12056
       7 -> 19         0.35109
       7 -> 20        -0.17426
       7 -> 22         0.12262
       8 -> 27        -0.14744
       9 -> 26        -0.19322
       9 -> 29         0.22858

 Excited State  60:      Singlet-A"    17.6967 eV   70.06 nm  f=0.0127  <S**2>=0.000
       5 -> 16         0.42643
       6 -> 14         0.13725
       6 -> 19        -0.32785
       6 -> 20        -0.15541
       8 -> 21         0.10868
       9 -> 28        -0.23388
       9 -> 30         0.10213

 Excited State  61:      Singlet-A'    17.8351 eV   69.52 nm  f=0.0149  <S**2>=0.000
       7 -> 19        -0.15102
       7 -> 20         0.20999
       7 -> 22        -0.12584
       8 -> 25        -0.39549
       9 -> 26        -0.11544
       9 -> 29         0.42644

 Excited State  62:      Singlet-A"    17.8967 eV   69.28 nm  f=0.1223  <S**2>=0.000
       5 -> 16         0.39865
       6 -> 17        -0.12671
       6 -> 19         0.10083
       6 -> 20         0.10050
       9 -> 27         0.18609
       9 -> 28         0.27127
       9 -> 30        -0.37101

 Excited State  63:      Singlet-A'    17.9007 eV   69.26 nm  f=0.2094  <S**2>=0.000
       7 -> 19        -0.19252
       8 -> 22        -0.14370
       8 -> 24         0.10049
       8 -> 25         0.43020
       9 -> 29         0.41951

 Excited State  64:      Singlet-A"    18.1274 eV   68.40 nm  f=0.0098  <S**2>=0.000
       5 -> 16         0.18143
       9 -> 24        -0.16228
       9 -> 27        -0.19755
       9 -> 28         0.43698
       9 -> 30         0.38968
       9 -> 33        -0.10124

 Excited State  65:      Singlet-A'    18.2512 eV   67.93 nm  f=0.1706  <S**2>=0.000
       5 -> 14         0.14146
       5 -> 15         0.20568
       5 -> 17        -0.23175
       7 -> 20         0.45759
       8 -> 25         0.26697
       8 -> 30         0.12280
       9 -> 29        -0.10085

 Excited State  66:      Singlet-A"    18.3869 eV   67.43 nm  f=0.0127  <S**2>=0.000
       5 -> 18        -0.17248
       6 -> 15        -0.12008
       6 -> 19        -0.27756
       6 -> 20         0.47678
       6 -> 22        -0.14265
       9 -> 31        -0.24480

 Excited State  67:      Singlet-A"    18.6581 eV   66.45 nm  f=0.0003  <S**2>=0.000
       5 -> 18         0.57569
       6 -> 20         0.11794
       8 -> 23        -0.11748
       8 -> 26        -0.28059
       9 -> 31        -0.12232

 Excited State  68:      Singlet-A'    18.6692 eV   66.41 nm  f=0.0059  <S**2>=0.000
       5 -> 15         0.22650
       5 -> 17         0.47161
       7 -> 20         0.11833
       8 -> 27         0.32054
       8 -> 30         0.12699

 Excited State  69:      Singlet-A"    18.7478 eV   66.13 nm  f=0.0103  <S**2>=0.000
       5 -> 18         0.25455
       7 -> 21        -0.16357
       8 -> 26         0.60712

 Excited State  70:      Singlet-A'    18.9040 eV   65.59 nm  f=0.0842  <S**2>=0.000
       4 -> 10         0.12818
       5 -> 17        -0.22311
       7 -> 20        -0.26556
       7 -> 22        -0.27716
       7 -> 25        -0.10615
       8 -> 27         0.43921
       8 -> 31        -0.11343

 Excited State  71:      Singlet-A'    18.9954 eV   65.27 nm  f=0.0213  <S**2>=0.000
       4 -> 10        -0.11572
       5 -> 15        -0.15057
       5 -> 17        -0.25047
       5 -> 19         0.13778
       7 -> 20         0.13398
       7 -> 22         0.41760
       8 -> 27         0.33150

 Excited State  72:      Singlet-A"    19.0372 eV   65.13 nm  f=0.0061  <S**2>=0.000
       6 -> 19        -0.16340
       6 -> 22        -0.20722
       7 -> 21        -0.12721
       8 -> 29        -0.16613
       9 -> 31         0.52788
       9 -> 33        -0.16493
       9 -> 34         0.16794

 Excited State  73:      Singlet-A"    19.1699 eV   64.68 nm  f=0.0208  <S**2>=0.000
       6 -> 22        -0.16030
       7 -> 21         0.37233
       7 -> 23        -0.12173
       8 -> 29         0.48753
       9 -> 31         0.11618

 Excited State  74:      Singlet-A'    19.2889 eV   64.28 nm  f=0.0928  <S**2>=0.000
       5 -> 19        -0.34387
       6 -> 21         0.16728
       8 -> 28         0.34276
       8 -> 30        -0.15340
       9 -> 32         0.35785

 Excited State  75:      Singlet-A'    19.3622 eV   64.03 nm  f=0.0015  <S**2>=0.000
       4 -> 10        -0.11459
       6 -> 21        -0.15095
       7 -> 25         0.11571
       8 -> 28         0.47230
       8 -> 30        -0.13088
       9 -> 32        -0.36571

 Excited State  76:      Singlet-A"    19.3671 eV   64.02 nm  f=0.0067  <S**2>=0.000
       7 -> 21         0.50247
       7 -> 23         0.29492
       8 -> 26         0.14314
       8 -> 29        -0.32267

 Excited State  77:      Singlet-A'    19.5198 eV   63.52 nm  f=0.0243  <S**2>=0.000
       4 -> 10         0.43890
       5 -> 19         0.10348
       7 -> 22         0.12127
       7 -> 24         0.25195
       8 -> 30        -0.33587
       9 -> 32        -0.10934

 Excited State  78:      Singlet-A"    19.5217 eV   63.51 nm  f=0.0069  <S**2>=0.000
       6 -> 20         0.26816
       6 -> 22         0.43701
       6 -> 24        -0.21303
       9 -> 31         0.14352
       9 -> 33        -0.31499

 Excited State  79:      Singlet-A'    19.5976 eV   63.27 nm  f=0.0054  <S**2>=0.000
       4 -> 10         0.32567
       5 -> 19         0.30652
       5 -> 20         0.19530
       5 -> 22        -0.10859
       7 -> 24        -0.29912
       8 -> 28         0.18403
       8 -> 30         0.12624
       9 -> 32         0.13869

 Excited State  80:      Singlet-A"    19.7451 eV   62.79 nm  f=0.0897  <S**2>=0.000
       7 -> 21        -0.14545
       7 -> 23         0.59672
       8 -> 29         0.27351

 Excited State  81:      Singlet-A'    19.7803 eV   62.68 nm  f=0.0516  <S**2>=0.000

 The electronic state is 1-A'.
 Alpha  occ. eigenvalues --  -19.02030 -10.19957  -1.17448  -0.84055  -0.65759
 Alpha  occ. eigenvalues --   -0.58839  -0.57123  -0.47219  -0.41527
 Alpha virt. eigenvalues --    0.07296   0.10337   0.14517   0.14718   0.17527
 Alpha virt. eigenvalues --    0.20708   0.21168   0.22508   0.22672   0.27820
 Alpha virt. eigenvalues --    0.31422   0.34378   0.34633   0.36468   0.37201

 Mulliken charges:
               1
     1  C    0.706438
     2  O   -0.369173
     3  H   -0.132074
     4  H   -0.132074
     5  H   -0.201540
     6  H    0.128422
 Sum of Mulliken charges =   0.00000

 Dipole moment (field-independent basis, Debye):
    X=             -1.4609    Y=              1.0890    Z=             -0.0000  Tot=              1.8222
 Quadrupole moment (field-independent basis, Debye-Ang):
   XX=            -11.9788   YY=            -13.6740   ZZ=            -14.0466
   XY=              2.1849   XZ=              0.0000   YZ=              0.0000

 1\1\GINC-HEL13\SP\RLC-BLYP TD-FC\Gen\C1H4O1\SABYASACHI\21-Mar-2022\0\\
 #P TD(Nstates=10000) lc-blyp/Gen SCF(maxcycles=100) Int(Grid=ultrafine
 )\\xGDB7_00001_tier4.com\\0,1\C,0,0.046419,0.658432,0.\O,0,0.046419,-0
 .751929,0.\H,0,-0.438905,1.073261,0.890797\H,0,-0.438905,1.073261,-0.8
 90797\H,0,1.087855,0.977571,0.\H,0,-0.859911,-1.059251,0.\\Version=EM6
 4L-G16RevC.01\State=1-A'\HF=-115.3714806\RMSD=6.525e-09\PG=CS [SG(C1H2
 O1),X(H2)]\\@
 The archive entry for this job was punched.

 Normal termination of Gaussian 16 at Mon Mar 21 04:09:29 2022.
