 Gaussian 16, Revision C.01,
 Gaussian 16:  EM64L-G16RevC.01  3-Jul-2019

 ----------------------------------------------------------------------
 #P TD(Nstates=10000) lc-blyp/Gen SCF(maxcycles=100) Int(Grid=ultrafine
 )
 ----------------------------------------------------------------------

 ---------------------
 xGDB7_00001_tier4.com
 ---------------------
 Symbolic Z-matrix:
 Charge =  0 Multiplicity = 1

                         Standard orientation:
 ---------------------------------------------------------------------
 Center     Atomic      Atomic             Coordinates (Angstroms)
 Number     Number       Type             X           Y           Z
 ---------------------------------------------------------------------
      1          6           0       -1.122844   -0.452320    0.000000
      2          6           0        0.000000    0.553997    0.000000
      3          9           0        1.225284   -0.098236    0.000000
      4          1           0       -2.083314    0.066805    0.000000
      5          1           0       -1.072796   -1.085651    0.886148
      6          1           0       -1.072796   -1.085651   -0.886148
      7          1           0       -0.030794    1.189278    0.888716
      8          1           0       -0.030794    1.189278   -0.888716
 ---------------------------------------------------------------------

 SCF Done:  E(RLC-B+HF-LYP) =  -178.534256761     A.U. after   12 cycles

 Excitation energies and oscillator strengths:

 Excited State   1:      Singlet-A"     9.4631 eV  131.02 nm  f=0.0063  <S**2>=0.000
      13 -> 14         0.61768
      13 -> 15         0.24278
      13 -> 17         0.12777
 This state for optimization and/or second-order correction.
 Total Energy, E(TD-HF/TD-DFT) =  -178.186493211
 Copying the excited state density for this state as the 1-particle RhoCI density.

 Excited State   2:      Singlet-A'     9.8790 eV  125.50 nm  f=0.0077  <S**2>=0.000
      12 -> 14         0.58983
      12 -> 15         0.23737
      12 -> 17         0.22913

 Excited State   3:      Singlet-A"    10.2247 eV  121.26 nm  f=0.0056  <S**2>=0.000
      10 -> 14         0.17451
      13 -> 14        -0.25794
      13 -> 15         0.30448
      13 -> 17         0.44335
      13 -> 18        -0.13302
      13 -> 19        -0.19521
      13 -> 23         0.14091

 Excited State   4:      Singlet-A'    10.6390 eV  116.54 nm  f=0.0128  <S**2>=0.000
      12 -> 14        -0.33881
      12 -> 15         0.26215
      12 -> 17         0.44134
      12 -> 18        -0.15718
      12 -> 19        -0.19188
      12 -> 23         0.13617

 Excited State   5:      Singlet-A"    10.7673 eV  115.15 nm  f=0.1222  <S**2>=0.000
      10 -> 14         0.19096
      10 -> 15        -0.11108
      13 -> 15         0.49288
      13 -> 17        -0.38508
      13 -> 21         0.10001

 Excited State   6:      Singlet-A'    11.0827 eV  111.87 nm  f=0.0936  <S**2>=0.000
      11 -> 14         0.61844
      11 -> 15        -0.19664
      12 -> 15        -0.18891

 Excited State   7:      Singlet-A'    11.2201 eV  110.50 nm  f=0.2101  <S**2>=0.000
      12 -> 15        -0.18177
      12 -> 17         0.13546
      13 -> 16         0.64007

 Excited State   8:      Singlet-A'    11.2840 eV  109.88 nm  f=0.0716  <S**2>=0.000
      11 -> 14         0.18674
      12 -> 15         0.50774
      12 -> 17        -0.32660
      13 -> 16         0.23345

 Excited State   9:      Singlet-A"    11.4638 eV  108.15 nm  f=0.0301  <S**2>=0.000
      12 -> 16         0.68046
      12 -> 35        -0.10115

 Excited State  10:      Singlet-A"    11.6633 eV  106.30 nm  f=0.0035  <S**2>=0.000
      10 -> 14         0.56194
      10 -> 21        -0.10651
      13 -> 15        -0.16591
      13 -> 17         0.10510
      13 -> 18         0.16658
      13 -> 19         0.19943
      13 -> 23        -0.11278

 Excited State  11:      Singlet-A"    11.9473 eV  103.78 nm  f=0.0061  <S**2>=0.000
      10 -> 15        -0.15386
      10 -> 17        -0.16978
      13 -> 18         0.57397
      13 -> 19        -0.17873
      13 -> 21        -0.15479

 Excited State  12:      Singlet-A'    12.1968 eV  101.65 nm  f=0.0286  <S**2>=0.000
      11 -> 14         0.10358
      11 -> 15         0.26555
      12 -> 17         0.13520
      12 -> 18         0.55679
      12 -> 23        -0.10287

 Excited State  13:      Singlet-A'    12.2342 eV  101.34 nm  f=0.0379  <S**2>=0.000
       9 -> 14         0.13376
       9 -> 17         0.13514
      11 -> 15         0.29818
      11 -> 21        -0.10131
      12 -> 17         0.12959
      12 -> 18        -0.23219
      12 -> 19         0.47549

 Excited State  14:      Singlet-A"    12.2486 eV  101.22 nm  f=0.0445  <S**2>=0.000
      10 -> 15         0.46443
      10 -> 18        -0.11927
      10 -> 21        -0.10681
      13 -> 18         0.18168
      13 -> 21         0.40304

 Excited State  15:      Singlet-A"    12.3559 eV  100.34 nm  f=0.0822  <S**2>=0.000
      10 -> 14        -0.20243
      10 -> 18        -0.13951
      13 -> 15         0.15207
      13 -> 17         0.23850
      13 -> 19         0.54349

 Excited State  16:      Singlet-A'    12.4517 eV   99.57 nm  f=0.0472  <S**2>=0.000
       9 -> 14        -0.12851
      11 -> 14         0.13619
      11 -> 15         0.46276
      11 -> 21        -0.13198
      12 -> 17        -0.18029
      12 -> 18        -0.19457
      12 -> 19        -0.30606
      13 -> 20         0.12655

 Excited State  17:      Singlet-A"    12.5384 eV   98.88 nm  f=0.0068  <S**2>=0.000
      12 -> 20         0.67270

 Excited State  18:      Singlet-A'    12.5840 eV   98.53 nm  f=0.0025  <S**2>=0.000
      11 -> 15        -0.12162
      13 -> 20         0.65106

 Excited State  19:      Singlet-A"    12.8904 eV   96.18 nm  f=0.0086  <S**2>=0.000
      10 -> 14        -0.10467
      10 -> 15         0.13146
      10 -> 17         0.47569
      10 -> 18        -0.12817
      10 -> 19        -0.12209
      10 -> 23         0.11694
      13 -> 17        -0.10983
      13 -> 21        -0.25891
      13 -> 23        -0.21079

 Excited State  20:      Singlet-A'    12.8989 eV   96.12 nm  f=0.0708  <S**2>=0.000
      10 -> 16         0.39541
      11 -> 17        -0.37964
      11 -> 18        -0.15488
      13 -> 22        -0.32030

 Excited State  21:      Singlet-A"    12.9186 eV   95.97 nm  f=0.0329  <S**2>=0.000
      11 -> 16         0.63879
      11 -> 22         0.22706

 Excited State  22:      Singlet-A'    13.0036 eV   95.35 nm  f=0.1133  <S**2>=0.000
      10 -> 16         0.23911
      11 -> 17         0.36719
      11 -> 18        -0.17228
      11 -> 19        -0.31156
      11 -> 23         0.10901
      12 -> 19        -0.12658
      12 -> 21         0.19530
      12 -> 23        -0.10013
      13 -> 22        -0.16885

 Excited State  23:      Singlet-A'    13.1488 eV   94.29 nm  f=0.0051  <S**2>=0.000
       9 -> 14         0.18261
       9 -> 15         0.18806
      11 -> 17        -0.10532
      11 -> 18         0.18454
      11 -> 19         0.14700
      12 -> 19        -0.16924
      12 -> 21         0.49972
      12 -> 23        -0.14135

 Excited State  24:      Singlet-A"    13.2919 eV   93.28 nm  f=0.0007  <S**2>=0.000
      10 -> 15         0.17991
      10 -> 19        -0.35052
      11 -> 20        -0.11112
      13 -> 17        -0.12505
      13 -> 19         0.12770
      13 -> 21        -0.19232
      13 -> 23         0.42743

 Excited State  25:      Singlet-A'    13.3068 eV   93.17 nm  f=0.2408  <S**2>=0.000
       9 -> 14        -0.11339
       9 -> 17        -0.12914
      10 -> 16         0.22553
      11 -> 17         0.17271
      11 -> 18         0.46706
      12 -> 23         0.24820
      13 -> 22        -0.10718

 Excited State  26:      Singlet-A"    13.4779 eV   91.99 nm  f=0.0090  <S**2>=0.000
      10 -> 15        -0.28953
      10 -> 17         0.11241
      10 -> 18        -0.26628
      10 -> 19        -0.13303
      10 -> 23         0.14397
      11 -> 20         0.23491
      12 -> 22        -0.16076
      13 -> 15        -0.11494
      13 -> 21         0.29090
      13 -> 23         0.13424

 Excited State  27:      Singlet-A'    13.5185 eV   91.71 nm  f=0.0165  <S**2>=0.000
       9 -> 14         0.46754
       9 -> 15         0.11603
       9 -> 17         0.22131
      11 -> 17         0.13509
      11 -> 18         0.16894
      12 -> 17        -0.10579
      12 -> 19        -0.13005
      12 -> 21        -0.29788

 Excited State  28:      Singlet-A"    13.5611 eV   91.43 nm  f=0.0032  <S**2>=0.000
       9 -> 16        -0.22575
      10 -> 15        -0.14549
      10 -> 17         0.12812
      12 -> 22         0.55763
      13 -> 25        -0.10353

 Excited State  29:      Singlet-A"    13.6477 eV   90.85 nm  f=0.0030  <S**2>=0.000
      10 -> 15         0.17204
      10 -> 17        -0.15046
      10 -> 19         0.13414
      11 -> 20         0.50383
      11 -> 24        -0.16005
      12 -> 22         0.17750
      13 -> 21        -0.15811
      13 -> 25         0.12963

 Excited State  30:      Singlet-A'    13.7368 eV   90.26 nm  f=0.0902  <S**2>=0.000
       9 -> 14         0.28281
       9 -> 17        -0.16723
       9 -> 18         0.10988
      10 -> 20        -0.24845
      11 -> 18        -0.12290
      12 -> 21         0.15888
      12 -> 23         0.35241
      13 -> 24        -0.30116

 Excited State  31:      Singlet-A"    13.7913 eV   89.90 nm  f=0.0060  <S**2>=0.000
       7 -> 14        -0.14812
      10 -> 17         0.27307
      10 -> 18         0.46266
      11 -> 20         0.11525
      13 -> 18         0.17489
      13 -> 21         0.15758
      13 -> 23         0.16133
      13 -> 25         0.14682
      13 -> 28         0.10235
      13 -> 29         0.10793

 Excited State  32:      Singlet-A"    13.8659 eV   89.42 nm  f=0.0290  <S**2>=0.000
       7 -> 15         0.15032
      10 -> 17         0.11237
      10 -> 19         0.35693
      10 -> 21        -0.26474
      10 -> 23         0.17380
      12 -> 22        -0.10389
      13 -> 19         0.11685
      13 -> 23         0.18796
      13 -> 25        -0.30369
      13 -> 26         0.17211

 Excited State  33:      Singlet-A'    13.8880 eV   89.27 nm  f=0.0578  <S**2>=0.000
      10 -> 20         0.26480
      11 -> 17        -0.10946
      11 -> 18        -0.10863
      12 -> 23         0.36237
      12 -> 25         0.11933
      13 -> 22         0.25487
      13 -> 24         0.30357
      13 -> 27        -0.11250

 Excited State  34:      Singlet-A"    13.9955 eV   88.59 nm  f=0.0492  <S**2>=0.000
       9 -> 20         0.10993
      10 -> 18        -0.10100
      10 -> 19         0.21086
      11 -> 20        -0.15730
      12 -> 22         0.14951
      12 -> 24         0.50748
      12 -> 27        -0.13564
      13 -> 25         0.16516
      13 -> 26         0.11780

 Excited State  35:      Singlet-A'    14.0583 eV   88.19 nm  f=0.0081  <S**2>=0.000
      10 -> 16         0.42417
      10 -> 20        -0.13323
      13 -> 22         0.46068
      13 -> 24        -0.10805

 Excited State  36:      Singlet-A'    14.1049 eV   87.90 nm  f=0.0803  <S**2>=0.000
       9 -> 17         0.13148
      11 -> 17         0.20731
      11 -> 18        -0.21107
      11 -> 19         0.49658
      11 -> 23         0.18579
      12 -> 23         0.12659

 Excited State  37:      Singlet-A'    14.2381 eV   87.08 nm  f=0.0157  <S**2>=0.000
       8 -> 14         0.26587
       8 -> 15         0.14659
       9 -> 14         0.11354
       9 -> 15        -0.17986
       9 -> 17        -0.16920
       9 -> 18         0.11968
       9 -> 19         0.11843
      11 -> 14         0.10361
      11 -> 19         0.16168
      11 -> 21         0.37356
      11 -> 25        -0.11089
      12 -> 25        -0.12467
      13 -> 22        -0.12775
      13 -> 24         0.14085

 Excited State  38:      Singlet-A"    14.3915 eV   86.15 nm  f=0.2019  <S**2>=0.000
       9 -> 20         0.11027
      10 -> 17        -0.11935
      10 -> 18         0.15734
      10 -> 19        -0.21227
      10 -> 21        -0.13392
      11 -> 20         0.25644
      12 -> 24         0.35333
      13 -> 23        -0.10094
      13 -> 25        -0.33820

 Excited State  39:      Singlet-A'    14.4895 eV   85.57 nm  f=0.0792  <S**2>=0.000
       9 -> 15        -0.20018
      10 -> 20        -0.21315
      10 -> 22         0.16554
      11 -> 21        -0.22560
      12 -> 25        -0.30334
      13 -> 24         0.32880
      13 -> 27        -0.26115

 Excited State  40:      Singlet-A'    14.5810 eV   85.03 nm  f=0.1857  <S**2>=0.000
       8 -> 14         0.20562
       9 -> 14        -0.14593
       9 -> 15         0.17003
       9 -> 17         0.26271
       9 -> 18        -0.11341
       9 -> 19        -0.14954
      10 -> 20        -0.16439
      11 -> 18         0.11674
      11 -> 21         0.18533
      12 -> 25        -0.25005
      13 -> 24        -0.12051

 Excited State  41:      Singlet-A'    14.6836 eV   84.44 nm  f=0.0093  <S**2>=0.000
       9 -> 15         0.43127
       9 -> 17        -0.21868
      10 -> 20        -0.30828
      12 -> 21        -0.14485
      12 -> 26        -0.10995
      13 -> 24         0.21177

 Excited State  42:      Singlet-A"    14.6866 eV   84.42 nm  f=0.0947  <S**2>=0.000
       7 -> 14         0.47385
       7 -> 15         0.22204
       7 -> 17         0.12497
      10 -> 18         0.11908
      10 -> 21        -0.16234
      11 -> 22        -0.17231
      13 -> 23        -0.15374
      13 -> 25         0.22954

 Excited State  43:      Singlet-A'    14.7967 eV   83.79 nm  f=0.1390  <S**2>=0.000
       8 -> 14         0.38884
       8 -> 17         0.13115
       9 -> 15         0.13857
       9 -> 17        -0.10019
       9 -> 18         0.13942
      10 -> 20         0.22815
      11 -> 15        -0.12704
      11 -> 21        -0.32001
      12 -> 26        -0.12251
      13 -> 24        -0.10658

 Excited State  44:      Singlet-A"    14.8684 eV   83.39 nm  f=0.0216  <S**2>=0.000
       7 -> 14         0.12858
       8 -> 16        -0.23034
      11 -> 16        -0.20675
      11 -> 22         0.55707
      13 -> 25         0.11425

 Excited State  45:      Singlet-A'    14.9825 eV   82.75 nm  f=0.0553  <S**2>=0.000
       8 -> 14         0.23243
       8 -> 15         0.11074
       9 -> 15        -0.25588
       9 -> 17         0.13887
      10 -> 20        -0.22988
      10 -> 22        -0.11969
      11 -> 17        -0.12952
      12 -> 25         0.38938
      13 -> 24         0.10042

 Excited State  46:      Singlet-A"    15.0296 eV   82.49 nm  f=0.0045  <S**2>=0.000
       9 -> 16         0.60562
       9 -> 22        -0.10621
      12 -> 22         0.24116
      12 -> 27         0.14980

 Excited State  47:      Singlet-A'    15.1541 eV   81.82 nm  f=0.1098  <S**2>=0.000
       7 -> 16         0.12184
       8 -> 14         0.23990
       8 -> 17        -0.16095
       8 -> 18         0.11004
       9 -> 19         0.23387
      10 -> 22         0.28336
      12 -> 25         0.18221
      12 -> 26         0.25193
      13 -> 24        -0.11870
      13 -> 27        -0.25314

 Excited State  48:      Singlet-A"    15.1703 eV   81.73 nm  f=0.0505  <S**2>=0.000
       7 -> 14        -0.11803
       7 -> 17        -0.10254
      10 -> 18         0.15679
      10 -> 23        -0.12678
      10 -> 25        -0.14471
      13 -> 23        -0.18990
      13 -> 26         0.49639
      13 -> 28        -0.19519

 Excited State  49:      Singlet-A"    15.1841 eV   81.65 nm  f=0.0347  <S**2>=0.000
       7 -> 14         0.29578
       7 -> 18         0.11660
      10 -> 15         0.13435
      10 -> 21         0.47888
      13 -> 25        -0.20204
      13 -> 26         0.10793

 Excited State  50:      Singlet-A'    15.2495 eV   81.30 nm  f=0.0849  <S**2>=0.000
       8 -> 17         0.25340
       9 -> 14         0.11434
       9 -> 17        -0.23406
       9 -> 18        -0.20990
      11 -> 23        -0.11724
      12 -> 26         0.38435
      12 -> 28        -0.20804
      13 -> 27         0.10926

 Excited State  51:      Singlet-A"    15.4082 eV   80.47 nm  f=0.0005  <S**2>=0.000
       7 -> 14        -0.16794
       7 -> 15         0.23242
       7 -> 17         0.39819
       7 -> 18        -0.14422
       7 -> 19        -0.25814
       7 -> 23         0.18317
       7 -> 28        -0.11043
      10 -> 25        -0.17610
      13 -> 25        -0.12266

 Excited State  52:      Singlet-A'    15.4278 eV   80.36 nm  f=0.0266  <S**2>=0.000
       8 -> 14        -0.14696
       8 -> 15         0.18594
       8 -> 17         0.33752
       8 -> 18        -0.11626
       8 -> 19        -0.13958
      10 -> 22         0.28372
      11 -> 21         0.14883
      11 -> 25         0.11525
      12 -> 25         0.11526
      13 -> 27        -0.24640

 Excited State  53:      Singlet-A"    15.5942 eV   79.51 nm  f=0.0040  <S**2>=0.000
       9 -> 16        -0.17561
       9 -> 20         0.14413
       9 -> 22        -0.14742
      10 -> 23        -0.12941
      12 -> 27         0.56144
      13 -> 28        -0.10996

 Excited State  54:      Singlet-A"    15.6957 eV   78.99 nm  f=0.0021  <S**2>=0.000
       7 -> 17         0.17688
      10 -> 17        -0.10030
      10 -> 18         0.13989
      10 -> 23         0.43138
      10 -> 25         0.11045
      11 -> 24        -0.24821
      11 -> 27         0.10836
      12 -> 27         0.17856
      13 -> 23        -0.10748

 Excited State  55:      Singlet-A'    15.7095 eV   78.92 nm  f=0.0501  <S**2>=0.000
       8 -> 14        -0.11149
       8 -> 15         0.16086
       9 -> 17         0.21281
       9 -> 18         0.22148
       9 -> 19         0.31390
      11 -> 25         0.12832
      12 -> 23         0.10289
      12 -> 26         0.16952
      12 -> 28         0.13099
      12 -> 29         0.15601
      13 -> 24         0.12496
      13 -> 27         0.24163

 Excited State  56:      Singlet-A'    15.7398 eV   78.77 nm  f=0.0622  <S**2>=0.000
       8 -> 15         0.34584
       8 -> 17        -0.23395
       8 -> 21         0.14399
       9 -> 18        -0.18927
      11 -> 23         0.20739
      11 -> 25         0.35496

 Excited State  57:      Singlet-A"    15.7950 eV   78.50 nm  f=0.0179  <S**2>=0.000
       7 -> 15        -0.18452
       7 -> 17         0.17878
      10 -> 21         0.10731
      10 -> 23         0.14648
      10 -> 25         0.14892
      11 -> 24         0.44491
      11 -> 27        -0.21706
      13 -> 26         0.13259
      13 -> 28        -0.12921

 Excited State  58:      Singlet-A'    15.9386 eV   77.79 nm  f=0.0110  <S**2>=0.000
       7 -> 16         0.15842
       8 -> 17        -0.13413
       9 -> 18         0.19595
       9 -> 19        -0.24594
       9 -> 23        -0.10714
      10 -> 22         0.28709
      10 -> 24         0.24517
      12 -> 23        -0.12070
      12 -> 26         0.11595
      12 -> 28        -0.10356
      13 -> 27         0.24977

 Excited State  59:      Singlet-A'    16.0054 eV   77.46 nm  f=0.0264  <S**2>=0.000
       7 -> 20         0.10391
       9 -> 18        -0.27975
      10 -> 22         0.31835
      10 -> 24        -0.22422
      12 -> 26        -0.28028
      13 -> 27         0.30366

 Excited State  60:      Singlet-A"    16.0797 eV   77.11 nm  f=0.0026  <S**2>=0.000
       8 -> 16        -0.19726
       9 -> 20         0.50984
      11 -> 24        -0.18407
      12 -> 24        -0.11300
      12 -> 27        -0.10111
      13 -> 26        -0.13033
      13 -> 28        -0.19004

 Excited State  61:      Singlet-A'    16.1119 eV   76.95 nm  f=0.1335  <S**2>=0.000
       7 -> 16         0.14886
       7 -> 20        -0.10634
       9 -> 18        -0.22966
       9 -> 19         0.17562
      10 -> 24         0.39834
      10 -> 27        -0.13945
      11 -> 23        -0.26964
      12 -> 26        -0.15551

 Excited State  62:      Singlet-A"    16.1687 eV   76.68 nm  f=0.0001  <S**2>=0.000
       8 -> 16         0.32305
       9 -> 20         0.32660
      11 -> 22         0.10623
      12 -> 24        -0.14008
      12 -> 27        -0.10403
      13 -> 26         0.19979
      13 -> 28         0.17559
      13 -> 29         0.28078

 Excited State  63:      Singlet-A"    16.2296 eV   76.39 nm  f=0.0062  <S**2>=0.000
       7 -> 14        -0.14272
       7 -> 15         0.37167
       7 -> 17        -0.12761
       8 -> 16         0.33196
      10 -> 21         0.14483
      10 -> 23         0.12454
      11 -> 22         0.10824
      11 -> 24         0.13812
      13 -> 26        -0.13612
      13 -> 28        -0.10945
      13 -> 29        -0.19066

 Excited State  64:      Singlet-A"    16.2566 eV   76.27 nm  f=0.1807  <S**2>=0.000
       7 -> 15        -0.23573
       7 -> 17         0.14299
       7 -> 21        -0.11118
       8 -> 16         0.29342
       9 -> 20        -0.10120
      10 -> 23        -0.17515
      10 -> 25         0.24757
      11 -> 24        -0.16195
      11 -> 27         0.16623
      12 -> 27        -0.10403
      13 -> 28        -0.25160

 Excited State  65:      Singlet-A'    16.2806 eV   76.15 nm  f=0.0428  <S**2>=0.000
       7 -> 16         0.19125
       8 -> 14        -0.15327
       8 -> 15         0.32515
       8 -> 18         0.10347
       8 -> 19        -0.13000
       9 -> 17        -0.11555
       9 -> 21        -0.15197
      11 -> 21        -0.16107
      11 -> 23         0.12447
      11 -> 25        -0.31196
      11 -> 26        -0.22933
      12 -> 28         0.10179

 Excited State  66:      Singlet-A'    16.4111 eV   75.55 nm  f=0.0721  <S**2>=0.000
       7 -> 16         0.26480

 The electronic state is 1-A'.
 Alpha  occ. eigenvalues --  -24.51494 -10.23323 -10.15651  -1.32249  -0.93062
 Alpha  occ. eigenvalues --   -0.78493  -0.65041  -0.64658  -0.60050  -0.53845
 Alpha  occ. eigenvalues --   -0.52961  -0.47802  -0.46648
 Alpha virt. eigenvalues --    0.07829   0.10768   0.14384   0.14441   0.17203
 Alpha virt. eigenvalues --    0.18401   0.18655   0.20564   0.21095   0.23587
 Alpha virt. eigenvalues --    0.25174   0.26562   0.28482   0.29327   0.34464

 Mulliken charges:
               1
     1  C    0.425352
     2  C    0.547333
     3  F   -0.422158
     4  H   -0.062149
     5  H   -0.065388
     6  H   -0.065388
     7  H   -0.178800
     8  H   -0.178800
 Sum of Mulliken charges =  -0.00000

 Dipole moment (field-independent basis, Debye):
    X=             -1.9704    Y=              0.7927    Z=             -0.0000  Tot=              2.1239
 Quadrupole moment (field-independent basis, Debye-Ang):
   XX=            -21.3449   YY=            -18.4326   ZZ=            -18.4588
   XY=              0.3455   XZ=              0.0000   YZ=             -0.0000

 1\1\GINC-HEL22\SP\RLC-BLYP TD-FC\Gen\C2H5F1\SABYASACHI\21-Mar-2022\0\\
 #P TD(Nstates=10000) lc-blyp/Gen SCF(maxcycles=100) Int(Grid=ultrafine
 )\\xGDB7_00001_tier4.com\\0,1\C,0,-1.122844,-0.45232,0.\C,0,0.,0.55399
 7,0.\F,0,1.225284,-0.098236,0.\H,0,-2.083314,0.066805,0.\H,0,-1.072796
 ,-1.085651,0.886148\H,0,-1.072796,-1.085651,-0.886148\H,0,-0.030794,1.
 189278,0.888716\H,0,-0.030794,1.189278,-0.888716\\Version=EM64L-G16Rev
 C.01\State=1-A'\HF=-178.5342568\RMSD=3.869e-09\PG=CS [SG(C2H1F1),X(H4)
 ]\\@

 Normal termination of Gaussian 16 at Mon Mar 21 20:16:27 2022.
