 Gaussian 16, Revision C.01,
 Gaussian 16:  EM64L-G16RevC.01  3-Jul-2019

 ----------------------------------------------------------------------
 #P TD(Nstates=10000) lc-blyp/Gen SCF(maxcycles=100) Int(Grid=ultrafine
 )
 ----------------------------------------------------------------------

 ---------------------
 xGDB7_00001_tier4.com
 ---------------------
 Symbolic Z-matrix:
 Charge =  0 Multiplicity = 1

                         Standard orientation:
 ---------------------------------------------------------------------
 Center     Atomic      Atomic             Coordinates (Angstroms)
 Number     Number       Type             X           Y           Z
 ---------------------------------------------------------------------
      1          9           0        0.000000    1.098813   -0.289120
      2          6           0       -0.000000   -0.000000    0.499944
      3          9           0       -0.000000   -1.098813   -0.289120
      4          1           0       -0.911346    0.000000    1.102246
      5          1           0        0.911346   -0.000000    1.102246
 ---------------------------------------------------------------------

 SCF Done:  E(RLC-B+HF-LYP) =  -238.405375542     A.U. after   12 cycles

 Excitation energies and oscillator strengths:

 Excited State   1:      Singlet-B1     9.7954 eV  126.57 nm  f=0.0284  <S**2>=0.000
      13 -> 14         0.67160
      13 -> 18        -0.14012
 This state for optimization and/or second-order correction.
 Total Energy, E(TD-HF/TD-DFT) =  -238.045401433
 Copying the excited state density for this state as the 1-particle RhoCI density.

 Excited State   2:      Singlet-A2    10.3304 eV  120.02 nm  f=0.0000  <S**2>=0.000
      10 -> 14        -0.10151
      13 -> 15         0.62755
      13 -> 19        -0.21745
      13 -> 23         0.17614

 Excited State   3:      Singlet-B1    11.0673 eV  112.03 nm  f=0.0184  <S**2>=0.000
      13 -> 14        -0.12873
      13 -> 17         0.61284
      13 -> 18        -0.26873
      13 -> 25        -0.12538

 Excited State   4:      Singlet-A1    11.5177 eV  107.65 nm  f=0.0761  <S**2>=0.000
      11 -> 14         0.11429
      13 -> 16         0.67772

 Excited State   5:      Singlet-B2    11.7368 eV  105.64 nm  f=0.0246  <S**2>=0.000
      11 -> 15        -0.25886
      12 -> 14         0.59469
      12 -> 17         0.21405
      12 -> 18        -0.10706

 Excited State   6:      Singlet-A1    11.9824 eV  103.47 nm  f=0.0306  <S**2>=0.000
      11 -> 14         0.55795
      11 -> 17         0.13672
      12 -> 15        -0.34620
      13 -> 16        -0.14264

 Excited State   7:      Singlet-A2    12.4037 eV   99.96 nm  f=0.0000  <S**2>=0.000
      10 -> 14         0.58515
      10 -> 17         0.23123
      10 -> 18        -0.10822
      13 -> 19        -0.21393
      13 -> 23         0.13472

 Excited State   8:      Singlet-A1    12.7331 eV   97.37 nm  f=0.0087  <S**2>=0.000
      11 -> 14         0.34628
      11 -> 18        -0.10075
      12 -> 15         0.52067
      12 -> 19        -0.13483
      12 -> 23         0.18284
      13 -> 22         0.13861

 Excited State   9:      Singlet-B1    12.7395 eV   97.32 nm  f=0.1667  <S**2>=0.000
      10 -> 15        -0.31086
      13 -> 17         0.23690
      13 -> 18         0.55122

 Excited State  10:      Singlet-B2    12.9847 eV   95.49 nm  f=0.0824  <S**2>=0.000
      11 -> 15         0.46566
      11 -> 23         0.15794
      12 -> 14         0.33760
      12 -> 17        -0.31471

 Excited State  11:      Singlet-B1    13.0451 eV   95.04 nm  f=0.0021  <S**2>=0.000
      10 -> 15         0.48826
      10 -> 19        -0.16317
      13 -> 17         0.18734
      13 -> 18         0.21126
      13 -> 21        -0.32950

 Excited State  12:      Singlet-A1    13.2621 eV   93.49 nm  f=0.1451  <S**2>=0.000
      11 -> 14        -0.15469
      11 -> 17         0.61911
      11 -> 18        -0.19130
      11 -> 25        -0.13793
      12 -> 19        -0.10821

 Excited State  13:      Singlet-B2    13.3758 eV   92.69 nm  f=0.0449  <S**2>=0.000
      10 -> 16        -0.30508
      11 -> 15        -0.19627
      12 -> 17        -0.35051
      13 -> 20         0.44521

 Excited State  14:      Singlet-A2    13.4100 eV   92.46 nm  f=0.0000  <S**2>=0.000
      11 -> 20        -0.13275
      12 -> 16         0.67568

 Excited State  15:      Singlet-A2    13.4927 eV   91.89 nm  f=0.0000  <S**2>=0.000
      10 -> 14         0.29494
      10 -> 17        -0.40453
      13 -> 15         0.13681
      13 -> 19         0.43652

 Excited State  16:      Singlet-B1    13.5177 eV   91.72 nm  f=0.0454  <S**2>=0.000
      11 -> 16         0.67410
      12 -> 20        -0.14718

 Excited State  17:      Singlet-A2    13.6619 eV   90.75 nm  f=0.0000  <S**2>=0.000
      10 -> 17        -0.32158
      10 -> 18         0.22172
      10 -> 21         0.11736
      10 -> 25         0.15481
      13 -> 15        -0.24705
      13 -> 19        -0.25871
      13 -> 23         0.38507
      13 -> 28        -0.13197

 Excited State  18:      Singlet-B2    13.7143 eV   90.40 nm  f=0.0345  <S**2>=0.000
      10 -> 16        -0.30388
      11 -> 15         0.31438
      12 -> 17         0.42045
      13 -> 20         0.30866

 Excited State  19:      Singlet-B1    14.0726 eV   88.10 nm  f=0.0003  <S**2>=0.000
      10 -> 15         0.25440
      10 -> 19        -0.18058
      10 -> 23         0.17351
      13 -> 18         0.10053
      13 -> 21         0.57385
      13 -> 25        -0.11366

 Excited State  20:      Singlet-A1    14.1246 eV   87.78 nm  f=0.0598  <S**2>=0.000
      11 -> 18         0.15561
      12 -> 23        -0.10786
      13 -> 22         0.64487

 Excited State  21:      Singlet-B2    14.3323 eV   86.51 nm  f=0.0010  <S**2>=0.000
      11 -> 19        -0.18369
      12 -> 17         0.12222
      12 -> 18         0.59995
      12 -> 21        -0.11311
      12 -> 25         0.19115

 Excited State  22:      Singlet-A1    14.5436 eV   85.25 nm  f=0.0030  <S**2>=0.000
      11 -> 17         0.14327
      11 -> 18         0.49001
      11 -> 25         0.12949
      12 -> 19        -0.38590
      12 -> 23         0.13107

 Excited State  23:      Singlet-B2    14.5438 eV   85.25 nm  f=0.0529  <S**2>=0.000
      10 -> 16         0.53919
      13 -> 20         0.41868

 Excited State  24:      Singlet-A2    14.6083 eV   84.87 nm  f=0.0000  <S**2>=0.000
      10 -> 14        -0.19046
      10 -> 17         0.22928
      10 -> 18        -0.29717
      10 -> 21         0.10867
      10 -> 25        -0.12937
      13 -> 19         0.23766
      13 -> 23         0.45195
      13 -> 28        -0.12557

 Excited State  25:      Singlet-B1    14.9605 eV   82.87 nm  f=0.0130  <S**2>=0.000
       7 -> 14        -0.14463
       7 -> 17         0.10017
      10 -> 23         0.18921
      13 -> 18        -0.17171
      13 -> 21         0.11906
      13 -> 24        -0.25486
      13 -> 25         0.50893
      13 -> 29        -0.14579

 Excited State  26:      Singlet-B2    15.0877 eV   82.18 nm  f=0.1815  <S**2>=0.000
       8 -> 15         0.17602
      11 -> 19        -0.31163
      11 -> 23         0.18543
      12 -> 21         0.55881

 Excited State  27:      Singlet-A2    15.1698 eV   81.73 nm  f=0.0000  <S**2>=0.000
      10 -> 17         0.28422
      10 -> 18         0.44832
      10 -> 21        -0.26616
      10 -> 24        -0.12150
      10 -> 25         0.14777
      13 -> 19         0.22853
      13 -> 23         0.10736
      13 -> 28        -0.13356

 Excited State  28:      Singlet-B1    15.2744 eV   81.17 nm  f=0.0476  <S**2>=0.000
       8 -> 16         0.17279
      11 -> 22        -0.44369
      12 -> 20         0.49573

 Excited State  29:      Singlet-A1    15.3101 eV   80.98 nm  f=0.0256  <S**2>=0.000
       8 -> 14         0.13188
      11 -> 17         0.18581
      11 -> 18         0.32340
      11 -> 21        -0.22282
      12 -> 15         0.17533
      12 -> 19         0.38312
      12 -> 23        -0.20322
      13 -> 22        -0.11687

 Excited State  30:      Singlet-A2    15.3584 eV   80.73 nm  f=0.0000  <S**2>=0.000
      11 -> 20        -0.32018
      12 -> 22         0.58470
      12 -> 30         0.12636

 Excited State  31:      Singlet-B2    15.4970 eV   80.01 nm  f=0.0420  <S**2>=0.000
       8 -> 15         0.15065
       9 -> 14         0.48638
       9 -> 17         0.22037
       9 -> 18        -0.12078
       9 -> 25        -0.11171
      11 -> 19         0.23013
      11 -> 23        -0.10665
      12 -> 18         0.17715
      12 -> 21         0.16287

 Excited State  32:      Singlet-B1    15.6631 eV   79.16 nm  f=0.0014  <S**2>=0.000
       7 -> 14         0.19929
       7 -> 17         0.14785
      10 -> 15         0.16941
      10 -> 19         0.47299
      13 -> 24        -0.37043

 Excited State  33:      Singlet-A1    15.7942 eV   78.50 nm  f=0.0011  <S**2>=0.000
       8 -> 14         0.26542
       9 -> 15         0.26091
      11 -> 21         0.54075
      11 -> 25        -0.10196

 Excited State  34:      Singlet-A2    15.8598 eV   78.17 nm  f=0.0000  <S**2>=0.000
       7 -> 15         0.33802
      10 -> 18         0.22535
      10 -> 21         0.40558
      11 -> 20         0.19526
      12 -> 22         0.19698
      13 -> 19         0.14191
      13 -> 28         0.14366

 Excited State  35:      Singlet-A1    15.9853 eV   77.56 nm  f=0.1017  <S**2>=0.000
       8 -> 14         0.36715
       8 -> 17        -0.13464
      10 -> 20        -0.22057
      11 -> 21        -0.11280
      12 -> 19        -0.32032
      12 -> 23        -0.33858

 Excited State  36:      Singlet-B1    16.0455 eV   77.27 nm  f=0.2201  <S**2>=0.000
       7 -> 14         0.49531
       7 -> 18        -0.12930
      10 -> 19        -0.14373
      10 -> 23        -0.12713
      11 -> 22         0.29032
      12 -> 20         0.21301
      13 -> 24         0.12429
      13 -> 25         0.14156

 Excited State  37:      Singlet-B2    16.0736 eV   77.14 nm  f=0.0272  <S**2>=0.000
       8 -> 15         0.12775
       9 -> 14        -0.37428
       9 -> 18         0.14642
      10 -> 22        -0.19044
      11 -> 15         0.18221
      11 -> 19         0.39137
      12 -> 18         0.13964
      12 -> 21         0.16944

 Excited State  38:      Singlet-A2    16.0746 eV   77.13 nm  f=0.0000  <S**2>=0.000
       7 -> 15        -0.12718
       9 -> 16         0.17423
      10 -> 21        -0.20778
      11 -> 20         0.53100
      12 -> 22         0.26918

 Excited State  39:      Singlet-B1    16.0782 eV   77.11 nm  f=0.0192  <S**2>=0.000
       7 -> 14        -0.29747
      11 -> 16         0.11989
      11 -> 22         0.41120
      12 -> 20         0.36814
      13 -> 25        -0.19134

 Excited State  40:      Singlet-B2    16.2951 eV   76.09 nm  f=0.0634  <S**2>=0.000
       9 -> 17         0.27388
      10 -> 22         0.16778
      11 -> 15        -0.10094
      11 -> 19         0.21212
      11 -> 23         0.49070
      11 -> 28        -0.13339
      12 -> 24        -0.11692
      12 -> 25         0.10879

 Excited State  41:      Singlet-A1    16.2977 eV   76.07 nm  f=0.0001  <S**2>=0.000
       7 -> 16         0.10422
       8 -> 14         0.41615
       8 -> 17         0.18688
       8 -> 18        -0.18571
       9 -> 15        -0.21030
      10 -> 20         0.25631
      11 -> 25         0.11777
      12 -> 23         0.20971
      13 -> 27         0.10916

 Excited State  42:      Singlet-B2    16.3915 eV   75.64 nm  f=0.0293  <S**2>=0.000
       9 -> 14        -0.12746
      10 -> 22         0.52875
      10 -> 30         0.10714
      11 -> 23        -0.14247
      12 -> 18         0.12865
      12 -> 25        -0.16454
      13 -> 26         0.24188

 Excited State  43:      Singlet-A1    16.5398 eV   74.96 nm  f=0.0034  <S**2>=0.000
       9 -> 15         0.21143
       9 -> 19        -0.13734
      10 -> 20         0.50726
      11 -> 21        -0.14534
      12 -> 19        -0.10562
      12 -> 23        -0.26454
      13 -> 27         0.13217

 Excited State  44:      Singlet-B1    16.7125 eV   74.19 nm  f=0.0198  <S**2>=0.000
       7 -> 14        -0.20255
      10 -> 15         0.15902
      10 -> 19         0.24384
      10 -> 23        -0.25005
      13 -> 24         0.40949
      13 -> 25         0.29154

 Excited State  45:      Singlet-A2    16.7235 eV   74.14 nm  f=0.0000  <S**2>=0.000
       7 -> 15         0.46746
       7 -> 19        -0.24185
       7 -> 23         0.21667
      10 -> 18        -0.13329
      10 -> 21        -0.31998
      13 -> 28        -0.12148

 Excited State  46:      Singlet-B2    16.7397 eV   74.07 nm  f=0.0409  <S**2>=0.000
       8 -> 15         0.53665
       8 -> 19        -0.21630
       8 -> 23         0.18094
      12 -> 18        -0.13240
      12 -> 21        -0.20482
      12 -> 24        -0.12333
      12 -> 25         0.10273

 Excited State  47:      Singlet-A1    16.7698 eV   73.93 nm  f=0.1171  <S**2>=0.000
       6 -> 14        -0.10413
       7 -> 16        -0.10708
       8 -> 14         0.11360
       8 -> 17         0.14233
       9 -> 15         0.47304
      10 -> 20        -0.12231
      11 -> 18        -0.17862
      11 -> 21        -0.16862
      11 -> 25         0.19356
      11 -> 29        -0.10976
      12 -> 15        -0.13796
      12 -> 23         0.13826

 Excited State  48:      Singlet-B1    17.0503 eV   72.72 nm  f=0.0623  <S**2>=0.000
       7 -> 17         0.29278
       7 -> 18        -0.12741
      10 -> 19         0.22068
      10 -> 23         0.43931
      13 -> 24         0.28619

 Excited State  49:      Singlet-B2    17.2547 eV   71.86 nm  f=0.0343  <S**2>=0.000
       9 -> 14        -0.23964
       9 -> 17         0.50956
       9 -> 18        -0.11496
      10 -> 22        -0.14598
      11 -> 19        -0.14369
      11 -> 23        -0.20189
      12 -> 25         0.13185
      13 -> 26         0.12202

 Excited State  50:      Singlet-A1    17.2548 eV   71.86 nm  f=0.0664  <S**2>=0.000
       8 -> 14        -0.21110
       8 -> 17         0.44569
       8 -> 18        -0.23428
      11 -> 21         0.12289
      11 -> 25         0.17683
      12 -> 19        -0.10961
      12 -> 23        -0.28719

 Excited State  51:      Singlet-B2    17.3374 eV   71.51 nm  f=0.1188  <S**2>=0.000
       9 -> 17        -0.12203
      10 -> 22        -0.15376
      12 -> 24        -0.14428
      12 -> 25         0.13175
      13 -> 20        -0.10653
      13 -> 26         0.59984

 Excited State  52:      Singlet-A2    17.4101 eV   71.21 nm  f=0.0000  <S**2>=0.000
       9 -> 16         0.66119
      11 -> 20        -0.17868

 Excited State  53:      Singlet-A1    17.4517 eV   71.04 nm  f=0.0008  <S**2>=0.000
       7 -> 16         0.28579
       8 -> 17        -0.22982
      10 -> 20        -0.16856
      11 -> 18        -0.10463
      11 -> 21         0.15666
      11 -> 24        -0.22811
      11 -> 25         0.36667
      13 -> 27         0.20877

 Excited State  54:      Singlet-B1    17.5000 eV   70.85 nm  f=0.0161  <S**2>=0.000
       7 -> 17        -0.19777
       7 -> 18         0.11085
       8 -> 16         0.57667
       8 -> 22        -0.12266
       8 -> 30        -0.10152
      10 -> 19         0.11590
      10 -> 23         0.16657
      12 -> 20        -0.15214

 Excited State  55:      Singlet-B1    17.6908 eV   70.08 nm  f=0.0147  <S**2>=0.000
       7 -> 17         0.42861
       7 -> 18        -0.19701
       8 -> 16         0.25859
      10 -> 19        -0.19386
      10 -> 23        -0.13671
      13 -> 29         0.32302

 Excited State  56:      Singlet-A1    17.7443 eV   69.87 nm  f=0.0728  <S**2>=0.000
       7 -> 16        -0.24884
      11 -> 24         0.14879
      13 -> 27         0.59824

 Excited State  57:      Singlet-B2    17.7817 eV   69.73 nm  f=0.0345  <S**2>=0.000
       9 -> 17         0.13710
       9 -> 18         0.25779
       9 -> 21        -0.15410
       9 -> 25         0.10708
      10 -> 22        -0.12985
      11 -> 23         0.20602
      12 -> 21        -0.19325
      12 -> 24         0.37720
      12 -> 25        -0.26941
      13 -> 26         0.11738

 Excited State  58:      Singlet-A2    17.8269 eV   69.55 nm  f=0.0000  <S**2>=0.000
      10 -> 18        -0.12051
      10 -> 24        -0.26321
      10 -> 25         0.27400
      13 -> 23         0.16975
      13 -> 28         0.50497

 Excited State  59:      Singlet-A1    17.9585 eV   69.04 nm  f=0.0001  <S**2>=0.000
       7 -> 16         0.48435
       8 -> 17         0.16585
       9 -> 15         0.16142
      10 -> 20        -0.15221
      11 -> 21        -0.10523
      11 -> 24         0.25805
      11 -> 25        -0.12756
      13 -> 30         0.20722

 Excited State  60:      Singlet-A2    17.9760 eV   68.97 nm  f=0.0000  <S**2>=0.000
      10 -> 18        -0.18515
      10 -> 21         0.24891
      10 -> 24        -0.19904
      10 -> 25         0.40073
      10 -> 29        -0.14360
      13 -> 23        -0.18473
      13 -> 28        -0.31940

 Excited State  61:      Singlet-B1    18.0060 eV   68.86 nm  f=0.0612  <S**2>=0.000
       7 -> 17        -0.17944
       7 -> 18         0.10895
       8 -> 16        -0.16340
      10 -> 23         0.20465
      13 -> 25         0.14629
      13 -> 29         0.56732

 Excited State  62:      Singlet-B2    18.3351 eV   67.62 nm  f=0.0159  <S**2>=0.000
       8 -> 15         0.10943
       8 -> 19         0.11556
       9 -> 17        -0.16178
       9 -> 18        -0.10504
       9 -> 21         0.17433
      11 -> 19         0.16358
      11 -> 28        -0.11487
      12 -> 24         0.49023
      12 -> 25         0.29560
      12 -> 29        -0.10923

 Excited State  63:      Singlet-A1    18.4448 eV   67.22 nm  f=0.0267  <S**2>=0.000
       7 -> 16        -0.14014
       8 -> 17        -0.15354
       9 -> 19         0.14212
      11 -> 24         0.42873
      11 -> 25         0.30969
      12 -> 19         0.10735
      13 -> 27        -0.13195
      13 -> 30         0.25745

 Excited State  64:      Singlet-A1    18.7675 eV   66.06 nm  f=0.0141  <S**2>=0.000
       8 -> 18        -0.25370
       8 -> 21         0.20221
       9 -> 23        -0.13871
      10 -> 26         0.10728
      11 -> 24        -0.24833
      11 -> 25        -0.18751
      12 -> 28        -0.17999
      13 -> 30         0.40019

 Excited State  65:      Singlet-B2    18.8054 eV   65.93 nm  f=0.0391  <S**2>=0.000
       8 -> 19         0.15901
       9 -> 14         0.10163
       9 -> 17         0.12384
       9 -> 18         0.52980
       9 -> 21         0.19050
      10 -> 22         0.12018
      11 -> 23        -0.16206
      11 -> 28        -0.17152
      12 -> 25         0.10759

 Excited State  66:      Singlet-A1    18.8182 eV   65.89 nm  f=0.0171  <S**2>=0.000
       7 -> 16        -0.12482
       8 -> 17         0.21911
       8 -> 18         0.43613
       9 -> 19         0.14277
      11 -> 24        -0.17342
      12 -> 19        -0.10421
      13 -> 30         0.31107
      13 -> 31        -0.10599

 Excited State  67:      Singlet-A2    18.8494 eV   65.78 nm  f=0.0000  <S**2>=0.000
       7 -> 15         0.13947
       7 -> 19         0.13800
      10 -> 24         0.55870
      10 -> 25         0.30015
      13 -> 35        -0.10146

 Excited State  68:      Singlet-B1    18.9583 eV   65.40 nm  f=0.0150  <S**2>=0.000
       7 -> 14         0.10105
       7 -> 17         0.29871
       7 -> 18         0.48535
       7 -> 21        -0.11769
       7 -> 24        -0.13328
      11 -> 27        -0.14025
      12 -> 26         0.18774
      13 -> 32         0.17150

 Excited State  69:      Singlet-A2    19.0657 eV   65.03 nm  f=0.0000  <S**2>=0.000
       8 -> 20         0.11646
       9 -> 22        -0.32871
      11 -> 26         0.53832
      12 -> 27        -0.23737

 Excited State  70:      Singlet-B1    19.0818 eV   64.98 nm  f=0.0456  <S**2>=0.000
       6 -> 16         0.10593
       7 -> 18        -0.15009
       8 -> 22        -0.32330
       9 -> 20        -0.23985
      12 -> 26         0.51005

 Excited State  71:      Singlet-A2    19.2008 eV   64.57 nm  f=0.0000  <S**2>=0.000
       8 -> 20         0.31930
       9 -> 22         0.44286
      12 -> 27        -0.39686
      12 -> 31         0.12042

 Excited State  72:      Singlet-B1    19.2620 eV   64.37 nm  f=0.0026  <S**2>=0.000
       6 -> 16        -0.10787
       8 -> 22         0.12669
       9 -> 20         0.47137
      11 -> 27        -0.34536
      12 -> 26         0.28621

 Excited State  73:      Singlet-B2    19.2904 eV   64.27 nm  f=0.1843  <S**2>=0.000
       6 -> 15        -0.10337
       8 -> 15         0.12106
       8 -> 19         0.20161
       8 -> 23        -0.21147
       9 -> 18        -0.13971
       9 -> 21         0.42092
      10 -> 22        -0.10733
      11 -> 28        -0.11694
      12 -> 25        -0.32419

 Excited State  74:      Singlet-A1    19.3656 eV   64.02 nm  f=0.0020  <S**2>=0.000
       8 -> 14        -0.11482
       8 -> 18        -0.25973
       8 -> 21        -0.30841
       9 -> 19        -0.13343
      10 -> 26         0.10582
      12 -> 23         0.12605
      12 -> 28         0.44617
      13 -> 30         0.13806

 Excited State  75:      Singlet-A1    19.6024 eV   63.25 nm  f=0.1628  <S**2>=0.000
       7 -> 22         0.24820
       9 -> 15        -0.10107
       9 -> 19        -0.26946
       9 -> 23         0.13340
      12 -> 28        -0.11005
      13 -> 30         0.19690
      13 -> 31         0.46811

 Excited State  76:      Singlet-B1    19.7097 eV   62.91 nm  f=0.0069  <S**2>=0.000
       7 -> 18        -0.16489
       7 -> 21        -0.29215
       8 -> 22         0.22864

 The electronic state is 1-A1.
 Alpha  occ. eigenvalues --  -24.55581 -24.55579 -10.33105  -1.40663  -1.33957
 Alpha  occ. eigenvalues --   -0.86896  -0.71767  -0.71235  -0.70369  -0.58553
 Alpha  occ. eigenvalues --   -0.56896  -0.56113  -0.49223
 Alpha virt. eigenvalues --    0.07531   0.12772   0.13487   0.13582   0.19005
 Alpha virt. eigenvalues --    0.20385   0.20656   0.21272   0.22603   0.26838
 Alpha virt. eigenvalues --    0.30915   0.33852   0.34883   0.36495   0.38629

 Mulliken charges:
               1
     1  F   -0.346717
     2  C    1.124611
     3  F   -0.346717
     4  H   -0.215588
     5  H   -0.215588
 Sum of Mulliken charges =   0.00000

 Dipole moment (field-independent basis, Debye):
    X=              0.0000    Y=              0.0000    Z=              2.1114  Tot=              2.1114
 Quadrupole moment (field-independent basis, Debye-Ang):
   XX=            -15.5494   YY=            -19.6895   ZZ=            -15.6160
   XY=             -0.0000   XZ=             -0.0000   YZ=             -0.0000

 1\1\GINC-HEL23\SP\RLC-BLYP TD-FC\Gen\C1H2F2\SABYASACHI\21-Mar-2022\0\\
 #P TD(Nstates=10000) lc-blyp/Gen SCF(maxcycles=100) Int(Grid=ultrafine
 )\\xGDB7_00001_tier4.com\\0,1\F,0,0.,1.098813,-0.28912\C,0,0.,0.,0.499
 944\F,0,0.,-1.098813,-0.28912\H,0,-0.911346,0.,1.102246\H,0,0.911346,0
 .,1.102246\\Version=EM64L-G16RevC.01\State=1-A1\HF=-238.4053755\RMSD=3
 .175e-09\PG=C02V [C2(C1),SGV(F2),SGV'(H2)]\\@
 The archive entry for this job was punched.

 Normal termination of Gaussian 16 at Mon Mar 21 20:07:46 2022.
