 Gaussian 16, Revision C.01,
 Gaussian 16:  EM64L-G16RevC.01  3-Jul-2019

 ----------------------------------------------------------------------
 #P TD(Nstates=10000) lc-blyp/Gen SCF(maxcycles=100) Int(Grid=ultrafine
 )
 ----------------------------------------------------------------------

 ---------------------
 xGDB7_00001_tier4.com
 ---------------------
 Symbolic Z-matrix:
 Charge =  0 Multiplicity = 1

                         Standard orientation:
 ---------------------------------------------------------------------
 Center     Atomic      Atomic             Coordinates (Angstroms)
 Number     Number       Type             X           Y           Z
 ---------------------------------------------------------------------
      1          6           0        0.000000    0.000000   -1.173653
      2          6           0        0.000000    0.000000    0.280989
      3          7           0        0.000000    0.000000    1.427442
      4          1           0        0.000000    1.024088   -1.545371
      5          1           0       -0.886886   -0.512044   -1.545371
      6          1           0        0.886886   -0.512044   -1.545371
 ---------------------------------------------------------------------

 SCF Done:  E(RLC-B+HF-LYP) =  -132.280081167     A.U. after   12 cycles

 Excitation energies and oscillator strengths:

 Excited state symmetry could not be determined.
 Excited State   1:      Singlet-?Sym    7.8172 eV  158.60 nm  f=0.0000  <S**2>=0.000
      10 -> 15        -0.44465
      10 -> 17        -0.17379
      11 -> 14         0.44465
      11 -> 16        -0.17379
 This state for optimization and/or second-order correction.
 Total Energy, E(TD-HF/TD-DFT) =  -131.992802946
 Copying the excited state density for this state as the 1-particle RhoCI density.

 Excited state symmetry could not be determined.
 Excited State   2:      Singlet-?Sym    8.3038 eV  149.31 nm  f=0.0012  <S**2>=0.000
      10 -> 15         0.44896
      10 -> 17         0.16845
      11 -> 14         0.44896
      11 -> 16        -0.16845

 Excited state symmetry could not be determined.
 Excited State   3:      Singlet-?Sym    8.3038 eV  149.31 nm  f=0.0012  <S**2>=0.000
      10 -> 14         0.44896
      10 -> 16        -0.16845
      11 -> 15        -0.44896
      11 -> 17        -0.16845

 Excited State   4:      Singlet-E      9.3905 eV  132.03 nm  f=0.0050  <S**2>=0.000
      10 -> 12         0.64843
      10 -> 13         0.24091
      10 -> 24        -0.10014

 Excited State   5:      Singlet-E      9.3905 eV  132.03 nm  f=0.0050  <S**2>=0.000
      11 -> 12         0.64843
      11 -> 13         0.24091
      11 -> 24        -0.10014

 Excited State   6:      Singlet-E      9.8471 eV  125.91 nm  f=0.0211  <S**2>=0.000
       9 -> 15         0.63367
       9 -> 17         0.24575
       9 -> 19        -0.12656

 Excited State   7:      Singlet-E      9.8471 eV  125.91 nm  f=0.0211  <S**2>=0.000
       9 -> 14         0.63367
       9 -> 16        -0.24575
       9 -> 18         0.12656

 Excited State   8:      Singlet-A1    10.7748 eV  115.07 nm  f=0.0808  <S**2>=0.000
       9 -> 12         0.59678
       9 -> 13         0.32926
       9 -> 20        -0.12458

 Excited State   9:      Singlet-E     11.3382 eV  109.35 nm  f=0.1368  <S**2>=0.000
       8 -> 12        -0.22170
      10 -> 12        -0.21945
      10 -> 13         0.61517

 Excited State  10:      Singlet-E     11.3382 eV  109.35 nm  f=0.1368  <S**2>=0.000
       7 -> 12        -0.22170
      11 -> 12        -0.21945
      11 -> 13         0.61517

 Excited state symmetry could not be determined.
 Excited State  11:      Singlet-?Sym   11.6126 eV  106.77 nm  f=0.8823  <S**2>=0.000
       9 -> 12         0.12788
      10 -> 14         0.45843
      11 -> 15         0.45843

 Excited state symmetry could not be determined.
 Excited State  12:      Singlet-?Sym   12.3038 eV  100.77 nm  f=0.0000  <S**2>=0.000
       7 -> 14        -0.19514
       8 -> 15         0.19514
      10 -> 15         0.19759
      10 -> 17        -0.26961
      10 -> 19         0.29757
      11 -> 14        -0.19759
      11 -> 16        -0.26961
      11 -> 18         0.29757

 Excited state symmetry could not be determined.
 Excited State  13:      Singlet-?Sym   12.3669 eV  100.26 nm  f=0.0397  <S**2>=0.000
       7 -> 14         0.12222
       8 -> 12        -0.11224
       8 -> 15         0.12222
      10 -> 15         0.18776
      10 -> 17        -0.36788
      10 -> 19         0.19645
      11 -> 14         0.18777
      11 -> 16         0.36788
      11 -> 18        -0.19645

 Excited state symmetry could not be determined.
 Excited State  14:      Singlet-?Sym   12.3669 eV  100.26 nm  f=0.0397  <S**2>=0.000
       7 -> 12        -0.11224
       7 -> 15        -0.12222
       8 -> 14         0.12222
      10 -> 14         0.18776
      10 -> 16         0.36788
      10 -> 18        -0.19645
      11 -> 15        -0.18777
      11 -> 17         0.36788
      11 -> 19        -0.19645

 Excited state symmetry could not be determined.
 Excited State  15:      Singlet-?Sym   12.7479 eV   97.26 nm  f=0.0000  <S**2>=0.000
      10 -> 17         0.33151
      10 -> 19         0.33095
      10 -> 21        -0.11035
      11 -> 16         0.33151
      11 -> 18         0.33095
      11 -> 22        -0.11035

 Excited State  16:      Singlet-E     12.7891 eV   96.95 nm  f=0.0476  <S**2>=0.000
       7 -> 12         0.24046
       7 -> 13         0.12520
      11 -> 13         0.14081
      11 -> 20         0.56156
      11 -> 24         0.10191
      11 -> 31        -0.10235

 Excited State  17:      Singlet-E     12.7891 eV   96.95 nm  f=0.0476  <S**2>=0.000
       8 -> 12         0.24047
       8 -> 13         0.12520
      10 -> 13         0.14081
      10 -> 20         0.56155
      10 -> 24         0.10191
      10 -> 31        -0.10235

 Excited State  18:      Singlet-A1    12.7941 eV   96.91 nm  f=0.0631  <S**2>=0.000
       6 -> 12        -0.14208
       9 -> 12        -0.22351
       9 -> 13         0.39717
       9 -> 20        -0.13179
      10 -> 16         0.28200
      10 -> 18        -0.17373
      11 -> 17        -0.28200
      11 -> 19         0.17373

 Excited state symmetry could not be determined.
 Excited State  19:      Singlet-?Sym   12.8897 eV   96.19 nm  f=0.0186  <S**2>=0.000
       7 -> 12        -0.30883
      10 -> 16         0.15415
      10 -> 18         0.38780
      11 -> 17         0.15415
      11 -> 19         0.38781

 Excited state symmetry could not be determined.
 Excited State  20:      Singlet-?Sym   12.8897 eV   96.19 nm  f=0.0186  <S**2>=0.000
       8 -> 12        -0.30882
      10 -> 17        -0.15416
      10 -> 19        -0.38781
      11 -> 16         0.15416
      11 -> 18         0.38781

 Excited state symmetry could not be determined.
 Excited State  21:      Singlet-?Sym   12.9929 eV   95.42 nm  f=0.1648  <S**2>=0.000
       6 -> 12        -0.10861
      10 -> 16         0.18294
      10 -> 18         0.43009
      11 -> 17        -0.18287
      11 -> 19        -0.43002

 Excited State  22:      Singlet-E     13.0079 eV   95.31 nm  f=0.0213  <S**2>=0.000
       8 -> 12         0.51363
      10 -> 12        -0.10303
      10 -> 13         0.10571
      10 -> 17        -0.14819
      10 -> 19        -0.16620
      10 -> 20        -0.29385
      11 -> 16         0.14819
      11 -> 18         0.16620

 Excited State  23:      Singlet-E     13.0079 eV   95.31 nm  f=0.0213  <S**2>=0.000
       7 -> 12         0.51362
      10 -> 16         0.14816
      10 -> 18         0.16613
      11 -> 12        -0.10302
      11 -> 13         0.10571
      11 -> 17         0.14823
      11 -> 19         0.16630
      11 -> 20        -0.29385

 Excited State  24:      Singlet-A1    13.2564 eV   93.53 nm  f=0.2962  <S**2>=0.000
       9 -> 12        -0.23830
       9 -> 13         0.38794
       9 -> 20        -0.12571
      10 -> 16        -0.32346
      11 -> 17         0.32346

 Excited state symmetry could not be determined.
 Excited State  25:      Singlet-?Sym   13.3526 eV   92.85 nm  f=0.0000  <S**2>=0.000
       7 -> 14         0.43311
       8 -> 15        -0.43311
      10 -> 17        -0.13518
      10 -> 19         0.15532
      10 -> 21         0.10299
      11 -> 16        -0.13518
      11 -> 18         0.15533
      11 -> 22         0.10299

 Excited state symmetry could not be determined.
 Excited State  26:      Singlet-?Sym   13.5130 eV   91.75 nm  f=0.0322  <S**2>=0.000
       6 -> 15         0.15276
       7 -> 15         0.43164
       8 -> 14        -0.43164
      10 -> 16         0.10628
      10 -> 22        -0.13114
      11 -> 17         0.10628
      11 -> 21        -0.13114

 Excited state symmetry could not be determined.
 Excited State  27:      Singlet-?Sym   13.5130 eV   91.75 nm  f=0.0322  <S**2>=0.000
       6 -> 14        -0.15276
       7 -> 14         0.43164
       8 -> 15         0.43164
      10 -> 17         0.10628
      10 -> 21        -0.13114
      11 -> 16        -0.10628
      11 -> 22         0.13114

 Excited State  28:      Singlet-E     14.1378 eV   87.70 nm  f=0.0077  <S**2>=0.000
       6 -> 15        -0.18322
       9 -> 15        -0.24278
       9 -> 17         0.45960
       9 -> 19        -0.37659
       9 -> 21        -0.11032
       9 -> 30        -0.10835

 Excited State  29:      Singlet-E     14.1378 eV   87.70 nm  f=0.0077  <S**2>=0.000
       6 -> 14         0.18322
       9 -> 14         0.24278
       9 -> 16         0.45960
       9 -> 18        -0.37659
       9 -> 22        -0.11032
       9 -> 29        -0.10835

 Excited State  30:      Singlet-A1    14.1476 eV   87.64 nm  f=0.0835  <S**2>=0.000
       6 -> 12         0.65921
       6 -> 24        -0.11726
       9 -> 12        -0.10916

 Excited State  31:      Singlet-A1    14.2990 eV   86.71 nm  f=0.0896  <S**2>=0.000
       6 -> 13         0.16109
       6 -> 20         0.10011
       7 -> 15        -0.34712
       8 -> 14        -0.34712
       9 -> 13         0.15097
       9 -> 20         0.35573
       9 -> 23         0.16788

 Excited State  32:      Singlet-E     14.4934 eV   85.55 nm  f=0.0065  <S**2>=0.000
       9 -> 17         0.35189
       9 -> 19         0.49185
       9 -> 21        -0.25927
       9 -> 25        -0.16204

 Excited State  33:      Singlet-E     14.4934 eV   85.55 nm  f=0.0065  <S**2>=0.000
       9 -> 16         0.35189
       9 -> 18         0.49185
       9 -> 22        -0.25927
       9 -> 26        -0.16204

 Excited State  34:      Singlet-A1    14.5185 eV   85.40 nm  f=0.1472  <S**2>=0.000
       7 -> 15         0.28871
       8 -> 14         0.28872
       9 -> 13         0.18025
       9 -> 20         0.47158
       9 -> 23         0.15839
       9 -> 24         0.10869
       9 -> 31        -0.10127

 Excited state symmetry could not be determined.
 Excited State  35:      Singlet-?Sym   14.5272 eV   85.35 nm  f=0.0000  <S**2>=0.000
       7 -> 16         0.14064
       8 -> 17         0.14065
      10 -> 21         0.43685
      11 -> 22         0.43684

 Excited State  36:      Singlet-E     14.5357 eV   85.30 nm  f=0.0111  <S**2>=0.000
       6 -> 14         0.36334
       7 -> 16         0.10972
       8 -> 17        -0.10972
       9 -> 16        -0.13652
      10 -> 21        -0.33802
      11 -> 22         0.33803

 Excited State  37:      Singlet-E     14.5357 eV   85.30 nm  f=0.0111  <S**2>=0.000
       6 -> 15         0.36335
       7 -> 17         0.10972
       8 -> 16         0.10972
       9 -> 17         0.13652
      10 -> 22         0.33802
      11 -> 21         0.33802

 Excited State  38:      Singlet-E     14.6313 eV   84.74 nm  f=0.0273  <S**2>=0.000
       6 -> 15        -0.31182
       7 -> 13         0.35699
       7 -> 15         0.12078
       8 -> 14        -0.12078
       9 -> 19         0.16077
      10 -> 22         0.17695
      11 -> 21         0.17695
      11 -> 23         0.13099
      11 -> 24        -0.28078

 Excited State  39:      Singlet-E     14.6313 eV   84.74 nm  f=0.0273  <S**2>=0.000
       6 -> 14        -0.31184
       7 -> 14        -0.12078
       8 -> 13         0.35697
       8 -> 15        -0.12078
       9 -> 18        -0.16077
      10 -> 21        -0.17696
      10 -> 23         0.13099
      10 -> 24        -0.28078
      11 -> 22         0.17696

 Excited State  40:      Singlet-E     14.7113 eV   84.28 nm  f=0.0000  <S**2>=0.000
       6 -> 14         0.31460
       8 -> 13         0.45424
       8 -> 20         0.12495
      10 -> 20        -0.10736
      10 -> 21         0.18855
      10 -> 24        -0.15613
      11 -> 22        -0.18855

 Excited State  41:      Singlet-E     14.7113 eV   84.28 nm  f=0.0000  <S**2>=0.000
       6 -> 15         0.31460
       7 -> 13         0.45423
       7 -> 20         0.12495
      10 -> 22        -0.18857
      11 -> 20        -0.10736
      11 -> 21        -0.18856
      11 -> 24        -0.15612

 Excited State  42:      Singlet-E     15.1048 eV   82.08 nm  f=0.0020  <S**2>=0.000
       6 -> 15         0.15162
       7 -> 13        -0.21315
       7 -> 19         0.12997
       7 -> 20        -0.21049
       8 -> 18         0.12998
      11 -> 20         0.11291
      11 -> 23         0.40469
      11 -> 24        -0.37622

 Excited State  43:      Singlet-E     15.1048 eV   82.08 nm  f=0.0020  <S**2>=0.000
       6 -> 14         0.15162
       7 -> 18         0.12998
       8 -> 13        -0.21316
       8 -> 19        -0.12997
       8 -> 20        -0.21049
      10 -> 20         0.11291
      10 -> 23         0.40469
      10 -> 24        -0.37622

 Excited state symmetry could not be determined.
 Excited State  44:      Singlet-?Sym   15.2226 eV   81.45 nm  f=0.0160  <S**2>=0.000
       6 -> 13         0.12074
       6 -> 20         0.14290
       9 -> 23        -0.22042
      10 -> 16        -0.10806
      10 -> 22        -0.40091
      11 -> 17         0.10806
      11 -> 21         0.40091

 Excited state symmetry could not be determined.
 Excited State  45:      Singlet-?Sym   15.4551 eV   80.22 nm  f=0.0000  <S**2>=0.000
       7 -> 16        -0.14265
       7 -> 18         0.43378
       8 -> 17        -0.14265
       8 -> 19         0.43378
      10 -> 25         0.15980
      11 -> 26         0.15980

 Excited state symmetry could not be determined.
 Excited State  46:      Singlet-?Sym   15.4830 eV   80.08 nm  f=0.0622  <S**2>=0.000
       7 -> 17         0.43413
       7 -> 19        -0.11255
       8 -> 16         0.43413
       8 -> 18        -0.11255

 Excited state symmetry could not be determined.
 Excited State  47:      Singlet-?Sym   15.4830 eV   80.08 nm  f=0.0622  <S**2>=0.000
       7 -> 16        -0.43413
       7 -> 18         0.11255
       8 -> 17         0.43414
       8 -> 19        -0.11255

 Excited state symmetry could not be determined.
 Excited State  48:      Singlet-?Sym   15.5972 eV   79.49 nm  f=0.0000  <S**2>=0.000
       7 -> 16         0.43693
       7 -> 18         0.10353
       8 -> 17         0.43693
       8 -> 19         0.10353
      10 -> 21        -0.12086
      11 -> 22        -0.12086

 Excited State  49:      Singlet-E     15.6555 eV   79.20 nm  f=0.0630  <S**2>=0.000
       6 -> 17         0.14275
       7 -> 20         0.13401
       9 -> 17         0.20679
       9 -> 19         0.13685
       9 -> 21         0.50728
       9 -> 30         0.19310
       9 -> 32        -0.10884
      11 -> 23        -0.18640
      11 -> 24        -0.14594

 Excited State  50:      Singlet-E     15.6555 eV   79.20 nm  f=0.0630  <S**2>=0.000
       6 -> 16         0.14275
       8 -> 20        -0.13401
       9 -> 16         0.20679
       9 -> 18         0.13685
       9 -> 22         0.50728
       9 -> 29         0.19310
       9 -> 33        -0.10884
      10 -> 23         0.18640
      10 -> 24         0.14594

 Excited state symmetry could not be determined.
 Excited State  51:      Singlet-?Sym   15.7194 eV   78.87 nm  f=0.0002  <S**2>=0.000
       6 -> 13         0.10397
       7 -> 17         0.19037
       7 -> 19        -0.39514
       8 -> 16        -0.19037
       8 -> 18         0.39514
      10 -> 26         0.16313
      11 -> 25        -0.16312

 Excited State  52:      Singlet-E     15.7682 eV   78.63 nm  f=0.0013  <S**2>=0.000
       7 -> 13         0.19186
       7 -> 20        -0.21987
       9 -> 21         0.25763
      11 -> 20        -0.10137
      11 -> 23         0.35898
      11 -> 24         0.36556

 Excited State  53:      Singlet-E     15.7682 eV   78.63 nm  f=0.0013  <S**2>=0.000
       8 -> 13         0.19186
       8 -> 20        -0.21988
       9 -> 22        -0.25763
      10 -> 20        -0.10137
      10 -> 23         0.35898
      10 -> 24         0.36556

 Excited State  54:      Singlet-A1    16.0692 eV   77.16 nm  f=0.0023  <S**2>=0.000
       6 -> 13         0.43102
       7 -> 17         0.29800
       7 -> 19         0.16746
       8 -> 16        -0.29800
       8 -> 18        -0.16747
       9 -> 23        -0.12298

 Excited State  55:      Singlet-E     16.1014 eV   77.00 nm  f=0.0951  <S**2>=0.000
       6 -> 15         0.13189
       6 -> 17        -0.13883
       7 -> 13        -0.11454
       7 -> 19        -0.21819
       7 -> 20         0.41230
       7 -> 24         0.12642
       7 -> 31        -0.11875
       8 -> 18        -0.21818
      11 -> 23         0.30443

 Excited State  56:      Singlet-E     16.1014 eV   77.00 nm  f=0.0951  <S**2>=0.000
       6 -> 14         0.13189
       6 -> 16         0.13883
       7 -> 18        -0.21819
       8 -> 13        -0.11454
       8 -> 19         0.21819
       8 -> 20         0.41229
       8 -> 24         0.12642
       8 -> 31        -0.11875
      10 -> 23         0.30443

 Excited State  57:      Singlet-E     16.3540 eV   75.81 nm  f=0.3092  <S**2>=0.000
       6 -> 15        -0.18203
       6 -> 17         0.31869
       6 -> 19        -0.11161
       7 -> 17         0.10096
       7 -> 19         0.25283
       7 -> 20         0.31822
       7 -> 24         0.11212
       8 -> 16         0.10096
       8 -> 18         0.25283
      11 -> 23         0.15519
      11 -> 24         0.12942

 Excited State  58:      Singlet-E     16.3540 eV   75.81 nm  f=0.3092  <S**2>=0.000
       6 -> 14         0.18203
       6 -> 16         0.31869
       6 -> 18        -0.11161
       7 -> 16        -0.10096
       7 -> 18        -0.25283
       8 -> 17         0.10096
       8 -> 19         0.25283
       8 -> 20        -0.31822
       8 -> 24        -0.11212
      10 -> 23        -0.15519
      10 -> 24        -0.12942

 Excited State  59:      Singlet-A1    16.4266 eV   75.48 nm  f=0.0002  <S**2>=0.000
       9 -> 20        -0.13313
       9 -> 23         0.43137
       9 -> 24        -0.26055
      10 -> 22        -0.18529
      10 -> 26         0.14988
      11 -> 21         0.18529
      11 -> 25        -0.14988

 Excited State  60:      Singlet-A1    16.6153 eV   74.62 nm  f=0.0687  <S**2>=0.000
       6 -> 13         0.44388
       6 -> 20         0.12974
       7 -> 15         0.12911
       7 -> 17        -0.28023
       8 -> 14         0.12911
       8 -> 16         0.28023
       9 -> 20        -0.13123
      10 -> 26         0.10829
      11 -> 25        -0.10828

 Excited State  61:      Singlet-E     16.7671 eV   73.95 nm  f=0.0976  <S**2>=0.000
       6 -> 16         0.36927
       6 -> 18        -0.31947
       7 -> 18         0.27088
       8 -> 19        -0.27088
      10 -> 25         0.15665
      11 -> 26        -0.15666

 Excited State  62:      Singlet-E     16.7671 eV   73.95 nm  f=0.0976  <S**2>=0.000
       6 -> 17         0.36927
       6 -> 19        -0.31947
       7 -> 19        -0.27088
       8 -> 18        -0.27088
      10 -> 26         0.15665
      11 -> 25         0.15665

 Excited state symmetry could not be determined.
 Excited State  63:      Singlet-?Sym   16.8473 eV   73.59 nm  f=0.0000  <S**2>=0.000
       7 -> 18        -0.17314
       8 -> 19        -0.17315
      10 -> 25         0.43804
      11 -> 26         0.43804

 Excited state symmetry could not be determined.
 Excited State  64:      Singlet-?Sym   16.9675 eV   73.07 nm  f=0.0233  <S**2>=0.000
       7 -> 19         0.17163
       8 -> 18        -0.17163
       9 -> 20         0.10105
       9 -> 23        -0.22373
       9 -> 24        -0.10772
      10 -> 18         0.10222
      10 -> 26         0.36324
      10 -> 29        -0.13107
      11 -> 19        -0.10222
      11 -> 25        -0.36322
      11 -> 30         0.13107

 Excited State  65:      Singlet-E     17.0798 eV   72.59 nm  f=0.0350  <S**2>=0.000
       6 -> 16         0.29781
       6 -> 18         0.54187
       9 -> 26         0.16588
      10 -> 25         0.12206
      11 -> 26        -0.12205

 Excited State  66:      Singlet-E     17.0798 eV   72.59 nm  f=0.0350  <S**2>=0.000
       6 -> 17         0.29782
       6 -> 19         0.54187
       9 -> 25         0.16588
      10 -> 26         0.12204
      11 -> 25         0.12205

 Excited State  67:      Singlet-A1    17.2675 eV   71.80 nm  f=0.0994  <S**2>=0.000
       9 -> 20        -0.14972
       9 -> 23         0.26718
       9 -> 24         0.51736
       9 -> 27        -0.11312
      10 -> 29        -0.15283
      11 -> 30         0.15285

 Excited state symmetry could not be determined.
 Excited State  68:      Singlet-?Sym   17.2743 eV   71.77 nm  f=0.4023  <S**2>=0.000
       6 -> 16        -0.28625
      10 -> 25         0.41039
      11 -> 26        -0.41039

 Excited state symmetry could not be determined.
 Excited State  69:      Singlet-?Sym   17.2744 eV   71.77 nm  f=0.4023  <S**2>=0.000
       6 -> 17        -0.28624
      10 -> 26         0.41037
      11 -> 25         0.41042

 Excited state symmetry could not be determined.
 Excited State  70:      Singlet-?Sym   17.7349 eV   69.91 nm  f=0.0000  <S**2>=0.000
       7 -> 22        -0.20550
       8 -> 21        -0.20550
      10 -> 21        -0.10581
      10 -> 30         0.41317
      11 -> 22        -0.10581
      11 -> 29         0.41316

 Excited state symmetry could not be determined.

 The electronic state is 1-A1.
 Alpha  occ. eigenvalues --  -14.25394 -10.21180 -10.20681  -1.06997  -0.94360
 Alpha  occ. eigenvalues --   -0.65894  -0.61086  -0.61086  -0.50607  -0.46932
 Alpha  occ. eigenvalues --   -0.46932
 Alpha virt. eigenvalues --    0.06312   0.12280   0.12419   0.12419   0.17752
 Alpha virt. eigenvalues --    0.17752   0.19496   0.19496   0.21442   0.28141
 Alpha virt. eigenvalues --    0.28141   0.30366   0.32692   0.36673   0.36673

 Mulliken charges:
               1
     1  C    0.474852
     2  C   -0.409446
     3  N    0.073238
     4  H   -0.046215
     5  H   -0.046215
     6  H   -0.046215
 Sum of Mulliken charges =  -0.00000

 Dipole moment (field-independent basis, Debye):
    X=             -0.0000    Y=             -0.0000    Z=             -4.1240  Tot=              4.1240
 Quadrupole moment (field-independent basis, Debye-Ang):
   XX=            -17.7347   YY=            -17.7347   ZZ=            -21.3186
   XY=             -0.0000   XZ=              0.0000   YZ=              0.0000

 1\1\GINC-HEL25\SP\RLC-BLYP TD-FC\Gen\C2H3N1\SABYASACHI\21-Mar-2022\0\\
 #P TD(Nstates=10000) lc-blyp/Gen SCF(maxcycles=100) Int(Grid=ultrafine
 )\\xGDB7_00001_tier4.com\\0,1\C,0,0.,0.,-1.173653\C,0,0.,0.,0.280989\N
 ,0,0.,0.,1.427442\H,0,0.,1.024088,-1.545371\H,0,-0.886886,-0.512044,-1
 .545371\H,0,0.886886,-0.512044,-1.545371\\Version=EM64L-G16RevC.01\Sta
 te=1-A1\HF=-132.2800812\RMSD=8.226e-09\PG=C03V [C3(C1C1N1),3SGV(H1)]\\
 @
 The archive entry for this job was punched.

 Normal termination of Gaussian 16 at Mon Mar 21 20:07:36 2022.
