 Gaussian 16, Revision C.01,
 Gaussian 16:  EM64L-G16RevC.01  3-Jul-2019

 ----------------------------------------------------------------------
 #P TD(Nstates=10000) lc-blyp/Gen SCF(maxcycles=100) Int(Grid=ultrafine
 )
 ----------------------------------------------------------------------

 ---------------------
 xGDB7_00001_tier4.com
 ---------------------
 Symbolic Z-matrix:
 Charge =  0 Multiplicity = 1

                         Standard orientation:
 ---------------------------------------------------------------------
 Center     Atomic      Atomic             Coordinates (Angstroms)
 Number     Number       Type             X           Y           Z
 ---------------------------------------------------------------------
      1          8           0       -1.023805   -0.438791    0.000000
      2          6           0       -0.000000    0.418952    0.000000
      3          8           0        1.152985    0.109982   -0.000000
      4          1           0       -0.656943   -1.333011    0.000000
      5          1           0       -0.376498    1.449770    0.000000
 ---------------------------------------------------------------------

 SCF Done:  E(RLC-B+HF-LYP) =  -189.241024620     A.U. after   13 cycles

 Excitation energies and oscillator strengths:

 Excited State   1:      Singlet-A"     5.8964 eV  210.27 nm  f=0.0009  <S**2>=0.000
      12 -> 14         0.69408
      12 -> 23        -0.10852
 This state for optimization and/or second-order correction.
 Total Energy, E(TD-HF/TD-DFT) =  -189.024335647
 Copying the excited state density for this state as the 1-particle RhoCI density.

 Excited State   2:      Singlet-A'     8.4851 eV  146.12 nm  f=0.0442  <S**2>=0.000
      11 -> 14        -0.46566
      12 -> 13         0.48710

 Excited State   3:      Singlet-A'     9.0848 eV  136.47 nm  f=0.1955  <S**2>=0.000
      11 -> 14         0.43111
      12 -> 13         0.41413
      12 -> 15         0.24990
      12 -> 16        -0.21015

 Excited State   4:      Singlet-A"     9.2029 eV  134.72 nm  f=0.0037  <S**2>=0.000
      11 -> 13         0.65380
      11 -> 15        -0.15547

 Excited State   5:      Singlet-A'     9.3802 eV  132.18 nm  f=0.0791  <S**2>=0.000
      11 -> 14        -0.21851
      12 -> 13        -0.14933
      12 -> 15         0.63042

 Excited State   6:      Singlet-A"     9.6320 eV  128.72 nm  f=0.0000  <S**2>=0.000
      10 -> 14         0.68940

 Excited State   7:      Singlet-A"    10.4126 eV  119.07 nm  f=0.0127  <S**2>=0.000
      12 -> 17         0.66800
      12 -> 20         0.20647

 Excited State   8:      Singlet-A"    10.5031 eV  118.05 nm  f=0.0037  <S**2>=0.000
      11 -> 13         0.16494
      11 -> 15         0.66615

 Excited State   9:      Singlet-A'    10.6088 eV  116.87 nm  f=0.1144  <S**2>=0.000
      10 -> 13         0.11078
      12 -> 13         0.15573
      12 -> 16         0.57085
      12 -> 18         0.18270
      12 -> 19        -0.21603

 Excited State  10:      Singlet-A'    11.4123 eV  108.64 nm  f=0.0472  <S**2>=0.000
       8 -> 13        -0.11625
      10 -> 13         0.58099
      10 -> 15        -0.12520
      11 -> 17        -0.22554
      12 -> 18        -0.11393

 Excited State  11:      Singlet-A"    11.4852 eV  107.95 nm  f=0.0531  <S**2>=0.000
       9 -> 13         0.16952
      11 -> 16         0.64385
      11 -> 21        -0.14848

 Excited State  12:      Singlet-A'    11.5125 eV  107.70 nm  f=0.0209  <S**2>=0.000
      12 -> 16         0.15375
      12 -> 18        -0.23015
      12 -> 21         0.60939
      12 -> 24        -0.11831

 Excited State  13:      Singlet-A'    11.5476 eV  107.37 nm  f=0.0109  <S**2>=0.000
      10 -> 13         0.16799
      11 -> 17         0.59396
      12 -> 18        -0.20150
      12 -> 19        -0.17239

 Excited State  14:      Singlet-A'    11.8042 eV  105.03 nm  f=0.0101  <S**2>=0.000
       9 -> 14         0.23978
      10 -> 13         0.12702
      10 -> 15         0.12741
      11 -> 17         0.19533
      12 -> 16         0.11319
      12 -> 19         0.55465
      12 -> 24        -0.13045

 Excited State  15:      Singlet-A'    11.9599 eV  103.67 nm  f=0.0618  <S**2>=0.000
      10 -> 13         0.15341
      11 -> 17         0.14674
      12 -> 13        -0.12528
      12 -> 16        -0.16045
      12 -> 18         0.51723
      12 -> 19        -0.12930
      12 -> 21         0.24732
      12 -> 22         0.17917

 Excited State  16:      Singlet-A"    12.0828 eV  102.61 nm  f=0.0065  <S**2>=0.000
       8 -> 14         0.48502
      11 -> 18         0.27147
      11 -> 19        -0.13224
      11 -> 21        -0.33190

 Excited State  17:      Singlet-A"    12.2061 eV  101.58 nm  f=0.0000  <S**2>=0.000
       7 -> 14         0.10540
       8 -> 14         0.44972
      11 -> 16         0.11211
      11 -> 18        -0.32116
      11 -> 19         0.15180
      11 -> 21         0.24607
      12 -> 20         0.16567

 Excited State  18:      Singlet-A'    12.3236 eV  100.61 nm  f=0.1799  <S**2>=0.000
       9 -> 14         0.52128
      10 -> 15         0.27722
      12 -> 18        -0.15104
      12 -> 19        -0.24261

 Excited State  19:      Singlet-A"    12.3957 eV  100.02 nm  f=0.0243  <S**2>=0.000
       7 -> 14         0.13332
       8 -> 14        -0.15743
      12 -> 17        -0.18676
      12 -> 20         0.61872

 Excited State  20:      Singlet-A"    12.5619 eV   98.70 nm  f=0.0003  <S**2>=0.000
       9 -> 13        -0.17491
       9 -> 15         0.22426
      11 -> 18         0.46255
      11 -> 19         0.35197
      11 -> 21         0.22441

 Excited State  21:      Singlet-A'    12.6443 eV   98.06 nm  f=0.0263  <S**2>=0.000
       9 -> 14        -0.30858
      10 -> 13         0.12889
      10 -> 15         0.58822

 Excited State  22:      Singlet-A"    12.6843 eV   97.75 nm  f=0.0067  <S**2>=0.000
       7 -> 14         0.65299
      11 -> 19        -0.10011
      12 -> 20        -0.14803
      12 -> 23        -0.11412

 Excited State  23:      Singlet-A"    13.0110 eV   95.29 nm  f=0.0042  <S**2>=0.000
       9 -> 13         0.18470
       9 -> 16        -0.14779
      11 -> 13        -0.10513
      11 -> 18         0.18870
      11 -> 19        -0.41179
      11 -> 21         0.43613

 Excited State  24:      Singlet-A'    13.1804 eV   94.07 nm  f=0.0542  <S**2>=0.000
      10 -> 16         0.14696
      11 -> 20        -0.20137
      12 -> 18        -0.12530
      12 -> 22         0.59064

 Excited State  25:      Singlet-A"    13.3308 eV   93.01 nm  f=0.0147  <S**2>=0.000
       9 -> 13        -0.26795
      10 -> 17        -0.26544
      11 -> 19        -0.12532
      12 -> 23         0.52600

 Excited State  26:      Singlet-A"    13.3499 eV   92.87 nm  f=0.0259  <S**2>=0.000
       9 -> 13         0.48754
       9 -> 18         0.13568
      10 -> 17        -0.19299
      11 -> 16        -0.13543
      11 -> 19         0.27343
      12 -> 23         0.24654

 Excited State  27:      Singlet-A'    13.3979 eV   92.54 nm  f=0.0022  <S**2>=0.000
       8 -> 13        -0.29590
      10 -> 16         0.46119
      11 -> 20        -0.26161
      12 -> 22        -0.23052

 Excited State  28:      Singlet-A'    13.5902 eV   91.23 nm  f=0.0201  <S**2>=0.000
       8 -> 13        -0.20650
       9 -> 17        -0.13544
      10 -> 16         0.17697
      10 -> 21        -0.16091
      11 -> 20         0.54649
      12 -> 22         0.13472

 Excited State  29:      Singlet-A"    13.6014 eV   91.16 nm  f=0.0071  <S**2>=0.000
      10 -> 17         0.58821
      12 -> 23         0.32935

 Excited State  30:      Singlet-A"    14.0446 eV   88.28 nm  f=0.0253  <S**2>=0.000
       9 -> 13         0.20181
       9 -> 15         0.23603
       9 -> 18        -0.10460
      11 -> 22         0.56896

 Excited State  31:      Singlet-A'    14.0808 eV   88.05 nm  f=0.0081  <S**2>=0.000
       8 -> 13         0.15949
       8 -> 15        -0.10183
      10 -> 19         0.15808
      11 -> 23        -0.15803
      12 -> 16         0.15033
      12 -> 19         0.11105
      12 -> 24         0.55737

 Excited State  32:      Singlet-A'    14.2295 eV   87.13 nm  f=0.0262  <S**2>=0.000
       8 -> 13         0.34061
       8 -> 15        -0.27204
       8 -> 18         0.10101
      10 -> 16         0.21936
      10 -> 18         0.32882
      10 -> 19         0.12860
      10 -> 21        -0.14483
      11 -> 23        -0.11781
      12 -> 24        -0.21042

 Excited State  33:      Singlet-A"    14.3185 eV   86.59 nm  f=0.0084  <S**2>=0.000
       9 -> 15         0.59178
      11 -> 18        -0.12893
      11 -> 19        -0.15651
      11 -> 22        -0.25800

 Excited State  34:      Singlet-A'    14.3755 eV   86.25 nm  f=0.1204  <S**2>=0.000
       8 -> 16         0.15657
      10 -> 16        -0.10600
      10 -> 18         0.35118
      10 -> 19        -0.15750
      10 -> 21        -0.11263
      11 -> 20        -0.12371
      11 -> 23         0.46231
      12 -> 24         0.13444

 Excited State  35:      Singlet-A'    14.6043 eV   84.90 nm  f=0.0068  <S**2>=0.000
       7 -> 13         0.16811
       8 -> 13         0.17538
       8 -> 16        -0.14513
      10 -> 16         0.24513
      10 -> 18        -0.27907
      10 -> 19         0.18567
      11 -> 23         0.40982
      12 -> 27        -0.10922

 Excited State  36:      Singlet-A'    14.7023 eV   84.33 nm  f=0.0556  <S**2>=0.000
       8 -> 13        -0.25357
       8 -> 15        -0.25264
      10 -> 18         0.14975
      10 -> 19         0.26399
      10 -> 21         0.43238
      12 -> 24        -0.10570

 Excited State  37:      Singlet-A"    14.7417 eV   84.10 nm  f=0.0156  <S**2>=0.000
       9 -> 16         0.20189
       9 -> 19         0.12782
      11 -> 16         0.11157
      11 -> 21         0.13592
      11 -> 24         0.58298
      11 -> 27         0.13536

 Excited State  38:      Singlet-A"    15.0940 eV   82.14 nm  f=0.0404  <S**2>=0.000
       8 -> 17         0.41476
       8 -> 20         0.10266
      10 -> 20         0.54350

 Excited State  39:      Singlet-A'    15.1281 eV   81.96 nm  f=0.1154  <S**2>=0.000
       8 -> 13        -0.18912
       8 -> 16        -0.23523
       8 -> 18        -0.12629
       8 -> 19         0.14517
       9 -> 17        -0.11365
      10 -> 16        -0.17571
      10 -> 19         0.39597
      10 -> 21        -0.33210

 Excited State  40:      Singlet-A'    15.2026 eV   81.55 nm  f=0.0378  <S**2>=0.000
       7 -> 13         0.55981
       7 -> 15        -0.12978
       9 -> 17        -0.19977
      10 -> 21        -0.11387
      12 -> 25         0.14471

 Excited State  41:      Singlet-A'    15.2962 eV   81.06 nm  f=0.0455  <S**2>=0.000
       7 -> 15        -0.11838
       8 -> 15         0.43879
       8 -> 18        -0.11680
      10 -> 18         0.20273
      10 -> 19         0.16197
      10 -> 21         0.14621
      10 -> 22        -0.21104
      12 -> 25         0.29554

 Excited State  42:      Singlet-A'    15.4384 eV   80.31 nm  f=0.1010  <S**2>=0.000
       7 -> 13        -0.10203
       7 -> 15         0.17862
       8 -> 15        -0.24228
      10 -> 18        -0.15407
      12 -> 24         0.12451
      12 -> 25         0.56277

 Excited State  43:      Singlet-A'    15.5775 eV   79.59 nm  f=0.0208  <S**2>=0.000
       7 -> 15        -0.20386
       9 -> 17         0.58673
      10 -> 16        -0.10362
      10 -> 21        -0.16961
      11 -> 20         0.13153
      12 -> 25         0.13843

 Excited State  44:      Singlet-A"    15.6389 eV   79.28 nm  f=0.0634  <S**2>=0.000
       9 -> 16         0.49933
       9 -> 21        -0.29416
       9 -> 22        -0.14111
      11 -> 24        -0.21617
      11 -> 25         0.14887

 Excited State  45:      Singlet-A'    15.9030 eV   77.96 nm  f=0.0782  <S**2>=0.000
       7 -> 13         0.20418
       7 -> 15         0.46518
       9 -> 17         0.15209
      12 -> 27        -0.35077

 Excited State  46:      Singlet-A"    15.9077 eV   77.94 nm  f=0.0129  <S**2>=0.000
       6 -> 14        -0.12666
       9 -> 16         0.25975
       9 -> 18        -0.11261
       9 -> 19         0.13821
       9 -> 21         0.21697
       9 -> 24        -0.12600
      10 -> 23        -0.17483
      11 -> 25        -0.28897
      12 -> 26         0.39502

 Excited State  47:      Singlet-A"    15.9656 eV   77.66 nm  f=0.0385  <S**2>=0.000
       9 -> 16        -0.17086
       9 -> 21        -0.14689
      10 -> 23        -0.26423
      11 -> 25         0.32255
      12 -> 26         0.45701

 Excited State  48:      Singlet-A'    16.0359 eV   77.32 nm  f=0.0870  <S**2>=0.000
       7 -> 15         0.34777
       8 -> 15         0.11670
       9 -> 17         0.10900
      10 -> 19         0.14807
      12 -> 27         0.48592
      12 -> 32         0.11397

 Excited State  49:      Singlet-A'    16.1246 eV   76.89 nm  f=0.0126  <S**2>=0.000
       8 -> 15         0.21701
       8 -> 16         0.16000
       8 -> 18         0.27366
      10 -> 19         0.16703
      10 -> 22         0.49342

 Excited State  50:      Singlet-A"    16.2259 eV   76.41 nm  f=0.0190  <S**2>=0.000
       9 -> 18         0.27932
      10 -> 23         0.11685
      11 -> 24        -0.18566
      11 -> 25        -0.27855
      11 -> 27         0.35574
      11 -> 28        -0.21970
      11 -> 32         0.16978
      11 -> 33        -0.10561
      12 -> 26         0.12535

 Excited State  51:      Singlet-A"    16.3710 eV   75.73 nm  f=0.0276  <S**2>=0.000
       6 -> 14        -0.14847
       9 -> 18        -0.10500
       9 -> 19         0.18152
       9 -> 21         0.30327
      10 -> 23        -0.10474
      11 -> 25         0.34017
      11 -> 27         0.32038
      11 -> 28        -0.12263
      11 -> 32         0.12546
      12 -> 26        -0.13876

 Excited State  52:      Singlet-A"    16.4609 eV   75.32 nm  f=0.0003  <S**2>=0.000
       7 -> 17         0.19013
       8 -> 17        -0.19235
       9 -> 18        -0.10742
      10 -> 20         0.13184
      10 -> 23         0.50298
      11 -> 25         0.18383
      12 -> 26         0.27167

 Excited State  53:      Singlet-A'    16.5713 eV   74.82 nm  f=0.0267  <S**2>=0.000
       8 -> 13         0.11645
       8 -> 16         0.43255
       8 -> 21        -0.28486
       8 -> 22        -0.12666
      10 -> 18        -0.16657
      10 -> 19         0.13524
      10 -> 21        -0.10951
      10 -> 22        -0.21877
      10 -> 24        -0.18750

 Excited State  54:      Singlet-A"    16.6574 eV   74.43 nm  f=0.0072  <S**2>=0.000
       8 -> 17         0.49730
      10 -> 20        -0.40065
      10 -> 23         0.23168

 Excited State  55:      Singlet-A'    16.7187 eV   74.16 nm  f=0.0007  <S**2>=0.000
       7 -> 16         0.13963
       8 -> 16        -0.11177
       9 -> 20         0.13562
      10 -> 19        -0.11279
      11 -> 26         0.19131
      12 -> 27         0.16966
      12 -> 28         0.48933
      12 -> 29         0.10596
      12 -> 32        -0.18915
      12 -> 35         0.10959

 Excited State  56:      Singlet-A"    16.7595 eV   73.98 nm  f=0.0010  <S**2>=0.000
       9 -> 18         0.48432
       9 -> 19         0.32635
       9 -> 21         0.15868
       9 -> 22        -0.10280
      11 -> 22         0.14738
      11 -> 27        -0.14634
      11 -> 32        -0.15989

 Excited State  57:      Singlet-A'    16.8390 eV   73.63 nm  f=0.0333  <S**2>=0.000
       7 -> 16        -0.10863
       8 -> 19        -0.29673
       8 -> 21        -0.15554
      10 -> 24         0.49667
      10 -> 27         0.14106
      11 -> 26        -0.16998

 Excited State  58:      Singlet-A'    16.9373 eV   73.20 nm  f=0.0623  <S**2>=0.000
       8 -> 19        -0.11118
       9 -> 20         0.16304
       9 -> 23        -0.13193
      10 -> 24         0.16141
      11 -> 26         0.57410
      12 -> 28        -0.13453
      12 -> 29        -0.11089

 Excited State  59:      Singlet-A"    17.1207 eV   72.42 nm  f=0.0118  <S**2>=0.000
       6 -> 14        -0.10674
       7 -> 17         0.63045
      10 -> 23        -0.17172

 Excited State  60:      Singlet-A'    17.1911 eV   72.12 nm  f=0.0090  <S**2>=0.000
       7 -> 16         0.32930
       7 -> 18         0.13514
       7 -> 21        -0.23555
       8 -> 16        -0.12882
       8 -> 19        -0.17124
       8 -> 21        -0.29496
       8 -> 22        -0.10252
       8 -> 24         0.11126
       9 -> 20        -0.15688
      10 -> 25        -0.15533
      12 -> 28        -0.19909

 Excited State  61:      Singlet-A"    17.2373 eV   71.93 nm  f=0.0045  <S**2>=0.000
       6 -> 14         0.22984
       9 -> 13         0.11076
       9 -> 18        -0.20227
       9 -> 19         0.50300
       9 -> 21        -0.26940
       9 -> 22         0.11078

 Excited State  62:      Singlet-A'    17.3014 eV   71.66 nm  f=0.0193  <S**2>=0.000
       7 -> 16         0.24901
       7 -> 21        -0.10318
       8 -> 16         0.18651
       8 -> 18        -0.18427
       8 -> 19        -0.10462
       8 -> 21         0.24245
       9 -> 20         0.40131
      11 -> 26        -0.11727
      11 -> 31        -0.10194
      12 -> 29         0.12707

 Excited State  63:      Singlet-A"    17.4103 eV   71.21 nm  f=0.0209  <S**2>=0.000
       6 -> 14        -0.37799
       7 -> 17        -0.14378
       9 -> 21        -0.16171
      12 -> 31         0.49000

 Excited State  64:      Singlet-A'    17.4198 eV   71.17 nm  f=0.0443  <S**2>=0.000
       8 -> 16        -0.14230
       8 -> 18         0.17084
       8 -> 19         0.10716
       8 -> 21        -0.25931
       9 -> 20         0.44772
       9 -> 23         0.11444
      11 -> 26        -0.10266
      12 -> 29        -0.19851
      12 -> 30         0.10949

 Excited State  65:      Singlet-A'    17.4974 eV   70.86 nm  f=0.0032  <S**2>=0.000
       7 -> 16        -0.18164
       7 -> 19        -0.12485
       7 -> 21        -0.13781
       8 -> 18         0.14752
      12 -> 28        -0.16767
      12 -> 29         0.54242

 Excited State  66:      Singlet-A'    17.6355 eV   70.30 nm  f=0.1207  <S**2>=0.000
       7 -> 16         0.36036
       7 -> 19         0.15112
       8 -> 18         0.37091
      10 -> 22        -0.17999
      10 -> 24         0.17389
      10 -> 25         0.12268
      12 -> 32         0.10577

 Excited State  67:      Singlet-A'    17.8130 eV   69.60 nm  f=0.0359  <S**2>=0.000
       7 -> 18        -0.14817
       7 -> 19         0.10408
       7 -> 21         0.25018
       8 -> 18        -0.23286
       8 -> 19         0.29220
       8 -> 21        -0.23838
      10 -> 16         0.14612
      10 -> 24         0.10825
      12 -> 29         0.24655

 Excited State  68:      Singlet-A"    17.8231 eV   69.56 nm  f=0.0043  <S**2>=0.000
       9 -> 18        -0.10342
       9 -> 19         0.10953
       9 -> 22        -0.36802
       9 -> 24         0.10881
      11 -> 27         0.26068
      11 -> 28         0.41985

 Excited State  69:      Singlet-A"    17.8598 eV   69.42 nm  f=0.2741  <S**2>=0.000
       6 -> 14         0.41762
       8 -> 20         0.21615
       8 -> 23        -0.10503
       9 -> 21         0.21474
      12 -> 31         0.40522

 Excited State  70:      Singlet-A'    17.9425 eV   69.10 nm  f=0.0266  <S**2>=0.000
       7 -> 18         0.23729
       7 -> 21        -0.27901
       8 -> 19         0.29557
      10 -> 22        -0.10061
      10 -> 24         0.14592
      12 -> 28         0.17652
      12 -> 30         0.17515
      12 -> 32         0.17140

 Excited State  71:      Singlet-A"    17.9831 eV   68.94 nm  f=0.0345  <S**2>=0.000
       8 -> 17        -0.10294
       8 -> 20         0.60025
      10 -> 26        -0.12659
      12 -> 31        -0.19699

 Excited State  72:      Singlet-A'    18.1036 eV   68.49 nm  f=0.0212  <S**2>=0.000
       7 -> 21        -0.11234
       8 -> 19         0.13506
       9 -> 23         0.42044
      10 -> 25         0.16841
      11 -> 26         0.17508
      12 -> 29        -0.12893
      12 -> 30        -0.32427
      12 -> 32        -0.12258

 Excited State  73:      Singlet-A"    18.1869 eV   68.17 nm  f=0.0019  <S**2>=0.000
       9 -> 16         0.16166
       9 -> 18         0.10537
       9 -> 22         0.42314
       9 -> 24         0.20180
       9 -> 25        -0.11082
      11 -> 27         0.16684
      11 -> 28         0.31127
      11 -> 29        -0.18750
      11 -> 32        -0.15376

 Excited State  74:      Singlet-A'    18.2137 eV   68.07 nm  f=0.0170  <S**2>=0.000
       7 -> 18         0.22523
       7 -> 19         0.16394
       7 -> 21         0.10473
       8 -> 19        -0.24623
       9 -> 23         0.28709
      10 -> 22         0.10452
      10 -> 25         0.14806
      11 -> 31        -0.14987
      12 -> 28         0.14383
      12 -> 30         0.20379
      12 -> 32         0.23366

 Excited State  75:      Singlet-A'    18.3659 eV   67.51 nm  f=0.1143  <S**2>=0.000
       7 -> 18        -0.12061
       7 -> 19        -0.13594
       7 -> 21        -0.18741
       8 -> 18        -0.17350
       8 -> 21        -0.11166
       8 -> 22         0.23575
       9 -> 23        -0.22231
      10 -> 22         0.11230
      10 -> 25         0.41912
      12 -> 32         0.14160

 Excited State  76:      Singlet-A'    18.4422 eV   67.23 nm  f=0.0191  <S**2>=0.000
       6 -> 13         0.12417
       7 -> 18         0.42485
       7 -> 19         0.17015
       7 -> 21         0.14593
       9 -> 23        -0.20311
      10 -> 24         0.15279
      10 -> 25         0.24291
      12 -> 28        -0.13264
      12 -> 32        -0.15877
      12 -> 33         0.10954

 The electronic state is 1-A'.
 Alpha  occ. eigenvalues --  -19.08924 -19.03469 -10.31628  -1.28717  -1.19008
 Alpha  occ. eigenvalues --   -0.83251  -0.68706  -0.64532  -0.61975  -0.55982
 Alpha  occ. eigenvalues --   -0.48201  -0.44104
 Alpha virt. eigenvalues --    0.06874   0.08209   0.09103   0.13495   0.13679
 Alpha virt. eigenvalues --    0.17109   0.17582   0.19171   0.19773   0.22870
 Alpha virt. eigenvalues --    0.26867   0.27714   0.31613   0.34033   0.35858

 Mulliken charges:
               1
     1  O   -0.141310
     2  C    0.517298
     3  O   -0.202874
     4  H    0.145864
     5  H   -0.318978
 Sum of Mulliken charges =  -0.00000

 Dipole moment (field-independent basis, Debye):
    X=             -1.5909    Y=             -0.2426    Z=             -0.0000  Tot=              1.6093
 Quadrupole moment (field-independent basis, Debye-Ang):
   XX=            -22.8439   YY=            -12.9615   ZZ=            -17.3407
   XY=             -0.0775   XZ=              0.0000   YZ=             -0.0000

 1\1\GINC-HEL10\SP\RLC-BLYP TD-FC\Gen\C1H2O2\SABYASACHI\21-Mar-2022\0\\
 #P TD(Nstates=10000) lc-blyp/Gen SCF(maxcycles=100) Int(Grid=ultrafine
 )\\xGDB7_00001_tier4.com\\0,1\O,0,-1.023804,-0.438792,0.\C,0,0.,0.4189
 52,0.\O,0,1.152985,0.109983,0.\H,0,-0.656942,-1.333012,0.\H,0,-0.37649
 9,1.44977,0.\\Version=EM64L-G16RevC.01\State=1-A'\HF=-189.2410246\RMSD
 =9.577e-09\PG=CS [SG(C1H2O2)]\\@
 The archive entry for this job was punched.

 Normal termination of Gaussian 16 at Mon Mar 21 20:19:31 2022.
