 Gaussian 16, Revision C.01,
 Gaussian 16:  EM64L-G16RevC.01  3-Jul-2019

 ----------------------------------------------------------------------
 #P TD(Nstates=10000) lc-blyp/Gen SCF(maxcycles=100) Int(Grid=ultrafine
 )
 ----------------------------------------------------------------------

 ---------------------
 xGDB7_00001_tier4.com
 ---------------------
 Symbolic Z-matrix:
 Charge =  0 Multiplicity = 1

                         Standard orientation:
 ---------------------------------------------------------------------
 Center     Atomic      Atomic             Coordinates (Angstroms)
 Number     Number       Type             X           Y           Z
 ---------------------------------------------------------------------
      1          8           0       -1.028621   -0.395177   -0.000000
      2          7           0       -0.000000    0.526228   -0.000000
      3          6           0        1.132746   -0.030907    0.000000
      4          1           0       -1.816572    0.151791   -0.000000
      5          1           0        1.994262    0.623439    0.000000
      6          1           0        1.254802   -1.111965    0.000000
 ---------------------------------------------------------------------

 SCF Done:  E(RLC-B+HF-LYP) =  -169.302317965     A.U. after   14 cycles

 Excitation energies and oscillator strengths:

 Excited State   1:      Singlet-A"     6.0648 eV  204.43 nm  f=0.0013  <S**2>=0.000
      11 -> 13         0.69196
 This state for optimization and/or second-order correction.
 Total Energy, E(TD-HF/TD-DFT) =  -169.079438929
 Copying the excited state density for this state as the 1-particle RhoCI density.

 Excited State   2:      Singlet-A'     7.1910 eV  172.42 nm  f=0.2075  <S**2>=0.000
      12 -> 13         0.69148

 Excited State   3:      Singlet-A"     7.6522 eV  162.02 nm  f=0.0026  <S**2>=0.000
      12 -> 14         0.64263
      12 -> 15        -0.20261
      12 -> 21        -0.11448

 Excited State   4:      Singlet-A'     8.2356 eV  150.55 nm  f=0.0201  <S**2>=0.000
      11 -> 14         0.64234
      11 -> 15        -0.20493
      11 -> 21        -0.10264

 Excited State   5:      Singlet-A"     8.7547 eV  141.62 nm  f=0.0178  <S**2>=0.000
      12 -> 14         0.21007
      12 -> 15         0.58301
      12 -> 17         0.24899
      12 -> 19         0.10694

 Excited State   6:      Singlet-A"     9.3869 eV  132.08 nm  f=0.0090  <S**2>=0.000
      12 -> 15        -0.27833
      12 -> 17         0.48082
      12 -> 20        -0.24843
      12 -> 21         0.17738
      12 -> 25        -0.24285

 Excited State   7:      Singlet-A'     9.4562 eV  131.11 nm  f=0.0230  <S**2>=0.000
      11 -> 14         0.20457
      11 -> 15         0.61911
      11 -> 17         0.10180
      11 -> 19         0.12955
      12 -> 18         0.10432

 Excited State   8:      Singlet-A"     9.6914 eV  127.93 nm  f=0.0021  <S**2>=0.000
       8 -> 13         0.14929
      10 -> 13         0.65546
      12 -> 16         0.15190

 Excited State   9:      Singlet-A"     9.9126 eV  125.08 nm  f=0.0169  <S**2>=0.000
      10 -> 13        -0.14620
      12 -> 16         0.66096

 Excited State  10:      Singlet-A'    10.0210 eV  123.72 nm  f=0.1133  <S**2>=0.000
      11 -> 15        -0.17689
      11 -> 16        -0.22227
      11 -> 17         0.44911
      11 -> 20        -0.21156
      11 -> 21         0.18182
      11 -> 25        -0.23762
      12 -> 18         0.23433

 Excited State  11:      Singlet-A'    10.4806 eV  118.30 nm  f=0.0228  <S**2>=0.000
      11 -> 16         0.35270
      12 -> 18         0.58025

 Excited State  12:      Singlet-A"    10.7511 eV  115.32 nm  f=0.0028  <S**2>=0.000
       9 -> 15         0.10757
      11 -> 18        -0.11874
      12 -> 17         0.25231
      12 -> 19         0.40540
      12 -> 20         0.44680

 Excited State  13:      Singlet-A'    10.7548 eV  115.28 nm  f=0.2370  <S**2>=0.000
      11 -> 16         0.50879
      11 -> 17         0.28757
      11 -> 19        -0.13252
      11 -> 20        -0.15617
      12 -> 18        -0.26812

 Excited State  14:      Singlet-A"    10.8232 eV  114.55 nm  f=0.0501  <S**2>=0.000
      11 -> 18         0.67775

 Excited State  15:      Singlet-A"    11.0276 eV  112.43 nm  f=0.0021  <S**2>=0.000
      12 -> 17        -0.23287
      12 -> 19         0.51974
      12 -> 20        -0.35175

 Excited State  16:      Singlet-A'    11.2494 eV  110.21 nm  f=0.0768  <S**2>=0.000
       9 -> 13         0.66814

 Excited State  17:      Singlet-A'    11.4194 eV  108.57 nm  f=0.0025  <S**2>=0.000
      10 -> 15        -0.10573
      11 -> 17         0.30710
      11 -> 19         0.26290
      11 -> 20         0.53365

 Excited State  18:      Singlet-A"    11.4561 eV  108.23 nm  f=0.0020  <S**2>=0.000
       7 -> 13         0.13793
       8 -> 13         0.60329
      10 -> 13        -0.13429
      12 -> 17        -0.12445
      12 -> 21         0.20278

 Excited State  19:      Singlet-A'    11.5763 eV  107.10 nm  f=0.0084  <S**2>=0.000
      11 -> 16         0.15152
      11 -> 17        -0.14937
      11 -> 19         0.58895
      11 -> 20        -0.23937

 Excited State  20:      Singlet-A"    11.7922 eV  105.14 nm  f=0.0055  <S**2>=0.000
       8 -> 13        -0.23498
       9 -> 14         0.10138
      12 -> 17        -0.15786
      12 -> 20         0.22609
      12 -> 21         0.53970
      12 -> 24         0.10042

 Excited State  21:      Singlet-A"    12.2223 eV  101.44 nm  f=0.0155  <S**2>=0.000
       9 -> 14         0.57997
       9 -> 15        -0.22774
       9 -> 21        -0.14077
      12 -> 14        -0.12326
      12 -> 19         0.10590
      12 -> 21        -0.10896
      12 -> 24        -0.10329

 Excited State  22:      Singlet-A'    12.2926 eV  100.86 nm  f=0.1816  <S**2>=0.000
       8 -> 14        -0.17253
       8 -> 15         0.14274
      10 -> 14         0.52102
      11 -> 21        -0.29066

 Excited State  23:      Singlet-A'    12.4858 eV   99.30 nm  f=0.0374  <S**2>=0.000
      10 -> 14         0.33188
      10 -> 15         0.26428
      11 -> 15        -0.11048
      11 -> 17        -0.10560
      11 -> 20         0.18690
      11 -> 21         0.44306

 Excited State  24:      Singlet-A'    12.7551 eV   97.20 nm  f=0.0925  <S**2>=0.000
       7 -> 14        -0.10915
       8 -> 14         0.18163
      10 -> 15         0.54048
      10 -> 20        -0.10846
      11 -> 14        -0.12079
      11 -> 17         0.10026
      11 -> 21        -0.22659
      12 -> 22         0.11331

 Excited State  25:      Singlet-A'    12.9190 eV   95.97 nm  f=0.1432  <S**2>=0.000
      12 -> 22         0.62631
      12 -> 23        -0.21966

 Excited State  26:      Singlet-A"    12.9831 eV   95.50 nm  f=0.0134  <S**2>=0.000
       7 -> 13        -0.16174
       9 -> 15        -0.15294
       9 -> 17        -0.33183
       9 -> 20         0.15974
       9 -> 21        -0.11669
       9 -> 25         0.15609
      12 -> 17         0.13733
      12 -> 21         0.13900
      12 -> 25         0.40997

 Excited State  27:      Singlet-A"    13.1787 eV   94.08 nm  f=0.0003  <S**2>=0.000
       7 -> 13         0.41400
      11 -> 22         0.47570
      11 -> 23        -0.10253
      12 -> 24        -0.18454

 Excited State  28:      Singlet-A'    13.2350 eV   93.68 nm  f=0.1470  <S**2>=0.000
       8 -> 14         0.19159
       9 -> 18        -0.11479
      10 -> 15        -0.10042
      10 -> 16        -0.16009
      10 -> 17        -0.28913
      11 -> 21        -0.11581
      11 -> 25        -0.10069
      12 -> 22         0.13853
      12 -> 23         0.48167

 Excited State  29:      Singlet-A"    13.3657 eV   92.76 nm  f=0.0115  <S**2>=0.000
       7 -> 13        -0.38300
      11 -> 22         0.47916
      12 -> 24         0.22321

 Excited State  30:      Singlet-A"    13.5776 eV   91.32 nm  f=0.1465  <S**2>=0.000
       6 -> 13        -0.10045
       7 -> 13         0.30884
       9 -> 14         0.14331
       9 -> 15         0.12745
       9 -> 20         0.13918
      12 -> 24         0.52126

 Excited State  31:      Singlet-A'    13.6000 eV   91.16 nm  f=0.0550  <S**2>=0.000
       6 -> 14        -0.10789
       8 -> 14         0.45993
       8 -> 15        -0.16187
      10 -> 14         0.12043
      11 -> 21        -0.13784
      11 -> 25        -0.12697
      12 -> 22        -0.14824
      12 -> 23        -0.32154

 Excited State  32:      Singlet-A"    13.6742 eV   90.67 nm  f=0.0199  <S**2>=0.000
       9 -> 14        -0.10630
       9 -> 15        -0.18607
      10 -> 18         0.15436
      11 -> 23         0.61958

 Excited State  33:      Singlet-A'    13.7552 eV   90.14 nm  f=0.0098  <S**2>=0.000
       8 -> 14        -0.17063
       8 -> 15         0.12606
      10 -> 15         0.16289
      10 -> 17        -0.30904
      10 -> 19        -0.19613
      11 -> 17        -0.10377
      11 -> 24         0.35101
      11 -> 25        -0.23180
      12 -> 23        -0.13974

 Excited State  34:      Singlet-A"    13.7678 eV   90.05 nm  f=0.0003  <S**2>=0.000
       9 -> 14         0.18300
       9 -> 15         0.41935
       9 -> 17         0.17301
      11 -> 23         0.20661
      12 -> 21         0.18233
      12 -> 24        -0.18007
      12 -> 25         0.29083
      12 -> 26         0.10527

 Excited State  35:      Singlet-A"    14.1370 eV   87.70 nm  f=0.0046  <S**2>=0.000
       9 -> 15         0.28226
       9 -> 16         0.29116
       9 -> 17        -0.29003
       9 -> 20         0.17181
       9 -> 21        -0.18348
       9 -> 25         0.21116
      12 -> 24        -0.16583
      12 -> 25        -0.25008
      12 -> 26         0.11623

 Excited State  36:      Singlet-A'    14.2453 eV   87.04 nm  f=0.0352  <S**2>=0.000
       8 -> 14         0.15320
      10 -> 15        -0.10099
      10 -> 16         0.25529
      10 -> 20        -0.12481
      11 -> 24         0.52383
      11 -> 25         0.21487
      12 -> 23         0.10500

 Excited State  37:      Singlet-A'    14.3620 eV   86.33 nm  f=0.0010  <S**2>=0.000
       8 -> 14         0.12080
       8 -> 15         0.13969
      10 -> 17        -0.27710
      10 -> 19        -0.16274
      11 -> 17         0.12539
      11 -> 20        -0.10452
      11 -> 21         0.18197
      11 -> 25         0.45351
      11 -> 26         0.14019

 Excited State  38:      Singlet-A"    14.4066 eV   86.06 nm  f=0.0031  <S**2>=0.000
       9 -> 15        -0.19629
       9 -> 16         0.14735
       9 -> 17         0.10359
       9 -> 25        -0.10549
      12 -> 26         0.61328

 Excited State  39:      Singlet-A'    14.4358 eV   85.89 nm  f=0.0045  <S**2>=0.000
       8 -> 16        -0.10403
       9 -> 18        -0.15177
      10 -> 16         0.49769
      10 -> 17        -0.18170
      10 -> 19        -0.17021
      10 -> 21        -0.10878
      11 -> 24        -0.19500
      11 -> 26        -0.12671
      12 -> 27        -0.13771

 Excited State  40:      Singlet-A'    14.6826 eV   84.44 nm  f=0.0409  <S**2>=0.000
       7 -> 14         0.11632
       8 -> 14         0.15009
       8 -> 15         0.23305
       9 -> 18         0.35621
      10 -> 16         0.17364
      10 -> 19        -0.19995
      10 -> 20        -0.11638
      11 -> 25        -0.14745
      11 -> 26         0.29006
      12 -> 23         0.14945

 Excited State  41:      Singlet-A"    14.7272 eV   84.19 nm  f=0.0038  <S**2>=0.000
       9 -> 15        -0.14650
       9 -> 16         0.58295
       9 -> 26        -0.10412
      12 -> 25         0.17464
      12 -> 26        -0.19014

 Excited State  42:      Singlet-A"    14.7791 eV   83.89 nm  f=0.0036  <S**2>=0.000
       8 -> 18        -0.15803
      10 -> 18         0.62681
      11 -> 23        -0.16654

 Excited State  43:      Singlet-A'    14.8669 eV   83.40 nm  f=0.0096  <S**2>=0.000
       7 -> 15         0.12808
       8 -> 14         0.16119
       8 -> 15         0.42803
       9 -> 18        -0.40066
      10 -> 19         0.15586
      12 -> 23        -0.10609
      12 -> 27         0.10838

 Excited State  44:      Singlet-A'    14.9843 eV   82.74 nm  f=0.0331  <S**2>=0.000
       8 -> 17        -0.16184
       9 -> 18        -0.13676
      10 -> 19        -0.22336
      10 -> 20        -0.15000
      11 -> 26        -0.14519
      12 -> 27         0.51868

 Excited State  45:      Singlet-A'    15.0306 eV   82.49 nm  f=0.0050  <S**2>=0.000
       8 -> 15        -0.29226
       9 -> 18        -0.13511
      10 -> 16         0.12412
      10 -> 19         0.19706
      11 -> 26         0.45890
      12 -> 27         0.21527

 Excited State  46:      Singlet-A'    15.2722 eV   81.18 nm  f=0.1695  <S**2>=0.000
       8 -> 17         0.10888
       8 -> 19         0.14980
       9 -> 18         0.24965
      10 -> 17        -0.21941
      10 -> 19         0.35917
      10 -> 20        -0.21448
      11 -> 26        -0.20655
      12 -> 27         0.22035

 Excited State  47:      Singlet-A'    15.3134 eV   80.96 nm  f=0.1553  <S**2>=0.000
       8 -> 17         0.23355
       9 -> 18         0.12423
      10 -> 17         0.14646
      10 -> 20         0.50293
      11 -> 26        -0.13129
      12 -> 27         0.23656

 Excited State  48:      Singlet-A"    15.4803 eV   80.09 nm  f=0.0097  <S**2>=0.000
       9 -> 17         0.16302
       9 -> 19         0.14787
       9 -> 20         0.19843
      10 -> 23         0.13893
      11 -> 27         0.57040

 Excited State  49:      Singlet-A"    15.5472 eV   79.75 nm  f=0.0078  <S**2>=0.000
       6 -> 13        -0.23080
       9 -> 14        -0.11115
       9 -> 17         0.26771
       9 -> 19         0.20749
       9 -> 20         0.35462
       9 -> 21        -0.11530
      11 -> 27        -0.32063
      12 -> 24        -0.12718
      12 -> 28        -0.10481
      12 -> 29        -0.10979

 Excited State  50:      Singlet-A'    15.7726 eV   78.61 nm  f=0.0769  <S**2>=0.000
       8 -> 16         0.26085
       8 -> 17         0.39882
       8 -> 20        -0.19961
       8 -> 25        -0.10458
       9 -> 18        -0.15651
      10 -> 16        -0.11687
      10 -> 17         0.11782
      10 -> 19        -0.13195
      10 -> 20        -0.25330

 Excited State  51:      Singlet-A'    15.9178 eV   77.89 nm  f=0.0873  <S**2>=0.000
       7 -> 14        -0.28836
       8 -> 16         0.48820
       8 -> 17        -0.17137
      10 -> 16         0.15211
      10 -> 21        -0.18360

 Excited State  52:      Singlet-A"    15.9375 eV   77.79 nm  f=0.0158  <S**2>=0.000
       6 -> 13         0.34283
       8 -> 18        -0.30279
       9 -> 17         0.10845
       9 -> 19         0.13237
       9 -> 20         0.11156
      10 -> 22        -0.13785
      10 -> 23        -0.10082
      12 -> 28         0.35816
      12 -> 29         0.11368

 Excited State  53:      Singlet-A"    16.0046 eV   77.47 nm  f=0.0029  <S**2>=0.000
       8 -> 18         0.41656
       9 -> 19         0.10120
      10 -> 18         0.11394
      10 -> 22         0.14925
      10 -> 23         0.11783
      11 -> 31        -0.11226
      12 -> 28         0.34451
      12 -> 29         0.24637

 Excited State  54:      Singlet-A'    16.0501 eV   77.25 nm  f=0.1846  <S**2>=0.000
       7 -> 14         0.48103
       8 -> 16         0.17872
       8 -> 17        -0.14483
       8 -> 19        -0.11330
       8 -> 20        -0.18400
      10 -> 14        -0.10876
      10 -> 15         0.10533
      10 -> 19         0.13242
      10 -> 21        -0.24463

 Excited State  55:      Singlet-A"    16.0643 eV   77.18 nm  f=0.0000  <S**2>=0.000
       6 -> 13         0.11893
       9 -> 17        -0.22241
       9 -> 19         0.55702
       9 -> 21         0.17399
      12 -> 28        -0.19167

 Excited State  56:      Singlet-A"    16.1570 eV   76.74 nm  f=0.0752  <S**2>=0.000
       6 -> 13         0.39345
       8 -> 18         0.31466
       9 -> 21        -0.26860
      12 -> 28        -0.11207
      12 -> 29        -0.26515

 Excited State  57:      Singlet-A'    16.3081 eV   76.03 nm  f=0.0263  <S**2>=0.000
       7 -> 14         0.20866
       7 -> 16         0.14879
       8 -> 16         0.25237
      10 -> 17        -0.17733
      10 -> 21         0.40717
      11 -> 28         0.24139

 Excited State  58:      Singlet-A"    16.3900 eV   75.65 nm  f=0.0197  <S**2>=0.000
       6 -> 13         0.21784
       8 -> 18         0.14616
       9 -> 19        -0.20181
       9 -> 20         0.36110
       9 -> 21         0.34589
      10 -> 22        -0.17843
      12 -> 28        -0.14019
      12 -> 29         0.10903

 Excited State  59:      Singlet-A'    16.5128 eV   75.08 nm  f=0.0961  <S**2>=0.000
       7 -> 15         0.40591
       7 -> 16         0.11058
       7 -> 17         0.11723
       8 -> 19        -0.23711
       8 -> 20        -0.24796
      10 -> 17        -0.12454
      10 -> 21         0.13627
      10 -> 25        -0.10599
      12 -> 31         0.25667

 Excited State  60:      Singlet-A'    16.6176 eV   74.61 nm  f=0.1388  <S**2>=0.000
       7 -> 15        -0.15711
       8 -> 17        -0.13510
       8 -> 20        -0.14033
      10 -> 21        -0.11609
      11 -> 28         0.47659
      11 -> 29         0.22092
      12 -> 31         0.27224

 Excited State  61:      Singlet-A"    16.6952 eV   74.26 nm  f=0.2289  <S**2>=0.000
       6 -> 13         0.22452
       8 -> 18        -0.16734
       8 -> 22         0.13899
       9 -> 20         0.13011
      10 -> 22         0.50808
      11 -> 31        -0.14203
      12 -> 28        -0.15926
      12 -> 30         0.13537

 Excited State  62:      Singlet-A'    16.7615 eV   73.97 nm  f=0.0047  <S**2>=0.000
       7 -> 14         0.12565
       7 -> 15         0.31655
       7 -> 17         0.19055
       8 -> 15        -0.10285
       8 -> 17         0.16440
       8 -> 19         0.24034
       8 -> 20         0.32071
      10 -> 21        -0.19424
      11 -> 28         0.17440
      12 -> 31         0.10026

 Excited State  63:      Singlet-A"    16.8256 eV   73.69 nm  f=0.0857  <S**2>=0.000
       9 -> 17         0.13459
       9 -> 20        -0.10960
       9 -> 21        -0.22067
       9 -> 25         0.11186
      10 -> 22        -0.13743
      12 -> 28        -0.29755
      12 -> 29         0.50214

 Excited State  64:      Singlet-A'    16.9155 eV   73.30 nm  f=0.0208  <S**2>=0.000
       7 -> 15        -0.24366
       8 -> 19        -0.18159
       8 -> 20         0.25238
      11 -> 28        -0.15862
      11 -> 29        -0.12404
      12 -> 31         0.47834

 Excited State  65:      Singlet-A'    16.9824 eV   73.01 nm  f=0.1985  <S**2>=0.000
       7 -> 17        -0.17735
       7 -> 19         0.11434
       8 -> 16         0.11074
       8 -> 17        -0.17011
       8 -> 19         0.35650
       8 -> 20        -0.14471
      10 -> 21         0.19261
      10 -> 25         0.14778
      11 -> 29        -0.24813
      12 -> 31         0.22872

 Excited State  66:      Singlet-A"    17.0399 eV   72.76 nm  f=0.0529  <S**2>=0.000
       7 -> 18         0.16570
       8 -> 18         0.12155
       9 -> 25        -0.11130
      10 -> 23        -0.31830
      11 -> 27         0.12436
      11 -> 31         0.15286
      12 -> 30         0.43485
      12 -> 32        -0.22415

 Excited State  67:      Singlet-A"    17.0616 eV   72.67 nm  f=0.0026  <S**2>=0.000
      10 -> 22         0.17155
      10 -> 23         0.13553
      11 -> 22        -0.12286
      11 -> 31         0.60695
      12 -> 30        -0.12183

 Excited State  68:      Singlet-A'    17.0987 eV   72.51 nm  f=0.0896  <S**2>=0.000
       6 -> 15        -0.10226
       7 -> 15        -0.16956
       7 -> 17         0.27548
       7 -> 19         0.17483
       8 -> 19         0.27807
       8 -> 20        -0.17235
      10 -> 24         0.14267
      10 -> 25        -0.15888
      11 -> 28        -0.16025
      11 -> 29         0.24374

 Excited State  69:      Singlet-A"    17.1166 eV   72.43 nm  f=0.0105  <S**2>=0.000
       7 -> 18        -0.21489
       9 -> 25        -0.11517
      10 -> 22        -0.17309
      10 -> 23         0.43655
      11 -> 27        -0.12415
      12 -> 30         0.35858
      12 -> 32        -0.12646

 Excited State  70:      Singlet-A'    17.3577 eV   71.43 nm  f=0.0393  <S**2>=0.000
       7 -> 17        -0.13051
       8 -> 20         0.12946
       8 -> 21         0.18797
      10 -> 21         0.12779
      11 -> 28        -0.25317
      11 -> 29         0.46949
      11 -> 30         0.14162

 Excited State  71:      Singlet-A'    17.5117 eV   70.80 nm  f=0.0002  <S**2>=0.000
       7 -> 16         0.16595
       7 -> 17         0.22082
       8 -> 17        -0.10986
       8 -> 21         0.22051
      11 -> 29        -0.18423
      11 -> 30         0.42429
      11 -> 32        -0.25768

 Excited State  72:      Singlet-A"    17.5416 eV   70.68 nm  f=0.0165  <S**2>=0.000
      12 -> 30         0.26700
      12 -> 32         0.53357
      12 -> 33         0.25586

 Excited State  73:      Singlet-A'    17.6313 eV   70.32 nm  f=0.0114  <S**2>=0.000
       9 -> 22        -0.40943
       9 -> 23         0.44492
      10 -> 24         0.14318
      11 -> 32        -0.11947
      12 -> 27         0.12855

 Excited State  74:      Singlet-A'    17.8172 eV   69.59 nm  f=0.0871  <S**2>=0.000
       7 -> 16         0.33817
       7 -> 17        -0.13504
       7 -> 19        -0.12990
       7 -> 20        -0.21702
       7 -> 21        -0.11465
       8 -> 21        -0.31341
       9 -> 22        -0.11771
      10 -> 21        -0.12716
      10 -> 24        -0.21301

 Excited State  75:      Singlet-A'    17.8470 eV   69.47 nm  f=0.0350  <S**2>=0.000
       7 -> 16         0.40369
       8 -> 21         0.26586

 The electronic state is 1-A'.
 Alpha  occ. eigenvalues --  -19.06648 -14.31775 -10.19733  -1.25511  -1.02415
 Alpha  occ. eigenvalues --   -0.76566  -0.68786  -0.62062  -0.57383  -0.56141
 Alpha  occ. eigenvalues --   -0.42245  -0.40602
 Alpha virt. eigenvalues --    0.07705   0.07894   0.09824   0.14904   0.17131
 Alpha virt. eigenvalues --    0.17174   0.19647   0.21266   0.23742   0.27158
 Alpha virt. eigenvalues --    0.28594   0.29822   0.31285   0.33448   0.34677

 Mulliken charges:
               1
     1  O   -0.287658
     2  N   -0.013180
     3  C    0.644954
     4  H    0.172679
     5  H   -0.302901
     6  H   -0.213894
 Sum of Mulliken charges =  -0.00000

 Dipole moment (field-independent basis, Debye):
    X=              0.4340    Y=             -0.1459    Z=              0.0000  Tot=              0.4579
 Quadrupole moment (field-independent basis, Debye-Ang):
   XX=            -12.0231   YY=            -19.7846   ZZ=            -19.3089
   XY=             -1.6700   XZ=              0.0000   YZ=              0.0000

 Normal termination of Gaussian 16 at Mon Mar 21 20:20:15 2022.
