 Gaussian 16, Revision C.01,
 Gaussian 16:  EM64L-G16RevC.01  3-Jul-2019

 ----------------------------------------------------------------------
 #P TD(Nstates=10000) lc-blyp/Gen SCF(maxcycles=100) Int(Grid=ultrafine
 )
 ----------------------------------------------------------------------

 ---------------------
 xGDB7_00001_tier4.com
 ---------------------
 Symbolic Z-matrix:
 Charge =  0 Multiplicity = 1

                         Standard orientation:
 ---------------------------------------------------------------------
 Center     Atomic      Atomic             Coordinates (Angstroms)
 Number     Number       Type             X           Y           Z
 ---------------------------------------------------------------------
      1          9           0        0.000000    0.000000    0.688193
      2          9           0        0.000000    0.000000   -0.688193
 ---------------------------------------------------------------------

 SCF Done:  E(RLC-B+HF-LYP) =  -199.059491433     A.U. after   11 cycles

 Excitation energies and oscillator strengths:

 Excited state symmetry could not be determined.
 Excited State   1:      Singlet-?Sym    4.8722 eV  254.47 nm  f=0.0000  <S**2>=0.000
       8 -> 10         0.65057
       9 -> 10        -0.26380
 This state for optimization and/or second-order correction.
 Total Energy, E(TD-HF/TD-DFT) =  -198.880441871
 Copying the excited state density for this state as the 1-particle RhoCI density.

 Excited state symmetry could not be determined.
 Excited State   2:      Singlet-?Sym    4.8722 eV  254.47 nm  f=0.0000  <S**2>=0.000
       8 -> 10         0.26380
       9 -> 10         0.65057

 Excited state symmetry could not be determined.
 Excited State   3:      Singlet-?Sym    8.8269 eV  140.46 nm  f=0.0000  <S**2>=0.000
       6 -> 10        -0.25520
       7 -> 10         0.65172

 Excited state symmetry could not be determined.
 Excited State   4:      Singlet-?Sym    8.8269 eV  140.46 nm  f=0.0000  <S**2>=0.000
       6 -> 10         0.65172
       7 -> 10         0.25520

 Excited state symmetry could not be determined.
 Excited State   5:      Singlet-?Sym   13.0768 eV   94.81 nm  f=0.0000  <S**2>=0.000
       8 -> 12        -0.42922
       8 -> 17         0.12786
       9 -> 12         0.51155
       9 -> 17        -0.15238

 Excited state symmetry could not be determined.
 Excited State   6:      Singlet-?Sym   13.0768 eV   94.81 nm  f=0.0000  <S**2>=0.000
       8 -> 12         0.51155
       8 -> 17        -0.15238
       9 -> 12         0.42922
       9 -> 17        -0.12786

 Excited State   7:      Singlet-SGU   13.4053 eV   92.49 nm  f=0.4330  <S**2>=0.000
       5 -> 10         0.49711
       8 -> 14        -0.34870
       9 -> 13        -0.34870

 Excited state symmetry could not be determined.
 Excited State   8:      Singlet-?Sym   13.6705 eV   90.69 nm  f=0.0433  <S**2>=0.000
       7 -> 12        -0.15856
       9 -> 11         0.67134

 Excited state symmetry could not be determined.
 Excited State   9:      Singlet-?Sym   13.6705 eV   90.69 nm  f=0.0433  <S**2>=0.000
       6 -> 12        -0.15856
       8 -> 11         0.67134

 Excited state symmetry could not be determined.
 Excited State  10:      Singlet-?Sym   14.2288 eV   87.14 nm  f=0.0000  <S**2>=0.000
       8 -> 13        -0.49616
       9 -> 14         0.49616

 Excited state symmetry could not be determined.
 Excited State  11:      Singlet-?Sym   14.2707 eV   86.88 nm  f=0.0000  <S**2>=0.000
       8 -> 13         0.49664
       9 -> 14         0.49664

 Excited state symmetry could not be determined.
 Excited State  12:      Singlet-?Sym   14.2707 eV   86.88 nm  f=0.0000  <S**2>=0.000
       8 -> 14        -0.49664
       9 -> 13         0.49664

 Excited state symmetry could not be determined.
 Excited State  13:      Singlet-?Sym   15.8579 eV   78.18 nm  f=0.0000  <S**2>=0.000
       7 -> 11        -0.19759
       8 -> 17        -0.23571
       9 -> 12         0.14749
       9 -> 17         0.60920

 Excited state symmetry could not be determined.
 Excited State  14:      Singlet-?Sym   15.8579 eV   78.18 nm  f=0.0000  <S**2>=0.000
       6 -> 11        -0.19759
       8 -> 12         0.14749
       8 -> 17         0.60920
       9 -> 17         0.23571

 Excited state symmetry could not be determined.
 Excited State  15:      Singlet-?Sym   16.2452 eV   76.32 nm  f=0.0000  <S**2>=0.000
       6 -> 13        -0.16644
       7 -> 14         0.16644
       8 -> 15        -0.47007
       9 -> 16         0.47007

 Excited State  16:      Singlet-SGU   16.2577 eV   76.26 nm  f=0.2504  <S**2>=0.000
       5 -> 10         0.47517
       5 -> 11         0.15129
       8 -> 14         0.34761
       9 -> 13         0.34761

 Excited state symmetry could not be determined.
 Excited State  17:      Singlet-?Sym   16.3052 eV   76.04 nm  f=0.0000  <S**2>=0.000
       6 -> 14        -0.15492
       7 -> 13         0.15492
       8 -> 16        -0.47420
       9 -> 15         0.47420

 Excited state symmetry could not be determined.
 Excited State  18:      Singlet-?Sym   16.3052 eV   76.04 nm  f=0.0000  <S**2>=0.000
       6 -> 13         0.15492
       7 -> 14         0.15492
       8 -> 15         0.47420
       9 -> 16         0.47420

 Excited state symmetry could not be determined.
 Excited State  19:      Singlet-?Sym   17.0780 eV   72.60 nm  f=0.0000  <S**2>=0.000
       5 -> 12        -0.11280
       8 -> 16         0.49243
       9 -> 15         0.49243

 Excited state symmetry could not be determined.
 Excited State  20:      Singlet-?Sym   17.4716 eV   70.96 nm  f=0.1136  <S**2>=0.000
       6 -> 12         0.51550
       6 -> 17        -0.19124
       7 -> 12         0.38893
       7 -> 17        -0.14429
       8 -> 11         0.11651

 Excited state symmetry could not be determined.
 Excited State  21:      Singlet-?Sym   17.4716 eV   70.96 nm  f=0.1136  <S**2>=0.000
       6 -> 12        -0.38893
       6 -> 17         0.14429
       7 -> 12         0.51550
       7 -> 17        -0.19124
       9 -> 11         0.11651

 Excited state symmetry could not be determined.
 Excited State  22:      Singlet-?Sym   18.3093 eV   67.72 nm  f=0.0000  <S**2>=0.000
       6 -> 11         0.41850
       7 -> 11         0.49827
       8 -> 12         0.10755
       8 -> 17         0.11279
       9 -> 12         0.12805
       9 -> 17         0.13429

 Excited state symmetry could not be determined.
 Excited State  23:      Singlet-?Sym   18.3093 eV   67.72 nm  f=0.0000  <S**2>=0.000
       6 -> 11         0.49827
       7 -> 11        -0.41850
       8 -> 12         0.12805
       8 -> 17         0.13429
       9 -> 12        -0.10755
       9 -> 17        -0.11279

 Excited state symmetry could not be determined.
 Excited State  24:      Singlet-?Sym   18.5747 eV   66.75 nm  f=0.0000  <S**2>=0.000
       6 -> 13        -0.47076
       7 -> 14         0.47076
       8 -> 15         0.16669
       9 -> 16        -0.16669

 Excited state symmetry could not be determined.
 Excited State  25:      Singlet-?Sym   18.5832 eV   66.72 nm  f=0.0000  <S**2>=0.000
       6 -> 14        -0.47483
       7 -> 13         0.47483
       8 -> 16         0.15500
       9 -> 15        -0.15500

 Excited state symmetry could not be determined.
 Excited State  26:      Singlet-?Sym   18.5832 eV   66.72 nm  f=0.0000  <S**2>=0.000
       6 -> 13         0.47483
       7 -> 14         0.47483
       8 -> 15        -0.15500
       9 -> 16        -0.15500

 Excited State  27:      Singlet-SGG   18.6283 eV   66.56 nm  f=0.0000  <S**2>=0.000
       5 -> 12         0.58495
       5 -> 17        -0.16894
       6 -> 14        -0.23940
       7 -> 13        -0.23940

 Excited state symmetry could not be determined.
 Excited State  28:      Singlet-?Sym   19.4002 eV   63.91 nm  f=0.0000  <S**2>=0.000
       5 -> 12         0.28341
       5 -> 17        -0.21318
       6 -> 14         0.42984
       7 -> 13         0.42984

 Excited state symmetry could not be determined.
 Excited State  29:      Singlet-?Sym   19.7170 eV   62.88 nm  f=0.0227  <S**2>=0.000
       5 -> 13         0.47284
       5 -> 14         0.52382

 Excited state symmetry could not be determined.
 Excited State  30:      Singlet-?Sym   19.7170 eV   62.88 nm  f=0.0227  <S**2>=0.000
       5 -> 13         0.52382
       5 -> 14        -0.47284

 Excited State  31:      Singlet-SGU   19.7607 eV   62.74 nm  f=0.0054  <S**2>=0.000
       5 -> 11         0.65253
       6 -> 16         0.15746
       7 -> 15         0.15746

 Excited state symmetry could not be determined.
 Excited State  32:      Singlet-?Sym   20.2892 eV   61.11 nm  f=0.0448  <S**2>=0.000
       6 -> 12        -0.10527
       6 -> 17        -0.29765
       7 -> 12         0.20696
       7 -> 17         0.58519

 Excited state symmetry could not be determined.
 Excited State  33:      Singlet-?Sym   20.2892 eV   61.11 nm  f=0.0448  <S**2>=0.000
       6 -> 12         0.20696
       6 -> 17         0.58519
       7 -> 12         0.10527
       7 -> 17         0.29765

 Excited state symmetry could not be determined.
 Excited State  34:      Singlet-?Sym   20.5908 eV   60.21 nm  f=0.0000  <S**2>=0.000
       6 -> 15         0.49496
       7 -> 16         0.49496

 Excited state symmetry could not be determined.
 Excited State  35:      Singlet-?Sym   20.5908 eV   60.21 nm  f=0.0000  <S**2>=0.000
       6 -> 16        -0.49496
       7 -> 15         0.49496

 Excited state symmetry could not be determined.
 Excited State  36:      Singlet-?Sym   20.6060 eV   60.17 nm  f=0.0000  <S**2>=0.000
       6 -> 15         0.49447
       7 -> 16        -0.49447

 Excited state symmetry could not be determined.
 Excited State  37:      Singlet-?Sym   20.9548 eV   59.17 nm  f=0.0297  <S**2>=0.000
       5 -> 11        -0.20170
       6 -> 16         0.46501
       7 -> 15         0.46501

 Excited State  38:      Singlet-SGG   21.6207 eV   57.35 nm  f=0.0000  <S**2>=0.000
       5 -> 12         0.24774
       5 -> 17         0.64663

 Excited state symmetry could not be determined.
 Excited State  39:      Singlet-?Sym   21.8309 eV   56.79 nm  f=0.0000  <S**2>=0.000
       5 -> 15         0.60411
       5 -> 16        -0.36205

 Excited state symmetry could not be determined.
 Excited State  40:      Singlet-?Sym   21.8309 eV   56.79 nm  f=0.0000  <S**2>=0.000
       5 -> 15         0.36205
       5 -> 16         0.60411

 Excited state symmetry could not be determined.
 Excited State  41:      Singlet-?Sym   22.0037 eV   56.35 nm  f=0.0380  <S**2>=0.000
       8 -> 18        -0.33067
       9 -> 18         0.60935

 Excited state symmetry could not be determined.
 Excited State  42:      Singlet-?Sym   22.0037 eV   56.35 nm  f=0.0380  <S**2>=0.000
       8 -> 18         0.60935
       9 -> 18         0.33067

 Excited state symmetry could not be determined.
 Excited State  43:      Singlet-?Sym   22.6853 eV   54.65 nm  f=0.0000  <S**2>=0.000
       8 -> 19         0.10549
       8 -> 20        -0.48683
       9 -> 19         0.48683
       9 -> 20         0.10549

 Excited state symmetry could not be determined.
 Excited State  44:      Singlet-?Sym   22.6853 eV   54.65 nm  f=0.0000  <S**2>=0.000
       8 -> 19         0.48683
       8 -> 20         0.10549
       9 -> 19        -0.10549
       9 -> 20         0.48683

 Excited state symmetry could not be determined.
 Excited State  45:      Singlet-?Sym   23.0134 eV   53.87 nm  f=0.0000  <S**2>=0.000
       8 -> 19        -0.46548
       8 -> 20        -0.17624
       9 -> 19        -0.17624
       9 -> 20         0.46548

 Excited state symmetry could not be determined.
 Excited State  46:      Singlet-?Sym   23.0134 eV   53.87 nm  f=0.0000  <S**2>=0.000
       8 -> 19        -0.17624
       8 -> 20         0.46548
       9 -> 19         0.46548
       9 -> 20         0.17624

 Excited State  47:      Singlet-SGG   24.9195 eV   49.75 nm  f=0.0000  <S**2>=0.000
       4 -> 10         0.68257

 Excited state symmetry could not be determined.
 Excited State  48:      Singlet-?Sym   25.9481 eV   47.78 nm  f=0.0000  <S**2>=0.000
       7 -> 18         0.69587

 Excited state symmetry could not be determined.
 Excited State  49:      Singlet-?Sym   25.9481 eV   47.78 nm  f=0.0000  <S**2>=0.000
       6 -> 18         0.69587

 Excited state symmetry could not be determined.
 Excited State  50:      Singlet-?Sym   26.5549 eV   46.69 nm  f=0.0000  <S**2>=0.000
       6 -> 20         0.46542
       7 -> 19        -0.46542
       8 -> 25         0.15147
       9 -> 24        -0.15147

 Excited state symmetry could not be determined.
 Excited State  51:      Singlet-?Sym   26.5549 eV   46.69 nm  f=0.0000  <S**2>=0.000
       6 -> 19         0.46542
       7 -> 20         0.46542
       8 -> 24         0.15147
       9 -> 25         0.15147

 Excited state symmetry could not be determined.
 Excited State  52:      Singlet-?Sym   26.8122 eV   46.24 nm  f=0.0000  <S**2>=0.000
       8 -> 22        -0.49559
       9 -> 21         0.49559

 Excited state symmetry could not be determined.
 Excited State  53:      Singlet-?Sym   26.8551 eV   46.17 nm  f=0.0000  <S**2>=0.000
       8 -> 22         0.49554
       9 -> 21         0.49554

 Excited state symmetry could not be determined.
 Excited State  54:      Singlet-?Sym   26.8551 eV   46.17 nm  f=0.0000  <S**2>=0.000
       8 -> 21        -0.49554
       9 -> 22         0.49554

 Excited State  55:      Singlet-SGU   27.2681 eV   45.47 nm  f=0.2233  <S**2>=0.000
       5 -> 18         0.63329
       8 -> 21         0.20693
       9 -> 22         0.20693

 Excited state symmetry could not be determined.
 Excited State  56:      Singlet-?Sym   27.5820 eV   44.95 nm  f=0.5664  <S**2>=0.000
       6 -> 19         0.31170
       6 -> 20         0.36930
       7 -> 19         0.36931
       7 -> 20        -0.31170

 Excited state symmetry could not be determined.
 Excited State  57:      Singlet-?Sym   27.5820 eV   44.95 nm  f=0.5664  <S**2>=0.000
       6 -> 19         0.36931
       6 -> 20        -0.31170
       7 -> 19        -0.31170
       7 -> 20        -0.36930

 Excited state symmetry could not be determined.
 Excited State  58:      Singlet-?Sym   28.1635 eV   44.02 nm  f=0.0000  <S**2>=0.000
       5 -> 20         0.70620

 Excited state symmetry could not be determined.
 Excited State  59:      Singlet-?Sym   28.1635 eV   44.02 nm  f=0.0000  <S**2>=0.000
       5 -> 19         0.70620

 Excited state symmetry could not be determined.
 Excited State  60:      Singlet-?Sym   28.6641 eV   43.25 nm  f=1.0177  <S**2>=0.000
       4 -> 12        -0.11468
       5 -> 10        -0.11928
       5 -> 18        -0.29169
       8 -> 21         0.42761
       9 -> 22         0.42761

 Excited state symmetry could not be determined.
 Excited State  61:      Singlet-?Sym   29.2223 eV   42.43 nm  f=0.0481  <S**2>=0.000
       7 -> 26        -0.12512
       8 -> 23         0.14119
       8 -> 25         0.10152
       9 -> 23         0.64735
       9 -> 24         0.10151

 Excited state symmetry could not be determined.
 Excited State  62:      Singlet-?Sym   29.2223 eV   42.43 nm  f=0.0481  <S**2>=0.000
       6 -> 26        -0.12512
       8 -> 23         0.64735
       8 -> 24        -0.10151
       9 -> 23        -0.14119
       9 -> 25         0.10152

 Excited state symmetry could not be determined.
 Excited State  63:      Singlet-?Sym   29.6205 eV   41.86 nm  f=0.0000  <S**2>=0.000
       6 -> 20         0.15246
       7 -> 19        -0.15246
       8 -> 25        -0.46842
       9 -> 24         0.46845

 Excited state symmetry could not be determined.
 Excited State  64:      Singlet-?Sym   29.6205 eV   41.86 nm  f=0.0000  <S**2>=0.000
       6 -> 19        -0.15246
       7 -> 20        -0.15246
       8 -> 24         0.46845
       9 -> 25         0.46842

 Excited state symmetry could not be determined.
 Excited State  65:      Singlet-?Sym   29.8871 eV   41.48 nm  f=0.3092  <S**2>=0.000
       5 -> 21        -0.10290
       8 -> 23        -0.15582
       8 -> 24        -0.47672
       9 -> 25         0.47675

 Excited state symmetry could not be determined.
 Excited State  66:      Singlet-?Sym   29.8871 eV   41.48 nm  f=0.3092  <S**2>=0.000
       5 -> 22        -0.10290
       8 -> 25         0.47675
       9 -> 23        -0.15582
       9 -> 24         0.47672

 Excited state symmetry could not be determined.
 Excited State  67:      Singlet-?Sym   30.2791 eV   40.95 nm  f=0.0000  <S**2>=0.000
       6 -> 22        -0.41312
       7 -> 21         0.41312
       8 -> 27        -0.27994
       9 -> 28         0.27994

 Excited state symmetry could not be determined.
 Excited State  68:      Singlet-?Sym   30.4315 eV   40.74 nm  f=0.0000  <S**2>=0.000
       6 -> 22         0.40999
       7 -> 21         0.40999
       8 -> 27         0.28430
       9 -> 28         0.28430

 Excited state symmetry could not be determined.
 Excited State  69:      Singlet-?Sym   30.4315 eV   40.74 nm  f=0.0000  <S**2>=0.000
       6 -> 21        -0.40999
       7 -> 22         0.40999
       8 -> 28        -0.28430
       9 -> 27         0.28430

 Excited state symmetry could not be determined.
 Excited State  70:      Singlet-?Sym   30.9845 eV   40.01 nm  f=0.0000  <S**2>=0.000
       6 -> 23        -0.32615
       8 -> 26         0.62039

 Excited state symmetry could not be determined.
 Excited State  71:      Singlet-?Sym   30.9845 eV   40.01 nm  f=0.0000  <S**2>=0.000
       7 -> 23        -0.32615
       9 -> 26         0.62039

 Excited State  72:      Singlet-SGG   31.6276 eV   39.20 nm  f=0.0000  <S**2>=0.000
       4 -> 10         0.14017
       4 -> 11         0.40365
       6 -> 21         0.36164
       7 -> 22         0.36164
       8 -> 28         0.14704
       9 -> 27         0.14704

 Excited State  73:      Singlet-SGU   31.6427 eV   39.18 nm  f=0.0398  <S**2>=0.000
       3 -> 10         0.11411
       4 -> 12         0.64282
       4 -> 17        -0.23095

 Excited state symmetry could not be determined.
 Excited State  74:      Singlet-?Sym   32.2787 eV   38.41 nm  f=0.0000  <S**2>=0.000
       6 -> 22        -0.27986
       7 -> 21         0.27986
       8 -> 27         0.41147
       9 -> 28        -0.41147

 Excited State  75:      Singlet-SGG   32.3738 eV   38.30 nm  f=0.0000  <S**2>=0.000
       4 -> 11         0.54828
       6 -> 21        -0.21649
       7 -> 22        -0.21649
       8 -> 28        -0.21158
       9 -> 27        -0.21158

 Excited state symmetry could not be determined.
 Excited State  76:      Singlet-?Sym   32.3795 eV   38.29 nm  f=0.0000  <S**2>=0.000
       6 -> 21         0.28451
       7 -> 22        -0.28451
       8 -> 28        -0.40899
       9 -> 27         0.40899

 Excited state symmetry could not be determined.
 Excited State  77:      Singlet-?Sym   32.3795 eV   38.29 nm  f=0.0000  <S**2>=0.000
       6 -> 22        -0.28451
       7 -> 21        -0.28451
       8 -> 27         0.40899
       9 -> 28         0.40899

 Excited State  78:      Singlet-SGU   32.5199 eV   38.13 nm  f=0.0573  <S**2>=0.000
       3 -> 10         0.65298
       4 -> 12        -0.11655
       6 -> 28        -0.12035
       7 -> 27        -0.12035

 Excited state symmetry could not be determined.
 Excited State  79:      Singlet-?Sym   32.5654 eV   38.07 nm  f=0.0000  <S**2>=0.000
       4 -> 14         0.68484

 Excited state symmetry could not be determined.
 Excited State  80:      Singlet-?Sym   32.5654 eV   38.07 nm  f=0.0000  <S**2>=0.000
       4 -> 13         0.68484

 Excited state symmetry could not be determined.
 Excited State  81:      Singlet-?Sym   32.7492 eV   37.86 nm  f=0.4283  <S**2>=0.000
       4 -> 16        -0.16185
       5 -> 21         0.57387
       5 -> 22         0.33951

 Excited state symmetry could not be determined.
 Excited State  82:      Singlet-?Sym   32.7492 eV   37.86 nm  f=0.4283  <S**2>=0.000
       4 -> 15        -0.16185
       5 -> 21        -0.33951
       5 -> 22         0.57387

 Excited state symmetry could not be determined.
 Excited State  83:      Singlet-?Sym   33.4054 eV   37.12 nm  f=0.0000  <S**2>=0.000
       4 -> 11         0.13762
       6 -> 21        -0.25440
       7 -> 22        -0.25440
       8 -> 28         0.41111
       9 -> 27         0.41111

 Excited state symmetry could not be determined.
 Excited State  84:      Singlet-?Sym   33.4071 eV   37.11 nm  f=0.0000  <S**2>=0.000
       6 -> 24         0.41651
       6 -> 25        -0.27321
       7 -> 24         0.27321
       7 -> 25         0.41651

 Excited state symmetry could not be determined.
 Excited State  85:      Singlet-?Sym   33.4071 eV   37.11 nm  f=0.0000  <S**2>=0.000
       6 -> 24        -0.27321
       6 -> 25        -0.41651
       7 -> 24         0.41651
       7 -> 25        -0.27321

 Excited state symmetry could not be determined.
 Excited State  86:      Singlet-?Sym   33.7483 eV   36.74 nm  f=0.0000  <S**2>=0.000
       4 -> 14         0.12490
       6 -> 24        -0.47950
       7 -> 25         0.47950

 Excited state symmetry could not be determined.
 Excited State  87:      Singlet-?Sym   33.7483 eV   36.74 nm  f=0.0000  <S**2>=0.000
       4 -> 13         0.12490
       6 -> 25         0.47950
       7 -> 24         0.47950

 Excited State  88:      Singlet-SGU   33.9930 eV   36.47 nm  f=0.0400  <S**2>=0.000
       4 -> 12         0.19367
       4 -> 17         0.57655
       5 -> 23        -0.33447

 Excited state symmetry could not be determined.
 Excited State  89:      Singlet-?Sym   34.1744 eV   36.28 nm  f=0.0000  <S**2>=0.000
       7 -> 23         0.62409
       9 -> 26         0.32623

 Excited state symmetry could not be determined.
 Excited State  90:      Singlet-?Sym   34.1744 eV   36.28 nm  f=0.0000  <S**2>=0.000
       6 -> 23         0.62409
       8 -> 26         0.32623

 Excited state symmetry could not be determined.
 Excited State  91:      Singlet-?Sym   34.6062 eV   35.83 nm  f=0.0000  <S**2>=0.000
       5 -> 24         0.70253

 Excited state symmetry could not be determined.
 Excited State  92:      Singlet-?Sym   34.6062 eV   35.83 nm  f=0.0000  <S**2>=0.000
       5 -> 25         0.70253

 Excited state symmetry could not be determined.
 Excited State  93:      Singlet-?Sym   34.8281 eV   35.60 nm  f=0.0125  <S**2>=0.000
       4 -> 15         0.59607
       4 -> 16         0.30952
       5 -> 22         0.15518

 Excited state symmetry could not be determined.
 Excited State  94:      Singlet-?Sym   34.8281 eV   35.60 nm  f=0.0125  <S**2>=0.000
       4 -> 15        -0.30952
       4 -> 16         0.59607
       5 -> 21         0.15518

 Excited State  95:      Singlet-SGU   35.1443 eV   35.28 nm  f=0.0146  <S**2>=0.000
       4 -> 17         0.31197
       5 -> 23         0.57126
       6 -> 28        -0.16769
       7 -> 27        -0.16769

 Excited state symmetry could not be determined.
 Excited State  96:      Singlet-?Sym   35.7445 eV   34.69 nm  f=0.0000  <S**2>=0.000
       6 -> 27         0.49224
       7 -> 28        -0.49224

 Excited state symmetry could not be determined.
 Excited State  97:      Singlet-?Sym   35.8193 eV   34.61 nm  f=0.0000  <S**2>=0.000
       6 -> 27         0.49313
       7 -> 28         0.49313

 Excited state symmetry could not be determined.
 Excited State  98:      Singlet-?Sym   35.8194 eV   34.61 nm  f=0.0000  <S**2>=0.000
       6 -> 28        -0.49313
       7 -> 27         0.49313

 Excited state symmetry could not be determined.
 Excited State  99:      Singlet-?Sym   36.0415 eV   34.40 nm  f=0.0440  <S**2>=0.000
       6 -> 26        -0.36327
       7 -> 26         0.58362
       9 -> 23         0.10850

 Excited state symmetry could not be determined.

 The electronic state is 1-SGG.
 Alpha  occ. eigenvalues --  -24.65840 -24.65815  -1.52135  -1.23382  -0.76439
 Alpha  occ. eigenvalues --   -0.71564  -0.71564  -0.56787  -0.56787
 Alpha virt. eigenvalues --   -0.03349   0.14807   0.16831   0.20021   0.20021
 Alpha virt. eigenvalues --    0.25331   0.25331   0.26397   0.47459   0.57098
 Alpha virt. eigenvalues --    0.57098   0.72785   0.72785   0.78222   0.79489

 Mulliken charges:
               1
     1  F   -0.000000
     2  F   -0.000000
 Sum of Mulliken charges =  -0.00000

 Dipole moment (field-independent basis, Debye):
    X=             -0.0000    Y=             -0.0000    Z=              0.0000  Tot=              0.0000
 Quadrupole moment (field-independent basis, Debye-Ang):
   XX=             -9.9008   YY=             -9.9008   ZZ=             -9.1765
   XY=              0.0000   XZ=              0.0000   YZ=              0.0000

 Normal termination of Gaussian 16 at Mon Mar 21 20:11:55 2022.
