 Gaussian 16, Revision C.01,
 Gaussian 16:  EM64L-G16RevC.01  3-Jul-2019

 ----------------------------------------------------------------------
 #P TD(Nstates=10000) lc-blyp/Gen SCF(maxcycles=100) Int(Grid=ultrafine
 )
 ----------------------------------------------------------------------

 ---------------------
 xGDB7_00001_tier4.com
 ---------------------
 Symbolic Z-matrix:
 Charge =  0 Multiplicity = 1

                         Standard orientation:
 ---------------------------------------------------------------------
 Center     Atomic      Atomic             Coordinates (Angstroms)
 Number     Number       Type             X           Y           Z
 ---------------------------------------------------------------------
      1          6           0        0.000000    0.000000    0.597322
      2          6           0        0.000000    0.000000   -0.597322
      3          1           0        0.000000    0.000000    1.661338
      4          1           0        0.000000    0.000000   -1.661338
 ---------------------------------------------------------------------

 SCF Done:  E(RLC-B+HF-LYP) =  -77.0220088880     A.U. after   10 cycles

 Excitation energies and oscillator strengths:

 Excited state symmetry could not be determined.
 Excited State   1:      Singlet-?Sym    6.5619 eV  188.94 nm  f=0.0000  <S**2>=0.000
       6 -> 11        -0.48795
       6 -> 19         0.10870
       7 -> 10         0.48795
       7 -> 18        -0.10870
 This state for optimization and/or second-order correction.
 Total Energy, E(TD-HF/TD-DFT) =  -76.7808619269
 Copying the excited state density for this state as the 1-particle RhoCI density.

 Excited state symmetry could not be determined.
 Excited State   2:      Singlet-?Sym    7.0018 eV  177.07 nm  f=0.0000  <S**2>=0.000
       6 -> 11         0.48975
       7 -> 10         0.48975

 Excited state symmetry could not be determined.
 Excited State   3:      Singlet-?Sym    7.0018 eV  177.07 nm  f=0.0000  <S**2>=0.000
       6 -> 10        -0.48975
       7 -> 11         0.48975

 Excited state symmetry could not be determined.
 Excited State   4:      Singlet-?Sym    8.8093 eV  140.74 nm  f=0.1140  <S**2>=0.000
       6 ->  8        -0.40749
       7 ->  8         0.56410

 Excited state symmetry could not be determined.
 Excited State   5:      Singlet-?Sym    8.8093 eV  140.74 nm  f=0.1140  <S**2>=0.000
       6 ->  8         0.56410
       7 ->  8         0.40749

 Excited state symmetry could not be determined.
 Excited State   6:      Singlet-?Sym    9.4112 eV  131.74 nm  f=0.0000  <S**2>=0.000
       7 ->  9         0.68699
       7 -> 15        -0.10231
       7 -> 21         0.10332

 Excited state symmetry could not be determined.
 Excited State   7:      Singlet-?Sym    9.4112 eV  131.74 nm  f=0.0000  <S**2>=0.000
       6 ->  9         0.68699
       6 -> 15        -0.10231
       6 -> 21         0.10332

 Excited state symmetry could not be determined.
 Excited State   8:      Singlet-?Sym   10.5825 eV  117.16 nm  f=0.0227  <S**2>=0.000
       6 -> 12        -0.39589
       7 -> 12         0.55781
       7 -> 22         0.10166

 Excited state symmetry could not be determined.
 Excited State   9:      Singlet-?Sym   10.5825 eV  117.16 nm  f=0.0227  <S**2>=0.000
       6 -> 12         0.55781
       6 -> 22         0.10166
       7 -> 12         0.39589

 Excited state symmetry could not be determined.
 Excited State  10:      Singlet-?Sym   10.6383 eV  116.55 nm  f=0.9149  <S**2>=0.000
       6 -> 10         0.49435
       7 -> 11         0.49435

 Excited state symmetry could not be determined.
 Excited State  11:      Singlet-?Sym   12.2793 eV  100.97 nm  f=0.0000  <S**2>=0.000
       6 -> 13        -0.49791
       7 -> 14         0.49791

 Excited state symmetry could not be determined.
 Excited State  12:      Singlet-?Sym   12.3087 eV  100.73 nm  f=0.0000  <S**2>=0.000
       6 -> 13         0.49785
       7 -> 14         0.49785

 Excited state symmetry could not be determined.
 Excited State  13:      Singlet-?Sym   12.3087 eV  100.73 nm  f=0.0000  <S**2>=0.000
       6 -> 14        -0.49785
       7 -> 13         0.49785

 Excited state symmetry could not be determined.
 Excited State  14:      Singlet-?Sym   12.3444 eV  100.44 nm  f=0.0000  <S**2>=0.000
       5 -> 10        -0.11698
       5 -> 11        -0.15452
       6 -> 15         0.39486
       7 -> 15         0.52161

 Excited state symmetry could not be determined.
 Excited State  15:      Singlet-?Sym   12.3444 eV  100.44 nm  f=0.0000  <S**2>=0.000
       5 -> 10        -0.15452
       5 -> 11         0.11698
       6 -> 15         0.52161
       7 -> 15        -0.39486

 Excited state symmetry could not be determined.
 Excited State  16:      Singlet-?Sym   12.9466 eV   95.77 nm  f=0.0000  <S**2>=0.000
       5 -> 10         0.55405
       5 -> 11         0.35427
       5 -> 18        -0.10276
       6 -> 15         0.16508
       7 -> 15         0.10556

 Excited state symmetry could not be determined.
 Excited State  17:      Singlet-?Sym   12.9466 eV   95.77 nm  f=0.0000  <S**2>=0.000
       5 -> 10        -0.35427
       5 -> 11         0.55405
       5 -> 19        -0.10276
       6 -> 15        -0.10556
       7 -> 15         0.16508

 Excited state symmetry could not be determined.
 Excited State  18:      Singlet-?Sym   13.1179 eV   94.52 nm  f=0.0000  <S**2>=0.000
       4 ->  9        -0.10080
       5 -> 12        -0.15925
       6 -> 14         0.47365
       7 -> 13         0.47365

 Excited state symmetry could not be determined.
 Excited State  19:      Singlet-?Sym   13.5136 eV   91.75 nm  f=0.0000  <S**2>=0.000
       6 -> 16        -0.33632
       6 -> 17        -0.36990
       7 -> 16         0.36990
       7 -> 17        -0.33632

 Excited state symmetry could not be determined.
 Excited State  20:      Singlet-?Sym   13.5136 eV   91.75 nm  f=0.0000  <S**2>=0.000
       6 -> 16         0.36990
       6 -> 17        -0.33632
       7 -> 16         0.33632
       7 -> 17         0.36990

 Excited state symmetry could not be determined.
 Excited State  21:      Singlet-?Sym   14.0192 eV   88.44 nm  f=0.2513  <S**2>=0.000
       4 -> 10         0.15826
       4 -> 11        -0.19031
       6 -> 16         0.29496
       6 -> 17         0.35469
       7 -> 16         0.35469
       7 -> 17        -0.29496

 Excited state symmetry could not be determined.
 Excited State  22:      Singlet-?Sym   14.0192 eV   88.44 nm  f=0.2513  <S**2>=0.000
       4 -> 10         0.19031
       4 -> 11         0.15826
       6 -> 16         0.35469
       6 -> 17        -0.29496
       7 -> 16        -0.29496
       7 -> 17        -0.35469

 Excited State  23:      Singlet-SGU   14.6618 eV   84.56 nm  f=0.4411  <S**2>=0.000
       4 ->  8        -0.22807
       4 -> 12         0.14050
       5 ->  9         0.61606
       5 -> 15        -0.10232
       6 -> 18        -0.11876
       7 -> 19        -0.11876

 Excited State  24:      Singlet-SGG   14.6712 eV   84.51 nm  f=0.0000  <S**2>=0.000
       4 ->  9        -0.14091
       5 ->  8         0.67589

 Excited state symmetry could not be determined.
 Excited State  25:      Singlet-?Sym   14.7806 eV   83.88 nm  f=0.0000  <S**2>=0.000
       6 -> 11        -0.11361
       6 -> 19        -0.47631
       7 -> 10         0.11361
       7 -> 18         0.47631

 Excited state symmetry could not be determined.
 Excited State  26:      Singlet-?Sym   14.8440 eV   83.52 nm  f=0.0000  <S**2>=0.000
       6 -> 11         0.10117
       6 -> 19         0.47922
       7 -> 10         0.10117
       7 -> 18         0.47922

 Excited state symmetry could not be determined.
 Excited State  27:      Singlet-?Sym   14.8440 eV   83.52 nm  f=0.0000  <S**2>=0.000
       6 -> 10         0.10117
       6 -> 18         0.47922
       7 -> 11        -0.10117
       7 -> 19        -0.47922

 Excited state symmetry could not be determined.
 Excited State  28:      Singlet-?Sym   16.1886 eV   76.59 nm  f=0.3886  <S**2>=0.000
       4 -> 10         0.38022
       4 -> 11         0.44243
       6 -> 17         0.10291
       6 -> 20        -0.19395
       7 -> 16         0.10291
       7 -> 20        -0.22568

 Excited state symmetry could not be determined.
 Excited State  29:      Singlet-?Sym   16.1886 eV   76.59 nm  f=0.3886  <S**2>=0.000
       4 -> 10         0.44243
       4 -> 11        -0.38022
       6 -> 16        -0.10291
       6 -> 20        -0.22568
       7 -> 17         0.10291
       7 -> 20         0.19395

 Excited state symmetry could not be determined.
 Excited State  30:      Singlet-?Sym   16.3674 eV   75.75 nm  f=0.0009  <S**2>=0.000
       4 ->  8         0.23099
       5 ->  9         0.22522
       5 -> 15        -0.13300
       6 -> 18         0.42631
       7 -> 19         0.42631

 Excited State  31:      Singlet-SGG   16.6959 eV   74.26 nm  f=0.0000  <S**2>=0.000
       4 ->  9         0.35511
       5 -> 12         0.55364
       6 -> 14         0.13152
       7 -> 13         0.13152

 Excited state symmetry could not be determined.
 Excited State  32:      Singlet-?Sym   16.8679 eV   73.50 nm  f=0.5097  <S**2>=0.000
       4 -> 11         0.25356
       6 -> 17         0.10928
       7 -> 16         0.10928
       7 -> 20         0.62486

 Excited state symmetry could not be determined.
 Excited State  33:      Singlet-?Sym   16.8679 eV   73.50 nm  f=0.5097  <S**2>=0.000
       4 -> 10         0.25356
       6 -> 16        -0.10928
       6 -> 20         0.62486
       7 -> 17         0.10928

 Excited state symmetry could not be determined.
 Excited State  34:      Singlet-?Sym   17.1145 eV   72.44 nm  f=0.0000  <S**2>=0.000
       6 -> 21         0.24628
       7 -> 21         0.63235

 Excited state symmetry could not be determined.
 Excited State  35:      Singlet-?Sym   17.1145 eV   72.44 nm  f=0.0000  <S**2>=0.000
       6 -> 21         0.63235
       7 -> 21        -0.24628

 Excited State  36:      Singlet-SGU   17.1635 eV   72.24 nm  f=0.1375  <S**2>=0.000
       4 ->  8         0.58091
       4 -> 12         0.25059
       6 -> 18        -0.19058
       7 -> 19        -0.19058

 Excited state symmetry could not be determined.
 Excited State  37:      Singlet-?Sym   17.7040 eV   70.03 nm  f=0.0000  <S**2>=0.000
       6 -> 23         0.47934
       6 -> 24         0.14209
       7 -> 23        -0.14209
       7 -> 24         0.47934

 Excited state symmetry could not be determined.
 Excited State  38:      Singlet-?Sym   17.7040 eV   70.03 nm  f=0.0000  <S**2>=0.000
       6 -> 23         0.14209
       6 -> 24        -0.47934
       7 -> 23         0.47934
       7 -> 24         0.14209

 Excited state symmetry could not be determined.
 Excited State  39:      Singlet-?Sym   17.8334 eV   69.52 nm  f=0.1536  <S**2>=0.000
       4 -> 19         0.18571
       5 -> 13         0.66238

 Excited state symmetry could not be determined.
 Excited State  40:      Singlet-?Sym   17.8334 eV   69.52 nm  f=0.1536  <S**2>=0.000
       4 -> 18         0.18571
       5 -> 14         0.66238

 Excited State  41:      Singlet-SGG   17.8490 eV   69.46 nm  f=0.0000  <S**2>=0.000
       4 ->  9         0.56063
       5 ->  8         0.15745
       5 -> 12        -0.37849

 Excited state symmetry could not be determined.
 Excited State  42:      Singlet-?Sym   17.8825 eV   69.33 nm  f=0.0000  <S**2>=0.000
       6 -> 23        -0.13792
       6 -> 24         0.47039
       7 -> 21        -0.10082
       7 -> 23         0.47039
       7 -> 24         0.13792

 Excited state symmetry could not be determined.
 Excited State  43:      Singlet-?Sym   17.8825 eV   69.33 nm  f=0.0000  <S**2>=0.000
       6 -> 21        -0.10082
       6 -> 23        -0.47039
       6 -> 24        -0.13792
       7 -> 23        -0.13792
       7 -> 24         0.47039

 Excited state symmetry could not be determined.
 Excited State  44:      Singlet-?Sym   18.0241 eV   68.79 nm  f=0.0542  <S**2>=0.000
       4 -> 10        -0.12745
       6 -> 22         0.58225
       7 -> 22         0.33090

 Excited state symmetry could not be determined.
 Excited State  45:      Singlet-?Sym   18.0241 eV   68.79 nm  f=0.0542  <S**2>=0.000
       4 -> 11        -0.12745
       6 -> 22        -0.33090
       7 -> 22         0.58225

 Excited State  46:      Singlet-SGU   18.1031 eV   68.49 nm  f=0.4298  <S**2>=0.000
       4 ->  8         0.19402
       4 -> 12        -0.42246
       5 ->  9         0.23406
       5 -> 15         0.46662

 Excited state symmetry could not be determined.
 Excited State  47:      Singlet-?Sym   18.1818 eV   68.19 nm  f=0.0000  <S**2>=0.000
       6 -> 27         0.49859
       7 -> 28        -0.49859

 Excited state symmetry could not be determined.
 Excited State  48:      Singlet-?Sym   18.2067 eV   68.10 nm  f=0.0000  <S**2>=0.000
       6 -> 27         0.49835
       7 -> 28         0.49835

 Excited state symmetry could not be determined.
 Excited State  49:      Singlet-?Sym   18.2067 eV   68.10 nm  f=0.0000  <S**2>=0.000
       6 -> 28        -0.49835
       7 -> 27         0.49835

 Excited state symmetry could not be determined.
 Excited State  50:      Singlet-?Sym   18.8958 eV   65.61 nm  f=0.0000  <S**2>=0.000
       3 -> 10        -0.12368
       3 -> 11         0.15226
       4 -> 13         0.39826
       4 -> 14        -0.32350
       5 -> 18        -0.26812
       5 -> 19         0.33008

 Excited state symmetry could not be determined.
 Excited State  51:      Singlet-?Sym   18.8958 eV   65.61 nm  f=0.0000  <S**2>=0.000
       3 -> 10         0.15226
       3 -> 11         0.12368
       4 -> 13         0.32350
       4 -> 14         0.39826
       5 -> 18         0.33008
       5 -> 19         0.26812

 Excited state symmetry could not be determined.
 Excited State  52:      Singlet-?Sym   18.9737 eV   65.35 nm  f=0.0000  <S**2>=0.000
       4 ->  9        -0.11641
       6 -> 28         0.48355
       7 -> 27         0.48355

 Excited State  53:      Singlet-SGU   19.1660 eV   64.69 nm  f=0.0489  <S**2>=0.000
       4 -> 12         0.39880
       5 -> 15         0.43464
       6 -> 26        -0.23467
       7 -> 25        -0.23467

 Excited state symmetry could not be determined.
 Excited State  54:      Singlet-?Sym   19.3051 eV   64.22 nm  f=0.0000  <S**2>=0.000
       6 -> 29        -0.19047
       7 -> 15         0.10640
       7 -> 29         0.65554

 Excited state symmetry could not be determined.
 Excited State  55:      Singlet-?Sym   19.3051 eV   64.22 nm  f=0.0000  <S**2>=0.000
       6 -> 15         0.10640
       6 -> 29         0.65554
       7 -> 29         0.19047

 Excited state symmetry could not be determined.
 Excited State  56:      Singlet-?Sym   19.4101 eV   63.88 nm  f=0.0000  <S**2>=0.000
       5 -> 16         0.70004

 Excited state symmetry could not be determined.
 Excited State  57:      Singlet-?Sym   19.4101 eV   63.88 nm  f=0.0000  <S**2>=0.000
       5 -> 17         0.70004

 Excited state symmetry could not be determined.
 Excited State  58:      Singlet-?Sym   19.5998 eV   63.26 nm  f=0.0000  <S**2>=0.000
       6 -> 19        -0.10258
       6 -> 25         0.48800
       7 -> 18        -0.10258
       7 -> 26         0.48800

 Excited state symmetry could not be determined.
 Excited State  59:      Singlet-?Sym   19.5998 eV   63.26 nm  f=0.0000  <S**2>=0.000
       6 -> 18         0.10258
       6 -> 26        -0.48800
       7 -> 19        -0.10258
       7 -> 25         0.48800

 Excited state symmetry could not be determined.
 Excited State  60:      Singlet-?Sym   19.6357 eV   63.14 nm  f=0.0000  <S**2>=0.000
       6 -> 19        -0.10482
       6 -> 25         0.48802
       7 -> 18         0.10482
       7 -> 26        -0.48802

 Excited state symmetry could not be determined.
 Excited State  61:      Singlet-?Sym   20.1543 eV   61.52 nm  f=0.0558  <S**2>=0.000
       4 -> 12         0.24540
       5 -> 15         0.20879
       6 -> 26         0.42634
       7 -> 25         0.42634

 Excited State  62:      Singlet-SGG   20.5680 eV   60.28 nm  f=0.0000  <S**2>=0.000
       3 -> 12        -0.10816
       4 -> 15         0.66378
       5 -> 20        -0.12229

 Excited state symmetry could not be determined.
 Excited State  63:      Singlet-?Sym   20.6729 eV   59.97 nm  f=0.0000  <S**2>=0.000
       3 -> 10         0.58738
       3 -> 11         0.27961
       3 -> 18        -0.11650
       4 -> 14        -0.16215

 Excited state symmetry could not be determined.
 Excited State  64:      Singlet-?Sym   20.6729 eV   59.97 nm  f=0.0000  <S**2>=0.000
       3 -> 10        -0.27961
       3 -> 11         0.58738
       3 -> 19        -0.11650
       4 -> 13        -0.16215

 Excited state symmetry could not be determined.
 Excited State  65:      Singlet-?Sym   21.3599 eV   58.05 nm  f=0.0000  <S**2>=0.000
       4 -> 16         0.66116
       5 -> 23         0.24737

 Excited state symmetry could not be determined.
 Excited State  66:      Singlet-?Sym   21.3599 eV   58.05 nm  f=0.0000  <S**2>=0.000
       4 -> 17         0.66116
       5 -> 24         0.24737

 Excited state symmetry could not be determined.
 Excited State  67:      Singlet-?Sym   21.5319 eV   57.58 nm  f=0.0000  <S**2>=0.000
       4 -> 13        -0.42256
       4 -> 14        -0.11998
       5 -> 11         0.11440
       5 -> 18         0.14332
       5 -> 19         0.50477

 Excited state symmetry could not be determined.
 Excited State  68:      Singlet-?Sym   21.5319 eV   57.58 nm  f=0.0000  <S**2>=0.000
       4 -> 13         0.11998
       4 -> 14        -0.42256
       5 -> 10         0.11440
       5 -> 18         0.50477
       5 -> 19        -0.14332

 Excited State  69:      Singlet-SGG   22.0164 eV   56.31 nm  f=0.0000  <S**2>=0.000
       3 ->  8         0.66096
       4 -> 15         0.11086
       5 -> 20         0.13978

 Excited State  70:      Singlet-SGU   22.4250 eV   55.29 nm  f=0.2961  <S**2>=0.000
       3 ->  9        -0.32824
       4 -> 22         0.19990
       5 -> 21         0.56976

 Excited State  71:      Singlet-SGG   22.7790 eV   54.43 nm  f=0.0000  <S**2>=0.000
       3 ->  8        -0.15641
       5 -> 20         0.66850

 Excited state symmetry could not be determined.
 Excited State  72:      Singlet-?Sym   22.8783 eV   54.19 nm  f=0.0033  <S**2>=0.000
       3 -> 14         0.12338
       4 -> 18         0.60916
       4 -> 19        -0.19051
       5 -> 14        -0.16460
       5 -> 28         0.17356

 Excited state symmetry could not be determined.
 Excited State  73:      Singlet-?Sym   22.8783 eV   54.19 nm  f=0.0033  <S**2>=0.000
       3 -> 13         0.12338
       4 -> 18         0.19051
       4 -> 19         0.60916
       5 -> 13        -0.16460
       5 -> 27         0.17356

 Excited State  74:      Singlet-SGU   22.8863 eV   54.17 nm  f=0.0708  <S**2>=0.000
       3 ->  9         0.59998
       4 -> 22         0.10838
       5 -> 21         0.32126

 Excited State  75:      Singlet-SGG   23.5840 eV   52.57 nm  f=0.0000  <S**2>=0.000
       4 -> 21         0.32900
       5 -> 22         0.58242
       6 -> 33        -0.13003
       7 -> 32        -0.13003

 Excited state symmetry could not be determined.
 Excited State  76:      Singlet-?Sym   23.8954 eV   51.89 nm  f=0.0000  <S**2>=0.000
       4 -> 16        -0.24603
       5 -> 23         0.66182

 Excited state symmetry could not be determined.
 Excited State  77:      Singlet-?Sym   23.8954 eV   51.89 nm  f=0.0000  <S**2>=0.000
       4 -> 17        -0.24603
       5 -> 24         0.66182

 Excited State  78:      Singlet-SGG   24.0748 eV   51.50 nm  f=0.0000  <S**2>=0.000
       3 -> 12         0.67418
       3 -> 22         0.11508
       4 -> 15         0.10344

 Excited state symmetry could not be determined.
 Excited State  79:      Singlet-?Sym   24.5050 eV   50.60 nm  f=0.1118  <S**2>=0.000
       4 -> 19        -0.14690
       5 -> 27         0.59960
       5 -> 28        -0.30758

 Excited state symmetry could not be determined.
 Excited State  80:      Singlet-?Sym   24.5050 eV   50.60 nm  f=0.1118  <S**2>=0.000
       4 -> 18        -0.14690
       5 -> 27         0.30758
       5 -> 28         0.59960

 Excited State  81:      Singlet-SGU   24.7980 eV   50.00 nm  f=0.0483  <S**2>=0.000
       4 -> 20         0.63704
       4 -> 22        -0.17045
       5 -> 29        -0.19803

 Excited state symmetry could not be determined.
 Excited State  82:      Singlet-?Sym   25.2919 eV   49.02 nm  f=0.0000  <S**2>=0.000
       5 -> 19        -0.10359
       5 -> 25         0.61113
       5 -> 26         0.30691

 Excited state symmetry could not be determined.
 Excited State  83:      Singlet-?Sym   25.2919 eV   49.02 nm  f=0.0000  <S**2>=0.000
       5 -> 18        -0.10359
       5 -> 25        -0.30691
       5 -> 26         0.61113

 Excited state symmetry could not be determined.
 Excited State  84:      Singlet-?Sym   25.3224 eV   48.96 nm  f=0.0000  <S**2>=0.000
       7 -> 30         0.69394

 Excited state symmetry could not be determined.
 Excited State  85:      Singlet-?Sym   25.3224 eV   48.96 nm  f=0.0000  <S**2>=0.000
       6 -> 30         0.69394

 Excited state symmetry could not be determined.
 Excited State  86:      Singlet-?Sym   25.5937 eV   48.44 nm  f=0.0000  <S**2>=0.000
       3 -> 16         0.28271
       4 -> 23         0.64360

 Excited state symmetry could not be determined.
 Excited State  87:      Singlet-?Sym   25.5937 eV   48.44 nm  f=0.0000  <S**2>=0.000
       3 -> 17         0.28271
       4 -> 24         0.64360

 Excited State  88:      Singlet-SGG   25.6008 eV   48.43 nm  f=0.0000  <S**2>=0.000
       4 -> 21         0.60026
       5 -> 22        -0.34119

 Excited State  89:      Singlet-SGU   25.7253 eV   48.20 nm  f=0.0350  <S**2>=0.000
       3 -> 15         0.63823
       3 -> 29        -0.11197
       4 -> 22         0.19658
       5 -> 21        -0.12125

 Excited state symmetry could not be determined.
 Excited State  90:      Singlet-?Sym   25.8090 eV   48.04 nm  f=0.0001  <S**2>=0.000
       3 -> 13        -0.24810
       3 -> 14         0.63909
       4 -> 18        -0.10693

 Excited state symmetry could not be determined.
 Excited State  91:      Singlet-?Sym   25.8090 eV   48.04 nm  f=0.0001  <S**2>=0.000
       3 -> 13         0.63909
       3 -> 14         0.24810
       4 -> 19        -0.10693

 Excited State  92:      Singlet-SGU   25.8590 eV   47.95 nm  f=0.0970  <S**2>=0.000
       3 -> 15        -0.17025
       4 -> 20         0.25111
       4 -> 22         0.20847
       5 -> 29         0.58140

 Excited State  93:      Singlet-SGU   26.4245 eV   46.92 nm  f=0.0027  <S**2>=0.000
       3 -> 15        -0.14798
       4 -> 22         0.56643
       5 -> 21        -0.16872
       5 -> 29        -0.30192

 Excited state symmetry could not be determined.
 Excited State  94:      Singlet-?Sym   26.6190 eV   46.58 nm  f=0.0000  <S**2>=0.000
       3 -> 19         0.13263
       4 -> 27         0.67598
       5 -> 25         0.10615

 Excited state symmetry could not be determined.
 Excited State  95:      Singlet-?Sym   26.6190 eV   46.58 nm  f=0.0000  <S**2>=0.000
       3 -> 18         0.13263
       4 -> 28         0.67598
       5 -> 26         0.10615

 Excited state symmetry could not be determined.
 Excited State  96:      Singlet-?Sym   26.8212 eV   46.23 nm  f=0.0000  <S**2>=0.000
       3 -> 16         0.59556
       4 -> 23        -0.26334
       6 -> 33        -0.18586
       7 -> 32         0.18586

 Excited state symmetry could not be determined.
 Excited State  97:      Singlet-?Sym   26.8212 eV   46.23 nm  f=0.0000  <S**2>=0.000
       3 -> 17         0.59556

 The electronic state is 1-SGG.
 Alpha  occ. eigenvalues --  -10.16746 -10.16474  -0.91189  -0.70932  -0.63736
 Alpha  occ. eigenvalues --   -0.42451  -0.42451
 Alpha virt. eigenvalues --    0.08822   0.10498   0.11836   0.11836   0.18205
 Alpha virt. eigenvalues --    0.23929   0.23929   0.24670   0.31891   0.31891
 Alpha virt. eigenvalues --    0.34845   0.34845   0.40178   0.40824   0.44041

 Mulliken charges:
               1
     1  C    0.322560
     2  C    0.322560
     3  H   -0.322560
     4  H   -0.322560
 Sum of Mulliken charges =  -0.00000

 Dipole moment (field-independent basis, Debye):
    X=             -0.0000    Y=              0.0000    Z=              0.0000  Tot=              0.0000
 Quadrupole moment (field-independent basis, Debye-Ang):
   XX=            -13.5712   YY=            -13.5712   ZZ=             -7.1732
   XY=             -0.0000   XZ=              0.0000   YZ=              0.0000

 Normal termination of Gaussian 16 at Mon Mar 21 20:15:15 2022.
