 Gaussian 16, Revision C.01,
 Gaussian 16:  EM64L-G16RevC.01  3-Jul-2019

 ----------------------------------------------------------------------
 #P TD(Nstates=10000) lc-blyp/Gen SCF(maxcycles=100) Int(Grid=ultrafine
 )
 ----------------------------------------------------------------------

 ---------------------
 xGDB7_00001_tier4.com
 ---------------------
 Symbolic Z-matrix:
 Charge =  0 Multiplicity = 1

                         Standard orientation:
 ---------------------------------------------------------------------
 Center     Atomic      Atomic             Coordinates (Angstroms)
 Number     Number       Type             X           Y           Z
 ---------------------------------------------------------------------
      1          6           0        0.000000    0.000000    0.761397
      2          6           0       -0.000000   -0.000000   -0.761397
      3          1           0        0.000000    1.017110    1.157248
      4          1           0        0.880843   -0.508555    1.157248
      5          1           0       -0.880843   -0.508555    1.157248
      6          1           0        0.880843    0.508555   -1.157248
      7          1           0       -0.880843    0.508555   -1.157248
      8          1           0       -0.000000   -1.017110   -1.157248
 ---------------------------------------------------------------------

 SCF Done:  E(RLC-B+HF-LYP) =  -79.5024048738     A.U. after   10 cycles

 Excitation energies and oscillator strengths:

 Excited State   1:      Singlet-EG     9.6607 eV  128.34 nm  f=0.0000  <S**2>=0.000
       8 -> 10         0.68571
 This state for optimization and/or second-order correction.
 Total Energy, E(TD-HF/TD-DFT) =  -79.1473801922
 Copying the excited state density for this state as the 1-particle RhoCI density.

 Excited State   2:      Singlet-EG     9.6607 eV  128.34 nm  f=0.0000  <S**2>=0.000
       9 -> 10         0.68571

 Excited State   3:      Singlet-A1G   10.5944 eV  117.03 nm  f=0.0000  <S**2>=0.000
       7 -> 10         0.69050
       7 -> 16        -0.10301

 Excited State   4:      Singlet-EU    10.6686 eV  116.21 nm  f=0.1693  <S**2>=0.000
       6 -> 10         0.19454
       9 -> 11         0.65956

 Excited State   5:      Singlet-EU    10.6686 eV  116.21 nm  f=0.1693  <S**2>=0.000
       5 -> 10         0.19454
       8 -> 11         0.65957

 Excited State   6:      Singlet-A2U   11.6537 eV  106.39 nm  f=0.4009  <S**2>=0.000
       7 -> 11         0.68155

 Excited State   7:      Singlet-EG    11.7487 eV  105.53 nm  f=0.0751  <S**2>=0.000
       8 -> 12         0.47665
       9 -> 11        -0.11333
       9 -> 13         0.47665

 Excited State   8:      Singlet-EG    11.7487 eV  105.53 nm  f=0.0751  <S**2>=0.000
       8 -> 11        -0.11333
       8 -> 13        -0.47665
       9 -> 12         0.47665

 Excited State   9:      Singlet-EG    11.7897 eV  105.16 nm  f=0.0000  <S**2>=0.000
       8 -> 12        -0.48537
       9 -> 13         0.48537

 Excited State  10:      Singlet-EU    11.9392 eV  103.85 nm  f=0.0000  <S**2>=0.000
       8 -> 14         0.47954
       9 -> 15        -0.47953

 Excited State  11:      Singlet-EG    12.1008 eV  102.46 nm  f=0.1841  <S**2>=0.000
       7 -> 11         0.13668
       8 -> 13         0.47881
       9 -> 12         0.47881

 Excited State  12:      Singlet-EU    12.2090 eV  101.55 nm  f=0.0000  <S**2>=0.000
       8 -> 14         0.48673
       9 -> 15         0.48674

 Excited State  13:      Singlet-EU    12.2090 eV  101.55 nm  f=0.0000  <S**2>=0.000
       8 -> 15        -0.48671
       9 -> 14         0.48675

 Excited State  14:      Singlet-EU    12.2376 eV  101.31 nm  f=0.0000  <S**2>=0.000
       8 -> 15         0.47933
       9 -> 14         0.47929

 Excited State  15:      Singlet-EU    12.5422 eV   98.85 nm  f=0.0322  <S**2>=0.000
       6 -> 10         0.10934
       7 -> 12         0.67809
       7 -> 31        -0.11294

 Excited State  16:      Singlet-EU    12.5422 eV   98.85 nm  f=0.0322  <S**2>=0.000
       5 -> 10         0.10934
       7 -> 13         0.67809
       7 -> 32        -0.11294

 Excited State  17:      Singlet-EG    12.6084 eV   98.33 nm  f=0.0000  <S**2>=0.000
       6 -> 11         0.32969
       7 -> 14        -0.19413
       9 -> 16         0.56082

 Excited State  18:      Singlet-EG    12.6084 eV   98.33 nm  f=0.0000  <S**2>=0.000
       5 -> 11         0.32969
       7 -> 15        -0.19413
       8 -> 16         0.56082

 Excited State  19:      Singlet-EG    12.6785 eV   97.79 nm  f=0.0000  <S**2>=0.000
       7 -> 15         0.65399
       7 -> 30        -0.10482
       8 -> 16         0.18393

 Excited State  20:      Singlet-EG    12.6785 eV   97.79 nm  f=0.0000  <S**2>=0.000
       7 -> 14         0.65399
       7 -> 29        -0.10482
       9 -> 16         0.18393

 Excited State  21:      Singlet-EU    12.7166 eV   97.50 nm  f=0.1001  <S**2>=0.000
       6 -> 10         0.60546
       6 -> 16        -0.14750
       7 -> 12        -0.12035
       9 -> 11        -0.14548
       9 -> 21         0.17987

 Excited State  22:      Singlet-EU    12.7166 eV   97.50 nm  f=0.1001  <S**2>=0.000
       5 -> 10         0.60546
       5 -> 16        -0.14750
       7 -> 13        -0.12035
       8 -> 11        -0.14548
       8 -> 21         0.17987

 Excited State  23:      Singlet-EU    13.3354 eV   92.97 nm  f=0.0000  <S**2>=0.000
       5 -> 12        -0.24178
       6 -> 13         0.24178
       8 -> 17        -0.42074
       9 -> 18         0.42074

 Excited State  24:      Singlet-EU    13.3989 eV   92.53 nm  f=0.0000  <S**2>=0.000
       5 -> 12         0.22910
       6 -> 13         0.22910
       8 -> 17         0.41855
       9 -> 16        -0.12717
       9 -> 18         0.41855

 Excited State  25:      Singlet-EU    13.3989 eV   92.53 nm  f=0.0000  <S**2>=0.000
       5 -> 13         0.22910
       6 -> 12        -0.22910
       8 -> 16         0.12717
       8 -> 18         0.41855
       9 -> 17        -0.41855

 Excited State  26:      Singlet-EG    13.6837 eV   90.61 nm  f=0.0000  <S**2>=0.000
       5 -> 14        -0.24574
       6 -> 15         0.24574
       8 -> 19         0.41977
       9 -> 20        -0.41978

 Excited State  27:      Singlet-A1G   13.8642 eV   89.43 nm  f=0.0000  <S**2>=0.000
       5 -> 13         0.13107
       6 -> 12         0.13107
       7 -> 16         0.56170
       8 -> 18         0.26030
       9 -> 17         0.26030

 Excited State  28:      Singlet-EU    14.0245 eV   88.41 nm  f=0.0164  <S**2>=0.000
       6 -> 10        -0.24618
       6 -> 16        -0.10671
       8 -> 19         0.22330
       9 -> 11         0.11613
       9 -> 20         0.22330
       9 -> 21         0.51713

 Excited State  29:      Singlet-EU    14.0245 eV   88.41 nm  f=0.0164  <S**2>=0.000
       5 -> 10        -0.24618
       5 -> 16        -0.10671
       8 -> 11         0.11613
       8 -> 20        -0.22329
       8 -> 21         0.51713
       9 -> 19         0.22330

 Excited State  30:      Singlet-EG    14.2995 eV   86.71 nm  f=0.2017  <S**2>=0.000
       5 -> 15        -0.21481
       6 -> 14        -0.21481
       7 -> 21         0.11729
       8 -> 20         0.43657
       9 -> 19         0.43656

 Excited State  31:      Singlet-EG    14.3000 eV   86.70 nm  f=0.0000  <S**2>=0.000
       6 -> 11         0.57746
       7 -> 17        -0.15200
       9 -> 10        -0.12864
       9 -> 16        -0.32922

 Excited State  32:      Singlet-EG    14.3000 eV   86.70 nm  f=0.0000  <S**2>=0.000
       5 -> 11         0.57746
       7 -> 18        -0.15200
       8 -> 10        -0.12864
       8 -> 16        -0.32922

 Excited State  33:      Singlet-EU    14.3241 eV   86.56 nm  f=0.2440  <S**2>=0.000
       7 -> 20         0.38810
       8 -> 20        -0.31213
       8 -> 21        -0.30407
       9 -> 19         0.31214

 Excited State  34:      Singlet-EU    14.3241 eV   86.56 nm  f=0.2440  <S**2>=0.000
       7 -> 19         0.38810
       8 -> 19         0.31213
       9 -> 20         0.31213
       9 -> 21        -0.30407

 Excited State  35:      Singlet-EG    14.4732 eV   85.66 nm  f=0.0000  <S**2>=0.000
       5 -> 11         0.14886
       7 -> 18         0.67546

 Excited State  36:      Singlet-EG    14.4732 eV   85.66 nm  f=0.0000  <S**2>=0.000
       6 -> 11         0.14886
       7 -> 17         0.67546

 Excited State  37:      Singlet-EU    14.5445 eV   85.24 nm  f=0.0000  <S**2>=0.000
       5 -> 13        -0.10207
       6 -> 12        -0.10207
       7 -> 16        -0.31942
       8 -> 15         0.10947
       8 -> 18         0.40747
       9 -> 14         0.10947
       9 -> 17         0.40747

 Excited State  38:      Singlet-A2U   14.7915 eV   83.82 nm  f=0.0331  <S**2>=0.000
       5 -> 15         0.32341
       6 -> 14         0.32342
       7 -> 21         0.36330
       8 -> 20         0.11065
       8 -> 22        -0.20873
       9 -> 19         0.11065
       9 -> 23        -0.20874

 Excited State  39:      Singlet-EU    14.8179 eV   83.67 nm  f=0.0000  <S**2>=0.000
       5 -> 15         0.18610
       5 -> 18        -0.10049
       6 -> 14        -0.18610
       6 -> 17         0.10049
       7 -> 20         0.43035
       8 -> 20         0.21389
       8 -> 21         0.13138
       8 -> 22        -0.21266
       9 -> 19        -0.21389
       9 -> 23         0.21266

 Excited State  40:      Singlet-EU    14.8179 eV   83.67 nm  f=0.0000  <S**2>=0.000
       5 -> 14        -0.18610
       5 -> 17         0.10049
       6 -> 15        -0.18610
       6 -> 18         0.10049
       7 -> 19         0.43035
       8 -> 19        -0.21389
       8 -> 23         0.21266
       9 -> 20        -0.21389
       9 -> 21         0.13138
       9 -> 22         0.21266

 Excited State  41:      Singlet-EG    15.0964 eV   82.13 nm  f=0.0000  <S**2>=0.000
       5 -> 14         0.31414
       5 -> 17        -0.11189
       6 -> 15        -0.31414
       6 -> 18         0.11189
       8 -> 19         0.19953
       8 -> 23        -0.30347
       9 -> 20        -0.19953
       9 -> 22         0.30346

 Excited State  42:      Singlet-EU    15.1100 eV   82.05 nm  f=0.0000  <S**2>=0.000
       5 -> 12         0.42336
       6 -> 13        -0.42335
       8 -> 17        -0.24024
       9 -> 18         0.24024

 Excited State  43:      Singlet-EU    15.1263 eV   81.97 nm  f=0.0000  <S**2>=0.000
       5 -> 13        -0.42771
       6 -> 12         0.42771
       8 -> 18         0.23724
       9 -> 17        -0.23724

 Excited State  44:      Singlet-EU    15.1263 eV   81.97 nm  f=0.0000  <S**2>=0.000
       5 -> 12         0.42770
       6 -> 13         0.42771
       8 -> 17        -0.23724
       9 -> 18        -0.23724

 Excited State  45:      Singlet-EG    15.3547 eV   80.75 nm  f=0.6403  <S**2>=0.000
       5 -> 14         0.37673
       6 -> 15         0.37674
       7 -> 19         0.34587
       8 -> 23        -0.12730
       9 -> 21         0.16997
       9 -> 22        -0.12730

 Excited State  46:      Singlet-EG    15.3547 eV   80.75 nm  f=0.6403  <S**2>=0.000
       5 -> 15         0.37674
       6 -> 14        -0.37673
       7 -> 20        -0.34587
       8 -> 21        -0.16997
       8 -> 22        -0.12730
       9 -> 23         0.12730

 Excited State  47:      Singlet-EU    15.6452 eV   79.25 nm  f=0.0000  <S**2>=0.000
       5 -> 13         0.45734
       6 -> 12         0.45734
       7 -> 16        -0.21989

 Excited State  48:      Singlet-EG    15.6735 eV   79.10 nm  f=0.0000  <S**2>=0.000
       5 -> 14        -0.28711
       5 -> 17        -0.14997
       6 -> 15         0.28711
       6 -> 18         0.14997
       8 -> 19        -0.14985
       8 -> 23        -0.33823
       9 -> 20         0.14985
       9 -> 22         0.33824

 Excited State  49:      Singlet-A2U   15.6971 eV   78.99 nm  f=0.8554  <S**2>=0.000
       5 -> 15        -0.13837
       5 -> 18         0.18227
       6 -> 14        -0.13836
       6 -> 17         0.18228
       7 -> 21         0.54992
       8 -> 20        -0.14039
       8 -> 22         0.13076
       9 -> 19        -0.14039
       9 -> 23         0.13076

 Excited State  50:      Singlet-EG    15.8105 eV   78.42 nm  f=0.0752  <S**2>=0.000
       5 -> 15         0.19617
       5 -> 18         0.13659
       6 -> 14        -0.19617
       6 -> 17        -0.13658
       8 -> 20         0.18710
       8 -> 22         0.37755
       9 -> 19        -0.18710
       9 -> 23        -0.37754

 Excited State  51:      Singlet-EG    15.8105 eV   78.42 nm  f=0.0752  <S**2>=0.000
       5 -> 14         0.19617
       5 -> 17         0.13658
       6 -> 15         0.19617
       6 -> 18         0.13658
       8 -> 19         0.18710
       8 -> 23         0.37755
       9 -> 20         0.18710
       9 -> 22         0.37754

 Excited State  52:      Singlet-EG    16.0311 eV   77.34 nm  f=0.1158  <S**2>=0.000
       5 -> 15         0.25461
       6 -> 14         0.25461
       8 -> 20         0.13596
       8 -> 22         0.38512
       9 -> 19         0.13596
       9 -> 23         0.38512

 Excited State  53:      Singlet-EU    16.2249 eV   76.42 nm  f=0.0086  <S**2>=0.000
       6 -> 16         0.61530
       7 -> 23        -0.23077
       9 -> 21         0.10090
       9 -> 36        -0.12692

 Excited State  54:      Singlet-EU    16.2249 eV   76.42 nm  f=0.0086  <S**2>=0.000
       5 -> 16         0.61530
       7 -> 22        -0.23077
       8 -> 21         0.10090
       8 -> 36        -0.12692

 Excited State  55:      Singlet-EU    16.5971 eV   74.70 nm  f=0.1878  <S**2>=0.000
       5 -> 16         0.22413
       7 -> 22         0.63731

 Excited State  56:      Singlet-EU    16.5971 eV   74.70 nm  f=0.1878  <S**2>=0.000
       6 -> 16         0.22413
       7 -> 23         0.63731

 Excited State  57:      Singlet-EG    16.8284 eV   73.68 nm  f=0.0000  <S**2>=0.000
       5 -> 19         0.14832
       6 -> 20         0.14832
       6 -> 21         0.60648
       6 -> 36        -0.14690
       9 -> 16         0.10158
       9 -> 28         0.12470

 Excited State  58:      Singlet-EG    16.8284 eV   73.68 nm  f=0.0000  <S**2>=0.000
       5 -> 20        -0.14832
       5 -> 21         0.60648
       5 -> 36        -0.14690
       6 -> 19         0.14832
       8 -> 16         0.10158
       8 -> 28         0.12470

 Excited State  59:      Singlet-EU    16.8954 eV   73.38 nm  f=0.0000  <S**2>=0.000
       5 -> 19         0.46361
       6 -> 20        -0.46361

 Excited State  60:      Singlet-EG    17.0242 eV   72.83 nm  f=0.0032  <S**2>=0.000
       5 -> 17         0.39741
       6 -> 18         0.39741
       8 -> 23        -0.14896
       9 -> 22        -0.14896
       9 -> 24        -0.30713

 Excited State  61:      Singlet-EG    17.0242 eV   72.83 nm  f=0.0032  <S**2>=0.000
       5 -> 18        -0.39741
       6 -> 17         0.39742
       8 -> 22         0.14896
       8 -> 24        -0.30712
       9 -> 23        -0.14897

 Excited State  62:      Singlet-EG    17.0830 eV   72.58 nm  f=0.0012  <S**2>=0.000
       5 -> 18         0.41337
       6 -> 17         0.41334
       7 -> 21        -0.15928
       7 -> 24         0.21788
       7 -> 36        -0.11166
       8 -> 22        -0.15742
       9 -> 23        -0.15741

 Excited State  63:      Singlet-EG    17.0843 eV   72.57 nm  f=0.0000  <S**2>=0.000
       5 -> 17         0.44900
       6 -> 18        -0.44897
       8 -> 23        -0.19215
       9 -> 22         0.19214

 Excited State  64:      Singlet-EU    17.0991 eV   72.51 nm  f=0.0520  <S**2>=0.000
       5 -> 17         0.20564
       6 -> 18         0.20569
       9 -> 21        -0.13403
       9 -> 24         0.59334

 Excited State  65:      Singlet-EU    17.0991 eV   72.51 nm  f=0.0520  <S**2>=0.000
       5 -> 18        -0.20564
       6 -> 17         0.20567
       8 -> 21        -0.13403
       8 -> 24         0.59335

 Excited State  66:      Singlet-EU    17.2077 eV   72.05 nm  f=0.0000  <S**2>=0.000
       5 -> 19         0.44587
       6 -> 20         0.44587
       6 -> 21        -0.21472

 Excited State  67:      Singlet-EU    17.2077 eV   72.05 nm  f=0.0000  <S**2>=0.000
       5 -> 20        -0.44585
       5 -> 21        -0.21472
       6 -> 19         0.44589

 Excited State  68:      Singlet-EU    17.2157 eV   72.02 nm  f=0.0000  <S**2>=0.000
       5 -> 20         0.47726
       6 -> 19         0.47723

 Excited State  69:      Singlet-EG    17.7363 eV   69.90 nm  f=0.0000  <S**2>=0.000
       8 -> 26         0.66700

 Excited State  70:      Singlet-EG    17.7363 eV   69.90 nm  f=0.0000  <S**2>=0.000
       9 -> 26         0.66700

 Excited State  71:      Singlet-EU    17.8470 eV   69.47 nm  f=0.0091  <S**2>=0.000
       8 -> 25         0.68520

 Excited State  72:      Singlet-EU    17.8470 eV   69.47 nm  f=0.0091  <S**2>=0.000
       9 -> 25         0.68521

 Excited State  73:      Singlet-A2U   17.9300 eV   69.15 nm  f=0.1883  <S**2>=0.000
       4 -> 10         0.46987
       7 -> 24        -0.46407

 Excited State  74:      Singlet-A2U   18.2881 eV   67.80 nm  f=0.1680  <S**2>=0.000
       4 -> 10         0.49071
       7 -> 24         0.45815

 Excited State  75:      Singlet-EU    18.5064 eV   67.00 nm  f=0.0000  <S**2>=0.000
       5 -> 19         0.10198
       5 -> 23         0.44520
       6 -> 20        -0.10198
       6 -> 22        -0.44519
       8 -> 29        -0.10276
       8 -> 33         0.12008
       9 -> 30         0.10275
       9 -> 34         0.12008

 Excited State  76:      Singlet-A1G   18.5299 eV   66.91 nm  f=0.0000  <S**2>=0.000
       4 -> 11        -0.17803
       5 -> 22         0.17785
       6 -> 23         0.17785
       7 -> 26         0.58792

 Excited State  77:      Singlet-EU    18.5521 eV   66.83 nm  f=0.0000  <S**2>=0.000
       5 -> 19         0.10185
       5 -> 23         0.42916
       6 -> 20         0.10185
       6 -> 22         0.42917
       8 -> 29        -0.15038
       9 -> 26         0.10978
       9 -> 30        -0.15039

 Excited State  78:      Singlet-EU    18.5521 eV   66.83 nm  f=0.0000  <S**2>=0.000
       5 -> 20        -0.10185
       5 -> 22        -0.42916
       6 -> 19         0.10185
       6 -> 23         0.42917
       8 -> 26         0.10978
       8 -> 30         0.15038
       9 -> 29        -0.15039

 Excited State  79:      Singlet-A1U   18.6464 eV   66.49 nm  f=0.0000  <S**2>=0.000
       7 -> 25         0.70468

 Excited State  80:      Singlet-EU    18.7185 eV   66.24 nm  f=0.0000  <S**2>=0.000
       5 -> 22         0.40482
       6 -> 23         0.40482
       7 -> 26        -0.17954
       8 -> 30        -0.23302
       9 -> 29        -0.23302

 Excited State  81:      Singlet-EU    18.9455 eV   65.44 nm  f=0.1892  <S**2>=0.000
       6 -> 26         0.23500
       9 -> 27         0.63779

 Excited State  82:      Singlet-EU    18.9455 eV   65.44 nm  f=0.1892  <S**2>=0.000
       5 -> 26         0.23500
       8 -> 27         0.63779

 Excited State  83:      Singlet-A1G   19.0087 eV   65.22 nm  f=0.0000  <S**2>=0.000
       3 -> 10         0.12718
       4 -> 11         0.59634
       7 -> 26         0.26306
       8 -> 30        -0.11345
       9 -> 29        -0.11345

 Excited State  84:      Singlet-EU    19.0111 eV   65.22 nm  f=0.0000  <S**2>=0.000
       5 -> 23         0.15301
       6 -> 22        -0.15301
       8 -> 29         0.40219
       8 -> 33        -0.21121
       9 -> 30        -0.40218
       9 -> 34        -0.21121

 Excited State  85:      Singlet-EG    19.1613 eV   64.71 nm  f=0.0000  <S**2>=0.000
       8 -> 31         0.47623
       9 -> 32        -0.47623

 Excited State  86:      Singlet-EG    19.2041 eV   64.56 nm  f=0.0000  <S**2>=0.000
       5 -> 21        -0.10681
       5 -> 22        -0.14898
       5 -> 24        -0.17653
       6 -> 23         0.14898
       8 -> 28         0.42779
       8 -> 30        -0.25653
       8 -> 34        -0.15625
       9 -> 29         0.25653
       9 -> 33        -0.15625

 Excited State  87:      Singlet-EG    19.2041 eV   64.56 nm  f=0.0000  <S**2>=0.000
       5 -> 23         0.14898
       6 -> 21        -0.10680
       6 -> 22         0.14898
       6 -> 24        -0.17654
       8 -> 29         0.25652
       8 -> 33        -0.15625
       9 -> 28         0.42780
       9 -> 30         0.25653
       9 -> 34         0.15625

 Excited State  88:      Singlet-EG    19.3007 eV   64.24 nm  f=0.0000  <S**2>=0.000
       4 -> 12        -0.11327
       6 -> 24         0.27220
       7 -> 29         0.39318
       7 -> 33        -0.17603
       8 -> 29         0.16435
       8 -> 33        -0.11262
       9 -> 28        -0.32453
       9 -> 30         0.16435
       9 -> 34         0.11262

 Excited State  89:      Singlet-EG    19.3008 eV   64.24 nm  f=0.0000  <S**2>=0.000
       4 -> 13        -0.11327
       5 -> 24         0.27220
       7 -> 30         0.39318
       7 -> 34         0.17603
       8 -> 28        -0.32453
       8 -> 30        -0.16434
       8 -> 34        -0.11262
       9 -> 29         0.16435
       9 -> 33        -0.11262

 Excited State  90:      Singlet-EG    19.3540 eV   64.06 nm  f=0.1267  <S**2>=0.000
       7 -> 32         0.10204
       8 -> 32        -0.46211
       8 -> 36        -0.12259
       9 -> 31         0.46211

 Excited State  91:      Singlet-EG    19.3540 eV   64.06 nm  f=0.1267  <S**2>=0.000
       7 -> 31         0.10204
       8 -> 31         0.46211
       9 -> 32         0.46211
       9 -> 36        -0.12259

 Excited State  92:      Singlet-EU    19.4646 eV   63.70 nm  f=0.0000  <S**2>=0.000
       4 -> 11         0.24767
       4 -> 21        -0.10727
       5 -> 22         0.17900
       6 -> 23         0.17900
       7 -> 26        -0.13832
       7 -> 28        -0.16565
       8 -> 30         0.36429
       9 -> 29         0.36429

 Excited State  93:      Singlet-EG    19.5098 eV   63.55 nm  f=0.0000  <S**2>=0.000
       4 -> 12        -0.13414
       6 -> 24        -0.18706
       7 -> 14         0.10606
       7 -> 29         0.42760
       7 -> 33        -0.22299
       8 -> 29        -0.23274
       8 -> 33         0.10170
       9 -> 28         0.21083
       9 -> 30        -0.23274
       9 -> 34        -0.10170

 Excited State  94:      Singlet-EG    19.5098 eV   63.55 nm  f=0.0000  <S**2>=0.000
       4 -> 13        -0.13414
       5 -> 24        -0.18707

 The electronic state is 1-A1G.
 Alpha  occ. eigenvalues --  -10.14044 -10.14043  -0.91754  -0.76613  -0.57468
 Alpha  occ. eigenvalues --   -0.57468  -0.49989  -0.46824  -0.46824
 Alpha virt. eigenvalues --    0.08278   0.11152   0.16788   0.16788   0.18549
 Alpha virt. eigenvalues --    0.18549   0.22176   0.22693   0.22693   0.26579
 Alpha virt. eigenvalues --    0.26579   0.27283   0.30688   0.30688   0.36658

 Mulliken charges:
               1
     1  C    0.309127
     2  C    0.309127
     3  H   -0.103042
     4  H   -0.103042
     5  H   -0.103042
     6  H   -0.103042
     7  H   -0.103042
     8  H   -0.103042
 Sum of Mulliken charges =   0.00000

 Dipole moment (field-independent basis, Debye):
    X=              0.0000    Y=             -0.0000    Z=              0.0000  Tot=              0.0000
 Quadrupole moment (field-independent basis, Debye-Ang):
   XX=            -15.0477   YY=            -15.0477   ZZ=            -15.7918
   XY=             -0.0000   XZ=              0.0000   YZ=              0.0000

 Normal termination of Gaussian 16 at Mon Mar 21 20:07:27 2022.
