 Gaussian 16, Revision C.01,
 Gaussian 16:  EM64L-G16RevC.01  3-Jul-2019

 ----------------------------------------------------------------------
 #P TD(Nstates=10000) lc-blyp/Gen SCF(maxcycles=100) Int(Grid=ultrafine
 )
 ----------------------------------------------------------------------

 ---------------------
 xGDB7_00001_tier4.com
 ---------------------
 Symbolic Z-matrix:
 Charge =  0 Multiplicity = 1

                         Standard orientation:
 ---------------------------------------------------------------------
 Center     Atomic      Atomic             Coordinates (Angstroms)
 Number     Number       Type             X           Y           Z
 ---------------------------------------------------------------------
      1          6           0       -1.240791   -0.237624   -0.027525
      2          6           0        0.048946    0.559205    0.053709
      3          7           0        1.202342   -0.317606   -0.116703
      4          1           0       -2.109817    0.415828    0.064703
      5          1           0       -1.292929   -0.976209    0.776809
      6          1           0       -1.300329   -0.769884   -0.977746
      7          1           0        0.066306    1.122818    0.997967
      8          1           0        0.069957    1.296574   -0.752592
      9          1           0        1.236408   -1.003082    0.627159
     10          1           0        2.065080    0.207710   -0.076483
 ---------------------------------------------------------------------

 SCF Done:  E(RLC-B+HF-LYP) =  -134.689134311     A.U. after   13 cycles

 Excitation energies and oscillator strengths:

 Excited State   1:      Singlet-A      6.7746 eV  183.01 nm  f=0.0120  <S**2>=0.000
      13 -> 14         0.58238
      13 -> 15        -0.26828
      13 -> 16         0.26215
 This state for optimization and/or second-order correction.
 Total Energy, E(TD-HF/TD-DFT) =  -134.440170919
 Copying the excited state density for this state as the 1-particle RhoCI density.

 Excited State   2:      Singlet-A      8.1163 eV  152.76 nm  f=0.0124  <S**2>=0.000
      13 -> 15         0.37445
      13 -> 16         0.46178
      13 -> 17        -0.24911
      13 -> 18         0.12421
      13 -> 19         0.14630
      13 -> 20         0.10850
      13 -> 21        -0.11898

 Excited State   3:      Singlet-A      8.2603 eV  150.10 nm  f=0.0284  <S**2>=0.000
      13 -> 14        -0.33787
      13 -> 15        -0.30333
      13 -> 16         0.40490
      13 -> 17         0.22542
      13 -> 18        -0.21876

 Excited State   4:      Singlet-A      9.0668 eV  136.74 nm  f=0.0869  <S**2>=0.000
      13 -> 15         0.29158
      13 -> 17         0.56864
      13 -> 18         0.17519
      13 -> 22         0.15617

 Excited State   5:      Singlet-A      9.5275 eV  130.13 nm  f=0.0337  <S**2>=0.000
      13 -> 14        -0.13161
      13 -> 15        -0.26504
      13 -> 18         0.55523
      13 -> 23         0.20101

 Excited State   6:      Singlet-A      9.7632 eV  126.99 nm  f=0.0046  <S**2>=0.000
      12 -> 14         0.13131
      13 -> 19         0.47808
      13 -> 20        -0.36794
      13 -> 21        -0.15078
      13 -> 23         0.14680
      13 -> 24         0.10440

 Excited State   7:      Singlet-A      9.9257 eV  124.91 nm  f=0.0033  <S**2>=0.000
      12 -> 14         0.64504
      13 -> 19        -0.16995

 Excited State   8:      Singlet-A     10.2554 eV  120.90 nm  f=0.0046  <S**2>=0.000
      11 -> 14         0.11573
      12 -> 14         0.12939
      13 -> 16        -0.14767
      13 -> 19         0.30035
      13 -> 20         0.39496
      13 -> 21        -0.17347
      13 -> 23        -0.16672
      13 -> 24        -0.27126

 Excited State   9:      Singlet-A     10.4837 eV  118.26 nm  f=0.0181  <S**2>=0.000
      11 -> 14         0.50398
      12 -> 15        -0.26229
      13 -> 19         0.11696
      13 -> 21         0.29622
      13 -> 25        -0.12931

 Excited State  10:      Singlet-A     10.5415 eV  117.61 nm  f=0.0756  <S**2>=0.000
      10 -> 14         0.60486
      10 -> 15         0.20194
      11 -> 14         0.13436
      13 -> 21        -0.11768

 Excited State  11:      Singlet-A     10.6428 eV  116.50 nm  f=0.0396  <S**2>=0.000
      10 -> 14         0.18173
      10 -> 15         0.12384
      11 -> 14        -0.27222
      12 -> 15         0.10523
      13 -> 19         0.20571
      13 -> 21         0.45631
      13 -> 23        -0.11746
      13 -> 25        -0.20309

 Excited State  12:      Singlet-A     10.8158 eV  114.63 nm  f=0.0853  <S**2>=0.000
       9 -> 14        -0.19502
      11 -> 14         0.27658
      12 -> 15         0.57013

 Excited State  13:      Singlet-A     11.1555 eV  111.14 nm  f=0.0439  <S**2>=0.000
      10 -> 15        -0.13792
      12 -> 16         0.37138
      13 -> 22         0.29944
      13 -> 23        -0.31212
      13 -> 25        -0.18500

 Excited State  14:      Singlet-A     11.2425 eV  110.28 nm  f=0.0829  <S**2>=0.000
      11 -> 16        -0.11188
      12 -> 16        -0.35051
      12 -> 17         0.15200
      13 -> 18        -0.13772
      13 -> 20         0.10388
      13 -> 22         0.45924
      13 -> 26        -0.14469

 Excited State  15:      Singlet-A     11.2826 eV  109.89 nm  f=0.0678  <S**2>=0.000
      11 -> 16         0.10210
      12 -> 16         0.36565
      13 -> 15         0.10146
      13 -> 18        -0.16812
      13 -> 21         0.10222
      13 -> 22         0.14277
      13 -> 23         0.43501

 Excited State  16:      Singlet-A     11.4180 eV  108.59 nm  f=0.1106  <S**2>=0.000
      11 -> 15         0.54978
      12 -> 17        -0.14695
      13 -> 21        -0.13314
      13 -> 25        -0.18233
      13 -> 28        -0.13515

 Excited State  17:      Singlet-A     11.5523 eV  107.32 nm  f=0.0289  <S**2>=0.000
       8 -> 14         0.12333
      10 -> 14        -0.18937
      10 -> 15         0.49819
      11 -> 14         0.10660
      11 -> 16        -0.12888
      13 -> 20         0.11527
      13 -> 22         0.12246
      13 -> 24         0.18600

 Excited State  18:      Singlet-A     11.6215 eV  106.69 nm  f=0.0172  <S**2>=0.000
      10 -> 15        -0.23625
      13 -> 20         0.28968
      13 -> 24         0.45533
      13 -> 26         0.14282
      13 -> 27         0.13976

 Excited State  19:      Singlet-A     11.7792 eV  105.26 nm  f=0.0329  <S**2>=0.000
      11 -> 15         0.27125
      11 -> 16         0.18752
      12 -> 17         0.40640
      12 -> 18         0.15669
      13 -> 24         0.16051
      13 -> 25         0.27188
      13 -> 28         0.10149

 Excited State  20:      Singlet-A     11.7972 eV  105.10 nm  f=0.0489  <S**2>=0.000
      11 -> 15        -0.10687
      11 -> 17         0.15240
      12 -> 17         0.38659
      12 -> 18         0.23176
      13 -> 23         0.10386
      13 -> 24        -0.22040
      13 -> 25        -0.30878
      13 -> 26         0.13901
      13 -> 28        -0.10682

 Excited State  21:      Singlet-A     11.9443 eV  103.80 nm  f=0.0171  <S**2>=0.000
      10 -> 15         0.11100
      10 -> 16         0.35197
      11 -> 16         0.47534
      11 -> 17        -0.11521
      12 -> 16        -0.11472
      13 -> 20         0.11553
      13 -> 25        -0.13018

 Excited State  22:      Singlet-A     12.0076 eV  103.25 nm  f=0.0320  <S**2>=0.000
      10 -> 15         0.13368
      10 -> 16         0.44934
      10 -> 20        -0.10793
      11 -> 16        -0.24344
      11 -> 17         0.14701
      12 -> 18         0.28144

 Excited State  23:      Singlet-A     12.0664 eV  102.75 nm  f=0.0358  <S**2>=0.000
       9 -> 15         0.14046
      10 -> 16        -0.16212
      10 -> 17         0.12993
      11 -> 16         0.14672
      11 -> 17        -0.11659
      12 -> 17        -0.21323
      12 -> 18         0.48003
      12 -> 19        -0.17704
      12 -> 20         0.13538

 Excited State  24:      Singlet-A     12.3152 eV  100.68 nm  f=0.0457  <S**2>=0.000
       9 -> 14        -0.26668
      10 -> 17         0.50244
      11 -> 16         0.10876
      11 -> 17         0.15123
      12 -> 19         0.10728
      13 -> 26        -0.12438
      13 -> 27         0.10383

 Excited State  25:      Singlet-A     12.4189 eV   99.84 nm  f=0.0660  <S**2>=0.000
       9 -> 14         0.10311
      11 -> 16         0.10988
      11 -> 17         0.52294
      11 -> 18         0.24161
      12 -> 17        -0.12029
      12 -> 20         0.10038
      13 -> 22         0.13423

 Excited State  26:      Singlet-A     12.4699 eV   99.43 nm  f=0.0376  <S**2>=0.000
       9 -> 14        -0.21200
      11 -> 17        -0.12068
      11 -> 18         0.37197
      11 -> 19        -0.16005
      12 -> 19         0.17321
      13 -> 26         0.12639
      13 -> 27        -0.29355
      13 -> 29        -0.17659

 Excited State  27:      Singlet-A     12.5470 eV   98.82 nm  f=0.0081  <S**2>=0.000
       9 -> 14         0.15118
       9 -> 15        -0.15525
      10 -> 17         0.21595
      10 -> 18         0.33060
      12 -> 19        -0.31117
      12 -> 24        -0.13738
      13 -> 27        -0.28432

 Excited State  28:      Singlet-A     12.6003 eV   98.40 nm  f=0.0459  <S**2>=0.000
       9 -> 14         0.24733
       9 -> 15         0.11707
      10 -> 17         0.17275
      10 -> 18        -0.15587
      11 -> 18        -0.12816
      11 -> 19         0.12718
      12 -> 19         0.30584
      13 -> 23        -0.11498
      13 -> 26         0.18905
      13 -> 27        -0.27005

 Excited State  29:      Singlet-A     12.6607 eV   97.93 nm  f=0.0484  <S**2>=0.000
       9 -> 16        -0.10314
      10 -> 18         0.36199
      11 -> 19         0.13115
      12 -> 19         0.19275
      12 -> 20        -0.26895
      13 -> 22         0.12519
      13 -> 24        -0.11810
      13 -> 25         0.12493
      13 -> 26         0.19361
      13 -> 27         0.18630

 Excited State  30:      Singlet-A     12.7295 eV   97.40 nm  f=0.0192  <S**2>=0.000
       9 -> 14        -0.30017
      11 -> 17         0.13650
      11 -> 18        -0.16856
      12 -> 19        -0.23114
      13 -> 21         0.11376
      13 -> 22         0.11275
      13 -> 25         0.12258
      13 -> 26         0.38128
      13 -> 27        -0.11228
      13 -> 28        -0.10449

 Excited State  31:      Singlet-A     12.7666 eV   97.12 nm  f=0.1145  <S**2>=0.000
       9 -> 14         0.15896
      10 -> 16         0.14802
      10 -> 17         0.20725
      10 -> 23         0.10274
      11 -> 16        -0.13528
      11 -> 18         0.19645
      12 -> 19        -0.15873
      13 -> 22         0.10752
      13 -> 25         0.10808
      13 -> 26         0.25746
      13 -> 27         0.26139
      13 -> 28         0.19550

 Excited State  32:      Singlet-A     12.8083 eV   96.80 nm  f=0.1487  <S**2>=0.000
       8 -> 14         0.10336
       9 -> 16         0.21231
      10 -> 18         0.31006
      11 -> 21        -0.10997
      12 -> 19         0.13746
      12 -> 20         0.41484
      12 -> 21         0.11982
      13 -> 28         0.12077

 Excited State  33:      Singlet-A     12.9255 eV   95.92 nm  f=0.0278  <S**2>=0.000
      11 -> 18         0.11447
      11 -> 19         0.21815
      12 -> 21         0.46355
      12 -> 22        -0.14605
      12 -> 24        -0.13226
      13 -> 25         0.10202
      13 -> 28        -0.22152

 Excited State  34:      Singlet-A     13.0357 eV   95.11 nm  f=0.0061  <S**2>=0.000
       9 -> 16        -0.12783
      11 -> 18        -0.11773
      11 -> 19         0.24221
      12 -> 21         0.14542
      13 -> 25        -0.22258
      13 -> 28         0.44232
      13 -> 31        -0.10855

 Excited State  35:      Singlet-A     13.1145 eV   94.54 nm  f=0.0900  <S**2>=0.000
       9 -> 16         0.13422
      11 -> 18         0.30342
      11 -> 19         0.38872
      11 -> 20        -0.18865
      12 -> 21        -0.27998
      12 -> 22         0.13161
      13 -> 29         0.15136

 Excited State  36:      Singlet-A     13.1205 eV   94.50 nm  f=0.0119  <S**2>=0.000
      10 -> 19         0.58633
      10 -> 21         0.10364
      10 -> 22        -0.13610
      10 -> 24         0.11853
      13 -> 29        -0.12396

 Excited State  37:      Singlet-A     13.3031 eV   93.20 nm  f=0.0367  <S**2>=0.000
       8 -> 14         0.10984
      10 -> 19         0.13273
      10 -> 21        -0.14686
      11 -> 20         0.13411
      11 -> 21         0.19791
      11 -> 22        -0.10171
      13 -> 26         0.10260
      13 -> 29         0.45046
      13 -> 31         0.15641

 Excited State  38:      Singlet-A     13.4451 eV   92.22 nm  f=0.0464  <S**2>=0.000
       7 -> 16        -0.11242
       9 -> 15        -0.14952
       9 -> 16         0.15436
       9 -> 17         0.12366
      11 -> 19         0.20767
      11 -> 20         0.42089
      11 -> 21         0.15071
      12 -> 22         0.17860
      13 -> 29        -0.17142

 Excited State  39:      Singlet-A     13.4658 eV   92.07 nm  f=0.0688  <S**2>=0.000
       7 -> 14        -0.12165
       7 -> 16        -0.10140
       8 -> 16        -0.11196
       9 -> 15        -0.25562
      10 -> 20         0.34374
      10 -> 21        -0.28050
      10 -> 22         0.10945
      11 -> 21        -0.18582

 Excited State  40:      Singlet-A     13.4749 eV   92.01 nm  f=0.0820  <S**2>=0.000
       9 -> 16        -0.18149
       9 -> 17        -0.14130
       9 -> 18        -0.10060
      10 -> 20         0.35732
      10 -> 21         0.24498
      11 -> 20         0.13237
      11 -> 21         0.19526
      12 -> 20         0.16674
      12 -> 22        -0.21846

 Excited State  41:      Singlet-A     13.5423 eV   91.55 nm  f=0.1543  <S**2>=0.000
       9 -> 15        -0.13256
       9 -> 16         0.11047
       9 -> 17         0.12048
      10 -> 19        -0.11817
      10 -> 20         0.12242
      10 -> 21         0.39996
      10 -> 22        -0.16997
      10 -> 24        -0.11925
      11 -> 19        -0.12351
      12 -> 20        -0.13297
      12 -> 23        -0.12482
      12 -> 25        -0.10395
      13 -> 29         0.15399

 Excited State  42:      Singlet-A     13.5915 eV   91.22 nm  f=0.1597  <S**2>=0.000
       9 -> 14         0.12887
       9 -> 17         0.13720
      10 -> 20         0.11197
      11 -> 20        -0.23902
      11 -> 21         0.31056
      12 -> 21         0.13382
      12 -> 22         0.31620
      12 -> 23         0.10599
      13 -> 29        -0.18571

 Excited State  43:      Singlet-A     13.6897 eV   90.57 nm  f=0.1548  <S**2>=0.000
       7 -> 14         0.11621
       9 -> 15         0.13140
       9 -> 16        -0.24934
       9 -> 17         0.14373
      10 -> 19         0.10935
      10 -> 20         0.12961
      11 -> 20         0.15143
      11 -> 21        -0.27447
      11 -> 22         0.19021
      12 -> 22         0.29405
      13 -> 29         0.14899

 Excited State  44:      Singlet-A     13.7812 eV   89.97 nm  f=0.0342  <S**2>=0.000
       8 -> 14         0.34325
       9 -> 15        -0.19231
       9 -> 17        -0.21513
       9 -> 18         0.11794
      11 -> 22         0.11532
      12 -> 17        -0.10395
      12 -> 23         0.34250

 Excited State  45:      Singlet-A     13.8757 eV   89.35 nm  f=0.1281  <S**2>=0.000
       8 -> 14         0.43235
       9 -> 15         0.15172
       9 -> 17         0.14884
      10 -> 15        -0.10360
      11 -> 19         0.12113
      11 -> 20         0.10776
      12 -> 23        -0.26342
      13 -> 29        -0.10992

 Excited State  46:      Singlet-A     14.0472 eV   88.26 nm  f=0.0214  <S**2>=0.000
       9 -> 16         0.16185
       9 -> 18        -0.10151
       9 -> 19        -0.13603
      10 -> 22         0.23363
      10 -> 23         0.16539
      11 -> 22         0.10768
      11 -> 23         0.11782
      12 -> 20        -0.12787
      12 -> 21         0.13573
      12 -> 24         0.35337
      12 -> 25         0.13027
      13 -> 30         0.17024
      13 -> 31        -0.11706

 Excited State  47:      Singlet-A     14.0643 eV   88.16 nm  f=0.0072  <S**2>=0.000
       9 -> 15         0.34061
       9 -> 16         0.29586
       9 -> 18         0.10173
      10 -> 20         0.25840
      10 -> 22        -0.14803
      12 -> 20        -0.22636

 Excited State  48:      Singlet-A     14.0652 eV   88.15 nm  f=0.0586  <S**2>=0.000
       7 -> 17        -0.10307
      10 -> 21         0.12257
      10 -> 22         0.37414
      11 -> 21         0.10131
      11 -> 22         0.20054
      12 -> 22         0.17149
      12 -> 23        -0.11775
      12 -> 24        -0.25760
      12 -> 25        -0.17505

 Excited State  49:      Singlet-A     14.2879 eV   86.78 nm  f=0.0769  <S**2>=0.000
      10 -> 22         0.10783
      11 -> 21        -0.18850
      11 -> 22        -0.28652
      11 -> 23        -0.14545
      12 -> 24         0.10664
      13 -> 28         0.12316
      13 -> 29        -0.15474
      13 -> 30        -0.17514
      13 -> 31         0.32935

 Excited State  50:      Singlet-A     14.2990 eV   86.71 nm  f=0.1232  <S**2>=0.000
       9 -> 18        -0.16809
      10 -> 21        -0.11245
      10 -> 23         0.18799
      11 -> 20        -0.10175
      11 -> 22         0.25327
      11 -> 23         0.18000
      12 -> 22        -0.11175
      12 -> 25        -0.10552
      12 -> 27        -0.12936
      13 -> 30        -0.13422
      13 -> 31         0.31604

 Excited State  51:      Singlet-A     14.3655 eV   86.31 nm  f=0.0652  <S**2>=0.000
       7 -> 14         0.31621
       7 -> 15        -0.10648
       9 -> 15        -0.14911
       9 -> 16         0.15652
       9 -> 18         0.15501
       9 -> 20         0.12761
      10 -> 24         0.18543
      12 -> 23        -0.21389
      12 -> 25         0.20142
      13 -> 31         0.14828

 Excited State  52:      Singlet-A     14.4356 eV   85.89 nm  f=0.0069  <S**2>=0.000
       8 -> 15         0.12341
       8 -> 16        -0.14242
      10 -> 23        -0.15620
      11 -> 21        -0.11165
      11 -> 24        -0.17335
      13 -> 27        -0.17133
      13 -> 30         0.41819
      13 -> 31         0.19934

 Excited State  53:      Singlet-A     14.5345 eV   85.30 nm  f=0.0864  <S**2>=0.000
       8 -> 14         0.14936
       8 -> 15        -0.13536
       9 -> 18         0.16876
       9 -> 19        -0.12623
      10 -> 23         0.13051
      10 -> 24        -0.17622
      11 -> 24         0.18079
      11 -> 25         0.14813
      12 -> 24        -0.14496
      12 -> 26        -0.12271
      12 -> 27         0.21976
      13 -> 30         0.24756
      13 -> 31         0.14932

 Excited State  54:      Singlet-A     14.5471 eV   85.23 nm  f=0.1186  <S**2>=0.000
       7 -> 14         0.37733
       7 -> 15        -0.12367
       8 -> 15        -0.11349
       9 -> 18        -0.14095
       9 -> 19         0.11398
       9 -> 20        -0.10030
      11 -> 22        -0.24549
      12 -> 25        -0.30025

 Excited State  55:      Singlet-A     14.6415 eV   84.68 nm  f=0.0110  <S**2>=0.000
       9 -> 17        -0.16056
       9 -> 18         0.14373
       9 -> 21         0.12034
      10 -> 24         0.19036
      11 -> 23         0.25431
      11 -> 24         0.13836
      12 -> 23        -0.10717
      12 -> 24         0.15367
      12 -> 25        -0.24330
      12 -> 26         0.11952
      12 -> 27         0.19398
      12 -> 28        -0.12716

 Excited State  56:      Singlet-A     14.6750 eV   84.49 nm  f=0.0094  <S**2>=0.000
       8 -> 16         0.16159
       9 -> 17         0.28289
       9 -> 19         0.12914
      10 -> 22         0.14159
      10 -> 23         0.10544
      10 -> 24         0.30178
      11 -> 24         0.20149
      12 -> 22        -0.12650
      12 -> 23         0.19118
      12 -> 25        -0.12798
      13 -> 30         0.11772

 Excited State  57:      Singlet-A     14.7563 eV   84.02 nm  f=0.0484  <S**2>=0.000
       8 -> 15         0.24649
       9 -> 19        -0.22001
       9 -> 20         0.12311
      10 -> 23         0.26192
      11 -> 23        -0.23316
      11 -> 24        -0.23227
      12 -> 25        -0.15191
      12 -> 27         0.12465

 Excited State  58:      Singlet-A     14.8587 eV   83.44 nm  f=0.0195  <S**2>=0.000
       8 -> 16        -0.23003
       9 -> 17         0.33879
       9 -> 18         0.19113
      10 -> 22         0.13415
      10 -> 23        -0.12036
      10 -> 24        -0.14446
      11 -> 23         0.14991
      11 -> 24        -0.21572
      11 -> 26        -0.10305
      12 -> 22        -0.17575
      12 -> 25        -0.12142
      13 -> 30        -0.10535

 Excited State  59:      Singlet-A     14.9035 eV   83.19 nm  f=0.0244  <S**2>=0.000
       8 -> 16         0.19100
       9 -> 18        -0.16778
      10 -> 23         0.11148
      10 -> 24         0.10775
      10 -> 25         0.11492
      11 -> 21        -0.16336
      11 -> 22        -0.19476
      11 -> 23         0.26173
      11 -> 24        -0.19332
      12 -> 24        -0.17706
      12 -> 26        -0.21312

 Excited State  60:      Singlet-A     15.0092 eV   82.61 nm  f=0.0542  <S**2>=0.000
       8 -> 15         0.24874
      10 -> 19         0.10067
      10 -> 23         0.17628
      10 -> 25        -0.22933
      11 -> 22        -0.17443
      11 -> 23         0.16265
      11 -> 25        -0.11716
      12 -> 24        -0.17065
      12 -> 25         0.12075
      12 -> 26         0.19413
      12 -> 27        -0.16527
      13 -> 32         0.11076

 The electronic state is 1-A.
 Alpha  occ. eigenvalues --  -14.22727 -10.17311 -10.13911  -1.04107  -0.88930
 Alpha  occ. eigenvalues --   -0.75272  -0.63260  -0.60770  -0.56212  -0.49743
 Alpha  occ. eigenvalues --   -0.49489  -0.47277  -0.36836
 Alpha virt. eigenvalues --    0.08267   0.10807   0.12556   0.15289   0.16988
 Alpha virt. eigenvalues --    0.18764   0.19687   0.20562   0.22285   0.23982
 Alpha virt. eigenvalues --    0.24383   0.26846   0.27476   0.28121   0.32009

 Mulliken charges:
               1
     1  C    0.551554
     2  C    0.203262
     3  N   -0.082364
     4  H   -0.088088
     5  H   -0.096326
     6  H   -0.051128
     7  H   -0.176077
     8  H   -0.213816
     9  H    0.008784
    10  H   -0.055801
 Sum of Mulliken charges =  -0.00000

 Dipole moment (field-independent basis, Debye):
    X=              0.1234    Y=              0.6586    Z=              1.1887  Tot=              1.3645
 Quadrupole moment (field-independent basis, Debye-Ang):
   XX=            -19.7917   YY=            -21.0294   ZZ=            -21.7066
   XY=              0.7881   XZ=              1.6657   YZ=             -1.7251

 1\1\GINC-HEL11\SP\RLC-BLYP TD-FC\Gen\C2H7N1\SABYASACHI\21-Mar-2022\0\\
 #P TD(Nstates=10000) lc-blyp/Gen SCF(maxcycles=100) Int(Grid=ultrafine
 )\\xGDB7_00001_tier4.com\\0,1\C,0,-1.240791,-0.237624,-0.027525\C,0,0.
 048946,0.559205,0.053709\N,0,1.202342,-0.317606,-0.116703\H,0,-2.10981
 7,0.415828,0.064703\H,0,-1.292929,-0.976209,0.776809\H,0,-1.300329,-0.
 769884,-0.977746\H,0,0.066306,1.122818,0.997967\H,0,0.069957,1.296574,
 -0.752592\H,0,1.236408,-1.003082,0.627159\H,0,2.06508,0.20771,-0.07648
 3\\Version=EM64L-G16RevC.01\State=1-A\HF=-134.6891343\RMSD=3.656e-09\P

 Normal termination of Gaussian 16 at Mon Mar 21 20:15:59 2022.
