 Gaussian 16, Revision C.01,
 Gaussian 16:  EM64L-G16RevC.01  3-Jul-2019

 ----------------------------------------------------------------------
 #P TD(Nstates=10000) lc-blyp/Gen SCF(maxcycles=100) Int(Grid=ultrafine
 )
 ----------------------------------------------------------------------

 ---------------------
 xGDB7_00001_tier4.com
 ---------------------
 Symbolic Z-matrix:
 Charge =  0 Multiplicity = 1

                         Standard orientation:
 ---------------------------------------------------------------------
 Center     Atomic      Atomic             Coordinates (Angstroms)
 Number     Number       Type             X           Y           Z
 ---------------------------------------------------------------------
      1          6           0       -1.208422   -0.239069   -0.021917
      2          6           0        0.083893    0.553452    0.046734
      3          8           0        1.233467   -0.256002   -0.105864
      4          1           0       -2.071999    0.425135    0.051700
      5          1           0       -1.270670   -0.957756    0.799731
      6          1           0       -1.270625   -0.788280   -0.962327
      7          1           0        0.130030    1.119197    0.986112
      8          1           0        0.125951    1.277026   -0.768547
      9          1           0        1.236751   -0.913605    0.591341
 ---------------------------------------------------------------------

 SCF Done:  E(RLC-B+HF-LYP) =  -154.538931260     A.U. after   12 cycles

 Excitation energies and oscillator strengths:

 Excited State   1:      Singlet-A      7.4517 eV  166.38 nm  f=0.0091  <S**2>=0.000
      13 -> 14         0.60000
      13 -> 15         0.31299
 This state for optimization and/or second-order correction.
 Total Energy, E(TD-HF/TD-DFT) =  -154.265085638
 Copying the excited state density for this state as the 1-particle RhoCI density.

 Excited State   2:      Singlet-A      8.9632 eV  138.33 nm  f=0.0188  <S**2>=0.000
      12 -> 14         0.32081
      13 -> 14        -0.21888
      13 -> 15         0.44785
      13 -> 16        -0.30856

 Excited State   3:      Singlet-A      9.0902 eV  136.39 nm  f=0.0275  <S**2>=0.000
      12 -> 14         0.54065
      12 -> 15         0.18173
      13 -> 14         0.10388
      13 -> 15        -0.24248
      13 -> 16         0.18879

 Excited State   4:      Singlet-A      9.5117 eV  130.35 nm  f=0.0060  <S**2>=0.000
      13 -> 14        -0.18150
      13 -> 15         0.22767
      13 -> 16         0.48392
      13 -> 17         0.25685
      13 -> 18        -0.12556
      13 -> 19        -0.23344

 Excited State   5:      Singlet-A      9.6099 eV  129.02 nm  f=0.0706  <S**2>=0.000
      13 -> 15        -0.16497
      13 -> 16        -0.21389
      13 -> 17         0.61639

 Excited State   6:      Singlet-A     10.0242 eV  123.69 nm  f=0.0137  <S**2>=0.000
      10 -> 14        -0.13212
      11 -> 14        -0.28268
      12 -> 14        -0.19174
      12 -> 15         0.52738
      12 -> 16        -0.14386
      13 -> 17         0.11248

 Excited State   7:      Singlet-A     10.4203 eV  118.98 nm  f=0.0134  <S**2>=0.000
      10 -> 14        -0.11615
      11 -> 14        -0.13760
      12 -> 16         0.17013
      13 -> 18         0.43908
      13 -> 19        -0.36637
      13 -> 21         0.14437
      13 -> 22         0.12123

 Excited State   8:      Singlet-A     10.4987 eV  118.09 nm  f=0.1104  <S**2>=0.000
      10 -> 14        -0.17768
      11 -> 14        -0.18142
      12 -> 15        -0.10268
      12 -> 16         0.49609
      12 -> 17         0.12292
      13 -> 18        -0.28549
      13 -> 20        -0.10951

 Excited State   9:      Singlet-A     10.6282 eV  116.66 nm  f=0.0956  <S**2>=0.000
      10 -> 14        -0.12476
      11 -> 14         0.33825
      12 -> 15         0.19675
      12 -> 16         0.25878
      13 -> 16         0.11718
      13 -> 18         0.21318
      13 -> 19         0.27880
      13 -> 20         0.15784

 Excited State  10:      Singlet-A     10.6667 eV  116.23 nm  f=0.0588  <S**2>=0.000
      10 -> 14        -0.20334
      11 -> 14         0.40953
      12 -> 15         0.13070
      13 -> 16        -0.15620
      13 -> 18        -0.15939
      13 -> 19        -0.31561
      13 -> 20        -0.20151

 Excited State  11:      Singlet-A     10.9081 eV  113.66 nm  f=0.0438  <S**2>=0.000
      12 -> 16        -0.14717
      12 -> 17         0.59251
      13 -> 20        -0.21990

 Excited State  12:      Singlet-A     10.9861 eV  112.86 nm  f=0.0006  <S**2>=0.000
      10 -> 14         0.40633
      11 -> 15         0.14943
      12 -> 15         0.17935
      12 -> 16         0.17981
      13 -> 18         0.12591
      13 -> 20        -0.39572

 Excited State  13:      Singlet-A     11.0895 eV  111.80 nm  f=0.0342  <S**2>=0.000
      10 -> 14         0.26753
      11 -> 15         0.22096
      12 -> 17         0.21839
      12 -> 19        -0.10397
      13 -> 15        -0.12591
      13 -> 18        -0.14599
      13 -> 19        -0.18986
      13 -> 20         0.37169

 Excited State  14:      Singlet-A     11.4704 eV  108.09 nm  f=0.0265  <S**2>=0.000
       9 -> 14         0.11885
      10 -> 14        -0.18295
      10 -> 16        -0.11965
      11 -> 15         0.33060
      12 -> 18         0.18260
      12 -> 19        -0.14927
      13 -> 19         0.14244
      13 -> 21         0.29067
      13 -> 22         0.19518
      13 -> 23         0.14218
      13 -> 25         0.11996
      13 -> 30        -0.11939

 Excited State  15:      Singlet-A     11.5155 eV  107.67 nm  f=0.0281  <S**2>=0.000
      10 -> 15         0.11335
      11 -> 15        -0.16372
      12 -> 18        -0.19849
      12 -> 19         0.11838
      13 -> 18        -0.10043
      13 -> 21         0.43006
      13 -> 22         0.14485
      13 -> 23        -0.26465
      13 -> 24         0.12480

 Excited State  16:      Singlet-A     11.5406 eV  107.43 nm  f=0.0312  <S**2>=0.000
      10 -> 15        -0.16628
      10 -> 16        -0.11404
      11 -> 15        -0.16495
      12 -> 18        -0.30176
      13 -> 23         0.45243
      13 -> 24        -0.11815

 Excited State  17:      Singlet-A     11.6434 eV  106.48 nm  f=0.0634  <S**2>=0.000
      10 -> 15         0.21361
      10 -> 16         0.16143
      11 -> 16         0.29785
      12 -> 19         0.38977
      13 -> 21         0.14793
      13 -> 22        -0.17561
      13 -> 23         0.18043

 Excited State  18:      Singlet-A     11.7203 eV  105.79 nm  f=0.0505  <S**2>=0.000
       8 -> 14         0.12280
      10 -> 14         0.11430
      10 -> 15         0.19882
      11 -> 14        -0.10332
      11 -> 15        -0.25338
      11 -> 16        -0.25397
      12 -> 18         0.32757
      12 -> 19        -0.17103
      13 -> 21         0.11964
      13 -> 22        -0.14706
      13 -> 23         0.18021

 Excited State  19:      Singlet-A     11.8920 eV  104.26 nm  f=0.0440  <S**2>=0.000
      10 -> 15         0.13841
      10 -> 17         0.10220
      11 -> 17         0.10469
      12 -> 18         0.14377
      12 -> 19         0.21138
      13 -> 21        -0.19834
      13 -> 22         0.49810

 Excited State  20:      Singlet-A     11.9773 eV  103.52 nm  f=0.1049  <S**2>=0.000
      10 -> 16        -0.22728
      11 -> 15        -0.28660
      11 -> 16         0.45483
      12 -> 18         0.20129
      12 -> 19        -0.13224

 Excited State  21:      Singlet-A     12.1337 eV  102.18 nm  f=0.0665  <S**2>=0.000
      10 -> 15         0.39614
      11 -> 16         0.13863
      12 -> 16        -0.10322
      12 -> 18        -0.22200
      12 -> 19        -0.25035
      12 -> 20        -0.14761
      13 -> 21        -0.11570
      13 -> 22         0.11075
      13 -> 26        -0.12065

 Excited State  22:      Singlet-A     12.2126 eV  101.52 nm  f=0.0117  <S**2>=0.000
       9 -> 14        -0.12046
      10 -> 15        -0.21818
      10 -> 16         0.36893
      12 -> 19        -0.11107
      12 -> 20        -0.25556
      12 -> 21         0.23458
      12 -> 22         0.12571
      13 -> 22         0.17043

 Excited State  23:      Singlet-A     12.2802 eV  100.96 nm  f=0.0299  <S**2>=0.000
      11 -> 17         0.25694
      12 -> 20         0.39576
      12 -> 22        -0.10352
      13 -> 23         0.14842
      13 -> 24         0.21459
      13 -> 25        -0.22708
      13 -> 26        -0.12470

 Excited State  24:      Singlet-A     12.3504 eV  100.39 nm  f=0.0391  <S**2>=0.000
       9 -> 14         0.12846
      10 -> 16         0.24492
      11 -> 18        -0.12490
      11 -> 21         0.10276
      12 -> 18        -0.12523
      12 -> 20         0.27840
      12 -> 21         0.12767
      12 -> 22         0.17708
      13 -> 19         0.12399
      13 -> 24        -0.20936
      13 -> 25         0.17941
      13 -> 26         0.15131

 Excited State  25:      Singlet-A     12.4378 eV   99.68 nm  f=0.0776  <S**2>=0.000
       8 -> 14        -0.10297
      11 -> 17         0.49315
      11 -> 18         0.13485
      11 -> 22        -0.13075
      12 -> 20        -0.23500
      12 -> 22        -0.14710
      13 -> 25         0.11347

 Excited State  26:      Singlet-A     12.5985 eV   98.41 nm  f=0.0072  <S**2>=0.000
       9 -> 14         0.38646
      11 -> 18        -0.12974
      12 -> 20        -0.14956
      12 -> 22         0.11550
      12 -> 23         0.24336
      13 -> 24         0.29474
      13 -> 26        -0.11881

 Excited State  27:      Singlet-A     12.6662 eV   97.89 nm  f=0.0661  <S**2>=0.000
       8 -> 15        -0.10599
       9 -> 14        -0.10648
      10 -> 17         0.16550
      11 -> 18        -0.29729
      11 -> 19        -0.17504
      12 -> 23         0.39476
      13 -> 24        -0.16175
      13 -> 25        -0.12495

 Excited State  28:      Singlet-A     12.6781 eV   97.79 nm  f=0.0249  <S**2>=0.000
       8 -> 14         0.13966
      10 -> 15         0.11961
      10 -> 17         0.41554
      10 -> 21         0.15529
      11 -> 19         0.17424
      12 -> 21         0.32238
      13 -> 25         0.11549

 Excited State  29:      Singlet-A     12.7866 eV   96.96 nm  f=0.0459  <S**2>=0.000
       9 -> 14         0.35517
      10 -> 15         0.10288
      10 -> 16         0.14520
      10 -> 18         0.13076
      11 -> 18         0.13797
      13 -> 21         0.14549
      13 -> 24        -0.18921
      13 -> 25        -0.32691

 Excited State  30:      Singlet-A     12.8606 eV   96.41 nm  f=0.0165  <S**2>=0.000
       9 -> 16         0.13709
      10 -> 16        -0.24863
      10 -> 17        -0.13722
      10 -> 18        -0.10143
      11 -> 16        -0.13466
      12 -> 19         0.12992
      12 -> 21         0.29012
      12 -> 22         0.30232
      12 -> 23        -0.11429
      13 -> 24        -0.13514
      13 -> 25        -0.25292

 Excited State  31:      Singlet-A     13.0076 eV   95.32 nm  f=0.0408  <S**2>=0.000
       8 -> 14         0.27468
       9 -> 18        -0.10939
      10 -> 17        -0.14535
      10 -> 18        -0.15084
      11 -> 18         0.11436
      11 -> 19         0.27502
      11 -> 25        -0.14962
      12 -> 23         0.24420
      13 -> 24        -0.16860
      13 -> 27        -0.14788

 Excited State  32:      Singlet-A     13.0611 eV   94.93 nm  f=0.0422  <S**2>=0.000
      10 -> 18         0.14198
      10 -> 20        -0.15205
      11 -> 18        -0.33231
      11 -> 19         0.35870
      11 -> 20         0.25366
      11 -> 23         0.12489
      12 -> 23        -0.15194

 Excited State  33:      Singlet-A     13.1138 eV   94.54 nm  f=0.0363  <S**2>=0.000
      10 -> 16        -0.10684
      10 -> 18         0.33719
      10 -> 23        -0.16687
      11 -> 17         0.11555
      11 -> 20        -0.18759
      11 -> 21         0.15072
      11 -> 23         0.11363
      12 -> 22         0.16635
      13 -> 25         0.13728
      13 -> 26        -0.10467
      13 -> 27        -0.23367
      13 -> 28        -0.12947
      13 -> 29         0.12614

 Excited State  34:      Singlet-A     13.2291 eV   93.72 nm  f=0.0050  <S**2>=0.000
       8 -> 14         0.15867
       8 -> 15         0.12036
       9 -> 15         0.15338
      10 -> 17         0.19501
      10 -> 20        -0.10402
      11 -> 18         0.13165
      11 -> 19        -0.16149
      11 -> 20         0.37681
      12 -> 22         0.16960
      12 -> 25         0.16060
      13 -> 27        -0.12239

 Excited State  35:      Singlet-A     13.2782 eV   93.37 nm  f=0.0335  <S**2>=0.000
       8 -> 14        -0.21866
       9 -> 17        -0.11737
      10 -> 17         0.23129
      10 -> 18        -0.11749
      10 -> 19         0.19569
      11 -> 19         0.13013
      12 -> 21        -0.25770
      12 -> 22         0.28517
      12 -> 25        -0.10759
      13 -> 21         0.11688
      13 -> 27         0.14238

 Excited State  36:      Singlet-A     13.3110 eV   93.14 nm  f=0.0418  <S**2>=0.000
       8 -> 14         0.13855
      10 -> 18        -0.11186
      10 -> 19         0.38889
      10 -> 21        -0.13414
      10 -> 25        -0.13733
      11 -> 19        -0.16757
      12 -> 22        -0.14508
      13 -> 24        -0.19644
      13 -> 26        -0.24646
      13 -> 28        -0.16978

 Excited State  37:      Singlet-A     13.3848 eV   92.63 nm  f=0.0103  <S**2>=0.000
       9 -> 14        -0.13962
      10 -> 18         0.11517
      10 -> 19         0.30699
      10 -> 21        -0.13347
      10 -> 25        -0.12050
      12 -> 21         0.12210
      13 -> 24         0.10378
      13 -> 25        -0.12994
      13 -> 26         0.23435
      13 -> 28         0.31797

 Excited State  38:      Singlet-A     13.4388 eV   92.26 nm  f=0.0519  <S**2>=0.000
       8 -> 14         0.24303
      10 -> 20        -0.18304
      11 -> 17         0.10666
      11 -> 18        -0.11191
      11 -> 19        -0.10560
      11 -> 20        -0.10423
      11 -> 22         0.11758
      11 -> 23         0.11334
      12 -> 21        -0.12960
      12 -> 22         0.12738
      12 -> 24         0.31897
      12 -> 25        -0.11639
      13 -> 24         0.10883
      13 -> 25        -0.11496

 Excited State  39:      Singlet-A     13.4982 eV   91.85 nm  f=0.0561  <S**2>=0.000
       8 -> 14         0.16188
       9 -> 15         0.17282
      10 -> 18        -0.10419
      10 -> 20         0.38105
      11 -> 17         0.10160
      11 -> 18        -0.13845
      12 -> 23        -0.15390
      12 -> 24        -0.15990
      13 -> 25        -0.13222
      13 -> 27        -0.11283
      13 -> 28         0.16222

 Excited State  40:      Singlet-A     13.5694 eV   91.37 nm  f=0.0193  <S**2>=0.000
       8 -> 14         0.20752
      10 -> 18         0.18519
      10 -> 23        -0.12220
      11 -> 20        -0.17776
      11 -> 22        -0.11604
      12 -> 25         0.23415
      13 -> 27         0.36720

 Excited State  41:      Singlet-A     13.6705 eV   90.69 nm  f=0.0418  <S**2>=0.000
       8 -> 16         0.14911
      10 -> 18         0.12358
      10 -> 19        -0.13834
      10 -> 20        -0.12083
      11 -> 18         0.14422
      11 -> 20         0.11917
      11 -> 21         0.12437
      11 -> 22         0.29033
      12 -> 23         0.11156
      12 -> 27         0.12203
      13 -> 23        -0.10101
      13 -> 26        -0.24960
      13 -> 27         0.19872
      13 -> 28         0.15603

 Excited State  42:      Singlet-A     13.7203 eV   90.37 nm  f=0.0560  <S**2>=0.000
       7 -> 14         0.13021
       8 -> 14        -0.14684
       8 -> 15         0.10203
       9 -> 15         0.33883
       9 -> 16        -0.10052
      10 -> 21        -0.11736
      11 -> 20        -0.15698
      12 -> 21         0.11521
      12 -> 24         0.23534
      12 -> 26        -0.13275
      13 -> 26        -0.24612
      13 -> 28         0.18427

 Excited State  43:      Singlet-A     13.8592 eV   89.46 nm  f=0.0153  <S**2>=0.000
       8 -> 15         0.10999
       8 -> 16        -0.14495
       9 -> 15        -0.23182
       9 -> 16         0.18294
      10 -> 21         0.10432
      11 -> 21        -0.19740
      11 -> 22        -0.21103
      13 -> 24        -0.11529
      13 -> 26        -0.23207
      13 -> 28         0.27900

 Excited State  44:      Singlet-A     13.9077 eV   89.15 nm  f=0.0547  <S**2>=0.000
       8 -> 17        -0.15327
       9 -> 15        -0.22054
       9 -> 16        -0.21693
      10 -> 21        -0.14646
      10 -> 22        -0.19124
      11 -> 21        -0.17383
      11 -> 22         0.24841
      11 -> 23         0.11219
      12 -> 22         0.10781
      12 -> 25         0.14997
      12 -> 26         0.11779
      13 -> 27        -0.12855

 Excited State  45:      Singlet-A     14.0091 eV   88.50 nm  f=0.0388  <S**2>=0.000
       8 -> 15        -0.19173
       8 -> 17         0.16765
       9 -> 15        -0.20267
       9 -> 17        -0.16449
      10 -> 17         0.11298
      10 -> 21        -0.20705
      11 -> 20         0.10868
      11 -> 21         0.22192
      11 -> 22        -0.19316
      12 -> 24         0.13532
      12 -> 25         0.17697
      13 -> 28         0.16462

 Excited State  46:      Singlet-A     14.0318 eV   88.36 nm  f=0.0664  <S**2>=0.000
       8 -> 15         0.14660
       9 -> 20        -0.10960
      10 -> 18         0.13133
      10 -> 20         0.36953
      10 -> 23        -0.10365
      11 -> 20         0.17386
      11 -> 21        -0.11342
      12 -> 23         0.13913
      12 -> 24         0.29323
      12 -> 26        -0.10529
      13 -> 24        -0.11237

 Excited State  47:      Singlet-A     14.1847 eV   87.41 nm  f=0.0350  <S**2>=0.000
       8 -> 15        -0.11327
       9 -> 16         0.48983
       9 -> 19        -0.11570
      12 -> 21        -0.10099
      12 -> 22        -0.10364
      12 -> 24         0.14812
      12 -> 25         0.20687

 Excited State  48:      Singlet-A     14.2665 eV   86.91 nm  f=0.0418  <S**2>=0.000
       8 -> 15         0.44504
       8 -> 23         0.10626
       9 -> 17        -0.13893
      10 -> 21        -0.10656
      11 -> 21         0.20625
      12 -> 25         0.12437
      12 -> 28        -0.11124

 Excited State  49:      Singlet-A     14.3330 eV   86.50 nm  f=0.0375  <S**2>=0.000
       8 -> 16        -0.16830
       9 -> 15         0.14294
       9 -> 18         0.10293
      10 -> 22         0.12942
      10 -> 23         0.18493
      11 -> 22        -0.11534
      11 -> 23         0.19042
      12 -> 25        -0.12975
      12 -> 26         0.16606
      12 -> 27         0.25847
      12 -> 28         0.13898
      13 -> 28        -0.13034
      13 -> 29        -0.18449

 Excited State  50:      Singlet-A     14.4099 eV   86.04 nm  f=0.0085  <S**2>=0.000
       8 -> 15         0.11086
       9 -> 16        -0.20324
       9 -> 17         0.19222
       9 -> 19        -0.16969
      10 -> 19         0.10501
      10 -> 21         0.30426
      11 -> 21         0.17217
      11 -> 23         0.10725
      12 -> 25         0.16041
      12 -> 26        -0.14190
      12 -> 27         0.18890
      12 -> 28         0.11315

 Excited State  51:      Singlet-A     14.4678 eV   85.70 nm  f=0.0426  <S**2>=0.000
       7 -> 14        -0.23697
       9 -> 19         0.12003
      10 -> 22         0.14003
      10 -> 23         0.11944
      11 -> 21        -0.15166
      11 -> 23         0.15680
      12 -> 24         0.11257
      12 -> 25         0.19215
      12 -> 27        -0.11026
      13 -> 29         0.32392

 Excited State  52:      Singlet-A     14.5738 eV   85.07 nm  f=0.0062  <S**2>=0.000
       9 -> 17        -0.16851
      10 -> 18        -0.12244
      11 -> 18        -0.11575
      11 -> 23        -0.20295
      12 -> 27         0.33032
      13 -> 27         0.10102
      13 -> 29         0.34673
      13 -> 30         0.10396

 Excited State  53:      Singlet-A     14.6129 eV   84.85 nm  f=0.0397  <S**2>=0.000
       7 -> 14        -0.24694
       8 -> 16        -0.13016
       9 -> 17         0.32453
      10 -> 19        -0.12779
      10 -> 21        -0.22802
      10 -> 22        -0.10663
      10 -> 25         0.11410
      11 -> 23         0.11675
      13 -> 29         0.11613

 Excited State  54:      Singlet-A     14.6327 eV   84.73 nm  f=0.0896  <S**2>=0.000
       7 -> 14         0.43809
       7 -> 15         0.11140
       9 -> 17         0.15834
      10 -> 22         0.15296
      11 -> 24        -0.17725
      12 -> 26         0.11477
      13 -> 27         0.12405
      13 -> 29         0.21925

 Excited State  55:      Singlet-A     14.7097 eV   84.29 nm  f=0.0752  <S**2>=0.000
       8 -> 16         0.19430
       9 -> 17         0.27166
      10 -> 22         0.24409
      11 -> 21        -0.13583
      11 -> 23        -0.25187
      11 -> 25         0.12041
      12 -> 24         0.10631
      12 -> 25         0.15349
      12 -> 26         0.13916
      13 -> 29        -0.10309

 Excited State  56:      Singlet-A     14.8682 eV   83.39 nm  f=0.1424  <S**2>=0.000
       8 -> 16        -0.10595
       8 -> 20        -0.10943
      10 -> 23        -0.15603
      11 -> 24         0.25023
      11 -> 26        -0.10801
      12 -> 24         0.13827
      12 -> 26         0.39675
      12 -> 27        -0.11779
      13 -> 30         0.17335

 Excited State  57:      Singlet-A     14.9103 eV   83.15 nm  f=0.0990  <S**2>=0.000
       8 -> 16         0.27979

 The electronic state is 1-A.
 Alpha  occ. eigenvalues --  -19.01727 -10.20164 -10.14930  -1.17389  -0.91247
 Alpha  occ. eigenvalues --   -0.78033  -0.65206  -0.60051  -0.57907  -0.51903
 Alpha  occ. eigenvalues --   -0.50709  -0.45830  -0.41189
 Alpha virt. eigenvalues --    0.07332   0.10382   0.11110   0.13764   0.16375
 Alpha virt. eigenvalues --    0.17151   0.18328   0.19631   0.20213   0.21782
 Alpha virt. eigenvalues --    0.24669   0.25251   0.27529   0.27955   0.29769

 Mulliken charges:
               1
     1  C    0.527202
     2  C    0.289381
     3  O   -0.330221
     4  H   -0.058519
     5  H   -0.105237
     6  H   -0.077007
     7  H   -0.162804
     8  H   -0.236636
     9  H    0.153840
 Sum of Mulliken charges =  -0.00000

 Dipole moment (field-independent basis, Debye):
    X=             -1.4338    Y=             -0.1387    Z=              1.2179  Tot=              1.8864
 Quadrupole moment (field-independent basis, Debye-Ang):
   XX=            -22.9480   YY=            -18.9085   ZZ=            -19.5575
   XY=             -0.9628   XZ=              1.8217   YZ=             -1.5031

 1\1\GINC-HEL11\SP\RLC-BLYP TD-FC\Gen\C2H6O1\SABYASACHI\21-Mar-2022\0\\
 #P TD(Nstates=10000) lc-blyp/Gen SCF(maxcycles=100) Int(Grid=ultrafine
 )\\xGDB7_00001_tier4.com\\0,1\C,0,-1.208422,-0.239069,-0.021917\C,0,0.
 083893,0.553452,0.046734\O,0,1.233467,-0.256002,-0.105864\H,0,-2.07199
 9,0.425136,0.0517\H,0,-1.27067,-0.957756,0.799731\H,0,-1.270625,-0.788
 28,-0.962327\H,0,0.13003,1.119197,0.986112\H,0,0.125952,1.277026,-0.76
 8547\H,0,1.236751,-0.913605,0.591341\\Version=EM64L-G16RevC.01\State=1
 -A\HF=-154.5389313\RMSD=9.273e-09\PG=C01 [X(C2H6O1)]\\@

 Normal termination of Gaussian 16 at Mon Mar 21 20:15:11 2022.
