 Gaussian 16, Revision C.01,
 Gaussian 16:  EM64L-G16RevC.01  3-Jul-2019

 ----------------------------------------------------------------------
 #P TD(Nstates=10000) lc-blyp/Gen SCF(maxcycles=100) Int(Grid=ultrafine
 )
 ----------------------------------------------------------------------

 ---------------------
 xGDB7_00001_tier4.com
 ---------------------
 Symbolic Z-matrix:
 Charge =  0 Multiplicity = 1

                         Standard orientation:
 ---------------------------------------------------------------------
 Center     Atomic      Atomic             Coordinates (Angstroms)
 Number     Number       Type             X           Y           Z
 ---------------------------------------------------------------------
      1          6           0        0.000000    0.000000    0.660866
      2          6           0        0.000000    0.000000   -0.660866
      3          1           0        0.000000    0.922586    1.229258
      4          1           0       -0.000000   -0.922586    1.229258
      5          1           0        0.000000    0.922586   -1.229258
      6          1           0       -0.000000   -0.922586   -1.229258
 ---------------------------------------------------------------------

 SCF Done:  E(RLC-B+HF-LYP) =  -78.2701043561     A.U. after   10 cycles

 Excitation energies and oscillator strengths:

 Excited State   1:      Singlet-B1U    7.8924 eV  157.09 nm  f=0.3877  <S**2>=0.000
       8 -> 10         0.69941
 This state for optimization and/or second-order correction.
 Total Energy, E(TD-HF/TD-DFT) =  -77.9800627601
 Copying the excited state density for this state as the 1-particle RhoCI density.

 Excited State   2:      Singlet-B3U    8.0964 eV  153.13 nm  f=0.0765  <S**2>=0.000
       8 ->  9         0.69028
       8 -> 13        -0.11442

 Excited State   3:      Singlet-B1G    8.2427 eV  150.42 nm  f=0.0000  <S**2>=0.000
       7 -> 10         0.69626
       7 -> 22         0.10625

 Excited State   4:      Singlet-B2G    9.0565 eV  136.90 nm  f=0.0000  <S**2>=0.000
       8 -> 11         0.69761

 Excited State   5:      Singlet-B1G    9.4994 eV  130.52 nm  f=0.0000  <S**2>=0.000
       8 -> 12         0.68921
       8 -> 25         0.14251

 Excited State   6:      Singlet-B2G    9.7197 eV  127.56 nm  f=0.0000  <S**2>=0.000
       6 -> 10         0.68921
       6 -> 22         0.13178

 Excited State   7:      Singlet-B3G   10.2361 eV  121.12 nm  f=0.0000  <S**2>=0.000
       7 ->  9         0.68567

 Excited State   8:      Singlet-B3U   10.5946 eV  117.03 nm  f=0.0798  <S**2>=0.000
       8 ->  9         0.11736
       8 -> 13         0.68534

 Excited State   9:      Singlet-B2U   11.0416 eV  112.29 nm  f=0.1548  <S**2>=0.000
       5 ->  9         0.14811
       7 -> 11         0.67772

 Excited State  10:      Singlet-AU    11.4282 eV  108.49 nm  f=0.0000  <S**2>=0.000
       5 -> 10        -0.37178
       8 -> 14         0.58806

 Excited State  11:      Singlet-AU    11.5993 eV  106.89 nm  f=0.0000  <S**2>=0.000
       5 -> 10         0.58683
       8 -> 14         0.37423

 Excited State  12:      Singlet-B3U   11.6700 eV  106.24 nm  f=0.1616  <S**2>=0.000
       8 -> 15         0.68942

 Excited State  13:      Singlet-AG    11.8913 eV  104.26 nm  f=0.0000  <S**2>=0.000
       6 ->  9         0.22801
       7 -> 14        -0.12905
       8 -> 16         0.64185

 Excited State  14:      Singlet-B2U   11.9609 eV  103.66 nm  f=0.1134  <S**2>=0.000
       8 -> 17         0.68816

 Excited State  15:      Singlet-B1U   12.0429 eV  102.95 nm  f=0.2385  <S**2>=0.000
       7 -> 12         0.68489

 Excited State  16:      Singlet-AG    12.5581 eV   98.73 nm  f=0.0000  <S**2>=0.000
       6 ->  9         0.64903
       7 -> 14         0.10913
       8 -> 16        -0.20537

 Excited State  17:      Singlet-B1G   12.5859 eV   98.51 nm  f=0.0000  <S**2>=0.000
       8 -> 19         0.69085
       8 -> 29        -0.12088

 Excited State  18:      Singlet-B2G   12.6767 eV   97.80 nm  f=0.0000  <S**2>=0.000
       8 -> 18         0.69074
       8 -> 34        -0.12330

 Excited State  19:      Singlet-B3G   12.6857 eV   97.74 nm  f=0.0000  <S**2>=0.000
       5 -> 11         0.16638
       7 -> 13         0.66836

 Excited State  20:      Singlet-B1U   13.1653 eV   94.18 nm  f=0.2331  <S**2>=0.000
       6 -> 11         0.68501

 Excited State  21:      Singlet-B3G   13.4938 eV   91.88 nm  f=0.0000  <S**2>=0.000
       5 -> 11         0.19816
       7 -> 13        -0.11205
       7 -> 15         0.65489

 Excited State  22:      Singlet-AU    13.7691 eV   90.05 nm  f=0.0000  <S**2>=0.000
       5 -> 22         0.10938
       7 -> 16         0.69353

 Excited State  23:      Singlet-B2U   13.8580 eV   89.47 nm  f=0.2048  <S**2>=0.000
       6 -> 12         0.67198
       6 -> 25         0.11035

 Excited State  24:      Singlet-B2G   13.9928 eV   88.61 nm  f=0.0000  <S**2>=0.000
       7 -> 17         0.65034
       8 -> 21        -0.24280

 Excited State  25:      Singlet-B2U   14.0708 eV   88.11 nm  f=0.2435  <S**2>=0.000
       5 ->  9         0.65989
       5 -> 13        -0.11999
       7 -> 11        -0.12605

 Excited State  26:      Singlet-AG    14.0825 eV   88.04 nm  f=0.0000  <S**2>=0.000
       5 -> 12        -0.10599
       6 -> 13         0.16438
       6 -> 15         0.10184
       7 -> 14         0.64499
       8 -> 16         0.15603

 Excited State  27:      Singlet-B2G   14.4424 eV   85.85 nm  f=0.0000  <S**2>=0.000
       7 -> 17         0.24292
       8 -> 21         0.65082

 Excited State  28:      Singlet-B1U   14.5847 eV   85.01 nm  f=0.0921  <S**2>=0.000
       7 -> 12        -0.11176
       7 -> 19        -0.15074
       8 -> 22         0.66331

 Excited State  29:      Singlet-AG    14.6750 eV   84.49 nm  f=0.0000  <S**2>=0.000
       6 -> 13         0.64156
       6 -> 15        -0.19921
       7 -> 14        -0.13428

 Excited State  30:      Singlet-B3G   14.6821 eV   84.45 nm  f=0.0000  <S**2>=0.000
       8 -> 20         0.69989

 Excited State  31:      Singlet-B2U   15.1154 eV   82.03 nm  f=0.5774  <S**2>=0.000
       5 ->  9        -0.11869
       5 -> 13        -0.16548
       6 -> 19        -0.12879
       7 -> 18         0.63677

 Excited State  32:      Singlet-B3G   15.1702 eV   81.73 nm  f=0.0000  <S**2>=0.000
       5 -> 11         0.60256
       6 -> 14        -0.20276
       7 ->  9        -0.12104
       7 -> 13        -0.10917
       7 -> 15        -0.22983

 Excited State  33:      Singlet-B1U   15.2289 eV   81.41 nm  f=0.4006  <S**2>=0.000
       5 -> 14        -0.12600
       7 -> 19         0.66419
       8 -> 22         0.14326

 Excited State  34:      Singlet-B3G   15.5267 eV   79.85 nm  f=0.0000  <S**2>=0.000
       4 -> 12        -0.16348
       5 -> 11         0.20819
       6 -> 14         0.63804
       6 -> 32        -0.10274

 Excited State  35:      Singlet-AG    15.5465 eV   79.75 nm  f=0.0000  <S**2>=0.000
       4 -> 11         0.11585
       5 -> 12        -0.41858
       6 -> 15         0.50848
       7 -> 14        -0.16527

 Excited State  36:      Singlet-B3U   15.5659 eV   79.65 nm  f=0.0480  <S**2>=0.000
       4 -> 10         0.55862
       4 -> 22         0.11034
       5 -> 17        -0.15364
       6 -> 16         0.28066
       7 -> 20        -0.12817
       8 -> 23        -0.20606

 Excited State  37:      Singlet-B1G   15.6591 eV   79.18 nm  f=0.0000  <S**2>=0.000
       5 -> 16         0.28486
       6 -> 17        -0.44651
       7 -> 22         0.45142

 Excited State  38:      Singlet-B3U   15.9135 eV   77.91 nm  f=0.3382  <S**2>=0.000
       4 -> 10        -0.29231
       6 -> 16         0.62342

 Excited State  39:      Singlet-B1G   16.0901 eV   77.06 nm  f=0.0000  <S**2>=0.000
       5 -> 16         0.18981
       6 -> 17         0.53355
       7 -> 22         0.40529

 Excited State  40:      Singlet-B3U   16.1091 eV   76.97 nm  f=0.0024  <S**2>=0.000
       4 -> 10         0.21826
       8 -> 23         0.65875

 Excited State  41:      Singlet-B2U   16.1697 eV   76.68 nm  f=0.0159  <S**2>=0.000
       5 -> 15        -0.36013
       7 -> 21         0.58146

 Excited State  42:      Singlet-AG    16.5396 eV   74.96 nm  f=0.0000  <S**2>=0.000
       5 -> 12         0.52198
       6 -> 13         0.15024
       6 -> 15         0.39603
       8 -> 16        -0.10811
       8 -> 27        -0.13041

 Excited State  43:      Singlet-B2U   16.5851 eV   74.76 nm  f=0.0062  <S**2>=0.000
       5 -> 13         0.53431
       5 -> 15        -0.12736
       6 -> 19         0.34435
       7 -> 18         0.23679

 Excited State  44:      Singlet-B1G   16.6359 eV   74.53 nm  f=0.0000  <S**2>=0.000
       8 -> 12        -0.14017
       8 -> 25         0.67955

 Excited State  45:      Singlet-B3U   16.6563 eV   74.44 nm  f=0.4169  <S**2>=0.000
       4 -> 10         0.11889
       5 -> 17         0.28282
       6 -> 16         0.13505
       7 -> 20         0.60646

 Excited State  46:      Singlet-AG    16.7704 eV   73.93 nm  f=0.0000  <S**2>=0.000
       8 -> 27         0.68308

 Excited State  47:      Singlet-B1U   16.9153 eV   73.30 nm  f=0.0308  <S**2>=0.000
       4 -> 13        -0.15159
       6 -> 18         0.66897

 Excited State  48:      Singlet-B2G   17.0863 eV   72.56 nm  f=0.0000  <S**2>=0.000
       8 -> 26         0.69459

 Excited State  49:      Singlet-B2U   17.2563 eV   71.85 nm  f=0.2226  <S**2>=0.000
       5 -> 13        -0.33078
       5 -> 15         0.16238
       6 -> 19         0.56935

 Excited State  50:      Singlet-B1U   17.3494 eV   71.46 nm  f=0.0001  <S**2>=0.000
       4 ->  9         0.60783
       5 -> 14         0.30751

 Excited State  51:      Singlet-AU    17.4591 eV   71.01 nm  f=0.0000  <S**2>=0.000
       8 -> 24         0.69974

 Excited State  52:      Singlet-B1U   17.6248 eV   70.35 nm  f=0.0131  <S**2>=0.000
       4 ->  9        -0.30214
       5 -> 14         0.56967
       6 -> 21         0.16246
       7 -> 25         0.13143

 Excited State  53:      Singlet-B2U   17.7086 eV   70.01 nm  f=0.0127  <S**2>=0.000
       5 -> 13         0.19771
       5 -> 15         0.55300
       6 -> 19        -0.10169
       7 -> 21         0.35582

 Excited State  54:      Singlet-B2G   17.9234 eV   69.17 nm  f=0.0000  <S**2>=0.000
       3 -> 10        -0.10969
       4 -> 16         0.21230
       6 -> 10        -0.13279
       6 -> 22         0.64111

 Excited State  55:      Singlet-B1G   17.9477 eV   69.08 nm  f=0.0000  <S**2>=0.000
       5 -> 16         0.61447
       7 -> 22        -0.33510

 Excited State  56:      Singlet-B3U   18.0844 eV   68.56 nm  f=0.0233  <S**2>=0.000
       5 -> 17         0.56244
       7 -> 20        -0.31701
       8 -> 28        -0.24962

 Excited State  57:      Singlet-AG    18.1383 eV   68.35 nm  f=0.0000  <S**2>=0.000
       4 -> 11         0.66639
       5 -> 19         0.10235

 Excited State  58:      Singlet-B3G   18.2568 eV   67.91 nm  f=0.0000  <S**2>=0.000
       4 -> 12         0.18080
       7 -> 23         0.64837

 Excited State  59:      Singlet-AG    18.4537 eV   67.19 nm  f=0.0000  <S**2>=0.000
       5 -> 19         0.60587
       7 -> 24         0.31102

 Excited State  60:      Singlet-B1U   18.5099 eV   66.98 nm  f=0.2890  <S**2>=0.000
       4 -> 13        -0.11148
       4 -> 15        -0.23309
       5 -> 14        -0.17773
       6 -> 21         0.57747
       7 -> 25         0.19490

 Excited State  61:      Singlet-B3G   18.5234 eV   66.93 nm  f=0.0000  <S**2>=0.000
       5 -> 18         0.64370
       7 -> 23        -0.12402
       7 -> 28         0.18635

 Excited State  62:      Singlet-B3U   18.6186 eV   66.59 nm  f=0.2925  <S**2>=0.000
       4 -> 10         0.12494
       5 -> 17         0.24756
       8 -> 28         0.64172

 Excited State  63:      Singlet-AU    18.6200 eV   66.59 nm  f=0.0000  <S**2>=0.000
       4 -> 17         0.22249
       6 -> 20         0.65544

 Excited State  64:      Singlet-B3G   18.7221 eV   66.22 nm  f=0.0000  <S**2>=0.000
       4 -> 12         0.63368
       4 -> 25         0.12068
       5 -> 18        -0.11701
       6 -> 14         0.16097
       7 -> 23        -0.18024

 Excited State  65:      Singlet-AU    18.7683 eV   66.06 nm  f=0.0000  <S**2>=0.000
       5 -> 22        -0.22506
       7 -> 27         0.65804

 Excited State  66:      Singlet-B1G   18.8114 eV   65.91 nm  f=0.0000  <S**2>=0.000
       8 -> 19         0.11264
       8 -> 29         0.69181

 Excited State  67:      Singlet-AU    19.1046 eV   64.90 nm  f=0.0000  <S**2>=0.000
       8 -> 14         0.10848
       8 -> 32         0.68695

 Excited State  68:      Singlet-B2G   19.1549 eV   64.73 nm  f=0.0000  <S**2>=0.000
       8 -> 18         0.11731
       8 -> 34         0.66344
       8 -> 37        -0.18134

 Excited State  69:      Singlet-B2U   19.1997 eV   64.58 nm  f=0.0683  <S**2>=0.000
       5 -> 23         0.15220
       7 -> 26         0.59382
       8 -> 31        -0.31118

 Excited State  70:      Singlet-B3U   19.2728 eV   64.33 nm  f=0.0890  <S**2>=0.000
       8 -> 30         0.68641

 Excited State  71:      Singlet-B1U   19.2917 eV   64.27 nm  f=0.3618  <S**2>=0.000
       6 -> 21        -0.26079
       7 -> 25         0.62945

 Excited State  72:      Singlet-B2U   19.3357 eV   64.12 nm  f=0.1580  <S**2>=0.000
       7 -> 26         0.31425
       8 -> 31         0.60941

 Excited State  73:      Singlet-B1U   19.6447 eV   63.11 nm  f=0.0013  <S**2>=0.000
       4 -> 13         0.64516
       4 -> 15        -0.16242
       6 -> 18         0.15726

 Excited State  74:      Singlet-AG    19.8075 eV   62.59 nm  f=0.0000  <S**2>=0.000
       5 -> 19        -0.30053
       5 -> 29         0.10727
       7 -> 24         0.61636

 Excited State  75:      Singlet-B1U   20.0565 eV   61.82 nm  f=0.0037  <S**2>=0.000
       8 -> 33         0.69833

 Excited State  76:      Singlet-B3G   20.0654 eV   61.79 nm  f=0.0000  <S**2>=0.000
       5 -> 18        -0.14778
       5 -> 21         0.58121
       5 -> 35        -0.10364
       7 -> 28         0.32299

 Excited State  77:      Singlet-B2G   20.1187 eV   61.63 nm  f=0.0000  <S**2>=0.000
       3 -> 10         0.49862
       4 -> 16        -0.10175
       5 -> 20         0.36956
       6 -> 22         0.17482
       7 -> 31         0.20192
       8 -> 35         0.11513

 Excited State  78:      Singlet-AU    20.1776 eV   61.45 nm  f=0.0000  <S**2>=0.000
       5 -> 10        -0.12580
       5 -> 22         0.63953
       6 -> 20         0.12562
       7 -> 16        -0.10240
       7 -> 27         0.20104

 Excited State  79:      Singlet-B2G   20.3562 eV   60.91 nm  f=0.0000  <S**2>=0.000
       3 -> 10        -0.40698
       5 -> 20         0.49925
       7 -> 31         0.21838

 Excited State  80:      Singlet-AG    20.4286 eV   60.69 nm  f=0.0000  <S**2>=0.000
       3 ->  9         0.10706
       6 -> 23         0.66696

 Excited State  81:      Singlet-B3G   20.5087 eV   60.45 nm  f=0.0000  <S**2>=0.000
       4 -> 19         0.22552
       5 -> 21        -0.33462
       6 -> 24         0.15667
       7 -> 28         0.52539
       7 -> 30        -0.10752

 Excited State  82:      Singlet-B1U   20.5456 eV   60.35 nm  f=0.0228  <S**2>=0.000
       4 -> 13         0.12463
       4 -> 15         0.58066
       6 -> 21         0.16733
       6 -> 26         0.18181
       7 -> 25         0.17087
       7 -> 29        -0.15656

 Excited State  83:      Singlet-B2U   20.6180 eV   60.13 nm  f=0.0061  <S**2>=0.000
       4 -> 14         0.66856

 Excited State  84:      Singlet-B2G   20.8452 eV   59.48 nm  f=0.0000  <S**2>=0.000
       4 -> 16         0.62659
       5 -> 20         0.12328
       6 -> 22        -0.17832
       8 -> 35         0.18402
       8 -> 37        -0.11187

 Excited State  85:      Singlet-B3U   20.8736 eV   59.40 nm  f=0.1672  <S**2>=0.000
       4 -> 22        -0.15521
       6 -> 27         0.67953

 Excited State  86:      Singlet-B2U   20.9790 eV   59.10 nm  f=0.0086  <S**2>=0.000
       5 -> 23         0.12052
       6 -> 12        -0.12420
       6 -> 25         0.60031
       7 -> 34         0.26247

 Excited State  87:      Singlet-AU    21.0213 eV   58.98 nm  f=0.0000  <S**2>=0.000
       4 -> 17         0.65552
       6 -> 20        -0.20389
       7 -> 27         0.10295

 Excited State  88:      Singlet-B3G   21.2857 eV   58.25 nm  f=0.0000  <S**2>=0.000
       4 -> 19         0.22951
       5 -> 26         0.12725
       6 -> 24         0.41180
       7 -> 28        -0.10111
       7 -> 30         0.47877

 Excited State  89:      Singlet-B1U   21.2877 eV   58.24 nm  f=0.2545  <S**2>=0.000
       5 -> 24         0.10726
       6 -> 26         0.53528
       7 -> 29         0.42454

 Excited State  90:      Singlet-B3G   21.3407 eV   58.10 nm  f=0.0000  <S**2>=0.000
       4 -> 19        -0.31149
       5 -> 21        -0.14203
       5 -> 26         0.16023
       6 -> 24        -0.31450
       7 -> 28         0.21432
       7 -> 30         0.43200

 Excited State  91:      Singlet-B2G   21.3849 eV   57.98 nm  f=0.0000  <S**2>=0.000
       3 -> 10        -0.17556
       4 -> 16        -0.19195
       5 -> 20         0.10681
       7 -> 31        -0.30892
       8 -> 34        -0.10541
       8 -> 35         0.49704
       8 -> 37        -0.22423

 Excited State  92:      Singlet-B1U   21.3925 eV   57.96 nm  f=0.0005  <S**2>=0.000
       4 -> 15         0.21618
       5 -> 24         0.10905
       6 -> 21         0.14963
       6 -> 26        -0.38814
       7 -> 29         0.49629

 Excited State  93:      Singlet-AG    21.4855 eV   57.71 nm  f=0.0000  <S**2>=0.000
       3 -> 13        -0.11416
       4 -> 18         0.57108
       5 -> 25        -0.10929
       6 -> 28         0.28205
       7 -> 32        -0.18731

 Excited State  94:      Singlet-B1G   21.7361 eV   57.04 nm  f=0.0000  <S**2>=0.000
       4 -> 20        -0.12241
       5 -> 27         0.40858
       7 -> 33         0.55749

 Excited State  95:      Singlet-B2G   21.7442 eV   57.02 nm  f=0.0000  <S**2>=0.000
       3 -> 10        -0.12984
       5 -> 20        -0.26566
       7 -> 31         0.54917
       8 -> 35         0.29124

 Excited State  96:      Singlet-B2U   21.9090 eV   56.59 nm  f=0.3880  <S**2>=0.000
       5 -> 23         0.43657
       6 -> 25        -0.28433
       6 -> 29        -0.23188
       7 -> 26        -0.11606
       7 -> 34         0.28776
       7 -> 35         0.15779
       7 -> 37        -0.11188

 Excited State  97:      Singlet-AG    21.9309 eV   56.53 nm  f=0.0000  <S**2>=0.000
       3 ->  9        -0.21349
       4 -> 18         0.16810
       4 -> 21         0.11181
       5 -> 25         0.13809
       6 -> 28         0.16423
       7 -> 32         0.56736

 Excited State  98:      Singlet-B3G   22.3183 eV   55.55 nm  f=0.0000  <S**2>=0.000
       4 -> 19         0.51700
       6 -> 24        -0.43405

 Excited State  99:      Singlet-B2U   22.3822 eV   55.39 nm  f=0.0282  <S**2>=0.000
       5 -> 23         0.47276
       6 -> 25         0.13284
       6 -> 29         0.12947
       7 -> 26        -0.10225
       7 -> 34        -0.45716

 Excited State 100:      Singlet-AG    22.4771 eV   55.16 nm  f=0.0000  <S**2>=0.000
       3 ->  9         0.61330
       4 -> 21         0.13375
       5 -> 25         0.11528
       6 -> 23        -0.12378
       6 -> 30         0.16203
       7 -> 32         0.15181

 Excited State 101:      Singlet-AG    22.6497 eV   54.74 nm  f=0.0000  <S**2>=0.000
       4 -> 18        -0.30436
       4 -> 21         0.11622
       6 -> 28         0.55943
       6 -> 30        -0.22034

 Excited State 102:      Singlet-B1G   22.7013 eV   54.62 nm  f=0.0000  <S**2>=0.000
       4 -> 20         0.33943
       5 -> 27         0.43758
       6 -> 31         0.36615
       7 -> 33        -0.22581

 Excited State 103:      Singlet-AG    22.9421 eV   54.04 nm  f=0.0000  <S**2>=0.000
       3 ->  9        -0.13436
       4 -> 21         0.22537
       5 -> 25         0.52979
       6 -> 30         0.19674
       7 -> 32        -0.28213

 Excited State 104:      Singlet-B3G   23.0864 eV   53.70 nm  f=0.0000  <S**2>=0.000
       4 -> 25         0.12228
       5 -> 26        -0.40239
       6 -> 32         0.48459
       7 -> 30         0.14376
       8 -> 36        -0.18409

 Excited State 105:      Singlet-B2U   23.0879 eV   53.70 nm  f=0.0212  <S**2>=0.000
       3 -> 12        -0.12824
       5 -> 28        -0.23195
       5 -> 30         0.11019
       6 -> 29         0.46378
       7 -> 35         0.38855
       7 -> 37        -0.17568

 Excited State 106:      Singlet-B2G   23.1405 eV   53.58 nm  f=0.0000  <S**2>=0.000
       8 -> 34         0.13536
       8 -> 35         0.31702
       8 -> 37         0.60913

 Excited State 107:      Singlet-B1G   23.1760 eV   53.50 nm  f=0.0000  <S**2>=0.000
       4 -> 20         0.25275
       5 -> 27        -0.36620
       6 -> 31         0.40568
       7 -> 33         0.35194

 Excited State 108:      Singlet-B1U   23.2678 eV   53.29 nm  f=0.0001  <S**2>=0.000
       3 -> 11        -0.42377
       5 -> 24         0.48668
       6 -> 34        -0.20453
       7 -> 29        -0.11843

 Excited State 109:      Singlet-B3G   23.2813 eV   53.25 nm  f=0.0000  <S**2>=0.000
       5 -> 26         0.48950
       6 -> 32         0.30473
       7 -> 30        -0.14726
       8 -> 36        -0.33954

 Excited State 110:      Singlet-B3U   23.2890 eV   53.24 nm  f=0.0006  <S**2>=0.000
       3 -> 16         0.11091
       4 -> 22         0.65878
       6 -> 27         0.14708

 Excited State 111:      Singlet-B2U   23.3605 eV   53.07 nm  f=0.3301  <S**2>=0.000
       3 -> 12         0.14254
       5 -> 23        -0.17111
       5 -> 28        -0.26184
       6 -> 29        -0.37394
       7 -> 34        -0.25780
       7 -> 35         0.38110

 Excited State 112:      Singlet-AG    23.3958 eV   52.99 nm  f=0.0000  <S**2>=0.000
       3 -> 15        -0.13460
       4 -> 21         0.59561
       5 -> 25        -0.25454
       6 -> 28        -0.14732
       6 -> 30        -0.12228

 Excited State 113:      Singlet-B3G   23.4225 eV   52.93 nm  f=0.0000  <S**2>=0.000
       5 -> 26         0.17310
       6 -> 32         0.32625
       8 -> 36         0.57322

 Excited State 114:      Singlet-B1U   23.4344 eV   52.91 nm  f=0.0670  <S**2>=0.000
       3 -> 11         0.47795
       5 -> 24         0.47144
       6 -> 34         0.11778

 Excited State 115:      Singlet-AG    23.7406 eV   52.22 nm  f=0.0000  <S**2>=0.000
       5 -> 25        -0.26164
       6 -> 28         0.20795
       6 -> 30         0.55868
       8 -> 40         0.16471

 Excited State 116:      Singlet-B1U   23.9173 eV   51.84 nm  f=0.1263  <S**2>=0.000
       3 -> 11        -0.23212
       6 -> 34         0.62303

 The electronic state is 1-AG.
 Alpha  occ. eigenvalues --  -10.15598 -10.15520  -0.92545  -0.72633  -0.61445
 Alpha  occ. eigenvalues --   -0.55930  -0.48150  -0.40165
 Alpha virt. eigenvalues --    0.09118   0.09272   0.10852   0.16738   0.19570
 Alpha virt. eigenvalues --    0.20796   0.23786   0.24430   0.25387   0.26747
 Alpha virt. eigenvalues --    0.28469   0.32995   0.33146   0.34150   0.40192

 Mulliken charges:
               1
     1  C    0.346467
     2  C    0.346467
     3  H   -0.173233
     4  H   -0.173233
     5  H   -0.173233
     6  H   -0.173233
 Sum of Mulliken charges =  -0.00000

 Dipole moment (field-independent basis, Debye):
    X=              0.0000    Y=              0.0000    Z=              0.0000  Tot=              0.0000
 Quadrupole moment (field-independent basis, Debye-Ang):
   XX=            -15.5380   YY=            -12.5359   ZZ=            -12.4110
   XY=              0.0000   XZ=             -0.0000   YZ=             -0.0000

 Normal termination of Gaussian 16 at Mon Mar 21 20:15:18 2022.
