 Gaussian 16, Revision C.01,
 Gaussian 16:  EM64L-G16RevC.01  3-Jul-2019

 ----------------------------------------------------------------------
 #P TD(Nstates=10000) lc-blyp/Gen SCF(maxcycles=100) Int(Grid=ultrafine
 )
 ----------------------------------------------------------------------

 ---------------------
 xGDB7_00001_tier4.com
 ---------------------
 Symbolic Z-matrix:
 Charge =  0 Multiplicity = 1

                         Standard orientation:
 ---------------------------------------------------------------------
 Center     Atomic      Atomic             Coordinates (Angstroms)
 Number     Number       Type             X           Y           Z
 ---------------------------------------------------------------------
      1          7           0        1.111035   -0.177046   -0.052467
      2          6           0       -0.122009    0.419593    0.001774
      3          7           0       -1.267607   -0.121443    0.008098
      4          1           0        1.920558    0.367802    0.180104
      5          1           0        1.180700   -1.165617    0.115308
      6          1           0       -0.065701    1.508813    0.004046
      7          1           0       -1.207497   -1.139126    0.000481
 ---------------------------------------------------------------------

 SCF Done:  E(RLC-B+HF-LYP) =  -149.516122513     A.U. after   15 cycles

 Excitation energies and oscillator strengths:

 Excited State   1:      Singlet-A      6.3882 eV  194.08 nm  f=0.0072  <S**2>=0.000
      11 -> 14        -0.28466
      11 -> 15         0.61237
      12 -> 15        -0.11405
 This state for optimization and/or second-order correction.
 Total Energy, E(TD-HF/TD-DFT) =  -149.281360000
 Copying the excited state density for this state as the 1-particle RhoCI density.

 Excited State   2:      Singlet-A      6.9106 eV  179.41 nm  f=0.0035  <S**2>=0.000
      12 -> 13         0.67217
      12 -> 14         0.12291

 Excited State   3:      Singlet-A      7.3609 eV  168.44 nm  f=0.2393  <S**2>=0.000
      11 -> 13         0.10105
      11 -> 15         0.11262
      12 -> 14        -0.33372
      12 -> 15         0.58040

 Excited State   4:      Singlet-A      7.8415 eV  158.11 nm  f=0.0056  <S**2>=0.000
      12 -> 13        -0.11853
      12 -> 14         0.54607
      12 -> 15         0.34034
      12 -> 16        -0.19947

 Excited State   5:      Singlet-A      7.9704 eV  155.56 nm  f=0.0739  <S**2>=0.000
      11 -> 13         0.55582
      11 -> 14         0.11826
      11 -> 15         0.12259
      11 -> 16        -0.35750
      11 -> 17         0.10533

 Excited State   6:      Singlet-A      8.4813 eV  146.19 nm  f=0.0388  <S**2>=0.000
      10 -> 13         0.14481
      12 -> 14         0.19995
      12 -> 16         0.63106
      12 -> 17        -0.11716

 Excited State   7:      Singlet-A      8.7491 eV  141.71 nm  f=0.0821  <S**2>=0.000
      11 -> 13        -0.23459
      11 -> 14         0.56439
      11 -> 15         0.26233
      11 -> 17         0.17113

 Excited State   8:      Singlet-A      9.5816 eV  129.40 nm  f=0.0011  <S**2>=0.000
      10 -> 14        -0.15511
      11 -> 16        -0.16028
      12 -> 16         0.10386
      12 -> 17         0.59317
      12 -> 18        -0.12667

 Excited State   9:      Singlet-A      9.6515 eV  128.46 nm  f=0.0376  <S**2>=0.000
      11 -> 13         0.30412
      11 -> 14         0.19159
      11 -> 16         0.50038
      11 -> 17        -0.14061
      11 -> 20        -0.10975
      12 -> 17         0.19602

 Excited State  10:      Singlet-A      9.8219 eV  126.23 nm  f=0.0046  <S**2>=0.000
      12 -> 17         0.12390
      12 -> 18         0.65701

 Excited State  11:      Singlet-A     10.3473 eV  119.82 nm  f=0.0003  <S**2>=0.000
       9 -> 14        -0.28604
       9 -> 15         0.61432

 Excited State  12:      Singlet-A     10.7091 eV  115.77 nm  f=0.0083  <S**2>=0.000
      10 -> 14        -0.10524
      10 -> 16        -0.11699
      12 -> 19         0.51469
      12 -> 20        -0.42557

 Excited State  13:      Singlet-A     10.8118 eV  114.67 nm  f=0.0335  <S**2>=0.000
      10 -> 14         0.19058
      10 -> 15        -0.25187
      11 -> 17         0.11843
      12 -> 19         0.37713
      12 -> 20         0.45228

 Excited State  14:      Singlet-A     10.8953 eV  113.80 nm  f=0.0083  <S**2>=0.000
      10 -> 15         0.10890
      11 -> 14         0.10592
      11 -> 17        -0.37963
      11 -> 18         0.42334
      11 -> 20        -0.17543
      11 -> 23        -0.13826
      12 -> 19         0.11915
      12 -> 20         0.11742
      12 -> 21        -0.16810

 Excited State  15:      Singlet-A     11.0402 eV  112.30 nm  f=0.0336  <S**2>=0.000
      10 -> 13         0.17034
      10 -> 14         0.11226
      10 -> 15        -0.23162
      11 -> 16         0.11465
      11 -> 17         0.32104
      11 -> 18         0.38922
      11 -> 20        -0.14611
      11 -> 22        -0.17566
      12 -> 19        -0.13826
      12 -> 20        -0.14920

 Excited State  16:      Singlet-A     11.1566 eV  111.13 nm  f=0.0451  <S**2>=0.000
      10 -> 13         0.55831
      10 -> 14         0.12025
      10 -> 15        -0.12817
      11 -> 17        -0.22284
      11 -> 18        -0.15936
      12 -> 16        -0.11921

 Excited State  17:      Singlet-A     11.2070 eV  110.63 nm  f=0.0794  <S**2>=0.000
       9 -> 13        -0.14647
      10 -> 13         0.28669
      10 -> 14        -0.18414
      10 -> 15         0.43130
      11 -> 16         0.10726
      11 -> 17         0.18531
      11 -> 18         0.10062
      11 -> 21        -0.10269
      12 -> 19         0.12867
      12 -> 20         0.14256
      12 -> 21         0.11322

 Excited State  18:      Singlet-A     11.4004 eV  108.75 nm  f=0.1710  <S**2>=0.000
      11 -> 16        -0.10011
      11 -> 17        -0.10758
      11 -> 20        -0.18475
      12 -> 21         0.60673

 Excited State  19:      Singlet-A     11.5085 eV  107.73 nm  f=0.0157  <S**2>=0.000
      11 -> 19         0.50420
      11 -> 20         0.14835
      11 -> 21         0.35136
      11 -> 24         0.21452

 Excited State  20:      Singlet-A     11.8441 eV  104.68 nm  f=0.0307  <S**2>=0.000
       9 -> 13        -0.21864
      10 -> 14         0.13339
      11 -> 18        -0.12898
      11 -> 19         0.12541
      11 -> 20        -0.36738
      12 -> 22         0.44133

 Excited State  21:      Singlet-A     11.8657 eV  104.49 nm  f=0.0063  <S**2>=0.000
       9 -> 13         0.30871
      10 -> 15         0.11472
      11 -> 18         0.10778
      11 -> 20         0.29530
      12 -> 21         0.12017
      12 -> 22         0.44601

 Excited State  22:      Singlet-A     11.9530 eV  103.73 nm  f=0.0447  <S**2>=0.000
       9 -> 13         0.49391
      10 -> 15         0.17226
      11 -> 17         0.10795
      11 -> 19         0.17821
      11 -> 20        -0.25278
      11 -> 22         0.11988
      11 -> 23         0.11184
      12 -> 21        -0.10516

 Excited State  23:      Singlet-A     12.0579 eV  102.82 nm  f=0.0331  <S**2>=0.000
      10 -> 14         0.47830
      10 -> 15         0.19998
      12 -> 17         0.20420
      12 -> 21         0.10215
      12 -> 22        -0.14016
      12 -> 23        -0.27447

 Excited State  24:      Singlet-A     12.1283 eV  102.23 nm  f=0.0331  <S**2>=0.000
       9 -> 13         0.10486
      11 -> 19        -0.26631
      11 -> 20        -0.19425
      11 -> 21         0.48291
      11 -> 22        -0.22773
      11 -> 25         0.15648
      11 -> 26        -0.10738

 Excited State  25:      Singlet-A     12.3546 eV  100.35 nm  f=0.0807  <S**2>=0.000
      10 -> 14         0.24036
      10 -> 15         0.14463
      10 -> 17        -0.11803
      10 -> 18         0.12960
      12 -> 22        -0.12663
      12 -> 23         0.57063

 Excited State  26:      Singlet-A     12.4354 eV   99.70 nm  f=0.0555  <S**2>=0.000
      11 -> 17         0.11019
      11 -> 18         0.15209
      11 -> 19        -0.12867
      11 -> 21         0.18874
      11 -> 22         0.53927
      11 -> 23         0.17875
      12 -> 24         0.12288

 Excited State  27:      Singlet-A     12.6576 eV   97.95 nm  f=0.1832  <S**2>=0.000
       9 -> 14         0.55345
       9 -> 15         0.27147
       9 -> 16        -0.10835
      12 -> 24        -0.20936

 Excited State  28:      Singlet-A     12.7655 eV   97.12 nm  f=0.0281  <S**2>=0.000
      10 -> 14         0.10012
      10 -> 16         0.61107
      12 -> 20        -0.11321
      12 -> 25        -0.10390
      12 -> 26        -0.12646

 Excited State  29:      Singlet-A     12.9202 eV   95.96 nm  f=0.0866  <S**2>=0.000
       9 -> 14         0.10900
       9 -> 16         0.13025
      10 -> 19        -0.12017
      11 -> 17        -0.12714
      11 -> 18         0.12355
      11 -> 22        -0.22656
      11 -> 23         0.35245
      11 -> 25        -0.10880
      12 -> 24         0.42003

 Excited State  30:      Singlet-A     13.1854 eV   94.03 nm  f=0.0701  <S**2>=0.000
       7 -> 13         0.11182
       8 -> 13         0.13183
       9 -> 14         0.17115
       9 -> 16         0.43197
      11 -> 23        -0.36098
      12 -> 24         0.20223

 Excited State  31:      Singlet-A     13.2657 eV   93.46 nm  f=0.0031  <S**2>=0.000
       7 -> 15        -0.19447
       8 -> 14        -0.26670
       8 -> 15         0.56793

 Excited State  32:      Singlet-A     13.4150 eV   92.42 nm  f=0.1025  <S**2>=0.000
       8 -> 13         0.16737
       9 -> 16         0.40944
       9 -> 18        -0.10959
      11 -> 23         0.28713
      12 -> 24        -0.36917

 Excited State  33:      Singlet-A     13.5530 eV   91.48 nm  f=0.0342  <S**2>=0.000
      10 -> 16         0.19755
      10 -> 18         0.29810
      12 -> 25         0.31522
      12 -> 26         0.36341
      12 -> 27        -0.25280
      12 -> 37         0.10210

 Excited State  34:      Singlet-A     13.7868 eV   89.93 nm  f=0.1453  <S**2>=0.000
      10 -> 17         0.19367
      10 -> 18        -0.13065
      10 -> 21        -0.18924
      11 -> 24         0.11636
      12 -> 25         0.48360
      12 -> 26        -0.28397
      12 -> 27         0.10844

 Excited State  35:      Singlet-A     13.8249 eV   89.68 nm  f=0.0187  <S**2>=0.000
      11 -> 19        -0.21426
      11 -> 24         0.58970
      11 -> 32         0.14425
      12 -> 26         0.10217

 Excited State  36:      Singlet-A     13.9769 eV   88.71 nm  f=0.0257  <S**2>=0.000
      10 -> 17         0.53003
      10 -> 18         0.17354
      10 -> 20         0.10798
      11 -> 24         0.10585
      12 -> 25        -0.25121
      12 -> 26        -0.10608
      12 -> 27        -0.13177
      12 -> 30        -0.10610

 Excited State  37:      Singlet-A     14.0414 eV   88.30 nm  f=0.0263  <S**2>=0.000
      10 -> 17         0.23574
      10 -> 18        -0.33502
      12 -> 23         0.14262
      12 -> 26         0.41995
      12 -> 27         0.23590

 Excited State  38:      Singlet-A     14.3677 eV   86.29 nm  f=0.1230  <S**2>=0.000
      10 -> 17         0.10970
      10 -> 18         0.33671
      10 -> 19         0.15183
      10 -> 20        -0.32033
      12 -> 27         0.37139
      12 -> 29        -0.10666

 Excited State  39:      Singlet-A     14.4686 eV   85.69 nm  f=0.0778  <S**2>=0.000
       8 -> 13        -0.15680
       8 -> 14        -0.18402
       9 -> 16         0.13539
       9 -> 17         0.40629
       9 -> 18        -0.35562
      11 -> 25         0.14107
      11 -> 26         0.13689
      11 -> 27        -0.10920

 Excited State  40:      Singlet-A     14.6078 eV   84.88 nm  f=0.0048  <S**2>=0.000
       7 -> 14        -0.12006
       7 -> 15         0.20391
       8 -> 13        -0.13032
       9 -> 18         0.31068
      10 -> 19        -0.11652
      11 -> 21        -0.14318
      11 -> 25         0.44526

 Excited State  41:      Singlet-A     14.6484 eV   84.64 nm  f=0.0225  <S**2>=0.000
       7 -> 15        -0.11215
       8 -> 13        -0.10813
       8 -> 15        -0.10717
       8 -> 16         0.10719
       9 -> 17         0.21209
       9 -> 18         0.37704
      10 -> 19        -0.22179
      11 -> 21         0.10641
      11 -> 25        -0.30025
      11 -> 26         0.15944
      12 -> 24        -0.14916

 Excited State  42:      Singlet-A     14.7990 eV   83.78 nm  f=0.0263  <S**2>=0.000
       7 -> 14         0.12228
       7 -> 15        -0.19235
       8 -> 13        -0.33274
       9 -> 17        -0.29412
      11 -> 23         0.10988
      11 -> 25         0.11419
      11 -> 26         0.37156

 Excited State  43:      Singlet-A     14.8681 eV   83.39 nm  f=0.1942  <S**2>=0.000
       7 -> 13        -0.21738
       7 -> 14        -0.17175
       7 -> 15         0.32956
       8 -> 13        -0.26873
       9 -> 16         0.11479
       9 -> 17        -0.17883
       9 -> 20        -0.14095
      11 -> 25        -0.29149
      11 -> 26        -0.12130

 Excited State  44:      Singlet-A     14.9339 eV   83.02 nm  f=0.0225  <S**2>=0.000
       7 -> 13        -0.17049
       7 -> 14        -0.11639
       7 -> 15         0.23046
       8 -> 13         0.21049
       9 -> 18         0.12121
      10 -> 19         0.32326
      11 -> 26         0.36939

 Excited State  45:      Singlet-A     14.9582 eV   82.89 nm  f=0.0415  <S**2>=0.000
       7 -> 13        -0.23937
       7 -> 14         0.10696
       7 -> 15        -0.19462
       8 -> 13        -0.15295
       8 -> 15        -0.11741
       9 -> 16         0.15218
       9 -> 17         0.10539
       9 -> 18         0.12743
      10 -> 19         0.37479
      11 -> 26        -0.29428

 Excited State  46:      Singlet-A     15.0195 eV   82.55 nm  f=0.0066  <S**2>=0.000
       7 -> 13        -0.13530
      10 -> 18         0.18460
      10 -> 20         0.50454
      12 -> 27         0.20019
      12 -> 28        -0.15269
      12 -> 34         0.16580

 Excited State  47:      Singlet-A     15.0649 eV   82.30 nm  f=0.0300  <S**2>=0.000
       7 -> 13         0.40278
       7 -> 15         0.17713
       7 -> 16         0.11706
       8 -> 13        -0.24175
       8 -> 16         0.14579
       9 -> 19        -0.24468
       9 -> 20         0.22249
      10 -> 19         0.19395
      10 -> 20         0.11953

 Excited State  48:      Singlet-A     15.2596 eV   81.25 nm  f=0.0842  <S**2>=0.000
       9 -> 19         0.56391
       9 -> 20         0.29268
      10 -> 20         0.10372

 Excited State  49:      Singlet-A     15.4306 eV   80.35 nm  f=0.0811  <S**2>=0.000
       8 -> 13        -0.10949
       8 -> 14         0.10081
      10 -> 21         0.33051
      11 -> 27         0.42065
      11 -> 34         0.10206
      12 -> 25         0.11267
      12 -> 30        -0.10561
      12 -> 32        -0.17451

 Excited State  50:      Singlet-A     15.5070 eV   79.95 nm  f=0.0217  <S**2>=0.000
      10 -> 18         0.11606
      10 -> 22         0.17161
      10 -> 23        -0.17302
      11 -> 27         0.10256
      12 -> 27         0.19868
      12 -> 28         0.39381
      12 -> 29         0.31575
      12 -> 30        -0.15479
      12 -> 31         0.16588

 Excited State  51:      Singlet-A     15.5154 eV   79.91 nm  f=0.0601  <S**2>=0.000
       7 -> 13        -0.26366
       9 -> 17        -0.10151
       9 -> 19        -0.14257
       9 -> 20         0.44928
       9 -> 22         0.11127
      10 -> 19        -0.11467
      10 -> 21        -0.22667
      12 -> 28        -0.13440
      12 -> 30         0.11465

 Excited State  52:      Singlet-A     15.6165 eV   79.39 nm  f=0.0232  <S**2>=0.000
       8 -> 14        -0.14333
       8 -> 16         0.16176
       9 -> 17        -0.17124
       9 -> 20         0.16673
      10 -> 19        -0.11920
      10 -> 21         0.39027
      11 -> 27        -0.26013
      12 -> 29        -0.10126
      12 -> 30        -0.17034

 Excited State  53:      Singlet-A     15.7107 eV   78.92 nm  f=0.0230  <S**2>=0.000
       7 -> 14        -0.11155
       8 -> 14         0.46783
       8 -> 15         0.18941
       9 -> 17         0.14897
       9 -> 21        -0.19473
      10 -> 24        -0.11190
      11 -> 27        -0.18077
      12 -> 32         0.15211

 Excited State  54:      Singlet-A     15.8076 eV   78.43 nm  f=0.0007  <S**2>=0.000
      10 -> 20        -0.11840
      10 -> 22         0.31451
      12 -> 28        -0.37320
      12 -> 29         0.39039
      12 -> 30        -0.11318
      12 -> 31        -0.12941

 Excited State  55:      Singlet-A     15.8639 eV   78.16 nm  f=0.0060  <S**2>=0.000
      10 -> 17         0.11613
      10 -> 21         0.21726
      10 -> 23        -0.10773
      12 -> 29         0.15617
      12 -> 30         0.55262
      12 -> 34         0.13663

 Excited State  56:      Singlet-A     15.9469 eV   77.75 nm  f=0.0295  <S**2>=0.000
       7 -> 14        -0.20540
       8 -> 14         0.16391
       8 -> 16         0.10956
       9 -> 21         0.57083

 Excited State  57:      Singlet-A     16.0982 eV   77.02 nm  f=0.1479  <S**2>=0.000
       7 -> 14         0.10224
       8 -> 16        -0.13943
       9 -> 21         0.12534
       9 -> 22         0.16372
      10 -> 22         0.19875
      10 -> 23         0.13231
      10 -> 24        -0.15205
      11 -> 27         0.14031
      12 -> 27        -0.15023
      12 -> 28         0.10180
      12 -> 29        -0.16761
      12 -> 32         0.39296

 Excited State  58:      Singlet-A     16.2326 eV   76.38 nm  f=0.0916  <S**2>=0.000
       7 -> 14        -0.27043
       7 -> 15        -0.14315
       8 -> 16         0.21861
       9 -> 17        -0.11927
       9 -> 21        -0.15087
       9 -> 22        -0.15199
      11 -> 27         0.17669
      11 -> 28         0.32064
      11 -> 29         0.11831
      11 -> 30        -0.12178
      12 -> 31         0.12433
      12 -> 32         0.12841

 Excited State  59:      Singlet-A     16.2842 eV   76.14 nm  f=0.0374  <S**2>=0.000
      11 -> 28        -0.18922
      11 -> 29        -0.16030
      11 -> 32        -0.11895
      12 -> 28        -0.18320
      12 -> 31         0.50648
      12 -> 32         0.20388

 Excited State  60:      Singlet-A     16.3141 eV   76.00 nm  f=0.0259  <S**2>=0.000
       7 -> 14         0.22168
       7 -> 15         0.10470
      10 -> 22        -0.13198
      11 -> 28         0.15372
      11 -> 29         0.32635
      11 -> 30         0.15699
      11 -> 31         0.30392
      11 -> 32         0.10296
      12 -> 28        -0.12911
      12 -> 31         0.19000

 Excited State  61:      Singlet-A     16.4060 eV   75.57 nm  f=0.0657  <S**2>=0.000
       8 -> 16         0.12336
       9 -> 22        -0.14765
      10 -> 22         0.30469
      11 -> 28        -0.15465
      11 -> 30         0.16969
      11 -> 32         0.24752
      12 -> 27        -0.12918
      12 -> 29        -0.23492
      12 -> 31         0.16017
      12 -> 32        -0.16153
      12 -> 34         0.18786

 Excited State  62:      Singlet-A     16.4705 eV   75.28 nm  f=0.0923  <S**2>=0.000
       7 -> 14        -0.27791
       7 -> 15        -0.12613
       8 -> 14        -0.10758
       8 -> 16        -0.29461
      11 -> 30         0.14270
      11 -> 32         0.38946

 Excited State  63:      Singlet-A     16.4917 eV   75.18 nm  f=0.0358  <S**2>=0.000
       7 -> 14        -0.24481
       7 -> 15        -0.13976
       9 -> 23         0.11565
      11 -> 28        -0.27427
      11 -> 29         0.17575
      11 -> 30         0.17963
      11 -> 31         0.30433
      11 -> 32        -0.23914
      11 -> 34         0.11379

 Excited State  64:      Singlet-A     16.5673 eV   74.84 nm  f=0.0327  <S**2>=0.000
       6 -> 13        -0.12868
       7 -> 16        -0.14565
       8 -> 16         0.35742
       9 -> 22         0.26371
      10 -> 22        -0.12135
      11 -> 28        -0.17761
      11 -> 32         0.24907
      12 -> 32         0.15035

 Excited State  65:      Singlet-A     16.6643 eV   74.40 nm  f=0.0183  <S**2>=0.000
       8 -> 14         0.10770
       8 -> 18         0.17197
       9 -> 20        -0.11865
       9 -> 22         0.27236
       9 -> 23         0.25269
      11 -> 28         0.31165
      11 -> 29        -0.22645
      11 -> 30         0.17253
      11 -> 36         0.10022
      12 -> 32        -0.13968

 Excited State  66:      Singlet-A     16.7714 eV   73.93 nm  f=0.0022  <S**2>=0.000
       6 -> 15        -0.13343
      10 -> 23         0.53422
      10 -> 27         0.14578
      12 -> 28         0.10997
      12 -> 29         0.12347
      12 -> 30         0.10162
      12 -> 31         0.14922
      12 -> 34        -0.11015
      12 -> 35         0.10140

 Excited State  67:      Singlet-A     16.8030 eV   73.79 nm  f=0.0141  <S**2>=0.000
       8 -> 17         0.12256
       9 -> 22         0.30357
      10 -> 22         0.14488
      10 -> 23        -0.14554
      11 -> 29         0.31655
      11 -> 30        -0.27502
      12 -> 29        -0.12602
      12 -> 31         0.10065
      12 -> 32        -0.17183
      12 -> 35         0.11829

 Excited State  68:      Singlet-A     16.9441 eV   73.17 nm  f=0.0031  <S**2>=0.000
       7 -> 16         0.31462
       7 -> 18         0.17663
       8 -> 17        -0.18550
       8 -> 18         0.16967
       9 -> 23         0.32570
      11 -> 29         0.16358
      11 -> 30        -0.13206
      11 -> 31        -0.16415

 Excited State  69:      Singlet-A     17.0664 eV   72.65 nm  f=0.0127  <S**2>=0.000
       6 -> 15        -0.10589
       8 -> 19         0.10360
       9 -> 24        -0.17009

 The electronic state is 1-A.
 Alpha  occ. eigenvalues --  -14.27561 -14.21424 -10.23254  -1.11163  -1.00694
 Alpha  occ. eigenvalues --   -0.77356  -0.68815  -0.65674  -0.54932  -0.52588
 Alpha  occ. eigenvalues --   -0.39696  -0.37535
 Alpha virt. eigenvalues --    0.07776   0.10954   0.11695   0.12957   0.18184
 Alpha virt. eigenvalues --    0.19677   0.21995   0.22623   0.24801   0.26692
 Alpha virt. eigenvalues --    0.28165   0.30093   0.32963   0.33654   0.36928

 Mulliken charges:
               1
     1  N    0.216078
     2  C    0.520108
     3  N   -0.015512
     4  H   -0.117973
     5  H   -0.135783
     6  H   -0.398735
     7  H   -0.068183
 Sum of Mulliken charges =  -0.00000

 Dipole moment (field-independent basis, Debye):
    X=              3.5346    Y=             -0.7419    Z=              0.5977  Tot=              3.6608
 Quadrupole moment (field-independent basis, Debye-Ang):
   XX=            -21.1164   YY=            -14.7485   ZZ=            -20.8819
   XY=              1.3964   XZ=              1.2157   YZ=             -0.1678

 1\1\GINC-HEL22\SP\RLC-BLYP TD-FC\Gen\C1H4N2\SABYASACHI\21-Mar-2022\0\\
 #P TD(Nstates=10000) lc-blyp/Gen SCF(maxcycles=100) Int(Grid=ultrafine
 )\\xGDB7_00001_tier4.com\\0,1\N,0,1.111035,-0.177046,-0.052467\C,0,-0.
 122009,0.419593,0.001774\N,0,-1.267607,-0.121443,0.008098\H,0,1.920558
 ,0.367802,0.180104\H,0,1.1807,-1.165617,0.115308\H,0,-0.065701,1.50881
 3,0.004046\H,0,-1.207497,-1.139126,0.000481\\Version=EM64L-G16RevC.01\
 State=1-A\HF=-149.5161225\RMSD=2.837e-09\PG=C01 [X(C1H4N2)]\\@
 The archive entry for this job was punched.

 Normal termination of Gaussian 16 at Mon Mar 21 20:16:48 2022.
