 Gaussian 16, Revision C.01,
 Gaussian 16:  EM64L-G16RevC.01  3-Jul-2019

 ----------------------------------------------------------------------
 #P TD(Nstates=10000) lc-blyp/Gen SCF(maxcycles=100) Int(Grid=ultrafine
 )
 ----------------------------------------------------------------------

 ---------------------
 xGDB7_00001_tier4.com
 ---------------------
 Symbolic Z-matrix:
 Charge =  0 Multiplicity = 1

                         Standard orientation:
 ---------------------------------------------------------------------
 Center     Atomic      Atomic             Coordinates (Angstroms)
 Number     Number       Type             X           Y           Z
 ---------------------------------------------------------------------
      1          6           0        0.000000    0.729549   -0.367364
      2          6           0       -0.000000   -0.729549   -0.367364
      3          8           0       -0.000000   -0.000000    0.845033
      4          1           0       -0.918945    1.264243   -0.587975
      5          1           0        0.918945    1.264243   -0.587975
      6          1           0        0.918945   -1.264243   -0.587975
      7          1           0       -0.918945   -1.264243   -0.587975
 ---------------------------------------------------------------------

 SCF Done:  E(RLC-B+HF-LYP) =  -153.295055018     A.U. after   11 cycles

 Excitation energies and oscillator strengths:

 Excited State   1:      Singlet-B1     8.2862 eV  149.63 nm  f=0.0014  <S**2>=0.000
      12 -> 13         0.40902
      12 -> 15         0.53696
      12 -> 18         0.14997
 This state for optimization and/or second-order correction.
 Total Energy, E(TD-HF/TD-DFT) =  -152.990542979
 Copying the excited state density for this state as the 1-particle RhoCI density.

 Excited State   2:      Singlet-B1     8.6950 eV  142.59 nm  f=0.0505  <S**2>=0.000
      12 -> 13         0.54679
      12 -> 15        -0.40141
      12 -> 28        -0.13548

 Excited State   3:      Singlet-A2     8.7095 eV  142.36 nm  f=0.0000  <S**2>=0.000
      12 -> 14        -0.33589
      12 -> 17         0.54109
      12 -> 21        -0.26285
      12 -> 31         0.10901

 Excited State   4:      Singlet-A2     9.2609 eV  133.88 nm  f=0.0000  <S**2>=0.000
      10 -> 13        -0.12751
      12 -> 14         0.58005
      12 -> 17         0.20498
      12 -> 21        -0.27831
      12 -> 29        -0.13998

 Excited State   5:      Singlet-A1     9.2980 eV  133.35 nm  f=0.0410  <S**2>=0.000
      11 -> 13         0.39012
      11 -> 15         0.15950
      11 -> 18         0.11796
      12 -> 16         0.54070

 Excited State   6:      Singlet-A1     9.4527 eV  131.16 nm  f=0.0092  <S**2>=0.000
      11 -> 13         0.46021
      11 -> 15         0.24475
      11 -> 18         0.14840
      12 -> 16        -0.43676

 Excited State   7:      Singlet-A1     9.5758 eV  129.48 nm  f=0.0548  <S**2>=0.000
      11 -> 13        -0.32566
      11 -> 15         0.58179
      11 -> 18         0.11088
      11 -> 20         0.10928
      11 -> 28         0.11343

 Excited State   8:      Singlet-B2    10.1255 eV  122.45 nm  f=0.1344  <S**2>=0.000
      11 -> 14         0.64285
      11 -> 17        -0.24894

 Excited State   9:      Singlet-B1    10.3482 eV  119.81 nm  f=0.0022  <S**2>=0.000
      11 -> 16        -0.45315
      12 -> 18         0.50660

 Excited State  10:      Singlet-B1    10.4166 eV  119.03 nm  f=0.0184  <S**2>=0.000
      11 -> 16         0.51728
      12 -> 15        -0.10301
      12 -> 18         0.44077

 Excited State  11:      Singlet-B2    10.7711 eV  115.11 nm  f=0.1050  <S**2>=0.000
       9 -> 15        -0.12253
      11 -> 14         0.26274
      11 -> 17         0.54859
      11 -> 21        -0.26212
      11 -> 29        -0.10937

 Excited State  12:      Singlet-A2    11.0283 eV  112.42 nm  f=0.0000  <S**2>=0.000
      10 -> 13         0.57431
      10 -> 15        -0.14281
      12 -> 17        -0.14406
      12 -> 21        -0.30132

 Excited State  13:      Singlet-B1    11.3886 eV  108.87 nm  f=0.0593  <S**2>=0.000
      10 -> 14        -0.41852
      10 -> 17         0.21582
      10 -> 21        -0.15332
      12 -> 20         0.46214

 Excited State  14:      Singlet-A2    11.4333 eV  108.44 nm  f=0.0000  <S**2>=0.000
      10 -> 13         0.32452
      10 -> 15         0.16457
      10 -> 18         0.15221
      12 -> 14         0.17854
      12 -> 17         0.30327
      12 -> 21         0.45403

 Excited State  15:      Singlet-A1    11.5128 eV  107.69 nm  f=0.0216  <S**2>=0.000
      11 -> 13        -0.11772
      11 -> 15        -0.18473
      11 -> 18         0.64582

 Excited State  16:      Singlet-A2    11.6968 eV  106.00 nm  f=0.0000  <S**2>=0.000
      10 -> 15         0.57174
      10 -> 18         0.23748
      10 -> 20         0.13467
      10 -> 28         0.10434
      12 -> 17        -0.17417
      12 -> 21        -0.15027
      12 -> 23        -0.11748

 Excited State  17:      Singlet-B2    11.7650 eV  105.38 nm  f=0.1901  <S**2>=0.000
       9 -> 13         0.30317
      10 -> 16        -0.24573
      11 -> 17         0.11591
      12 -> 19         0.54799

 Excited State  18:      Singlet-B2    11.9532 eV  103.72 nm  f=0.0006  <S**2>=0.000
       9 -> 13         0.59440
      12 -> 19        -0.33645

 Excited State  19:      Singlet-B1    11.9966 eV  103.35 nm  f=0.0010  <S**2>=0.000
      10 -> 14        -0.10755
      10 -> 17         0.47496
      10 -> 21        -0.26798
      12 -> 20        -0.40503

 Excited State  20:      Singlet-B2    12.0629 eV  102.78 nm  f=0.0758  <S**2>=0.000
       9 -> 15         0.62709
       9 -> 18         0.11529
      11 -> 17         0.19911

 Excited State  21:      Singlet-A1    12.1568 eV  101.99 nm  f=0.0004  <S**2>=0.000
       9 -> 17         0.26286
       9 -> 21        -0.13334
      11 -> 20         0.14779
      12 -> 22         0.59632

 Excited State  22:      Singlet-B1    12.3128 eV  100.70 nm  f=0.0799  <S**2>=0.000
       7 -> 13         0.10549
      10 -> 14         0.52112
      10 -> 17         0.27362
      10 -> 21        -0.14341
      12 -> 13         0.10892
      12 -> 20         0.27652

 Excited State  23:      Singlet-A1    12.5609 eV   98.71 nm  f=0.0041  <S**2>=0.000
       9 -> 14         0.62759
       9 -> 17        -0.20307
      12 -> 22         0.16202

 Excited State  24:      Singlet-B2    12.6070 eV   98.35 nm  f=0.0961  <S**2>=0.000
       9 -> 13         0.12020
      10 -> 16         0.50338
      11 -> 17        -0.19144
      11 -> 21        -0.31748
      12 -> 19         0.23339

 Excited State  25:      Singlet-A2    12.6411 eV   98.08 nm  f=0.0000  <S**2>=0.000
       9 -> 16        -0.16256
      11 -> 19         0.67098
      11 -> 39        -0.11122

 Excited State  26:      Singlet-A2    12.8097 eV   96.79 nm  f=0.0000  <S**2>=0.000
       9 -> 16         0.59825
      10 -> 13         0.10969
      11 -> 19         0.16684
      12 -> 23         0.25867

 Excited State  27:      Singlet-A1    12.8471 eV   96.51 nm  f=0.0533  <S**2>=0.000
       9 -> 14        -0.18007
       9 -> 17        -0.26232
       9 -> 21         0.15871
      11 -> 15        -0.11555
      11 -> 20         0.55756

 Excited State  28:      Singlet-B2    12.8692 eV   96.34 nm  f=0.0174  <S**2>=0.000
       9 -> 15        -0.10718
      10 -> 16         0.38411
      11 -> 17         0.16953
      11 -> 21         0.50347
      11 -> 23         0.13853

 Excited State  29:      Singlet-A2    12.8923 eV   96.17 nm  f=0.0000  <S**2>=0.000
       9 -> 16        -0.29761
      10 -> 15         0.11151
      10 -> 18        -0.14989
      10 -> 20         0.13010
      12 -> 23         0.56470
      12 -> 38        -0.11333

 Excited State  30:      Singlet-B1    12.9707 eV   95.59 nm  f=0.0031  <S**2>=0.000
      11 -> 22         0.68030

 Excited State  31:      Singlet-A1    13.0254 eV   95.19 nm  f=0.0132  <S**2>=0.000
      12 -> 22        -0.13106
      12 -> 24         0.66291

 Excited State  32:      Singlet-B1    13.5261 eV   91.66 nm  f=0.0000  <S**2>=0.000
      11 -> 24        -0.15338
      12 -> 20        -0.13107
      12 -> 25         0.56564
      12 -> 28         0.29958

 Excited State  33:      Singlet-A2    13.6351 eV   90.93 nm  f=0.0000  <S**2>=0.000
       7 -> 14        -0.11870
      10 -> 13        -0.10938
      10 -> 15        -0.11261
      10 -> 18         0.53780
      10 -> 20        -0.28586
      12 -> 23         0.25009

 Excited State  34:      Singlet-B2    13.7673 eV   90.06 nm  f=0.0162  <S**2>=0.000
       9 -> 18        -0.23424
      11 -> 21        -0.14957
      11 -> 23         0.60841
      11 -> 38        -0.12761

 Excited State  35:      Singlet-B1    13.7821 eV   89.96 nm  f=0.0117  <S**2>=0.000
      11 -> 24         0.65341
      12 -> 28         0.15247

 Excited State  36:      Singlet-A1    13.8234 eV   89.69 nm  f=0.0575  <S**2>=0.000
       8 -> 13         0.17471
       8 -> 15        -0.14786
       9 -> 14         0.16749
       9 -> 17         0.30903
       9 -> 21        -0.27979
      11 -> 20         0.28077
      11 -> 25        -0.10503
      11 -> 28        -0.19723
      12 -> 22        -0.23787
      12 -> 24        -0.13444

 Excited State  37:      Singlet-B2    13.9424 eV   88.93 nm  f=0.0507  <S**2>=0.000
       9 -> 18         0.61982
      11 -> 23         0.25498

 Excited State  38:      Singlet-B1    14.2094 eV   87.25 nm  f=0.0335  <S**2>=0.000
      10 -> 17        -0.11556
      10 -> 21        -0.23640
      12 -> 25        -0.35452
      12 -> 28         0.48312

 Excited State  39:      Singlet-B2    14.4027 eV   86.08 nm  f=0.0277  <S**2>=0.000
      10 -> 22         0.26927
      10 -> 24        -0.14153
      12 -> 26         0.60297
      12 -> 42        -0.11700

 Excited State  40:      Singlet-A1    14.4406 eV   85.86 nm  f=0.0001  <S**2>=0.000
       8 -> 13        -0.40398
       9 -> 17         0.14643
      11 -> 20         0.12253
      11 -> 25         0.45833
      11 -> 28         0.14004
      12 -> 22        -0.12319

 Excited State  41:      Singlet-A1    14.5005 eV   85.50 nm  f=0.0340  <S**2>=0.000
       8 -> 13         0.34290
       8 -> 15         0.40165
       8 -> 18         0.18548
      10 -> 19        -0.29175
      11 -> 25         0.22610

 Excited State  42:      Singlet-A1    14.6803 eV   84.46 nm  f=0.0356  <S**2>=0.000
       8 -> 13        -0.10218
       8 -> 15         0.35171
       8 -> 18         0.10666
       9 -> 17         0.22481
       9 -> 21         0.26897
      10 -> 19         0.41253
      11 -> 28        -0.14006

 Excited State  43:      Singlet-B2    14.6873 eV   84.42 nm  f=0.1281  <S**2>=0.000
       8 -> 14        -0.41602
       8 -> 17         0.44215
       8 -> 21        -0.23456
       9 -> 20         0.14485

 Excited State  44:      Singlet-A2    14.6982 eV   84.35 nm  f=0.0000  <S**2>=0.000
       7 -> 14         0.14118
      10 -> 15        -0.23359
      10 -> 18         0.26654
      10 -> 20         0.50432
      10 -> 25        -0.17804
      12 -> 29         0.19182

 Excited State  45:      Singlet-A1    14.8710 eV   83.37 nm  f=0.2129  <S**2>=0.000
       8 -> 13         0.34672
       8 -> 15        -0.27103
       9 -> 21         0.14056
      10 -> 19         0.26309
      11 -> 25         0.37280
      11 -> 28         0.10289
      12 -> 27         0.12545

 Excited State  46:      Singlet-B1    14.9684 eV   82.83 nm  f=0.0008  <S**2>=0.000
       7 -> 15        -0.14098
       8 -> 16         0.16379
       9 -> 19        -0.26538
      10 -> 17         0.25566
      10 -> 21         0.47873
      12 -> 28         0.21232

 Excited State  47:      Singlet-B1    15.0430 eV   82.42 nm  f=0.2764  <S**2>=0.000
       8 -> 16        -0.34071
       9 -> 19         0.48771
      10 -> 17         0.15056
      10 -> 21         0.21974
      12 -> 28         0.16108

 Excited State  48:      Singlet-B2    15.0733 eV   82.25 nm  f=0.1226  <S**2>=0.000
       8 -> 14        -0.19521
       8 -> 17        -0.26410
       8 -> 21         0.16170
       9 -> 20         0.52955
      10 -> 24         0.15102
      12 -> 26         0.12134

 Excited State  49:      Singlet-A2    15.1627 eV   81.77 nm  f=0.0000  <S**2>=0.000
       7 -> 17        -0.23680
       7 -> 21         0.11791
       9 -> 22        -0.15831
      10 -> 20        -0.19367
      12 -> 21        -0.11468
      12 -> 29         0.50840
      12 -> 38        -0.14642
      12 -> 46        -0.12526

 Excited State  50:      Singlet-A1    15.2310 eV   81.40 nm  f=0.0109  <S**2>=0.000
       8 -> 15        -0.10397
       9 -> 17         0.32231
       9 -> 21         0.42482
      10 -> 19        -0.32088
      11 -> 25        -0.13826
      11 -> 28         0.17281

 Excited State  51:      Singlet-B2    15.3762 eV   80.63 nm  f=0.0002  <S**2>=0.000
      10 -> 22         0.61364
      12 -> 26        -0.27093

 Excited State  52:      Singlet-A2    15.3971 eV   80.52 nm  f=0.0000  <S**2>=0.000
       9 -> 22         0.66311
      12 -> 29         0.12723

 Excited State  53:      Singlet-B1    15.4507 eV   80.24 nm  f=0.2264  <S**2>=0.000
       7 -> 13         0.50727
       7 -> 18         0.10539
       8 -> 16         0.29916
       9 -> 19         0.30460
      10 -> 23         0.10614

 Excited State  54:      Singlet-B2    15.4613 eV   80.19 nm  f=0.0146  <S**2>=0.000
       8 -> 14         0.49284
       8 -> 17         0.21894
       8 -> 21        -0.19607
       9 -> 15        -0.10575
       9 -> 20         0.33898

 Excited State  55:      Singlet-A1    15.4682 eV   80.15 nm  f=0.0954  <S**2>=0.000
       8 -> 13        -0.11228
      10 -> 19        -0.10315
      11 -> 28        -0.27673
      12 -> 27         0.59329

 Excited State  56:      Singlet-B1    15.5246 eV   79.86 nm  f=0.1513  <S**2>=0.000
       7 -> 13        -0.26924
       7 -> 18        -0.13592
       8 -> 16         0.42306
       9 -> 19         0.22646
      10 -> 23        -0.35363

 Excited State  57:      Singlet-A2    15.5598 eV   79.68 nm  f=0.0000  <S**2>=0.000
      11 -> 26         0.68763
      11 -> 42        -0.11892

 Excited State  58:      Singlet-A2    15.7582 eV   78.68 nm  f=0.0000  <S**2>=0.000
       7 -> 14        -0.22279
       7 -> 17         0.41978
       7 -> 21        -0.29044
       7 -> 31         0.10251
      10 -> 15         0.12973
      10 -> 25        -0.21766
      10 -> 28        -0.15710
      12 -> 29         0.24858

 Excited State  59:      Singlet-B2    15.8106 eV   78.42 nm  f=0.3874  <S**2>=0.000
       9 -> 20        -0.17196
      10 -> 24         0.63622

 Excited State  60:      Singlet-B1    15.8148 eV   78.40 nm  f=0.1744  <S**2>=0.000
       7 -> 13        -0.22378
       7 -> 15         0.42094
       7 -> 18         0.13410
       8 -> 16         0.19694
       9 -> 19         0.11091
      10 -> 17         0.15026
      10 -> 23         0.29462
      12 -> 28        -0.11088
      12 -> 30        -0.17987

 Excited State  61:      Singlet-B1    16.0124 eV   77.43 nm  f=0.0467  <S**2>=0.000
       7 -> 13        -0.22859
       7 -> 15        -0.39095
      10 -> 17        -0.10102
      10 -> 23         0.46257

 Excited State  62:      Singlet-A1    16.0496 eV   77.25 nm  f=0.2217  <S**2>=0.000
       8 -> 13         0.10335
       8 -> 15         0.19387
       8 -> 18        -0.24975
       9 -> 21        -0.18068
       9 -> 23         0.32621
      10 -> 19         0.14529
      11 -> 25        -0.10774
      11 -> 28         0.32942
      12 -> 27         0.24851

 Excited State  63:      Singlet-A2    16.2714 eV   76.20 nm  f=0.0000  <S**2>=0.000
       7 -> 14        -0.10388
       9 -> 24         0.61365
      10 -> 25         0.11244
      12 -> 31        -0.23084

 Excited State  64:      Singlet-A1    16.3645 eV   75.76 nm  f=0.2172  <S**2>=0.000
       8 -> 20         0.13809
       9 -> 21         0.11610
       9 -> 23         0.52836
      11 -> 28        -0.26563
      11 -> 30         0.15488
      12 -> 27        -0.12077

 Excited State  65:      Singlet-A2    16.3955 eV   75.62 nm  f=0.0000  <S**2>=0.000
       7 -> 14         0.39295
       9 -> 24         0.26285
      10 -> 20        -0.14152
      10 -> 25        -0.14272
      12 -> 31         0.42458

 Excited State  66:      Singlet-B1    16.3999 eV   75.60 nm  f=0.0135  <S**2>=0.000
       7 -> 15         0.18551
      12 -> 30         0.61228
      12 -> 34         0.19557

 Excited State  67:      Singlet-B2    16.4819 eV   75.22 nm  f=0.0584  <S**2>=0.000
       8 -> 21        -0.12793
      11 -> 29         0.63070
      11 -> 38        -0.15606
      11 -> 46        -0.11431

 Excited State  68:      Singlet-B1    16.4890 eV   75.19 nm  f=0.0154  <S**2>=0.000
       8 -> 22         0.12280
      11 -> 27         0.67066

 Excited State  69:      Singlet-A2    16.5495 eV   74.92 nm  f=0.0000  <S**2>=0.000
       7 -> 14        -0.40444
       7 -> 21         0.10146
      10 -> 20         0.16624
      10 -> 25         0.14480
      10 -> 28         0.23428
      12 -> 31         0.41738

 Excited State  70:      Singlet-A1    16.5917 eV   74.73 nm  f=0.0259  <S**2>=0.000
       7 -> 16         0.31145
       8 -> 18         0.48962
       8 -> 20        -0.13712
       9 -> 21        -0.11889
       9 -> 23         0.22359
      11 -> 28         0.13038

 Excited State  71:      Singlet-A1    16.8246 eV   73.69 nm  f=0.0321  <S**2>=0.000
       7 -> 16         0.50501
       8 -> 15         0.11383
       8 -> 18        -0.26303
       9 -> 23        -0.12349
      12 -> 32        -0.30847

 Excited State  72:      Singlet-A2    16.9060 eV   73.34 nm  f=0.0000  <S**2>=0.000
       7 -> 14         0.21671
       7 -> 17         0.23656
       7 -> 21        -0.19646
      10 -> 25         0.52971
      10 -> 28         0.10499
      12 -> 35         0.14030

 Excited State  73:      Singlet-B2    16.9193 eV   73.28 nm  f=0.1933  <S**2>=0.000
       8 -> 17        -0.12979
       9 -> 25         0.45331
       9 -> 28         0.30996
      11 -> 31        -0.31205

 Excited State  74:      Singlet-B1    17.0049 eV   72.91 nm  f=0.2057  <S**2>=0.000
      12 -> 30        -0.20136
      12 -> 34         0.65128

 Excited State  75:      Singlet-A1    17.0217 eV   72.84 nm  f=0.0192  <S**2>=0.000
       7 -> 16         0.24814
       8 -> 18        -0.12280
      10 -> 26        -0.16169
      11 -> 30         0.19769
      12 -> 27        -0.10101
      12 -> 32         0.54859

 Excited State  76:      Singlet-B2    17.1546 eV   72.27 nm  f=0.0517  <S**2>=0.000
       8 -> 17         0.21539
       8 -> 21         0.38621
       8 -> 23         0.11457
       9 -> 25         0.35783
      11 -> 31         0.32737

 Excited State  77:      Singlet-A1    17.2754 eV   71.77 nm  f=0.0435  <S**2>=0.000
      11 -> 28         0.22181
      11 -> 30         0.60873
      12 -> 32        -0.17368

 Excited State  78:      Singlet-A2    17.5121 eV   70.80 nm  f=0.0000  <S**2>=0.000
       6 -> 16         0.14833
       8 -> 19         0.63886
      12 -> 38        -0.10339

 Excited State  79:      Singlet-A1    17.5134 eV   70.79 nm  f=0.2154  <S**2>=0.000
       7 -> 22        -0.17417
       8 -> 20        -0.15959
      10 -> 26         0.60707
      12 -> 32         0.10920

 Excited State  80:      Singlet-A2    17.5973 eV   70.46 nm  f=0.0000  <S**2>=0.000
       7 -> 17         0.19014
      10 -> 20        -0.11731
      10 -> 25        -0.17778
      10 -> 28         0.54570
      10 -> 30        -0.15170
      12 -> 31        -0.21138

 Excited State  81:      Singlet-B2    17.7617 eV   69.80 nm  f=0.0000  <S**2>=0.000
       6 -> 15         0.10125
       7 -> 19         0.11618
       8 -> 23         0.10930
       9 -> 25        -0.24423
       9 -> 28         0.47781
      10 -> 27        -0.10869
      11 -> 31         0.30869

 Excited State  82:      Singlet-B1    17.7897 eV   69.69 nm  f=0.0323  <S**2>=0.000
       7 -> 13        -0.11618
       7 -> 15        -0.10973
       7 -> 18         0.54596
       7 -> 20        -0.12310
       8 -> 24         0.12068
      12 -> 36        -0.30428

 Excited State  83:      Singlet-A1    17.7904 eV   69.69 nm  f=0.0106  <S**2>=0.000
       8 -> 20         0.49271
       9 -> 29         0.11555
      10 -> 26         0.18452
      11 -> 34         0.36072

 Excited State  84:      Singlet-B2    17.8210 eV   69.57 nm  f=0.0100  <S**2>=0.000
       8 -> 17         0.26534
       8 -> 21         0.38624
       9 -> 25        -0.21201
       9 -> 28         0.22949
      11 -> 31        -0.32286
      12 -> 33         0.12363

 Excited State  85:      Singlet-B1    17.8385 eV   69.50 nm  f=0.0182  <S**2>=0.000
       8 -> 22         0.28308
       9 -> 26         0.30207
      11 -> 32         0.53932

 Excited State  86:      Singlet-B1    17.8698 eV   69.38 nm  f=0.0822  <S**2>=0.000
       8 -> 22        -0.35474
       8 -> 24         0.10476
       9 -> 26        -0.36613
      11 -> 27         0.10186
      11 -> 32         0.40400

 Excited State  87:      Singlet-B2    18.0783 eV   68.58 nm  f=0.0826  <S**2>=0.000
      10 -> 27         0.10230
      11 -> 31         0.11071
      12 -> 33         0.66066

 Excited State  88:      Singlet-A1    18.0803 eV   68.57 nm  f=0.1236  <S**2>=0.000
       7 -> 16        -0.11964
       8 -> 20        -0.32255
      11 -> 34         0.56247

 Excited State  89:      Singlet-B1    18.1043 eV   68.48 nm  f=0.0000  <S**2>=0.000
       8 -> 22         0.48003
       8 -> 24         0.14894
       9 -> 26        -0.40442
      12 -> 36        -0.11009

 Excited State  90:      Singlet-A2    18.1526 eV   68.30 nm  f=0.0000  <S**2>=0.000
       8 -> 19         0.15058
      10 -> 30        -0.24692
      12 -> 23         0.10111
      12 -> 29         0.13671
      12 -> 35         0.29722
      12 -> 38         0.49466

 Excited State  91:      Singlet-B1    18.1946 eV   68.14 nm  f=0.0014  <S**2>=0.000
       7 -> 18         0.14510
       7 -> 20        -0.31629
       8 -> 24         0.16180
      10 -> 29         0.30472
      12 -> 36         0.44977
      12 -> 37         0.10133

 The electronic state is 1-A1.
 Alpha  occ. eigenvalues --  -19.03405 -10.21388 -10.21368  -1.24383  -0.82959
 Alpha  occ. eigenvalues --   -0.79445  -0.67221  -0.63072  -0.54165  -0.52099
 Alpha  occ. eigenvalues --   -0.45196  -0.41244
 Alpha virt. eigenvalues --    0.08224   0.10108   0.12514   0.13024   0.16632
 Alpha virt. eigenvalues --    0.16875   0.20291   0.21348   0.21860   0.22798
 Alpha virt. eigenvalues --    0.25799   0.26444   0.29957   0.31804   0.35805

 Mulliken charges:
               1
     1  C    0.723831
     2  C    0.723831
     3  O   -0.549918
     4  H   -0.224436
     5  H   -0.224436
     6  H   -0.224436
     7  H   -0.224436
 Sum of Mulliken charges =   0.00000

 Dipole moment (field-independent basis, Debye):
    X=             -0.0000    Y=              0.0000    Z=             -2.1266  Tot=              2.1266
 Quadrupole moment (field-independent basis, Debye-Ang):
   XX=            -17.5959   YY=            -16.5537   ZZ=            -21.2921
   XY=              0.0000   XZ=             -0.0000   YZ=             -0.0000

 1\1\GINC-HEL10\SP\RLC-BLYP TD-FC\Gen\C2H4O1\SABYASACHI\21-Mar-2022\0\\
 #P TD(Nstates=10000) lc-blyp/Gen SCF(maxcycles=100) Int(Grid=ultrafine
 )\\xGDB7_00001_tier4.com\\0,1\C,0,0.,0.729549,-0.367364\C,0,0.,-0.7295
 49,-0.367364\O,0,0.,0.,0.845033\H,0,-0.918945,1.264243,-0.587975\H,0,0
 .918945,1.264243,-0.587975\H,0,0.918945,-1.264243,-0.587975\H,0,-0.918
 945,-1.264243,-0.587975\\Version=EM64L-G16RevC.01\State=1-A1\HF=-153.2
 95055\RMSD=7.192e-09\PG=C02V [C2(O1),SGV(C2),X(H4)]\\@
 The archive entry for this job was punched.

 Normal termination of Gaussian 16 at Mon Mar 21 20:20:01 2022.
