 Gaussian 16, Revision C.01,
 Gaussian 16:  EM64L-G16RevC.01  3-Jul-2019

 ---------------------------------------------------------------------
 #P TD(Nstates=10000) tpssh/Gen SCF(maxcycles=100) Int(Grid=ultrafine)
 ---------------------------------------------------------------------

 ---------------------
 xGDB7_00001_tier4.com
 ---------------------
 Symbolic Z-matrix:
 Charge =  0 Multiplicity = 1

                         Standard orientation:
 ---------------------------------------------------------------------
 Center     Atomic      Atomic             Coordinates (Angstroms)
 Number     Number       Type             X           Y           Z
 ---------------------------------------------------------------------
      1          6           0        0.000000    0.000000    0.761397
      2          6           0       -0.000000   -0.000000   -0.761397
      3          1           0        0.000000    1.017110    1.157248
      4          1           0        0.880843   -0.508555    1.157248
      5          1           0       -0.880843   -0.508555    1.157248
      6          1           0        0.880843    0.508555   -1.157248
      7          1           0       -0.880843    0.508555   -1.157248
      8          1           0       -0.000000   -1.017110   -1.157248
 ---------------------------------------------------------------------

 SCF Done:  E(RTPSSh) =  -79.7835675959     A.U. after    9 cycles

 Excitation energies and oscillator strengths:

 Excited State   1:      Singlet-EG     9.0872 eV  136.44 nm  f=0.0000  <S**2>=0.000
       9 -> 10         0.70669
 This state for optimization and/or second-order correction.
 Total Energy, E(TD-HF/TD-DFT) =  -79.4496203551
 Copying the excited state density for this state as the 1-particle RhoCI density.

 Excited State   2:      Singlet-EG     9.0872 eV  136.44 nm  f=0.0000  <S**2>=0.000
       8 -> 10         0.70669

 Excited State   3:      Singlet-A1G    9.8325 eV  126.10 nm  f=0.0000  <S**2>=0.000
       7 -> 10         0.70346

 Excited State   4:      Singlet-EU     9.9753 eV  124.29 nm  f=0.0857  <S**2>=0.000
       9 -> 11         0.70635

 Excited State   5:      Singlet-EU     9.9753 eV  124.29 nm  f=0.0857  <S**2>=0.000
       8 -> 11         0.70635

 Excited State   6:      Singlet-A2U   10.6360 eV  116.57 nm  f=0.1959  <S**2>=0.000
       7 -> 11         0.70391

 Excited State   7:      Singlet-EG    11.0103 eV  112.61 nm  f=0.0592  <S**2>=0.000
       8 -> 12         0.49865
       9 -> 13        -0.49865

 Excited State   8:      Singlet-EG    11.0103 eV  112.61 nm  f=0.0592  <S**2>=0.000
       8 -> 13         0.49864
       9 -> 12         0.49865

 Excited State   9:      Singlet-EG    11.0260 eV  112.45 nm  f=0.0000  <S**2>=0.000
       8 -> 13         0.49966
       9 -> 12        -0.49964

 Excited State  10:      Singlet-EG    11.3069 eV  109.65 nm  f=0.2904  <S**2>=0.000
       8 -> 12         0.49470
       9 -> 13         0.49471

 Excited State  11:      Singlet-EU    11.4766 eV  108.03 nm  f=0.0000  <S**2>=0.000
       8 -> 15        -0.49835
       9 -> 14         0.49835

 Excited State  12:      Singlet-EU    11.5980 eV  106.90 nm  f=0.0706  <S**2>=0.000
       5 -> 10         0.66076
       7 -> 13         0.24985

 Excited State  13:      Singlet-EU    11.5980 eV  106.90 nm  f=0.0706  <S**2>=0.000
       6 -> 10         0.66075
       7 -> 12         0.24985

 Excited State  14:      Singlet-EU    11.6877 eV  106.08 nm  f=0.0000  <S**2>=0.000
       8 -> 14         0.48802
       9 -> 15         0.48773

 Excited State  15:      Singlet-EU    11.6894 eV  106.07 nm  f=0.0000  <S**2>=0.000
       8 -> 14        -0.49778
       9 -> 15         0.49807

 Excited State  16:      Singlet-EU    11.6894 eV  106.07 nm  f=0.0000  <S**2>=0.000
       8 -> 15         0.49793
       9 -> 14         0.49792

 Excited State  17:      Singlet-EU    11.7138 eV  105.84 nm  f=0.1182  <S**2>=0.000
       5 -> 10        -0.24800
       7 -> 13         0.65672

 Excited State  18:      Singlet-EU    11.7138 eV  105.84 nm  f=0.1182  <S**2>=0.000
       6 -> 10        -0.24801
       7 -> 12         0.65672

 Excited State  19:      Singlet-EG    12.1643 eV  101.92 nm  f=0.0000  <S**2>=0.000
       7 -> 15         0.70117

 Excited State  20:      Singlet-EG    12.1643 eV  101.92 nm  f=0.0000  <S**2>=0.000
       7 -> 14         0.70117

 Excited State  21:      Singlet-EG    12.3916 eV  100.05 nm  f=0.0000  <S**2>=0.000
       5 -> 11         0.59320
       9 -> 16         0.37667

 Excited State  22:      Singlet-EG    12.3916 eV  100.05 nm  f=0.0000  <S**2>=0.000
       6 -> 11         0.59320
       8 -> 16         0.37667

 Excited State  23:      Singlet-EG    12.5502 eV   98.79 nm  f=0.0000  <S**2>=0.000
       5 -> 11        -0.38148
       9 -> 16         0.59262

 Excited State  24:      Singlet-EG    12.5502 eV   98.79 nm  f=0.0000  <S**2>=0.000
       6 -> 11        -0.38148
       8 -> 16         0.59261

 Excited State  25:      Singlet-EU    12.8106 eV   96.78 nm  f=0.0000  <S**2>=0.000
       8 -> 18        -0.49401
       9 -> 17         0.49407

 Excited State  26:      Singlet-EU    12.8114 eV   96.78 nm  f=0.0000  <S**2>=0.000
       8 -> 17         0.48812
       9 -> 18        -0.48812

 Excited State  27:      Singlet-EU    12.8114 eV   96.78 nm  f=0.0000  <S**2>=0.000
       8 -> 18         0.48815
       9 -> 17         0.48810

 Excited State  28:      Singlet-EU    13.0582 eV   94.95 nm  f=0.0000  <S**2>=0.000
       5 -> 13        -0.10040
       6 -> 12        -0.10040
       7 -> 16         0.30844
       8 -> 17         0.43477
       9 -> 18         0.43477

 Excited State  29:      Singlet-A1G   13.2705 eV   93.43 nm  f=0.0000  <S**2>=0.000
       5 -> 13         0.26708
       6 -> 12         0.26708
       7 -> 16         0.56332
       8 -> 17        -0.13672
       9 -> 18        -0.13672

 Excited State  30:      Singlet-EG    13.3320 eV   93.00 nm  f=0.0000  <S**2>=0.000
       5 -> 14        -0.11286
       6 -> 15         0.11286
       8 -> 20        -0.48588
       9 -> 19         0.48588

 Excited State  31:      Singlet-EU    13.4443 eV   92.22 nm  f=0.0071  <S**2>=0.000
       8 -> 20         0.22280
       9 -> 19         0.22280
       9 -> 21         0.62376

 Excited State  32:      Singlet-EU    13.4443 eV   92.22 nm  f=0.0071  <S**2>=0.000
       8 -> 19        -0.22280
       8 -> 21         0.62376
       9 -> 20         0.22280

 Excited State  33:      Singlet-EG    13.4572 eV   92.13 nm  f=0.0000  <S**2>=0.000
       5 -> 12         0.17247
       6 -> 13         0.17246
       7 -> 18         0.66067

 Excited State  34:      Singlet-EG    13.4572 eV   92.13 nm  f=0.0000  <S**2>=0.000
       5 -> 13         0.17246
       6 -> 12        -0.17246
       7 -> 17         0.66067

 Excited State  35:      Singlet-EU    13.4918 eV   91.90 nm  f=0.0000  <S**2>=0.000
       5 -> 12         0.49481
       6 -> 13        -0.49481

 Excited State  36:      Singlet-EU    13.5094 eV   91.78 nm  f=0.0000  <S**2>=0.000
       5 -> 12         0.45848
       6 -> 13         0.45849
       7 -> 18        -0.24792

 Excited State  37:      Singlet-EU    13.5094 eV   91.78 nm  f=0.0000  <S**2>=0.000
       5 -> 13        -0.45849
       6 -> 12         0.45849
       7 -> 17         0.24791

 Excited State  38:      Singlet-EG    13.6746 eV   90.67 nm  f=0.0685  <S**2>=0.000
       5 -> 15        -0.14833
       6 -> 14         0.14833
       7 -> 19        -0.26566
       8 -> 19         0.39787
       8 -> 21         0.23957
       9 -> 20        -0.39787

 Excited State  39:      Singlet-EG    13.6746 eV   90.67 nm  f=0.0685  <S**2>=0.000
       5 -> 14         0.14833
       6 -> 15         0.14833
       7 -> 20         0.26566
       8 -> 20         0.39787
       9 -> 19         0.39787
       9 -> 21        -0.23957

 Excited State  40:      Singlet-EG    13.7306 eV   90.30 nm  f=0.1185  <S**2>=0.000
       7 -> 21         0.25371
       8 -> 19         0.46154
       9 -> 20         0.46154

 Excited State  41:      Singlet-EG    13.9827 eV   88.67 nm  f=0.0000  <S**2>=0.000
       5 -> 14         0.48556
       6 -> 15        -0.48556
       8 -> 20        -0.11477
       9 -> 19         0.11477

 Excited State  42:      Singlet-EG    13.9924 eV   88.61 nm  f=0.0421  <S**2>=0.000
       5 -> 15         0.45202
       6 -> 14         0.45202
       7 -> 21         0.26349

 Excited State  43:      Singlet-EU    14.0854 eV   88.02 nm  f=0.0435  <S**2>=0.000
       5 -> 15        -0.29584
       6 -> 14         0.29585
       7 -> 19         0.55670

 Excited State  44:      Singlet-EU    14.0854 eV   88.02 nm  f=0.0435  <S**2>=0.000
       5 -> 14        -0.29585
       6 -> 15        -0.29585
       7 -> 20         0.55670

 Excited State  45:      Singlet-EG    14.4547 eV   85.77 nm  f=0.2630  <S**2>=0.000
       5 -> 14         0.33886
       5 -> 16         0.21017
       5 -> 17         0.11464
       6 -> 15         0.33886
       6 -> 18         0.11464
       7 -> 20         0.28523
       8 -> 20        -0.12995
       8 -> 23         0.14167
       9 -> 19        -0.12995
       9 -> 21         0.16987
       9 -> 22         0.14167

 Excited State  46:      Singlet-EG    14.4547 eV   85.77 nm  f=0.2630  <S**2>=0.000
       5 -> 15         0.33886
       5 -> 18         0.11464
       6 -> 14        -0.33886
       6 -> 16         0.21017
       6 -> 17        -0.11464
       7 -> 19         0.28523
       8 -> 19         0.12995
       8 -> 21         0.16987
       8 -> 22        -0.14167
       9 -> 20        -0.12995
       9 -> 23         0.14167

 Excited State  47:      Singlet-A2U   14.6176 eV   84.82 nm  f=0.0855  <S**2>=0.000
       5 -> 15        -0.18873
       6 -> 14        -0.18874
       7 -> 21         0.48962
       8 -> 19        -0.12457
       8 -> 22        -0.24860
       9 -> 20        -0.12457
       9 -> 23        -0.24860

 Excited State  48:      Singlet-EU    14.6558 eV   84.60 nm  f=0.0000  <S**2>=0.000
       4 -> 11         0.11896
       5 -> 13         0.38823
       6 -> 12         0.38823
       7 -> 16        -0.27239
       8 -> 17         0.17217
       9 -> 18         0.17217

 Excited State  49:      Singlet-EG    14.9412 eV   82.98 nm  f=0.0000  <S**2>=0.000
       5 -> 17         0.11038
       6 -> 18        -0.11038
       8 -> 23        -0.48607
       9 -> 22         0.48607

 Excited State  50:      Singlet-EU    14.9735 eV   82.80 nm  f=0.0435  <S**2>=0.000
       5 -> 16         0.42181
       8 -> 23        -0.39395
       9 -> 22        -0.39394

 Excited State  51:      Singlet-EU    14.9735 eV   82.80 nm  f=0.0435  <S**2>=0.000
       6 -> 16         0.42181
       8 -> 22         0.39395
       9 -> 23        -0.39395

 Excited State  52:      Singlet-EU    15.1068 eV   82.07 nm  f=0.2216  <S**2>=0.000
       5 -> 18        -0.16044
       6 -> 16         0.47933
       6 -> 17         0.16044
       7 -> 19        -0.10548
       7 -> 22        -0.17493
       8 -> 22        -0.26325
       9 -> 23         0.26324

 Excited State  53:      Singlet-EU    15.1068 eV   82.07 nm  f=0.2216  <S**2>=0.000
       5 -> 16         0.47933
       5 -> 17        -0.16044
       6 -> 18        -0.16044
       7 -> 20        -0.10548
       7 -> 23        -0.17493
       8 -> 23         0.26325
       9 -> 22         0.26324

 Excited State  54:      Singlet-EG    15.2404 eV   81.35 nm  f=0.7991  <S**2>=0.000
       5 -> 18         0.21529
       6 -> 17         0.21530
       7 -> 21         0.24513
       8 -> 22         0.39354
       9 -> 23         0.39354

 Excited State  55:      Singlet-EG    15.3241 eV   80.91 nm  f=0.0000  <S**2>=0.000
       5 -> 17        -0.48664
       6 -> 18         0.48664
       8 -> 23        -0.11205
       9 -> 22         0.11205

 Excited State  56:      Singlet-EG    15.4055 eV   80.48 nm  f=0.0636  <S**2>=0.000
       5 -> 16         0.12427
       5 -> 17         0.43412
       6 -> 18         0.43412
       7 -> 23        -0.27261

 Excited State  57:      Singlet-EG    15.4055 eV   80.48 nm  f=0.0636  <S**2>=0.000
       5 -> 18         0.43412
       6 -> 16         0.12427
       6 -> 17        -0.43412
       7 -> 22        -0.27261

 Excited State  58:      Singlet-EG    15.5523 eV   79.72 nm  f=0.0000  <S**2>=0.000
       4 -> 10         0.16907
       5 -> 18         0.42721
       6 -> 17         0.42721
       7 -> 21        -0.16853
       7 -> 24         0.14582
       8 -> 22        -0.13161
       9 -> 23        -0.13161

 Excited State  59:      Singlet-EU    15.7765 eV   78.59 nm  f=0.3371  <S**2>=0.000
       5 -> 18         0.12500
       6 -> 16         0.15266
       6 -> 17        -0.12500
       7 -> 22         0.61722

 Excited State  60:      Singlet-EU    15.7765 eV   78.59 nm  f=0.3371  <S**2>=0.000
       5 -> 16         0.15266
       5 -> 17         0.12500
       6 -> 18         0.12500
       7 -> 23         0.61722

 Excited State  61:      Singlet-EU    15.8275 eV   78.33 nm  f=0.0000  <S**2>=0.000
       5 -> 19         0.49827
       6 -> 20        -0.49827

 Excited State  62:      Singlet-EG    15.9262 eV   77.85 nm  f=0.0000  <S**2>=0.000
       5 -> 20         0.22177
       6 -> 19        -0.22177
       6 -> 21         0.63171

 Excited State  63:      Singlet-EG    15.9262 eV   77.85 nm  f=0.0000  <S**2>=0.000
       5 -> 19         0.22177
       5 -> 21         0.63171
       6 -> 20         0.22177

 Excited State  64:      Singlet-EU    16.1273 eV   76.88 nm  f=0.0000  <S**2>=0.000
       5 -> 20         0.49169
       6 -> 19         0.49167

 Excited State  65:      Singlet-EU    16.1856 eV   76.60 nm  f=0.0000  <S**2>=0.000
       5 -> 19         0.43564
       5 -> 21        -0.30870
       6 -> 20         0.43564

 Excited State  66:      Singlet-EU    16.1856 eV   76.60 nm  f=0.0000  <S**2>=0.000
       5 -> 20        -0.43563
       6 -> 19         0.43564
       6 -> 21         0.30870

 Excited State  67:      Singlet-EU    16.2160 eV   76.46 nm  f=0.0655  <S**2>=0.000
       8 -> 24         0.70187

 Excited State  68:      Singlet-EU    16.2160 eV   76.46 nm  f=0.0655  <S**2>=0.000
       9 -> 24         0.70187

 Excited State  69:      Singlet-A2U   16.4559 eV   75.34 nm  f=0.0244  <S**2>=0.000
       4 -> 10         0.63265
       7 -> 24        -0.28123

 Excited State  70:      Singlet-EG    16.7377 eV   74.07 nm  f=0.0000  <S**2>=0.000
       9 -> 25         0.69842

 Excited State  71:      Singlet-EG    16.7377 eV   74.07 nm  f=0.0000  <S**2>=0.000
       8 -> 25         0.69842

 Excited State  72:      Singlet-EU    17.0894 eV   72.55 nm  f=0.0178  <S**2>=0.000
       8 -> 26         0.70471

 Excited State  73:      Singlet-EU    17.0894 eV   72.55 nm  f=0.0178  <S**2>=0.000
       9 -> 26         0.70471

 Excited State  74:      Singlet-A2U   17.2224 eV   71.99 nm  f=0.3436  <S**2>=0.000
       4 -> 10         0.21148
       7 -> 21         0.11964
       7 -> 24         0.60853
       7 -> 33        -0.14956

 Excited State  75:      Singlet-A1G   17.2341 eV   71.94 nm  f=0.0000  <S**2>=0.000
       4 -> 11         0.58555
       7 -> 25         0.36676

 Excited State  76:      Singlet-EU    17.4043 eV   71.24 nm  f=0.0000  <S**2>=0.000
       5 -> 23        -0.49394
       6 -> 22         0.49395

 Excited State  77:      Singlet-EU    17.4043 eV   71.24 nm  f=0.0000  <S**2>=0.000
       5 -> 22         0.49395
       6 -> 23         0.49394

 Excited State  78:      Singlet-A1G   17.4282 eV   71.14 nm  f=0.0000  <S**2>=0.000
       4 -> 11        -0.31176
       5 -> 23         0.26645
       6 -> 22         0.26644
       7 -> 25         0.44400
       8 -> 27         0.15314
       9 -> 28         0.15314

 Excited State  79:      Singlet-EU    17.4353 eV   71.11 nm  f=0.0000  <S**2>=0.000
       5 -> 22        -0.49919
       6 -> 23         0.49920

 Excited State  80:      Singlet-EU    17.6321 eV   70.32 nm  f=0.0000  <S**2>=0.000
       5 -> 23         0.40936
       6 -> 22         0.40935
       7 -> 25        -0.35447

 Excited State  81:      Singlet-A1U   17.7718 eV   69.76 nm  f=0.0000  <S**2>=0.000
       7 -> 26         0.70622

 Excited State  82:      Singlet-EU    17.9415 eV   69.10 nm  f=0.0000  <S**2>=0.000
       8 -> 28        -0.49737
       9 -> 27         0.49737

 Excited State  83:      Singlet-EG    18.1030 eV   68.49 nm  f=0.0000  <S**2>=0.000
       8 -> 29        -0.49876
       9 -> 30         0.49876

 Excited State  84:      Singlet-EU    18.1234 eV   68.41 nm  f=0.0317  <S**2>=0.000
       8 -> 29        -0.21753
       9 -> 30        -0.21752
       9 -> 31         0.62698

 Excited State  85:      Singlet-EU    18.1234 eV   68.41 nm  f=0.0317  <S**2>=0.000
       8 -> 30         0.21753
       8 -> 31         0.62698
       9 -> 29        -0.21753

 Excited State  86:      Singlet-EG    18.2272 eV   68.02 nm  f=0.0000  <S**2>=0.000
       4 -> 13         0.46499
       8 -> 28         0.33074
       9 -> 27         0.33074
       9 -> 32         0.23363

 Excited State  87:      Singlet-EG    18.2272 eV   68.02 nm  f=0.0000  <S**2>=0.000
       4 -> 12         0.46498
       8 -> 27        -0.33075
       8 -> 32         0.23363
       9 -> 28         0.33075

 Excited State  88:      Singlet-EG    18.2682 eV   67.87 nm  f=0.0000  <S**2>=0.000
       4 -> 13         0.50281
       5 -> 24        -0.14709
       7 -> 28        -0.11560
       8 -> 28        -0.26835
       9 -> 27        -0.26835
       9 -> 32        -0.23546

 Excited State  89:      Singlet-EG    18.2682 eV   67.87 nm  f=0.0000  <S**2>=0.000
       4 -> 12         0.50282
       6 -> 24        -0.14709
       7 -> 27        -0.11560
       8 -> 27         0.26834
       8 -> 32        -0.23545
       9 -> 28        -0.26834

 Excited State  90:      Singlet-EG    18.3205 eV   67.68 nm  f=0.1213  <S**2>=0.000
       7 -> 30         0.17891
       8 -> 30        -0.41982
       8 -> 31         0.30718
       9 -> 29         0.41982

 Excited State  91:      Singlet-EG    18.3205 eV   67.68 nm  f=0.1213  <S**2>=0.000
       7 -> 29         0.17891
       8 -> 29         0.41982
       9 -> 30         0.41982
       9 -> 31         0.30718

 Excited State  92:      Singlet-EU    18.3246 eV   67.66 nm  f=0.0000  <S**2>=0.000
       4 -> 11         0.15066
       7 -> 25        -0.14137
       8 -> 27         0.44319
       9 -> 28         0.44318

 Excited State  93:      Singlet-EG    18.4836 eV   67.08 nm  f=0.0000  <S**2>=0.000
       5 -> 24        -0.15608
       7 -> 28        -0.41915
       8 -> 28        -0.13981
       9 -> 27        -0.13981
       9 -> 32         0.50091

 Excited State  94:      Singlet-EG    18.4836 eV   67.08 nm  f=0.0000  <S**2>=0.000
       6 -> 24        -0.15607
       7 -> 27        -0.41915
       8 -> 27         0.13981
       8 -> 32         0.50091
       9 -> 28        -0.13981

 Excited State  95:      Singlet-EG    18.5973 eV   66.67 nm  f=0.2742  <S**2>=0.000
       8 -> 30         0.48283
       9 -> 29         0.48283

 Excited State  96:      Singlet-EG    18.6510 eV   66.48 nm  f=0.0000  <S**2>=0.000
       5 -> 24        -0.37155
       7 -> 28         0.51432
       8 -> 28        -0.11101
       9 -> 27        -0.11101
       9 -> 32         0.23896

 Excited State  97:      Singlet-EG    18.6510 eV   66.48 nm  f=0.0000  <S**2>=0.000
       6 -> 24        -0.37154
       7 -> 27         0.51432
       8 -> 27         0.11101
       8 -> 32         0.23896
       9 -> 28        -0.11101

 Excited State  98:      Singlet-EG    18.7165 eV   66.24 nm  f=0.0000  <S**2>=0.000
       4 -> 13         0.15574
       5 -> 24         0.54955
       7 -> 28         0.20018
       8 -> 28        -0.15313
       9 -> 27        -0.15313
       9 -> 32         0.26704

 Excited State  99:      Singlet-EG    18.7165 eV   66.24 nm  f=0.0000  <S**2>=0.000
       4 -> 12         0.15574
       6 -> 24         0.54956
       7 -> 27         0.20017
       8 -> 27         0.15312
       8 -> 32         0.26703
       9 -> 28        -0.15313

 Excited State 100:      Singlet-EU    18.7427 eV   66.15 nm  f=0.0174  <S**2>=0.000
       4 -> 15        -0.33089
       5 -> 25         0.16288
       7 -> 29         0.51568
       9 -> 33        -0.28759

 Excited State 101:      Singlet-EU    18.7427 eV   66.15 nm  f=0.0174  <S**2>=0.000
       4 -> 14        -0.33089
       6 -> 25         0.16288
       7 -> 30         0.51568
       8 -> 33        -0.28759

 Excited State 102:      Singlet-A2U   18.8574 eV   65.75 nm  f=0.0423  <S**2>=0.000
       7 -> 31         0.69180

 Excited State 103:      Singlet-EU    18.8673 eV   65.71 nm  f=0.0012  <S**2>=0.000
       4 -> 15         0.60381
       7 -> 29         0.20259
       9 -> 33        -0.27921

 Excited State 104:      Singlet-EU    18.8673 eV   65.71 nm  f=0.0012  <S**2>=0.000
       4 -> 14         0.60381
       7 -> 30         0.20260
       8 -> 33        -0.27921

 Excited State 105:      Singlet-A1G   19.1058 eV   64.89 nm  f=0.0000  <S**2>=0.000
       7 -> 32         0.59801
       8 -> 34         0.25494
       9 -> 35         0.25494

 Excited State 106:      Singlet-EU    19.1760 eV   64.66 nm  f=0.0000  <S**2>=0.000
       8 -> 35         0.49225
       9 -> 34         0.49225

 Excited State 107:      Singlet-EU    19.1760 eV   64.66 nm  f=0.0000  <S**2>=0.000
       8 -> 34        -0.49225
       9 -> 35         0.49225

 Excited State 108:      Singlet-EU    19.1975 eV   64.58 nm  f=0.0000  <S**2>=0.000
       8 -> 35        -0.49638
       9 -> 34         0.49639

 Excited State 109:      Singlet-EU    19.2022 eV   64.57 nm  f=0.0334  <S**2>=0.000
       4 -> 15         0.11182
       7 -> 29         0.33220
       9 -> 33         0.57149

 Excited State 110:      Singlet-EU    19.2022 eV   64.57 nm  f=0.0334  <S**2>=0.000
       4 -> 14         0.11182
       7 -> 30         0.33220
       8 -> 33         0.57149

 Excited State 111:      Singlet-EU    19.2440 eV   64.43 nm  f=0.1683  <S**2>=0.000
       5 -> 25         0.67450
       7 -> 29        -0.14398

 Excited State 112:      Singlet-EU    19.2440 eV   64.43 nm  f=0.1683  <S**2>=0.000
       6 -> 25         0.67450
       7 -> 30        -0.14398

 Excited State 113:      Singlet-EU    19.3161 eV   64.19 nm  f=0.0000  <S**2>=0.000
       3 -> 10         0.13351
       7 -> 32        -0.37198
       8 -> 34         0.40215
       9 -> 35         0.40215

 Excited State 114:      Singlet-EG    19.5063 eV   63.56 nm  f=0.0000  <S**2>=0.000
       6 -> 26         0.58612
       8 -> 36         0.37540

 Excited State 115:      Singlet-EG    19.5063 eV   63.56 nm  f=0.0000  <S**2>=0.000
       5 -> 26         0.58612
       9 -> 36         0.37540

 Excited State 116:      Singlet-A2U   19.7157 eV   62.89 nm  f=0.0805  <S**2>=0.000
       4 -> 16         0.69352

 The electronic state is 1-A1G.
 Alpha  occ. eigenvalues --  -10.11515 -10.11504  -0.72724  -0.59182  -0.41840
 Alpha  occ. eigenvalues --   -0.41840  -0.35174  -0.32793  -0.32793
 Alpha virt. eigenvalues --    0.02585   0.05597   0.09876   0.09876   0.11945
 Alpha virt. eigenvalues --    0.11945   0.15494   0.16456   0.16456   0.18906
 Alpha virt. eigenvalues --    0.18906   0.19143   0.24398   0.24398   0.28846

 Mulliken charges:
               1
     1  C    0.005986
     2  C    0.005986
     3  H   -0.001995
     4  H   -0.001995
     5  H   -0.001995
     6  H   -0.001995
     7  H   -0.001995
     8  H   -0.001995
 Sum of Mulliken charges =  -0.00000

 Dipole moment (field-independent basis, Debye):
    X=              0.0000    Y=             -0.0000    Z=              0.0000  Tot=              0.0000
 Quadrupole moment (field-independent basis, Debye-Ang):
   XX=            -14.8967   YY=            -14.8967   ZZ=            -15.6196
   XY=             -0.0000   XZ=              0.0000   YZ=              0.0000

 Normal termination of Gaussian 16 at Mon Mar 21 20:00:44 2022.
