 Gaussian 16, Revision C.01,
 Gaussian 16:  EM64L-G16RevC.01  3-Jul-2019

 ---------------------------------------------------------------------
 #P TD(Nstates=10000) tpssh/Gen SCF(maxcycles=100) Int(Grid=ultrafine)
 ---------------------------------------------------------------------

 ---------------------
 xGDB7_00001_tier4.com
 ---------------------
 Symbolic Z-matrix:
 Charge =  0 Multiplicity = 1

                         Standard orientation:
 ---------------------------------------------------------------------
 Center     Atomic      Atomic             Coordinates (Angstroms)
 Number     Number       Type             X           Y           Z
 ---------------------------------------------------------------------
      1          7           0        1.078471   -0.156900   -0.000001
      2          6           0       -0.161963    0.384944   -0.000002
      3          8           0       -1.189170   -0.245458    0.000001
      4          1           0        1.898427    0.419427    0.000004
      5          1           0        1.178124   -1.157073    0.000005
      6          1           0       -0.140706    1.489948    0.000007
 ---------------------------------------------------------------------

 SCF Done:  E(RTPSSh) =  -169.786868735     A.U. after   13 cycles

 Excitation energies and oscillator strengths:

 Excited State   1:      Singlet-A      5.7542 eV  215.47 nm  f=0.0006  <S**2>=0.000
      12 -> 13         0.70663
 This state for optimization and/or second-order correction.
 Total Energy, E(TD-HF/TD-DFT) =  -169.575406510
 Copying the excited state density for this state as the 1-particle RhoCI density.

 Excited State   2:      Singlet-A      6.7139 eV  184.67 nm  f=0.0094  <S**2>=0.000
      11 -> 13         0.22179
      12 -> 14         0.67007

 Excited State   3:      Singlet-A      7.1954 eV  172.31 nm  f=0.0112  <S**2>=0.000
      11 -> 14         0.70651

 Excited State   4:      Singlet-A      7.4526 eV  166.36 nm  f=0.0780  <S**2>=0.000
      11 -> 13         0.11655
      12 -> 15         0.69407

 Excited State   5:      Singlet-A      7.9505 eV  155.94 nm  f=0.3267  <S**2>=0.000
      11 -> 13         0.63304
      12 -> 14        -0.21162
      12 -> 15        -0.12754

 Excited State   6:      Singlet-A      8.0144 eV  154.70 nm  f=0.0035  <S**2>=0.000
      11 -> 15         0.70483

 Excited State   7:      Singlet-A      8.4558 eV  146.63 nm  f=0.0491  <S**2>=0.000
      12 -> 16         0.70233

 Excited State   8:      Singlet-A      8.9879 eV  137.95 nm  f=0.0056  <S**2>=0.000
      11 -> 16         0.70305

 Excited State   9:      Singlet-A      9.2268 eV  134.37 nm  f=0.0085  <S**2>=0.000
      12 -> 18         0.70521

 Excited State  10:      Singlet-A      9.2641 eV  133.83 nm  f=0.0257  <S**2>=0.000
      12 -> 17         0.69392

 Excited State  11:      Singlet-A      9.6940 eV  127.90 nm  f=0.0038  <S**2>=0.000
      11 -> 18        -0.17221
      12 -> 19         0.67622

 Excited State  12:      Singlet-A      9.7396 eV  127.30 nm  f=0.0025  <S**2>=0.000
       9 -> 13         0.10360
      11 -> 17         0.69498

 Excited State  13:      Singlet-A      9.9927 eV  124.07 nm  f=0.0061  <S**2>=0.000
      11 -> 18         0.65452
      12 -> 19         0.15114
      12 -> 20         0.17367

 Excited State  14:      Singlet-A     10.0832 eV  122.96 nm  f=0.0026  <S**2>=0.000
       9 -> 13         0.68194
      11 -> 19        -0.13391

 Excited State  15:      Singlet-A     10.1440 eV  122.22 nm  f=0.0190  <S**2>=0.000
      11 -> 18        -0.16659
      12 -> 20         0.68485

 Excited State  16:      Singlet-A     10.2464 eV  121.00 nm  f=0.0014  <S**2>=0.000
       9 -> 13         0.12568
      11 -> 19         0.69095

 Excited State  17:      Singlet-A     10.7181 eV  115.68 nm  f=0.0406  <S**2>=0.000
      10 -> 14         0.70549

 Excited State  18:      Singlet-A     10.7619 eV  115.21 nm  f=0.0199  <S**2>=0.000
      11 -> 20         0.68317
      12 -> 21        -0.15187

 Excited State  19:      Singlet-A     10.8247 eV  114.54 nm  f=0.0139  <S**2>=0.000
       9 -> 14         0.68770
      10 -> 13        -0.14116

 Excited State  20:      Singlet-A     10.9032 eV  113.71 nm  f=0.0062  <S**2>=0.000
      11 -> 20         0.14552
      12 -> 21         0.68648

 Excited State  21:      Singlet-A     11.0873 eV  111.83 nm  f=0.0006  <S**2>=0.000
      10 -> 13        -0.22755
      12 -> 22         0.65606

 Excited State  22:      Singlet-A     11.1620 eV  111.08 nm  f=0.0756  <S**2>=0.000
       9 -> 14         0.14882
      10 -> 13         0.51298
      11 -> 21         0.16416
      12 -> 22         0.20470
      12 -> 23        -0.34501

 Excited State  23:      Singlet-A     11.3498 eV  109.24 nm  f=0.0538  <S**2>=0.000
      10 -> 13         0.16052
      11 -> 21         0.40722
      12 -> 22         0.13860
      12 -> 23         0.53274

 Excited State  24:      Singlet-A     11.5003 eV  107.81 nm  f=0.0007  <S**2>=0.000
      10 -> 15         0.69646

 Excited State  25:      Singlet-A     11.6386 eV  106.53 nm  f=0.0407  <S**2>=0.000
       9 -> 15         0.69843

 Excited State  26:      Singlet-A     11.7449 eV  105.56 nm  f=0.0146  <S**2>=0.000
      11 -> 22         0.55156
      11 -> 23        -0.15801
      12 -> 24        -0.40174

 Excited State  27:      Singlet-A     11.7510 eV  105.51 nm  f=0.0000  <S**2>=0.000
      11 -> 22         0.40235
      12 -> 24         0.57437

 Excited State  28:      Singlet-A     11.7536 eV  105.49 nm  f=0.0957  <S**2>=0.000
       9 -> 16        -0.12111
      10 -> 13        -0.27667
      11 -> 21         0.52728
      12 -> 23        -0.28230

 Excited State  29:      Singlet-A     11.9074 eV  104.12 nm  f=0.0024  <S**2>=0.000
      11 -> 22         0.16736
      11 -> 23         0.67813

 Excited State  30:      Singlet-A     11.9963 eV  103.35 nm  f=0.0040  <S**2>=0.000
       8 -> 13         0.68490

 Excited State  31:      Singlet-A     12.5028 eV   99.17 nm  f=0.0110  <S**2>=0.000
       8 -> 14         0.11129
       9 -> 16        -0.20681
      11 -> 24         0.64598

 Excited State  32:      Singlet-A     12.5320 eV   98.93 nm  f=0.0465  <S**2>=0.000
      10 -> 16         0.70327

 Excited State  33:      Singlet-A     12.6856 eV   97.74 nm  f=0.0047  <S**2>=0.000
       8 -> 14         0.39977
       9 -> 16         0.53287
      11 -> 24         0.10418

 Excited State  34:      Singlet-A     12.7953 eV   96.90 nm  f=0.0337  <S**2>=0.000
       8 -> 14         0.54427
       9 -> 16        -0.36954
      10 -> 18        -0.12100
      11 -> 24        -0.19041

 Excited State  35:      Singlet-A     13.2427 eV   93.62 nm  f=0.0014  <S**2>=0.000
      12 -> 25         0.69902

 Excited State  36:      Singlet-A     13.3026 eV   93.20 nm  f=0.0023  <S**2>=0.000
       9 -> 18         0.29611
      10 -> 17         0.57917
      12 -> 26         0.26408

 Excited State  37:      Singlet-A     13.3302 eV   93.01 nm  f=0.1334  <S**2>=0.000
       8 -> 15        -0.11945
       9 -> 17         0.68184

 Excited State  38:      Singlet-A     13.4081 eV   92.47 nm  f=0.0395  <S**2>=0.000
       9 -> 18         0.32070
      10 -> 17        -0.37801
      12 -> 26         0.49221

 Excited State  39:      Singlet-A     13.4103 eV   92.45 nm  f=0.0070  <S**2>=0.000
       9 -> 18         0.55335
      12 -> 26        -0.42966

 Excited State  40:      Singlet-A     13.5144 eV   91.74 nm  f=0.0583  <S**2>=0.000
       8 -> 15         0.38871
       9 -> 17         0.11582
      10 -> 18         0.53939

 Excited State  41:      Singlet-A     13.5449 eV   91.54 nm  f=0.1395  <S**2>=0.000
       8 -> 15         0.55920
      10 -> 18        -0.39103

 Excited State  42:      Singlet-A     13.7631 eV   90.08 nm  f=0.0008  <S**2>=0.000
      10 -> 19         0.70142

 Excited State  43:      Singlet-A     13.8109 eV   89.77 nm  f=0.0478  <S**2>=0.000
       9 -> 19         0.69304

 Excited State  44:      Singlet-A     13.8325 eV   89.63 nm  f=0.0990  <S**2>=0.000
       7 -> 13        -0.14469
      11 -> 25         0.67733

 Excited State  45:      Singlet-A     13.9861 eV   88.65 nm  f=0.1732  <S**2>=0.000
       9 -> 20        -0.13887
      11 -> 26         0.40108
      12 -> 27         0.52918

 Excited State  46:      Singlet-A     14.0290 eV   88.38 nm  f=0.0004  <S**2>=0.000
       7 -> 13         0.68416
      11 -> 25         0.13884

 Excited State  47:      Singlet-A     14.1320 eV   87.73 nm  f=0.0651  <S**2>=0.000
       8 -> 16        -0.15438
       9 -> 20         0.25808
      11 -> 26         0.54183
      12 -> 27        -0.29029

 Excited State  48:      Singlet-A     14.2604 eV   86.94 nm  f=0.0489  <S**2>=0.000
      10 -> 20         0.58956
      11 -> 27         0.37571

 Excited State  49:      Singlet-A     14.3623 eV   86.33 nm  f=0.0616  <S**2>=0.000
      10 -> 20        -0.35970
      11 -> 27         0.59049

 Excited State  50:      Singlet-A     14.3995 eV   86.10 nm  f=0.0146  <S**2>=0.000
       8 -> 16         0.17101
       9 -> 20         0.61821
      11 -> 26        -0.11887
      12 -> 27         0.17182
      12 -> 28        -0.11497

 Excited State  51:      Singlet-A     14.5405 eV   85.27 nm  f=0.0185  <S**2>=0.000
       8 -> 16         0.64059
      12 -> 27        -0.14267
      12 -> 28         0.15082

 Excited State  52:      Singlet-A     14.8260 eV   83.63 nm  f=0.0766  <S**2>=0.000
       7 -> 14         0.63210
      10 -> 21        -0.24249

 Excited State  53:      Singlet-A     14.9865 eV   82.73 nm  f=0.0865  <S**2>=0.000
       7 -> 14         0.17756
       9 -> 22        -0.11768
      10 -> 21         0.51522
      12 -> 28         0.40977

 Excited State  54:      Singlet-A     15.0403 eV   82.43 nm  f=0.0067  <S**2>=0.000
       8 -> 18        -0.13950
       9 -> 21         0.68967

 Excited State  55:      Singlet-A     15.1725 eV   81.72 nm  f=0.0074  <S**2>=0.000
       7 -> 14        -0.10236
       8 -> 17        -0.10037
       9 -> 22        -0.18001
       9 -> 23         0.11756
      10 -> 21        -0.35822
      12 -> 28         0.46629
      12 -> 29        -0.20191

 Excited State  56:      Singlet-A     15.2340 eV   81.39 nm  f=0.0045  <S**2>=0.000
      10 -> 22         0.67540
      10 -> 23        -0.19224

 Excited State  57:      Singlet-A     15.2980 eV   81.05 nm  f=0.0073  <S**2>=0.000
       7 -> 15        -0.11451
       8 -> 17         0.46937
       8 -> 19         0.16464
       9 -> 22        -0.36857
       9 -> 23         0.18495
      12 -> 29         0.21744

 Excited State  58:      Singlet-A     15.3171 eV   80.94 nm  f=0.0098  <S**2>=0.000
       8 -> 18         0.68792
       9 -> 21         0.14209

 Excited State  59:      Singlet-A     15.3669 eV   80.68 nm  f=0.0091  <S**2>=0.000
       8 -> 17        -0.37604
       9 -> 23         0.19613
      12 -> 29         0.53131
      12 -> 30        -0.10410

 Excited State  60:      Singlet-A     15.3993 eV   80.51 nm  f=0.0015  <S**2>=0.000
      10 -> 22         0.19386
      10 -> 23         0.67222

 Excited State  61:      Singlet-A     15.4028 eV   80.49 nm  f=0.0230  <S**2>=0.000
       8 -> 17         0.18678
       9 -> 22         0.50029
       9 -> 23         0.40810
      12 -> 28         0.12286

 Excited State  62:      Singlet-A     15.5230 eV   79.87 nm  f=0.0198  <S**2>=0.000
       7 -> 15         0.31507
       8 -> 17        -0.16725
       8 -> 19         0.16181
       9 -> 22        -0.19048
       9 -> 23         0.42500
      12 -> 28        -0.13918
      12 -> 29        -0.27358

 Excited State  63:      Singlet-A     15.6211 eV   79.37 nm  f=0.0156  <S**2>=0.000
       7 -> 15         0.48750
       8 -> 19         0.12567
       9 -> 23        -0.17181
      10 -> 21        -0.11022
      12 -> 28         0.12440
      12 -> 29         0.18140
      12 -> 30         0.35367

 Excited State  64:      Singlet-A     15.6218 eV   79.37 nm  f=0.0365  <S**2>=0.000
      11 -> 28         0.69243
      12 -> 31        -0.10569

 Excited State  65:      Singlet-A     15.6973 eV   78.98 nm  f=0.0149  <S**2>=0.000
       7 -> 15        -0.24736
       8 -> 19        -0.22424
       9 -> 23         0.15102
      10 -> 24        -0.18863
      12 -> 30         0.55301

 Excited State  66:      Singlet-A     15.7793 eV   78.57 nm  f=0.0211  <S**2>=0.000
       6 -> 13        -0.14149
      11 -> 28         0.10871
      12 -> 31         0.68045

 Excited State  67:      Singlet-A     15.8597 eV   78.18 nm  f=0.0040  <S**2>=0.000
       7 -> 15        -0.23821
       7 -> 16         0.12708
       8 -> 17        -0.15067
       8 -> 19         0.55846
      12 -> 32        -0.19088

 Excited State  68:      Singlet-A     15.8990 eV   77.98 nm  f=0.0004  <S**2>=0.000
       6 -> 13        -0.12581
       9 -> 24         0.69151

 Excited State  69:      Singlet-A     15.9325 eV   77.82 nm  f=0.0258  <S**2>=0.000
      10 -> 24         0.64703
      12 -> 30         0.15248

 Excited State  70:      Singlet-A     15.9709 eV   77.63 nm  f=0.0005  <S**2>=0.000
      11 -> 29         0.69430

 Excited State  71:      Singlet-A     16.0441 eV   77.28 nm  f=0.0598  <S**2>=0.000
       8 -> 19         0.17903
      12 -> 32         0.65652

 Excited State  72:      Singlet-A     16.2200 eV   76.44 nm  f=0.0037  <S**2>=0.000
      11 -> 29        -0.10005
      11 -> 30         0.68554
      11 -> 32        -0.10246

 Excited State  73:      Singlet-A     16.2496 eV   76.30 nm  f=0.0088  <S**2>=0.000
       7 -> 16        -0.14014
       8 -> 20         0.67765

 Excited State  74:      Singlet-A     16.4079 eV   75.56 nm  f=0.0830  <S**2>=0.000
       6 -> 14         0.32132
      11 -> 31         0.60643
      12 -> 33         0.13095

 Excited State  75:      Singlet-A     16.4522 eV   75.36 nm  f=0.1841  <S**2>=0.000
       6 -> 13         0.62709
       9 -> 24         0.12311
      12 -> 31         0.13812

 Excited State  76:      Singlet-A     16.5506 eV   74.91 nm  f=0.0002  <S**2>=0.000
      11 -> 30         0.10191
      11 -> 32         0.69328

 Excited State  77:      Singlet-A     16.5534 eV   74.90 nm  f=0.0190  <S**2>=0.000
       6 -> 14         0.50999
       7 -> 16        -0.39355
      11 -> 31        -0.20082
      12 -> 33        -0.16569

 Excited State  78:      Singlet-A     16.6967 eV   74.26 nm  f=0.0385  <S**2>=0.000
       6 -> 14         0.15983
      11 -> 31        -0.21499
      12 -> 33         0.63748

 Excited State  79:      Singlet-A     16.8879 eV   73.42 nm  f=0.0009  <S**2>=0.000
       8 -> 21         0.70138

 Excited State  80:      Singlet-A     16.9071 eV   73.33 nm  f=0.0741  <S**2>=0.000
       6 -> 14         0.27127
       6 -> 15        -0.22332
       7 -> 16         0.48256
       8 -> 20         0.10720
      10 -> 24        -0.11144
      11 -> 31        -0.10610
      12 -> 33        -0.18710
      12 -> 34        -0.12125

 Excited State  81:      Singlet-A     17.1535 eV   72.28 nm  f=0.0049  <S**2>=0.000
      11 -> 33         0.69911

 Excited State  82:      Singlet-A     17.2463 eV   71.89 nm  f=0.0598  <S**2>=0.000
       6 -> 15         0.12884
       7 -> 17         0.26780
       8 -> 22         0.60348
      12 -> 34         0.12102

 Excited State  83:      Singlet-A     17.3126 eV   71.62 nm  f=0.0005  <S**2>=0.000
      10 -> 25         0.69163

 Excited State  84:      Singlet-A     17.3589 eV   71.42 nm  f=0.0024  <S**2>=0.000
       6 -> 15        -0.27176
       7 -> 17        -0.31730
       8 -> 22         0.22518
       9 -> 25         0.47280
      12 -> 34         0.19371

 Excited State  85:      Singlet-A     17.3891 eV   71.30 nm  f=0.0128  <S**2>=0.000
       6 -> 15         0.15645
       7 -> 17         0.40968
       8 -> 22        -0.15747
       8 -> 23        -0.29130
       9 -> 25         0.42895

 Excited State  86:      Singlet-A     17.4408 eV   71.09 nm  f=0.0090  <S**2>=0.000
       7 -> 18         0.67253
       8 -> 24        -0.18631

 Excited State  87:      Singlet-A     17.4786 eV   70.93 nm  f=0.0856  <S**2>=0.000
       7 -> 17         0.13455
       7 -> 19        -0.13480
       8 -> 23         0.54200
       9 -> 25         0.22904
       9 -> 27         0.10365
      10 -> 26         0.22289
      12 -> 34        -0.18897

 Excited State  88:      Singlet-A     17.5540 eV   70.63 nm  f=0.1518  <S**2>=0.000
       6 -> 15         0.28680
       7 -> 17        -0.26317
       8 -> 23        -0.23306
       9 -> 27        -0.11286
      10 -> 26         0.48701
      12 -> 34        -0.12762

 Excited State  89:      Singlet-A     17.5952 eV   70.46 nm  f=0.0069  <S**2>=0.000
       7 -> 18         0.10379
       8 -> 24         0.20507
       9 -> 26         0.65470

 Excited State  90:      Singlet-A     17.6224 eV   70.36 nm  f=0.1055  <S**2>=0.000
       6 -> 15        -0.25892
       7 -> 17         0.16918
       7 -> 19        -0.19562
       8 -> 22        -0.10938
       9 -> 25        -0.12374
      10 -> 26         0.38391
      12 -> 34         0.40976

 Excited State  91:      Singlet-A     17.7014 eV   70.04 nm  f=0.0131  <S**2>=0.000
       7 -> 18         0.15412
       8 -> 24         0.63251
       9 -> 26        -0.20222
      10 -> 27         0.15048

 Excited State  92:      Singlet-A     17.7852 eV   69.71 nm  f=0.0128  <S**2>=0.000
       6 -> 15         0.32607
       7 -> 16         0.10740
       7 -> 17        -0.14901
       7 -> 19        -0.17125
       9 -> 27         0.42448
      10 -> 26        -0.11879
      12 -> 34         0.31605

 Excited State  93:      Singlet-A     17.8587 eV   69.43 nm  f=0.0866  <S**2>=0.000
       9 -> 26         0.12884
      10 -> 27         0.67036

 Excited State  94:      Singlet-A     17.9301 eV   69.15 nm  f=0.0310  <S**2>=0.000
       7 -> 19         0.61629
       9 -> 27         0.22927
      10 -> 26         0.15920

 Excited State  95:      Singlet-A     18.1407 eV   68.35 nm  f=0.1247  <S**2>=0.000
       6 -> 15        -0.18741
       7 -> 16        -0.11642
       7 -> 20         0.23028
       8 -> 22         0.11926
       8 -> 23        -0.15890
       9 -> 27         0.45598
      12 -> 34        -0.25923

 Excited State  96:      Singlet-A     18.1643 eV   68.26 nm  f=0.0099  <S**2>=0.000
      11 -> 34         0.70017

 Excited State  97:      Singlet-A     18.3189 eV   67.68 nm  f=0.0098  <S**2>=0.000
      12 -> 35         0.69920

 Excited State  98:      Singlet-A     18.3282 eV   67.65 nm  f=0.0185  <S**2>=0.000
       6 -> 16         0.68487
      12 -> 36        -0.11629

 Excited State  99:      Singlet-A     18.4122 eV   67.34 nm  f=0.0272  <S**2>=0.000
       7 -> 20         0.60032
      11 -> 35         0.11743
      12 -> 36         0.25524

 Excited State 100:      Singlet-A     18.4493 eV   67.20 nm  f=0.0425  <S**2>=0.000
       6 -> 16         0.10026
       7 -> 20        -0.23428
      12 -> 36         0.62807

 Excited State 101:      Singlet-A     18.9666 eV   65.37 nm  f=0.0009  <S**2>=0.000
       6 -> 17         0.13272
      11 -> 35         0.64253
      12 -> 37         0.18450

 Excited State 102:      Singlet-A     18.9710 eV   65.35 nm  f=0.0817  <S**2>=0.000
       7 -> 21         0.63752
      11 -> 36        -0.25726

 Excited State 103:      Singlet-A     19.0077 eV   65.23 nm  f=0.0109  <S**2>=0.000
       7 -> 21         0.26539
      10 -> 28        -0.29289
      11 -> 36         0.56275

 Excited State 104:      Singlet-A     19.1237 eV   64.83 nm  f=0.0007  <S**2>=0.000
       6 -> 18        -0.14346
      10 -> 28         0.60911
      11 -> 36         0.31533

 Excited State 105:      Singlet-A     19.1275 eV   64.82 nm  f=0.0353  <S**2>=0.000
       6 -> 17         0.59262
       7 -> 22         0.17473
       8 -> 25        -0.21407
       8 -> 27        -0.11502
      12 -> 37        -0.18812

 Excited State 106:      Singlet-A     19.1844 eV   64.63 nm  f=0.0012  <S**2>=0.000
       6 -> 18         0.67560
      10 -> 28         0.17424

 Excited State 107:      Singlet-A     19.1866 eV   64.62 nm  f=0.0012  <S**2>=0.000
       6 -> 17        -0.11543
       8 -> 25        -0.11491
       9 -> 28         0.63146
      12 -> 37        -0.25261

 Excited State 108:      Singlet-A     19.3470 eV   64.08 nm  f=0.0970  <S**2>=0.000
       6 -> 17         0.19705
       6 -> 19         0.13826
       7 -> 22         0.12635
       7 -> 23        -0.16365
       8 -> 25         0.56133
       9 -> 28         0.17197
       9 -> 30         0.12271

 Excited State 109:      Singlet-A     19.4082 eV   63.88 nm  f=0.0613  <S**2>=0.000
       8 -> 26         0.66666
      10 -> 29         0.18895

 Excited State 110:      Singlet-A     19.4669 eV   63.69 nm  f=0.0220  <S**2>=0.000
       6 -> 17        -0.12749
       6 -> 19         0.33026
       7 -> 22         0.49422
       7 -> 23        -0.16702
       8 -> 25        -0.21664
      12 -> 37         0.19488

 Excited State 111:      Singlet-A     19.4788 eV   63.65 nm  f=0.0142  <S**2>=0.000
       8 -> 26        -0.17952
      10 -> 29         0.65667
      10 -> 30         0.13130

 Excited State 112:      Singlet-A     19.4890 eV   63.62 nm  f=0.0008  <S**2>=0.000
       6 -> 19        -0.14887
       7 -> 22         0.10240
       7 -> 23         0.44981
       9 -> 28         0.14947
       9 -> 30         0.25032
      10 -> 31         0.13811
      12 -> 37         0.35563

 Excited State 113:      Singlet-A     19.5838 eV   63.31 nm  f=0.0491  <S**2>=0.000
       6 -> 19         0.24220
       7 -> 22        -0.29072
       7 -> 23        -0.17055
       8 -> 25        -0.14215
       8 -> 27        -0.15149
       9 -> 29         0.46022
      10 -> 31         0.17134

 Excited State 114:      Singlet-A     19.6122 eV   63.22 nm  f=0.0436  <S**2>=0.000
       7 -> 22         0.18436
       7 -> 23         0.29827
       8 -> 25         0.13651
       9 -> 28        -0.11645
       9 -> 29         0.43306
       9 -> 30        -0.28833
      12 -> 37        -0.17655

 Excited State 115:      Singlet-A     19.6448 eV   63.11 nm  f=0.0858  <S**2>=0.000
       6 -> 19         0.52647
       7 -> 22        -0.17661
       7 -> 23         0.31399
       9 -> 29        -0.25079

 Excited State 116:      Singlet-A     19.7638 eV   62.73 nm  f=0.0052  <S**2>=0.000
       7 -> 24         0.66140
      11 -> 37         0.18876

 Excited State 117:      Singlet-A     19.8483 eV   62.47 nm  f=0.0664  <S**2>=0.000
       7 -> 22         0.14221
       8 -> 27        -0.29968
       9 -> 30        -0.18621
      10 -> 31         0.54510

 Excited State 118:      Singlet-A     19.8917 eV   62.33 nm  f=0.0017  <S**2>=0.000
      10 -> 29        -0.13022
      10 -> 30         0.53722
      10 -> 32        -0.13467
      11 -> 37        -0.40387

 The electronic state is 1-A.
 Alpha  occ. eigenvalues --  -19.04263 -14.29975 -10.23089  -1.01232  -0.89019
 Alpha  occ. eigenvalues --   -0.61254  -0.54902  -0.47102  -0.40123  -0.39989
 Alpha  occ. eigenvalues --   -0.27185  -0.24911
 Alpha virt. eigenvalues --   -0.00386   0.01346   0.04300   0.08019   0.10913
 Alpha virt. eigenvalues --    0.11227   0.12561   0.14485   0.17105   0.18249
 Alpha virt. eigenvalues --    0.18649   0.20301   0.25681   0.26519   0.27822

 Mulliken charges:
               1
     1  N    0.141948
     2  C    0.623471
     3  O   -0.461962
     4  H   -0.093776
     5  H   -0.055906
     6  H   -0.153775
 Sum of Mulliken charges =  -0.00000

 Dipole moment (field-independent basis, Debye):
    X=              3.8746    Y=              0.8299    Z=              0.0000  Tot=              3.9625
 Quadrupole moment (field-independent basis, Debye-Ang):
   XX=            -18.1146   YY=            -15.6292   ZZ=            -18.8213
   XY=             -1.3119   XZ=              0.0000   YZ=             -0.0000

 1\1\GINC-HEL10\SP\RTPSSh TD-FC\Gen\C1H3N1O1\SABYASACHI\21-Mar-2022\0\\
 #P TD(Nstates=10000) tpssh/Gen SCF(maxcycles=100) Int(Grid=ultrafine)\
 \xGDB7_00001_tier4.com\\0,1\N,0,-1.078471,-0.1569,0.000001\C,0,0.16196
 3,0.384944,0.000002\O,0,1.18917,-0.245458,-0.000001\H,0,-1.898427,0.41
 9427,-0.000004\H,0,-1.178124,-1.157073,-0.000005\H,0,0.140706,1.489948
 ,-0.000007\\Version=EM64L-G16RevC.01\State=1-A\HF=-169.7868687\RMSD=5.
 716e-09\PG=C01 [X(C1H3N1O1)]\\@
 The archive entry for this job was punched.

 Normal termination of Gaussian 16 at Mon Mar 21 20:14:25 2022.
