 Gaussian 16, Revision C.01,
 Gaussian 16:  EM64L-G16RevC.01  3-Jul-2019

 ---------------------------------------------------------------------
 #P TD(Nstates=10000) tpssh/Gen SCF(maxcycles=100) Int(Grid=ultrafine)
 ---------------------------------------------------------------------

 ---------------------
 xGDB7_00001_tier4.com
 ---------------------
 Symbolic Z-matrix:
 Charge =  0 Multiplicity = 1

                         Standard orientation:
 ---------------------------------------------------------------------
 Center     Atomic      Atomic             Coordinates (Angstroms)
 Number     Number       Type             X           Y           Z
 ---------------------------------------------------------------------
      1          6           0        0.000000    0.865978    0.000000
      2          6           0        0.749967   -0.432983    0.000000
      3          6           0       -0.749954   -0.432999    0.000000
      4          1           0       -0.000033    1.451806   -0.909176
      5          1           0       -0.000033    1.451806    0.909176
      6          1           0        1.257295   -0.725894    0.909177
      7          1           0        1.257295   -0.725894   -0.909177
      8          1           0       -1.257302   -0.725899    0.909179
      9          1           0       -1.257302   -0.725899   -0.909179
 ---------------------------------------------------------------------

 SCF Done:  E(RTPSSh) =  -117.832984394     A.U. after   10 cycles

 Excitation energies and oscillator strengths:

 Excited State   1:      Singlet-A'     8.0030 eV  154.92 nm  f=0.0018  <S**2>=0.000
      12 -> 13         0.70637
 This state for optimization and/or second-order correction.
 Total Energy, E(TD-HF/TD-DFT) =  -117.538877742
 Copying the excited state density for this state as the 1-particle RhoCI density.

 Excited State   2:      Singlet-A'     8.0032 eV  154.92 nm  f=0.0018  <S**2>=0.000
      11 -> 13         0.70637

 Excited State   3:      Singlet-A'     8.5878 eV  144.37 nm  f=0.0000  <S**2>=0.000
      11 -> 14         0.46095
      11 -> 15        -0.19189
      12 -> 14         0.19241
      12 -> 15         0.46163

 Excited State   4:      Singlet-A'     8.6231 eV  143.78 nm  f=0.0000  <S**2>=0.000
      11 -> 14        -0.19197
      11 -> 15        -0.46022
      12 -> 14         0.46238
      12 -> 15        -0.19234

 Excited State   5:      Singlet-A'     8.6734 eV  142.95 nm  f=0.0893  <S**2>=0.000
      11 -> 14         0.32043
      11 -> 15         0.38326
      12 -> 14         0.38152
      12 -> 15        -0.31966

 Excited State   6:      Singlet-A'     8.6734 eV  142.95 nm  f=0.0893  <S**2>=0.000
      11 -> 14         0.38257
      11 -> 15        -0.32072
      12 -> 14        -0.31937
      12 -> 15        -0.38220

 Excited State   7:      Singlet-A"     8.8343 eV  140.34 nm  f=0.0000  <S**2>=0.000
      12 -> 16         0.70589

 Excited State   8:      Singlet-A"     8.8344 eV  140.34 nm  f=0.0000  <S**2>=0.000
      11 -> 16         0.70589

 Excited State   9:      Singlet-A"     9.8016 eV  126.49 nm  f=0.0000  <S**2>=0.000
      10 -> 13         0.70338

 Excited State  10:      Singlet-A"     9.8017 eV  126.49 nm  f=0.0000  <S**2>=0.000
       9 -> 13         0.70337

 Excited State  11:      Singlet-A'    10.1122 eV  122.61 nm  f=0.0023  <S**2>=0.000
      12 -> 17         0.70272

 Excited State  12:      Singlet-A'    10.1124 eV  122.61 nm  f=0.0023  <S**2>=0.000
      11 -> 17         0.70271

 Excited State  13:      Singlet-A"    10.4489 eV  118.66 nm  f=0.0000  <S**2>=0.000
       9 -> 14         0.47730
       9 -> 15        -0.13679
      10 -> 14         0.13787
      10 -> 15         0.47797

 Excited State  14:      Singlet-A"    10.4489 eV  118.66 nm  f=0.0000  <S**2>=0.000
       9 -> 14        -0.13699
       9 -> 15        -0.47548
      10 -> 14         0.47979
      10 -> 15        -0.13767

 Excited State  15:      Singlet-A"    10.4646 eV  118.48 nm  f=0.0000  <S**2>=0.000
       9 -> 14         0.13057
       9 -> 15         0.48347
      10 -> 14         0.47908
      10 -> 15        -0.13020

 Excited State  16:      Singlet-A"    10.4760 eV  118.35 nm  f=0.1761  <S**2>=0.000
       9 -> 14         0.48209
       9 -> 15        -0.13085
      10 -> 14        -0.13015
      10 -> 15        -0.48132

 Excited State  17:      Singlet-A'    10.8296 eV  114.49 nm  f=0.2209  <S**2>=0.000
      10 -> 16         0.67618
      12 -> 18         0.16097

 Excited State  18:      Singlet-A'    10.8297 eV  114.49 nm  f=0.2209  <S**2>=0.000
       9 -> 16         0.67620
      11 -> 18        -0.16089

 Excited State  19:      Singlet-A'    10.9918 eV  112.80 nm  f=0.1089  <S**2>=0.000
      10 -> 16        -0.17515
      12 -> 18         0.64959

 Excited State  20:      Singlet-A'    10.9920 eV  112.80 nm  f=0.1090  <S**2>=0.000
       9 -> 16         0.17508
      11 -> 18         0.64961

 Excited State  21:      Singlet-A"    11.0166 eV  112.54 nm  f=0.0000  <S**2>=0.000
      11 -> 19        -0.49816
      12 -> 20         0.49934

 Excited State  22:      Singlet-A"    11.0718 eV  111.98 nm  f=0.0000  <S**2>=0.000
      11 -> 19         0.40351
      11 -> 20        -0.29240
      12 -> 19         0.29679
      12 -> 20         0.40251

 Excited State  23:      Singlet-A"    11.0718 eV  111.98 nm  f=0.0000  <S**2>=0.000
      11 -> 19        -0.29492
      11 -> 20        -0.39991
      12 -> 19         0.40609
      12 -> 20        -0.29430

 Excited State  24:      Singlet-A"    11.0868 eV  111.83 nm  f=0.0172  <S**2>=0.000
      11 -> 20         0.50256
      12 -> 19         0.49497

 Excited State  25:      Singlet-A'    11.7014 eV  105.96 nm  f=0.0178  <S**2>=0.000
      11 -> 21        -0.49316
      12 -> 22         0.49353

 Excited State  26:      Singlet-A'    11.7014 eV  105.96 nm  f=0.0178  <S**2>=0.000
      11 -> 22         0.49076
      12 -> 21         0.49592

 Excited State  27:      Singlet-A'    11.7225 eV  105.77 nm  f=0.0000  <S**2>=0.000
      11 -> 21        -0.11509
      11 -> 22         0.48771
      12 -> 21        -0.48242
      12 -> 22        -0.11454

 Excited State  28:      Singlet-A"    11.9546 eV  103.71 nm  f=0.0000  <S**2>=0.000
      10 -> 17         0.68833
      11 -> 25         0.14852

 Excited State  29:      Singlet-A"    11.9547 eV  103.71 nm  f=0.0000  <S**2>=0.000
       9 -> 17         0.68832
      12 -> 25         0.14859

 Excited State  30:      Singlet-A'    12.0087 eV  103.24 nm  f=0.0000  <S**2>=0.000
       8 -> 13        -0.11582
       9 -> 19         0.15815
      10 -> 20         0.15816
      11 -> 21         0.44656
      11 -> 22         0.10573
      12 -> 21        -0.10563
      12 -> 22         0.44638

 Excited State  31:      Singlet-A"    12.1509 eV  102.04 nm  f=0.0000  <S**2>=0.000
      10 -> 18         0.69532

 Excited State  32:      Singlet-A"    12.1510 eV  102.04 nm  f=0.0000  <S**2>=0.000
       9 -> 18         0.69532

 Excited State  33:      Singlet-A'    12.3211 eV  100.63 nm  f=0.0000  <S**2>=0.000
      11 -> 23         0.46651
      11 -> 24        -0.17133
      12 -> 23         0.17162
      12 -> 24         0.46698

 Excited State  34:      Singlet-A'    12.3935 eV  100.04 nm  f=0.0000  <S**2>=0.000
      11 -> 23        -0.17132
      11 -> 24        -0.46597
      12 -> 23         0.46784
      12 -> 24        -0.17176

 Excited State  35:      Singlet-A'    12.4503 eV   99.58 nm  f=0.0249  <S**2>=0.000
      11 -> 23         0.43599
      11 -> 24         0.22639
      12 -> 23         0.22530
      12 -> 24        -0.43529

 Excited State  36:      Singlet-A'    12.4503 eV   99.58 nm  f=0.0249  <S**2>=0.000
      11 -> 23        -0.22582
      11 -> 24         0.43641
      12 -> 23         0.43487
      12 -> 24         0.22587

 Excited State  37:      Singlet-A"    12.4690 eV   99.43 nm  f=0.0000  <S**2>=0.000
       9 -> 17        -0.14479
      12 -> 25         0.68251

 Excited State  38:      Singlet-A"    12.4691 eV   99.43 nm  f=0.0000  <S**2>=0.000
      10 -> 17        -0.14472
      11 -> 25         0.68252

 Excited State  39:      Singlet-A'    12.6629 eV   97.91 nm  f=0.0000  <S**2>=0.000
       8 -> 13         0.65423
       9 -> 19         0.18120
      10 -> 20         0.18123

 Excited State  40:      Singlet-A"    12.7638 eV   97.14 nm  f=0.0000  <S**2>=0.000
      11 -> 26        -0.37592
      11 -> 27         0.31738
      12 -> 26         0.31823
      12 -> 27         0.37638

 Excited State  41:      Singlet-A"    12.7638 eV   97.14 nm  f=0.0000  <S**2>=0.000
      11 -> 26         0.31760
      11 -> 27         0.37564
      12 -> 26         0.37666
      12 -> 27        -0.31802

 Excited State  42:      Singlet-A"    12.8402 eV   96.56 nm  f=0.0000  <S**2>=0.000
      11 -> 27         0.49912
      12 -> 26        -0.49780

 Excited State  43:      Singlet-A"    12.8708 eV   96.33 nm  f=0.0358  <S**2>=0.000
       8 -> 16        -0.11467
      11 -> 26         0.47773
      12 -> 27         0.47708

 Excited State  44:      Singlet-A'    12.9843 eV   95.49 nm  f=0.0000  <S**2>=0.000
       9 -> 20        -0.48895
      10 -> 19         0.49941

 Excited State  45:      Singlet-A'    12.9907 eV   95.44 nm  f=0.0360  <S**2>=0.000
       9 -> 19        -0.43321
       9 -> 20         0.19049
      10 -> 19         0.18657
      10 -> 20         0.43378
      12 -> 28         0.18265

 Excited State  46:      Singlet-A'    12.9907 eV   95.44 nm  f=0.0360  <S**2>=0.000
       9 -> 19         0.18927
       9 -> 20         0.43859
      10 -> 19         0.42840
      10 -> 20        -0.18783
      11 -> 28         0.18252

 Excited State  47:      Singlet-A'    13.1804 eV   94.07 nm  f=0.0041  <S**2>=0.000
       8 -> 14         0.49651
       8 -> 15        -0.14205
       9 -> 19        -0.12623
      10 -> 20         0.12627
      12 -> 28        -0.42256

 Excited State  48:      Singlet-A'    13.1805 eV   94.07 nm  f=0.0041  <S**2>=0.000
       8 -> 14         0.14218
       8 -> 15         0.49665
       9 -> 20        -0.12621
      10 -> 19        -0.12612
      11 -> 28         0.42241

 Excited State  49:      Singlet-A'    13.3367 eV   92.96 nm  f=0.3412  <S**2>=0.000
       8 -> 14         0.44736
       8 -> 15        -0.13836
      12 -> 28         0.49264

 Excited State  50:      Singlet-A'    13.3368 eV   92.96 nm  f=0.3411  <S**2>=0.000
       8 -> 14        -0.13822
       8 -> 15        -0.44720
      11 -> 28         0.49280

 Excited State  51:      Singlet-A"    13.3922 eV   92.58 nm  f=0.0326  <S**2>=0.000
       7 -> 13         0.59749
       8 -> 16        -0.37346

 Excited State  52:      Singlet-A'    13.4445 eV   92.22 nm  f=0.0000  <S**2>=0.000
       7 -> 16         0.25898
       8 -> 13        -0.21328
       9 -> 19         0.40388
      10 -> 20         0.40384
      11 -> 21        -0.13089
      12 -> 22        -0.13088

 Excited State  53:      Singlet-A"    13.4483 eV   92.19 nm  f=0.0000  <S**2>=0.000
       9 -> 21        -0.46522
       9 -> 22        -0.17634
      10 -> 21        -0.17672
      10 -> 22         0.46554

 Excited State  54:      Singlet-A"    13.5038 eV   91.81 nm  f=0.1036  <S**2>=0.000
       7 -> 13         0.33052
       8 -> 16         0.49442
       9 -> 22        -0.20914
       9 -> 23         0.13356
      10 -> 21        -0.21180
      10 -> 24        -0.13356

 Excited State  55:      Singlet-A"    13.5160 eV   91.73 nm  f=0.0000  <S**2>=0.000
       9 -> 21         0.48560
      10 -> 22         0.48541

 Excited State  56:      Singlet-A"    13.5160 eV   91.73 nm  f=0.0000  <S**2>=0.000
       9 -> 22         0.48574
      10 -> 21        -0.48526

 Excited State  57:      Singlet-A"    13.5740 eV   91.34 nm  f=0.0891  <S**2>=0.000
       7 -> 13         0.11852
       8 -> 16         0.27028
       9 -> 21        -0.15748
       9 -> 22         0.41540
      10 -> 21         0.41441
      10 -> 22         0.15729

 Excited State  58:      Singlet-A"    14.0166 eV   88.46 nm  f=0.0000  <S**2>=0.000
       7 -> 14         0.69872

 Excited State  59:      Singlet-A"    14.0166 eV   88.46 nm  f=0.0000  <S**2>=0.000
       7 -> 15         0.69872

 Excited State  60:      Singlet-A"    14.2448 eV   87.04 nm  f=0.0000  <S**2>=0.000
       9 -> 23         0.12701
       9 -> 24        -0.47617
      10 -> 23         0.47771
      10 -> 24         0.12671

 Excited State  61:      Singlet-A"    14.2448 eV   87.04 nm  f=0.0000  <S**2>=0.000
       9 -> 23         0.47686
       9 -> 24         0.12659
      10 -> 23        -0.12713
      10 -> 24         0.47703

 Excited State  62:      Singlet-A"    14.2871 eV   86.78 nm  f=0.0000  <S**2>=0.000
       9 -> 23         0.11007
       9 -> 24         0.48824
      10 -> 23         0.48661
      10 -> 24        -0.10992

 Excited State  63:      Singlet-A'    14.4667 eV   85.70 nm  f=0.0347  <S**2>=0.000
       9 -> 26         0.16621
      10 -> 25         0.62749
      10 -> 27         0.16665
      11 -> 29         0.11858
      12 -> 30         0.11863

 Excited State  64:      Singlet-A'    14.4668 eV   85.70 nm  f=0.0347  <S**2>=0.000
       9 -> 25         0.62747
       9 -> 27        -0.16640
      10 -> 26         0.16652
      11 -> 30         0.11859
      12 -> 29        -0.11865

 Excited State  65:      Singlet-A'    14.5176 eV   85.40 nm  f=0.0000  <S**2>=0.000
       8 -> 18         0.13125
       9 -> 26         0.48667
      10 -> 27        -0.48657

 Excited State  66:      Singlet-A'    14.5372 eV   85.29 nm  f=0.0000  <S**2>=0.000
       7 -> 16         0.47984
       8 -> 17        -0.41573
       9 -> 27        -0.16984
      10 -> 26        -0.16984

 Excited State  67:      Singlet-A"    14.6056 eV   84.89 nm  f=0.7623  <S**2>=0.000
       7 -> 17        -0.18333
       8 -> 16        -0.14358
       9 -> 23         0.43657
      10 -> 24        -0.43651

 Excited State  68:      Singlet-A'    14.7227 eV   84.21 nm  f=0.0000  <S**2>=0.000
       8 -> 17        -0.33169
       9 -> 27         0.43564
      10 -> 26         0.43589

 Excited State  69:      Singlet-A'    14.7709 eV   83.94 nm  f=0.0000  <S**2>=0.000
       8 -> 18         0.48483
      11 -> 29        -0.21743
      11 -> 30        -0.28508
      12 -> 29        -0.28519
      12 -> 30         0.21751

 Excited State  70:      Singlet-A'    14.8290 eV   83.61 nm  f=0.3957  <S**2>=0.000
       9 -> 25         0.16716
       9 -> 27         0.44992
      10 -> 26        -0.44964
      12 -> 28         0.10052

 Excited State  71:      Singlet-A'    14.8290 eV   83.61 nm  f=0.3958  <S**2>=0.000
       9 -> 26         0.44980
      10 -> 25        -0.16711
      10 -> 27         0.44977
      11 -> 28        -0.10053

 Excited State  72:      Singlet-A"    14.9907 eV   82.71 nm  f=0.0000  <S**2>=0.000
      10 -> 28         0.69735

 Excited State  73:      Singlet-A"    14.9908 eV   82.71 nm  f=0.0000  <S**2>=0.000
       9 -> 28         0.69736

 Excited State  74:      Singlet-A'    14.9992 eV   82.66 nm  f=0.0000  <S**2>=0.000
       7 -> 16         0.37583
       8 -> 17         0.45544
       9 -> 27         0.15065
      10 -> 26         0.15060
      11 -> 29         0.12417
      12 -> 30        -0.12423

 Excited State  75:      Singlet-A'    15.1687 eV   81.74 nm  f=0.0000  <S**2>=0.000
       7 -> 16         0.16053
      11 -> 29        -0.36775
      11 -> 30         0.28045
      12 -> 29         0.28064
      12 -> 30         0.36791

 Excited State  76:      Singlet-A'    15.1843 eV   81.65 nm  f=0.0000  <S**2>=0.000
       8 -> 18         0.49507
      11 -> 29         0.20942
      11 -> 30         0.27455
      12 -> 29         0.27472
      12 -> 30        -0.20952

 Excited State  77:      Singlet-A'    15.3617 eV   80.71 nm  f=0.4044  <S**2>=0.000
      10 -> 25        -0.18135
      11 -> 29         0.24179
      11 -> 30         0.35271
      11 -> 31         0.12512
      12 -> 29        -0.35246
      12 -> 30         0.24172
      12 -> 32         0.15650

 Excited State  78:      Singlet-A'    15.3618 eV   80.71 nm  f=0.4044  <S**2>=0.000
       9 -> 25         0.18137
      11 -> 29         0.35270
      11 -> 30        -0.24185
      11 -> 32         0.15646
      12 -> 29         0.24166
      12 -> 30         0.35246
      12 -> 31        -0.12517

 Excited State  79:      Singlet-A"    15.6495 eV   79.23 nm  f=0.0000  <S**2>=0.000
       8 -> 19         0.70489

 Excited State  80:      Singlet-A"    15.6495 eV   79.23 nm  f=0.0000  <S**2>=0.000
       8 -> 20         0.70489

 Excited State  81:      Singlet-A"    15.6562 eV   79.19 nm  f=0.0000  <S**2>=0.000
       7 -> 18         0.70552

 Excited State  82:      Singlet-A"    15.7013 eV   78.96 nm  f=0.3787  <S**2>=0.000
       7 -> 17         0.66632
       8 -> 25         0.12385

 Excited State  83:      Singlet-A'    15.7330 eV   78.81 nm  f=0.0344  <S**2>=0.000
       5 -> 13         0.11390
      11 -> 32         0.10004
      12 -> 31         0.67817

 Excited State  84:      Singlet-A'    15.7332 eV   78.80 nm  f=0.0344  <S**2>=0.000
       6 -> 13         0.11395
      11 -> 31         0.67816
      12 -> 32        -0.10009

 Excited State  85:      Singlet-A'    15.9303 eV   77.83 nm  f=0.0064  <S**2>=0.000
       6 -> 13         0.49532
       8 -> 21         0.11943
      12 -> 32         0.47682

 Excited State  86:      Singlet-A'    15.9305 eV   77.83 nm  f=0.0064  <S**2>=0.000
       5 -> 13         0.49536
       8 -> 22         0.11941
      11 -> 32        -0.47679

 Excited State  87:      Singlet-A'    16.1534 eV   76.75 nm  f=0.0007  <S**2>=0.000
       6 -> 13         0.42329
       7 -> 20         0.16335
       8 -> 21        -0.39351
      11 -> 31        -0.10807
      12 -> 32        -0.29400

 Excited State  88:      Singlet-A'    16.1535 eV   76.75 nm  f=0.0007  <S**2>=0.000
       5 -> 13         0.42326
       7 -> 19         0.16339
       8 -> 22        -0.39351
      11 -> 32         0.29405
      12 -> 31        -0.10798

 Excited State  89:      Singlet-A"    16.1581 eV   76.73 nm  f=0.0000  <S**2>=0.000
      12 -> 33         0.70439

 Excited State  90:      Singlet-A"    16.1582 eV   76.73 nm  f=0.0000  <S**2>=0.000
      11 -> 33         0.70439

 Excited State  91:      Singlet-A"    16.2396 eV   76.35 nm  f=0.0000  <S**2>=0.000
      12 -> 34         0.70283

 Excited State  92:      Singlet-A"    16.2398 eV   76.35 nm  f=0.0000  <S**2>=0.000
      11 -> 34         0.70283

 Excited State  93:      Singlet-A'    16.4066 eV   75.57 nm  f=0.0918  <S**2>=0.000
       7 -> 19         0.53179
       8 -> 21        -0.15395
       8 -> 22         0.38527
      11 -> 32         0.11648

 Excited State  94:      Singlet-A'    16.4066 eV   75.57 nm  f=0.0918  <S**2>=0.000
       7 -> 20         0.53175
       8 -> 21         0.38530
       8 -> 22         0.15396
      12 -> 32        -0.11650

 Excited State  95:      Singlet-A'    16.5781 eV   74.79 nm  f=0.0122  <S**2>=0.000
       5 -> 14         0.29565
       5 -> 15        -0.33158
       6 -> 14         0.33230
       6 -> 15         0.29544
       7 -> 19         0.10147
       7 -> 20        -0.12891
       8 -> 21         0.22699
       8 -> 22        -0.10797

 Excited State  96:      Singlet-A'    16.5781 eV   74.79 nm  f=0.0122  <S**2>=0.000
       5 -> 14         0.33179
       5 -> 15         0.29517
       6 -> 14        -0.29592
       6 -> 15         0.33208
       7 -> 19         0.12885
       7 -> 20         0.10150
       8 -> 21        -0.10794
       8 -> 22        -0.22703

 Excited State  97:      Singlet-A'    16.6319 eV   74.55 nm  f=0.0000  <S**2>=0.000
       5 -> 14         0.17530
       5 -> 15         0.46766
       6 -> 14         0.46672
       6 -> 15        -0.17521

 Excited State  98:      Singlet-A"    16.8046 eV   73.78 nm  f=0.0000  <S**2>=0.000
       6 -> 16         0.56243
       9 -> 29        -0.16393
       9 -> 30         0.24754
      10 -> 29         0.24780
      10 -> 30         0.16406

 Excited State  99:      Singlet-A"    16.8047 eV   73.78 nm  f=0.0000  <S**2>=0.000
       5 -> 16         0.56232
       9 -> 29        -0.24768
       9 -> 30        -0.16400
      10 -> 29        -0.16411
      10 -> 30         0.24781

 Excited State 100:      Singlet-A'    16.8750 eV   73.47 nm  f=0.0000  <S**2>=0.000
       5 -> 14         0.14357
       6 -> 15         0.14354
       7 -> 19        -0.31745
       7 -> 20        -0.11910
       8 -> 22         0.20949
       8 -> 23         0.32505
       8 -> 24        -0.28518
      11 -> 32         0.20132

 Excited State 101:      Singlet-A'    16.8750 eV   73.47 nm  f=0.0000  <S**2>=0.000
       5 -> 15        -0.14356
       6 -> 14         0.14358
       7 -> 19        -0.11907
       7 -> 20         0.31750
       8 -> 21        -0.20948
       8 -> 23         0.28521
       8 -> 24         0.32499
      12 -> 32         0.20130

 Excited State 102:      Singlet-A"    16.9145 eV   73.30 nm  f=0.0000  <S**2>=0.000
       9 -> 29         0.35377
       9 -> 30        -0.35109
      10 -> 29         0.35136
      10 -> 30         0.35388

 Excited State 103:      Singlet-A'    16.9231 eV   73.26 nm  f=0.0000  <S**2>=0.000
       5 -> 14         0.43725
       5 -> 15        -0.16407
       6 -> 14        -0.16394
       6 -> 15        -0.43717
       8 -> 28        -0.11555

 Excited State 104:      Singlet-A"    16.9753 eV   73.04 nm  f=0.0834  <S**2>=0.000
       9 -> 29        -0.34669
       9 -> 30        -0.34730
      10 -> 29         0.35605
      10 -> 30        -0.35150

 Excited State 105:      Singlet-A"    16.9776 eV   73.03 nm  f=0.0000  <S**2>=0.000
       6 -> 16         0.38143
       7 -> 21         0.26914
       9 -> 29         0.19280
       9 -> 30        -0.31669
      10 -> 29        -0.31161
      10 -> 30        -0.19706

 Excited State 106:      Singlet-A"    16.9776 eV   73.03 nm  f=0.0000  <S**2>=0.000
       5 -> 16         0.38157
       7 -> 22         0.26905
       9 -> 29         0.31824
       9 -> 30         0.19903
      10 -> 29         0.19065
      10 -> 30        -0.30999

 Excited State 107:      Singlet-A"    17.0613 eV   72.67 nm  f=0.0000  <S**2>=0.000
       6 -> 16        -0.17236
       7 -> 21         0.63114
       8 -> 26         0.11934
       9 -> 30         0.13476
      10 -> 29         0.13461

 Excited State 108:      Singlet-A"    17.0614 eV   72.67 nm  f=0.0000  <S**2>=0.000
       5 -> 16        -0.17236
       7 -> 22         0.63117
       8 -> 27         0.11936
       9 -> 29        -0.13465
      10 -> 30         0.13455

 Excited State 109:      Singlet-A'    17.1693 eV   72.21 nm  f=0.0694  <S**2>=0.000
       8 -> 21         0.12225
       8 -> 23         0.47630

 The electronic state is 1-A'.
 Alpha  occ. eigenvalues --  -10.12389 -10.12363 -10.12363  -0.82397  -0.57355
 Alpha  occ. eigenvalues --   -0.57355  -0.47816  -0.44930  -0.34806  -0.34805
 Alpha  occ. eigenvalues --   -0.28113  -0.28112
 Alpha virt. eigenvalues --    0.03189   0.05369   0.05369   0.06580   0.11110
 Alpha virt. eigenvalues --    0.12465   0.14582   0.14582   0.17090   0.17090
 Alpha virt. eigenvalues --    0.19489   0.19489   0.19823   0.21088   0.21088

 Mulliken charges:
               1
     1  C    0.361160
     2  C    0.361260
     3  C    0.361161
     4  H   -0.180590
     5  H   -0.180590
     6  H   -0.180604
     7  H   -0.180604
     8  H   -0.180596
     9  H   -0.180596
 Sum of Mulliken charges =  -0.00000

 Dipole moment (field-independent basis, Debye):
    X=             -0.0000    Y=             -0.0000    Z=             -0.0000  Tot=              0.0000
 Quadrupole moment (field-independent basis, Debye-Ang):
   XX=            -20.6799   YY=            -20.6799   ZZ=            -18.5352
   XY=             -0.0001   XZ=              0.0000   YZ=             -0.0000

 Normal termination of Gaussian 16 at Mon Mar 21 20:08:46 2022.
