 Gaussian 16, Revision C.01,
 Gaussian 16:  EM64L-G16RevC.01  3-Jul-2019

 ---------------------------------------------------------------------
 #P TD(Nstates=10000) tpssh/Gen SCF(maxcycles=100) Int(Grid=ultrafine)
 ---------------------------------------------------------------------

 ---------------------
 xGDB7_00001_tier4.com
 ---------------------
 Symbolic Z-matrix:
 Charge =  0 Multiplicity = 1

                         Standard orientation:
 ---------------------------------------------------------------------
 Center     Atomic      Atomic             Coordinates (Angstroms)
 Number     Number       Type             X           Y           Z
 ---------------------------------------------------------------------
      1          6           0        0.000000    0.000000    0.660866
      2          6           0        0.000000    0.000000   -0.660866
      3          1           0        0.000000    0.922586    1.229258
      4          1           0       -0.000000   -0.922586    1.229258
      5          1           0        0.000000    0.922586   -1.229258
      6          1           0       -0.000000   -0.922586   -1.229258
 ---------------------------------------------------------------------

 SCF Done:  E(RTPSSh) =  -78.5412334123     A.U. after    9 cycles

 Excitation energies and oscillator strengths:

 Excited State   1:      Singlet-B3U    7.6554 eV  161.96 nm  f=0.0685  <S**2>=0.000
       8 -> 10         0.70686
 This state for optimization and/or second-order correction.
 Total Energy, E(TD-HF/TD-DFT) =  -78.2599027266
 Copying the excited state density for this state as the 1-particle RhoCI density.

 Excited State   2:      Singlet-B1U    8.0099 eV  154.79 nm  f=0.3619  <S**2>=0.000
       8 ->  9         0.69706

 Excited State   3:      Singlet-B1G    8.2548 eV  150.20 nm  f=0.0000  <S**2>=0.000
       7 ->  9         0.70148

 Excited State   4:      Singlet-B2G    8.2889 eV  149.58 nm  f=0.0000  <S**2>=0.000
       8 -> 11         0.70640

 Excited State   5:      Singlet-B1G    9.0728 eV  136.66 nm  f=0.0000  <S**2>=0.000
       8 -> 12         0.70149

 Excited State   6:      Singlet-B3G    9.7235 eV  127.51 nm  f=0.0000  <S**2>=0.000
       7 -> 10         0.70665

 Excited State   7:      Singlet-B2G    9.8207 eV  126.25 nm  f=0.0000  <S**2>=0.000
       6 ->  9         0.70439

 Excited State   8:      Singlet-B3U   10.1935 eV  121.63 nm  f=0.0590  <S**2>=0.000
       8 -> 13         0.70394

 Excited State   9:      Singlet-B2U   10.3645 eV  119.62 nm  f=0.1083  <S**2>=0.000
       7 -> 11         0.70659

 Excited State  10:      Singlet-AU    10.6786 eV  116.10 nm  f=0.0000  <S**2>=0.000
       8 -> 14         0.70534

 Excited State  11:      Singlet-B3U   11.1389 eV  111.31 nm  f=0.1790  <S**2>=0.000
       8 -> 15         0.69829

 Excited State  12:      Singlet-AU    11.2907 eV  109.81 nm  f=0.0000  <S**2>=0.000
       5 ->  9         0.70549

 Excited State  13:      Singlet-B1U   11.3469 eV  109.27 nm  f=0.1875  <S**2>=0.000
       7 -> 12         0.69673

 Excited State  14:      Singlet-AG    11.4481 eV  108.30 nm  f=0.0000  <S**2>=0.000
       6 -> 10         0.51174
       8 -> 16         0.48129

 Excited State  15:      Singlet-B2U   11.6364 eV  106.55 nm  f=0.0950  <S**2>=0.000
       6 -> 12        -0.10412
       8 -> 17         0.69164

 Excited State  16:      Singlet-AG    11.7335 eV  105.67 nm  f=0.0000  <S**2>=0.000
       6 -> 10         0.47516
       7 -> 14         0.18996
       8 -> 16        -0.47395

 Excited State  17:      Singlet-B2G   11.9636 eV  103.63 nm  f=0.0000  <S**2>=0.000
       8 -> 18         0.70416

 Excited State  18:      Singlet-B1U   12.0969 eV  102.49 nm  f=0.2580  <S**2>=0.000
       6 -> 11         0.70060

 Excited State  19:      Singlet-B1G   12.3121 eV  100.70 nm  f=0.0000  <S**2>=0.000
       8 -> 19         0.70638

 Excited State  20:      Singlet-B3G   12.3127 eV  100.70 nm  f=0.0000  <S**2>=0.000
       7 -> 13         0.69959

 Excited State  21:      Singlet-B2U   12.8631 eV   96.39 nm  f=0.0453  <S**2>=0.000
       5 -> 10         0.63465
       6 -> 12        -0.31028

 Excited State  22:      Singlet-B2U   12.9927 eV   95.43 nm  f=0.2508  <S**2>=0.000
       5 -> 10         0.30481
       6 -> 12         0.61318
       7 -> 18         0.12981

 Excited State  23:      Singlet-AG    13.0761 eV   94.82 nm  f=0.0000  <S**2>=0.000
       5 -> 12         0.13754
       7 -> 14         0.66375
       8 -> 16         0.13727

 Excited State  24:      Singlet-B3G   13.1501 eV   94.28 nm  f=0.0000  <S**2>=0.000
       5 -> 11         0.14352
       7 -> 15         0.68226

 Excited State  25:      Singlet-AU    13.3656 eV   92.76 nm  f=0.0000  <S**2>=0.000
       7 -> 16         0.70610

 Excited State  26:      Singlet-B3G   13.4592 eV   92.12 nm  f=0.0000  <S**2>=0.000
       5 -> 11         0.69022
       7 -> 15        -0.13979

 Excited State  27:      Singlet-B2G   13.6169 eV   91.05 nm  f=0.0000  <S**2>=0.000
       7 -> 17         0.57701
       8 -> 21        -0.40645

 Excited State  28:      Singlet-B2G   13.8504 eV   89.52 nm  f=0.0000  <S**2>=0.000
       7 -> 17         0.40264
       8 -> 21         0.57483

 Excited State  29:      Singlet-B3G   13.9310 eV   89.00 nm  f=0.0000  <S**2>=0.000
       8 -> 22         0.69727

 Excited State  30:      Singlet-B1U   13.9357 eV   88.97 nm  f=0.0189  <S**2>=0.000
       5 -> 14        -0.10220
       7 -> 19        -0.11177
       8 -> 20         0.67245

 Excited State  31:      Singlet-AG    13.9827 eV   88.67 nm  f=0.0000  <S**2>=0.000
       5 -> 12         0.12060
       6 -> 13         0.69525

 Excited State  32:      Singlet-B2U   14.3204 eV   86.58 nm  f=0.4132  <S**2>=0.000
       5 -> 13         0.13011
       7 -> 18         0.67284

 Excited State  33:      Singlet-B3G   14.4282 eV   85.93 nm  f=0.0000  <S**2>=0.000
       6 -> 14         0.70550

 Excited State  34:      Singlet-AG    14.5283 eV   85.34 nm  f=0.0000  <S**2>=0.000
       5 -> 12         0.54704
       6 -> 15        -0.42510

 Excited State  35:      Singlet-B1U   14.7841 eV   83.86 nm  f=0.3659  <S**2>=0.000
       7 -> 19         0.67539

 Excited State  36:      Singlet-B3U   14.7876 eV   83.84 nm  f=0.0391  <S**2>=0.000
       4 ->  9         0.59500
       5 -> 17        -0.10727
       6 -> 16         0.31568
       7 -> 22        -0.13525

 Excited State  37:      Singlet-B3U   15.2871 eV   81.10 nm  f=0.1730  <S**2>=0.000
       4 ->  9        -0.23346
       6 -> 16         0.60389
       8 -> 23         0.23605

 Excited State  38:      Singlet-B1G   15.3347 eV   80.85 nm  f=0.0000  <S**2>=0.000
       6 -> 17         0.65705
       7 -> 20        -0.24931

 Excited State  39:      Singlet-B3U   15.3594 eV   80.72 nm  f=0.0098  <S**2>=0.000
       4 ->  9         0.16308
       6 -> 16        -0.17000
       8 -> 23         0.65950

 Excited State  40:      Singlet-AG    15.4588 eV   80.20 nm  f=0.0000  <S**2>=0.000
       4 -> 11        -0.22306
       5 -> 12         0.34579
       6 -> 15         0.52992
       8 -> 16        -0.10284

 Excited State  41:      Singlet-B2U   15.5126 eV   79.92 nm  f=0.2499  <S**2>=0.000
       5 -> 13         0.63279
       6 -> 19        -0.26475
       7 -> 21         0.11160

 Excited State  42:      Singlet-B1G   15.5512 eV   79.73 nm  f=0.0000  <S**2>=0.000
       5 -> 16         0.10187
       6 -> 17         0.25560
       7 -> 20         0.64894

 Excited State  43:      Singlet-B1U   15.7154 eV   78.89 nm  f=0.0035  <S**2>=0.000
       4 -> 10         0.49278
       5 -> 14         0.24862
       6 -> 18         0.44087

 Excited State  44:      Singlet-B2U   15.8026 eV   78.46 nm  f=0.0139  <S**2>=0.000
       5 -> 13        -0.10782
       5 -> 15        -0.13998
       7 -> 21         0.68144

 Excited State  45:      Singlet-B1G   15.8820 eV   78.07 nm  f=0.0000  <S**2>=0.000
       8 -> 24         0.70344

 Excited State  46:      Singlet-B1U   15.9043 eV   77.96 nm  f=0.0212  <S**2>=0.000
       4 -> 10        -0.25582
       5 -> 14        -0.40758
       6 -> 18         0.51665

 Excited State  47:      Singlet-B3U   16.0515 eV   77.24 nm  f=0.2492  <S**2>=0.000
       4 ->  9         0.13996
       7 -> 22         0.68196

 Excited State  48:      Singlet-AG    16.1661 eV   76.69 nm  f=0.0000  <S**2>=0.000
       8 -> 27         0.68613

 Excited State  49:      Singlet-B2U   16.2303 eV   76.39 nm  f=0.0000  <S**2>=0.000
       5 -> 15         0.68689
       7 -> 21         0.13801

 Excited State  50:      Singlet-B1U   16.3086 eV   76.02 nm  f=0.0212  <S**2>=0.000
       4 -> 10        -0.39941
       5 -> 14         0.49038
       6 -> 18         0.17340
       6 -> 21         0.14634
       8 -> 20         0.14007

 Excited State  51:      Singlet-B2G   16.3329 eV   75.91 nm  f=0.0000  <S**2>=0.000
       8 -> 25         0.70442

 Excited State  52:      Singlet-B2U   16.4715 eV   75.27 nm  f=0.2384  <S**2>=0.000
       5 -> 13         0.22691
       6 -> 19         0.63470
       7 -> 18        -0.11075

 Excited State  53:      Singlet-B1G   16.5072 eV   75.11 nm  f=0.0000  <S**2>=0.000
       5 -> 16         0.69456
       7 -> 20        -0.12297

 Excited State  54:      Singlet-AU    16.5118 eV   75.09 nm  f=0.0000  <S**2>=0.000
       8 -> 26         0.70645

 Excited State  55:      Singlet-AG    16.6078 eV   74.65 nm  f=0.0000  <S**2>=0.000
       4 -> 11         0.65344
       5 -> 12         0.14847
       6 -> 15         0.10430

 Excited State  56:      Singlet-B3U   16.8964 eV   73.38 nm  f=0.2155  <S**2>=0.000
       4 ->  9         0.10360
       5 -> 17         0.64975
       8 -> 28        -0.23342

 Excited State  57:      Singlet-B3G   17.1286 eV   72.38 nm  f=0.0000  <S**2>=0.000
       4 -> 12         0.67969
       5 -> 18         0.13925
       7 -> 23         0.12972

 Excited State  58:      Singlet-B3G   17.1973 eV   72.10 nm  f=0.0000  <S**2>=0.000
       5 -> 18         0.65415
       7 -> 23        -0.24500

 Excited State  59:      Singlet-B2G   17.2150 eV   72.02 nm  f=0.0000  <S**2>=0.000
       6 -> 20         0.70380

 Excited State  60:      Singlet-B3G   17.5250 eV   70.75 nm  f=0.0000  <S**2>=0.000
       4 -> 12        -0.16863
       5 -> 18         0.21494
       7 -> 23         0.64826

 Excited State  61:      Singlet-AU    17.6529 eV   70.23 nm  f=0.0000  <S**2>=0.000
       6 -> 22         0.70058

 Excited State  62:      Singlet-B1U   17.6884 eV   70.09 nm  f=0.2498  <S**2>=0.000
       6 -> 21         0.62967
       7 -> 24         0.26946

 Excited State  63:      Singlet-AG    17.7256 eV   69.95 nm  f=0.0000  <S**2>=0.000
       5 -> 19         0.69360

 Excited State  64:      Singlet-B3U   17.8950 eV   69.28 nm  f=0.2930  <S**2>=0.000
       4 ->  9         0.11752
       5 -> 17         0.19067
       8 -> 28         0.65097

 Excited State  65:      Singlet-B1G   18.1347 eV   68.37 nm  f=0.0000  <S**2>=0.000
       8 -> 29         0.70574

 Excited State  66:      Singlet-B1U   18.2438 eV   67.96 nm  f=0.0644  <S**2>=0.000
       4 -> 13         0.70469

 Excited State  67:      Singlet-AU    18.3738 eV   67.48 nm  f=0.0000  <S**2>=0.000
       5 -> 20        -0.12323
       7 -> 27         0.69038

 Excited State  68:      Singlet-B1U   18.3959 eV   67.40 nm  f=0.2887  <S**2>=0.000
       4 -> 15        -0.11840
       6 -> 21        -0.25272
       7 -> 24         0.62636
       7 -> 29         0.12413

 Excited State  69:      Singlet-AU    18.4426 eV   67.23 nm  f=0.0000  <S**2>=0.000
       8 -> 30         0.69310

 Excited State  70:      Singlet-B2U   18.4773 eV   67.10 nm  f=0.0097  <S**2>=0.000
       4 -> 14        -0.16282
       7 -> 25         0.59914
       8 -> 33        -0.33048

 Excited State  71:      Singlet-B2G   18.5379 eV   66.88 nm  f=0.0000  <S**2>=0.000
       8 -> 32         0.70116

 Excited State  72:      Singlet-AG    18.5633 eV   66.79 nm  f=0.0000  <S**2>=0.000
       7 -> 26         0.70007

 Excited State  73:      Singlet-B2U   18.6055 eV   66.64 nm  f=0.1810  <S**2>=0.000
       4 -> 14         0.12782
       7 -> 25         0.36049
       8 -> 33         0.57608

 Excited State  74:      Singlet-B3U   18.6656 eV   66.42 nm  f=0.1221  <S**2>=0.000
       8 -> 31         0.69147

 Excited State  75:      Singlet-AU    18.6822 eV   66.36 nm  f=0.0000  <S**2>=0.000
       5 -> 20         0.68498
       7 -> 27         0.11486
       8 -> 30         0.10468

 Excited State  76:      Singlet-B2U   18.8077 eV   65.92 nm  f=0.0319  <S**2>=0.000
       4 -> 14         0.66799
       6 -> 24        -0.11613
       8 -> 33        -0.16547

 Excited State  77:      Singlet-B3G   18.9083 eV   65.57 nm  f=0.0000  <S**2>=0.000
       5 -> 21         0.70300

 Excited State  78:      Singlet-B2G   19.0297 eV   65.15 nm  f=0.0000  <S**2>=0.000
       3 ->  9        -0.18069
       5 -> 22         0.67419

 Excited State  79:      Singlet-B1U   19.1426 eV   64.77 nm  f=0.0948  <S**2>=0.000
       4 -> 15         0.66455
       7 -> 24         0.11509
       8 -> 34        -0.19714

 Excited State  80:      Singlet-B2G   19.3056 eV   64.22 nm  f=0.0000  <S**2>=0.000
       3 ->  9        -0.47580
       4 -> 16         0.48818
       8 -> 35        -0.14986

 Excited State  81:      Singlet-AG    19.3187 eV   64.18 nm  f=0.0000  <S**2>=0.000
       4 -> 18        -0.14449
       6 -> 23         0.67491

 Excited State  82:      Singlet-B1U   19.3550 eV   64.06 nm  f=0.0480  <S**2>=0.000
       4 -> 15         0.18546
       8 -> 34         0.67505

 Excited State  83:      Singlet-B2G   19.4384 eV   63.78 nm  f=0.0000  <S**2>=0.000
       3 ->  9         0.40866
       4 -> 16         0.49864
       5 -> 22         0.16762
       8 -> 35         0.22261

 Excited State  84:      Singlet-AU    19.6401 eV   63.13 nm  f=0.0000  <S**2>=0.000
       4 -> 17         0.70186

 Excited State  85:      Singlet-B3G   19.6590 eV   63.07 nm  f=0.0000  <S**2>=0.000
       7 -> 28         0.70180

 Excited State  86:      Singlet-B2U   19.8632 eV   62.42 nm  f=0.0257  <S**2>=0.000
       5 -> 23         0.11278
       6 -> 24         0.63378
       7 -> 32         0.25774

 Excited State  87:      Singlet-AG    20.1526 eV   61.52 nm  f=0.0000  <S**2>=0.000
       3 -> 10         0.17597
       4 -> 18         0.66754
       6 -> 23         0.10073

 Excited State  88:      Singlet-B3G   20.2280 eV   61.29 nm  f=0.0000  <S**2>=0.000
       4 -> 19         0.13527
       6 -> 26         0.68425

 Excited State  89:      Singlet-B1U   20.2342 eV   61.27 nm  f=0.0956  <S**2>=0.000
       6 -> 25         0.69986

 Excited State  90:      Singlet-B3U   20.2391 eV   61.26 nm  f=0.2407  <S**2>=0.000
       4 -> 20        -0.11699
       6 -> 27         0.68708

 Excited State  91:      Singlet-B3G   20.4744 eV   60.56 nm  f=0.0000  <S**2>=0.000
       4 -> 19         0.60154
       6 -> 26        -0.16573
       7 -> 31        -0.32384

 Excited State  92:      Singlet-AG    20.5243 eV   60.41 nm  f=0.0000  <S**2>=0.000
       3 -> 10         0.60537
       4 -> 18        -0.10013
       7 -> 30        -0.33799

 Excited State  93:      Singlet-B2G   20.5941 eV   60.20 nm  f=0.0000  <S**2>=0.000
       3 ->  9        -0.16061
       7 -> 33        -0.46034
       8 -> 35         0.50535

 Excited State  94:      Singlet-B2U   20.5980 eV   60.19 nm  f=0.0931  <S**2>=0.000
       5 -> 23         0.67203
       7 -> 32        -0.21121

 Excited State  95:      Singlet-B1U   20.6599 eV   60.01 nm  f=0.1070  <S**2>=0.000
       3 -> 11        -0.15027
       7 -> 29         0.66604

 Excited State  96:      Singlet-B2G   20.8454 eV   59.48 nm  f=0.0000  <S**2>=0.000
       3 ->  9        -0.18487
       7 -> 33         0.53162
       8 -> 35         0.40847

 Excited State  97:      Singlet-B3G   20.8511 eV   59.46 nm  f=0.0000  <S**2>=0.000
       4 -> 19         0.32021
       7 -> 31         0.60855

 Excited State  98:      Singlet-AG    21.0257 eV   58.97 nm  f=0.0000  <S**2>=0.000
       3 -> 10         0.26923
       4 -> 18        -0.10526
       5 -> 24        -0.34520
       6 -> 23        -0.10678
       7 -> 30         0.51702

 Excited State  99:      Singlet-B1U   21.1980 eV   58.49 nm  f=0.0024  <S**2>=0.000
       3 -> 11         0.67439
       7 -> 29         0.13455

 Excited State 100:      Singlet-B2U   21.2939 eV   58.23 nm  f=0.3729  <S**2>=0.000
       3 -> 12        -0.19955
       5 -> 23         0.13901
       6 -> 24        -0.19759
       6 -> 29        -0.28721
       7 -> 32         0.52539
       7 -> 35         0.12681

 Excited State 101:      Singlet-B1G   21.3331 eV   58.12 nm  f=0.0000  <S**2>=0.000
       5 -> 27         0.45391
       7 -> 34         0.54182

 Excited State 102:      Singlet-AG    21.3600 eV   58.04 nm  f=0.0000  <S**2>=0.000
       4 -> 21         0.25858
       5 -> 24         0.38221
       6 -> 28         0.50450
       7 -> 30         0.10909

 Excited State 103:      Singlet-AG    21.4906 eV   57.69 nm  f=0.0000  <S**2>=0.000
       4 -> 21        -0.31734
       5 -> 24        -0.31062
       6 -> 28         0.48484
       6 -> 31        -0.15634
       7 -> 30        -0.14633

 Excited State 104:      Singlet-B1G   21.5232 eV   57.60 nm  f=0.0000  <S**2>=0.000
       5 -> 27         0.53490
       7 -> 34        -0.45005

 Excited State 105:      Singlet-B3G   21.5912 eV   57.42 nm  f=0.0000  <S**2>=0.000
       5 -> 25         0.69785

 Excited State 106:      Singlet-B1U   21.6822 eV   57.18 nm  f=0.0560  <S**2>=0.000
       5 -> 26         0.69816

 Excited State 107:      Singlet-B3U   21.7011 eV   57.13 nm  f=0.0000  <S**2>=0.000
       4 -> 20         0.69176
       6 -> 27         0.10127

 Excited State 108:      Singlet-B1G   21.9171 eV   56.57 nm  f=0.0000  <S**2>=0.000
       4 -> 22         0.69514

 Excited State 109:      Singlet-AG    22.0242 eV   56.29 nm  f=0.0000  <S**2>=0.000
       4 -> 21         0.53416
       5 -> 24        -0.23905
       6 -> 31        -0.34083
       7 -> 30        -0.13589

 Excited State 110:      Singlet-B2U   22.0899 eV   56.13 nm  f=0.0423  <S**2>=0.000
       3 -> 12         0.51171
       6 -> 29        -0.45302
       7 -> 35        -0.16980

 Excited State 111:      Singlet-B3G   22.2389 eV   55.75 nm  f=0.0000  <S**2>=0.000
       6 -> 30         0.69262
       8 -> 37        -0.11984

 Excited State 112:      Singlet-B2U   22.4109 eV   55.32 nm  f=0.0095  <S**2>=0.000
       3 -> 12         0.37418
       5 -> 28        -0.33056
       5 -> 31         0.13081
       6 -> 29         0.28476
       7 -> 32         0.11438
       7 -> 35         0.36015

 Excited State 113:      Singlet-B1G   22.4762 eV   55.16 nm  f=0.0000  <S**2>=0.000
       6 -> 33         0.70213

 Excited State 114:      Singlet-B2G   22.4793 eV   55.15 nm  f=0.0000  <S**2>=0.000
       8 -> 36         0.70058

 Excited State 115:      Singlet-B3G   22.4945 eV   55.12 nm  f=0.0000  <S**2>=0.000
       5 -> 32         0.11053
       6 -> 30         0.10755
       8 -> 37         0.67748

 Excited State 116:      Singlet-B2U   22.5621 eV   54.95 nm  f=0.1652  <S**2>=0.000
       5 -> 31        -0.20158
       6 -> 29        -0.29727
       7 -> 32        -0.22342
       7 -> 35         0.53685

 Excited State 117:      Singlet-B1U   22.6723 eV   54.69 nm  f=0.1657  <S**2>=0.000
       4 -> 23        -0.19113
       6 -> 32         0.65843

 Excited State 118:      Singlet-AG    22.7900 eV   54.40 nm  f=0.0000  <S**2>=0.000
       3 -> 15        -0.11950
       4 -> 21         0.17361
       4 -> 25        -0.10156
       5 -> 24        -0.21509
       6 -> 31         0.57921
       7 -> 30        -0.14182
       8 -> 40         0.13030

 Excited State 119:      Singlet-B2U   22.9114 eV   54.11 nm  f=0.0254  <S**2>=0.000
       3 -> 12         0.17053
       5 -> 28         0.61771
       5 -> 31         0.14796
       6 -> 29         0.13634
       7 -> 35         0.17691

 Excited State 120:      Singlet-AG    23.0589 eV   53.77 nm  f=0.0000  <S**2>=0.000
       3 -> 13         0.69686

 Excited State 121:      Singlet-B2G   23.1270 eV   53.61 nm  f=0.0000  <S**2>=0.000
       6 -> 34         0.70430

 Excited State 122:      Singlet-AU    23.3923 eV   53.00 nm  f=0.0000  <S**2>=0.000
       8 -> 38         0.70508

 Excited State 123:      Singlet-AG    23.5501 eV   52.65 nm  f=0.0000  <S**2>=0.000
       5 -> 29         0.69030

 Excited State 124:      Singlet-B3G   23.5866 eV   52.57 nm  f=0.0000  <S**2>=0.000
       3 -> 14         0.67019
       5 -> 32         0.21727

 Excited State 125:      Singlet-B1U   23.6076 eV   52.52 nm  f=0.0002  <S**2>=0.000
       4 -> 23         0.57021
       5 -> 30         0.39002

 Excited State 126:      Singlet-B1U   23.8630 eV   51.96 nm  f=0.1372  <S**2>=0.000
       4 -> 23        -0.27585
       5 -> 30         0.51669
       6 -> 35         0.37112

 Excited State 127:      Singlet-B3U   23.8872 eV   51.90 nm  f=0.0839  <S**2>=0.000
       3 -> 16         0.22489
       5 -> 33         0.66555

 Excited State 128:      Singlet-B3G   23.9707 eV   51.72 nm  f=0.0000  <S**2>=0.000
       3 -> 14        -0.14917
       4 -> 24         0.56615
       5 -> 32         0.38770

 Excited State 129:      Singlet-AG    24.0993 eV   51.45 nm  f=0.0000  <S**2>=0.000
       3 -> 15         0.68480

 Excited State 130:      Singlet-B3G   24.2790 eV   51.07 nm  f=0.0000  <S**2>=0.000
       3 -> 14        -0.14675
       4 -> 24        -0.41072
       4 -> 29        -0.11361
       5 -> 32         0.51975

 Excited State 131:      Singlet-B2U   24.3207 eV   50.98 nm  f=0.2814  <S**2>=0.000
       5 -> 31         0.48128
       6 -> 29        -0.11403
       7 -> 32        -0.12717
       7 -> 36        -0.45602

 Excited State 132:      Singlet-B3U   24.3669 eV   50.88 nm  f=0.0141  <S**2>=0.000
       3 -> 16         0.64790
       5 -> 33        -0.20060
       7 -> 37        -0.16626
       8 -> 39        -0.10235

 Excited State 133:      Singlet-B2G   24.4579 eV   50.69 nm  f=0.0000  <S**2>=0.000
       4 -> 27         0.69607

 Excited State 134:      Singlet-B1G   24.4778 eV   50.65 nm  f=0.0000  <S**2>=0.000
       3 -> 17         0.70660

 Excited State 135:      Singlet-B2U   24.4869 eV   50.63 nm  f=0.0137  <S**2>=0.000
       4 -> 26         0.66771
       7 -> 36         0.20106

 Excited State 136:      Singlet-AU    24.5297 eV   50.54 nm  f=0.0000  <S**2>=0.000
       5 -> 34         0.70454

 Excited State 137:      Singlet-B2U   24.6136 eV   50.37 nm  f=0.1619  <S**2>=0.000
       3 -> 19         0.11857
       4 -> 26        -0.21591
       5 -> 31         0.40535
       7 -> 36         0.48232

 Excited State 138:      Singlet-AG    24.6901 eV   50.22 nm  f=0.0000  <S**2>=0.000
       4 -> 25         0.65199
       7 -> 38         0.13506
       8 -> 40         0.20080

 Excited State 139:      Singlet-B1U   24.8027 eV   49.99 nm  f=0.0360  <S**2>=0.000
       3 -> 18         0.62835
       5 -> 30         0.10721
       6 -> 35        -0.27846

 Excited State 140:      Singlet-B3U   24.8436 eV   49.91 nm  f=0.0957  <S**2>=0.000
       3 -> 16         0.10164
       7 -> 37         0.63491
       8 -> 39        -0.28625

 Excited State 141:      Singlet-B1U   25.0460 eV   49.50 nm  f=0.0713  <S**2>=0.000
       3 -> 18         0.30271
       4 -> 23         0.18413

 The electronic state is 1-AG.
 Alpha  occ. eigenvalues --  -10.12654 -10.12572  -0.73668  -0.55913  -0.45480
 Alpha  occ. eigenvalues --   -0.40446  -0.34145  -0.26547
 Alpha virt. eigenvalues --   -0.01004   0.03663   0.05721   0.09185   0.13061
 Alpha virt. eigenvalues --    0.14797   0.16616   0.17612   0.18508   0.19622
 Alpha virt. eigenvalues --    0.21297   0.25685   0.26178   0.26689   0.32268

 Mulliken charges:
               1
     1  C    0.086601
     2  C    0.086601
     3  H   -0.043300
     4  H   -0.043300
     5  H   -0.043300
     6  H   -0.043300
 Sum of Mulliken charges =  -0.00000

 Dipole moment (field-independent basis, Debye):
    X=              0.0000    Y=              0.0000    Z=              0.0000  Tot=              0.0000
 Quadrupole moment (field-independent basis, Debye-Ang):
   XX=            -15.2734   YY=            -12.4233   ZZ=            -12.3768
   XY=              0.0000   XZ=             -0.0000   YZ=             -0.0000

 Normal termination of Gaussian 16 at Mon Mar 21 20:05:35 2022.
