 Gaussian 16, Revision C.01,
 Gaussian 16:  EM64L-G16RevC.01  3-Jul-2019

 ---------------------------------------------------------------------
 #P TD(Nstates=10000) tpssh/Gen SCF(maxcycles=100) Int(Grid=ultrafine)
 ---------------------------------------------------------------------

 ---------------------
 xGDB7_00001_tier4.com
 ---------------------
 Symbolic Z-matrix:
 Charge =  0 Multiplicity = 1

                         Standard orientation:
 ---------------------------------------------------------------------
 Center     Atomic      Atomic             Coordinates (Angstroms)
 Number     Number       Type             X           Y           Z
 ---------------------------------------------------------------------
      1          8           0       -1.028621   -0.395177   -0.000000
      2          7           0       -0.000000    0.526228   -0.000000
      3          6           0        1.132746   -0.030907    0.000000
      4          1           0       -1.816572    0.151791   -0.000000
      5          1           0        1.994262    0.623439    0.000000
      6          1           0        1.254802   -1.111965    0.000000
 ---------------------------------------------------------------------

 SCF Done:  E(RTPSSh) =  -169.703248538     A.U. after   13 cycles

 Excitation energies and oscillator strengths:

 Excited State   1:      Singlet-A"     5.9300 eV  209.08 nm  f=0.0008  <S**2>=0.000
      11 -> 13         0.70629
 This state for optimization and/or second-order correction.
 Total Energy, E(TD-HF/TD-DFT) =  -169.485325902
 Copying the excited state density for this state as the 1-particle RhoCI density.

 Excited State   2:      Singlet-A'     6.7803 eV  182.86 nm  f=0.1559  <S**2>=0.000
      10 -> 13         0.12550
      12 -> 13         0.67311

 Excited State   3:      Singlet-A"     6.9749 eV  177.76 nm  f=0.0016  <S**2>=0.000
      12 -> 14         0.70596

 Excited State   4:      Singlet-A'     7.3044 eV  169.74 nm  f=0.0249  <S**2>=0.000
      11 -> 14         0.70048

 Excited State   5:      Singlet-A"     7.8315 eV  158.31 nm  f=0.0171  <S**2>=0.000
      12 -> 15         0.70551

 Excited State   6:      Singlet-A'     8.1636 eV  151.88 nm  f=0.0302  <S**2>=0.000
      11 -> 15         0.69581

 Excited State   7:      Singlet-A"     8.8952 eV  139.38 nm  f=0.0019  <S**2>=0.000
      12 -> 16         0.67183
      12 -> 17        -0.20355

 Excited State   8:      Singlet-A"     9.1670 eV  135.25 nm  f=0.0093  <S**2>=0.000
      12 -> 16         0.20497
      12 -> 17         0.67311

 Excited State   9:      Singlet-A'     9.4001 eV  131.90 nm  f=0.0964  <S**2>=0.000
      11 -> 16        -0.39909
      11 -> 17         0.53593
      12 -> 18        -0.21725

 Excited State  10:      Singlet-A'     9.4533 eV  131.15 nm  f=0.1151  <S**2>=0.000
      11 -> 16         0.51399
      11 -> 17         0.45297
      12 -> 18         0.16061

 Excited State  11:      Singlet-A"     9.5391 eV  129.98 nm  f=0.0003  <S**2>=0.000
       9 -> 13         0.70205

 Excited State  12:      Singlet-A'     9.9025 eV  125.20 nm  f=0.0265  <S**2>=0.000
      11 -> 16        -0.23261
      11 -> 19         0.11492
      12 -> 18         0.62710

 Excited State  13:      Singlet-A"     9.9315 eV  124.84 nm  f=0.0267  <S**2>=0.000
      11 -> 18         0.69672
      12 -> 20        -0.10968

 Excited State  14:      Singlet-A"    10.1024 eV  122.73 nm  f=0.0020  <S**2>=0.000
      12 -> 19         0.69620
      12 -> 20         0.10294

 Excited State  15:      Singlet-A"    10.2242 eV  121.27 nm  f=0.0208  <S**2>=0.000
      11 -> 18         0.10412
      12 -> 19        -0.11018
      12 -> 20         0.68130

 Excited State  16:      Singlet-A'    10.3921 eV  119.31 nm  f=0.0053  <S**2>=0.000
      11 -> 19         0.68738
      12 -> 18        -0.10344

 Excited State  17:      Singlet-A'    10.4952 eV  118.13 nm  f=0.0757  <S**2>=0.000
       9 -> 14        -0.11968
      10 -> 13         0.41909
      11 -> 20         0.52880

 Excited State  18:      Singlet-A'    10.6331 eV  116.60 nm  f=0.0370  <S**2>=0.000
      10 -> 13         0.48499
      11 -> 20        -0.46414

 Excited State  19:      Singlet-A"    10.8074 eV  114.72 nm  f=0.0004  <S**2>=0.000
       8 -> 13         0.59301
      10 -> 14         0.13312
      12 -> 21         0.34886

 Excited State  20:      Singlet-A"    10.9224 eV  113.51 nm  f=0.0256  <S**2>=0.000
       8 -> 13        -0.19851
      10 -> 14         0.66931

 Excited State  21:      Singlet-A"    11.0349 eV  112.36 nm  f=0.0132  <S**2>=0.000
       8 -> 13        -0.31031
      10 -> 14        -0.17466
      12 -> 21         0.60499

 Excited State  22:      Singlet-A'    11.1711 eV  110.99 nm  f=0.2069  <S**2>=0.000
       9 -> 14         0.68047
      10 -> 13         0.11110
      11 -> 21         0.10966

 Excited State  23:      Singlet-A'    11.3929 eV  108.83 nm  f=0.0548  <S**2>=0.000
       9 -> 14        -0.10122
      11 -> 21         0.67304

 Excited State  24:      Singlet-A"    11.8032 eV  105.04 nm  f=0.0098  <S**2>=0.000
      10 -> 15         0.70398

 Excited State  25:      Singlet-A'    11.8630 eV  104.51 nm  f=0.0829  <S**2>=0.000
       9 -> 15         0.69440

 Excited State  26:      Singlet-A'    12.1116 eV  102.37 nm  f=0.0428  <S**2>=0.000
       8 -> 14         0.20340
      12 -> 22         0.66023

 Excited State  27:      Singlet-A'    12.3063 eV  100.75 nm  f=0.1003  <S**2>=0.000
       8 -> 14         0.66115
      12 -> 22        -0.17565
      12 -> 23         0.11317

 Excited State  28:      Singlet-A"    12.3198 eV  100.64 nm  f=0.0007  <S**2>=0.000
      11 -> 22         0.69977

 Excited State  29:      Singlet-A"    12.5078 eV   99.13 nm  f=0.0007  <S**2>=0.000
       7 -> 13        -0.10565
      10 -> 16        -0.16582
      11 -> 23         0.15575
      12 -> 24         0.61164
      12 -> 25         0.22921

 Excited State  30:      Singlet-A'    12.5424 eV   98.85 nm  f=0.0891  <S**2>=0.000
       9 -> 16        -0.22288
      12 -> 23         0.63837

 Excited State  31:      Singlet-A"    12.5801 eV   98.56 nm  f=0.0001  <S**2>=0.000
       7 -> 13         0.42175
      11 -> 23         0.55117

 Excited State  32:      Singlet-A"    12.6223 eV   98.23 nm  f=0.0042  <S**2>=0.000
       7 -> 13        -0.32984
      11 -> 23         0.32748
      12 -> 24        -0.32296
      12 -> 25         0.40301

 Excited State  33:      Singlet-A"    12.7876 eV   96.96 nm  f=0.0763  <S**2>=0.000
       6 -> 13        -0.10864
       7 -> 13         0.37426
      10 -> 16         0.15123
      11 -> 23        -0.23227
      12 -> 25         0.51305

 Excited State  34:      Singlet-A'    12.9120 eV   96.02 nm  f=0.0142  <S**2>=0.000
       8 -> 15         0.10872
      11 -> 24         0.60325
      11 -> 25        -0.31340

 Excited State  35:      Singlet-A"    12.9166 eV   95.99 nm  f=0.0001  <S**2>=0.000
       7 -> 13        -0.19880
      10 -> 16         0.62657
      10 -> 17        -0.18670
      12 -> 24         0.12795

 Excited State  36:      Singlet-A'    13.0140 eV   95.27 nm  f=0.0132  <S**2>=0.000
       8 -> 15         0.11355
       9 -> 16        -0.15492
       9 -> 17         0.12656
      11 -> 24         0.29114
      11 -> 25         0.58397

 Excited State  37:      Singlet-A"    13.1292 eV   94.43 nm  f=0.0101  <S**2>=0.000
      10 -> 16         0.19912
      10 -> 17         0.67206

 Excited State  38:      Singlet-A'    13.1586 eV   94.22 nm  f=0.0023  <S**2>=0.000
       8 -> 15         0.41011
       9 -> 16         0.51468
      10 -> 18         0.13437
      11 -> 25         0.10737
      12 -> 23         0.12830

 Excited State  39:      Singlet-A'    13.2609 eV   93.50 nm  f=0.0506  <S**2>=0.000
       8 -> 15         0.43404
       9 -> 16        -0.26456
       9 -> 17         0.36579
      10 -> 18        -0.14775
      11 -> 25        -0.18057
      12 -> 23        -0.10424

 Excited State  40:      Singlet-A'    13.3779 eV   92.68 nm  f=0.0022  <S**2>=0.000
       8 -> 15        -0.31272
       9 -> 16         0.19746
       9 -> 17         0.56051
      12 -> 23         0.10154

 Excited State  41:      Singlet-A"    13.6642 eV   90.74 nm  f=0.0000  <S**2>=0.000
      12 -> 26         0.69660

 Excited State  42:      Singlet-A'    13.7047 eV   90.47 nm  f=0.0113  <S**2>=0.000
       8 -> 16         0.12485
       9 -> 19        -0.14775
      10 -> 18         0.62191
      11 -> 26         0.15723

 Excited State  43:      Singlet-A"    13.7547 eV   90.14 nm  f=0.0010  <S**2>=0.000
       9 -> 18         0.69614

 Excited State  44:      Singlet-A'    13.9398 eV   88.94 nm  f=0.0174  <S**2>=0.000
       7 -> 14        -0.28440
       8 -> 16         0.13252
       9 -> 19         0.19313
      11 -> 26         0.57476

 Excited State  45:      Singlet-A"    14.1021 eV   87.92 nm  f=0.0191  <S**2>=0.000
      10 -> 19         0.67567
      10 -> 20         0.19344

 Excited State  46:      Singlet-A'    14.1593 eV   87.56 nm  f=0.0172  <S**2>=0.000
       7 -> 14         0.12383
       9 -> 19        -0.16272
      12 -> 27         0.65189

 Excited State  47:      Singlet-A"    14.1839 eV   87.41 nm  f=0.0651  <S**2>=0.000
       6 -> 13        -0.17242
      10 -> 19        -0.20128
      10 -> 20         0.64856

 Excited State  48:      Singlet-A'    14.2218 eV   87.18 nm  f=0.0048  <S**2>=0.000
       7 -> 14         0.42651
       8 -> 16         0.18886
       9 -> 19         0.41741
       9 -> 20         0.30212

 Excited State  49:      Singlet-A'    14.3415 eV   86.45 nm  f=0.0635  <S**2>=0.000
       7 -> 14         0.36865
       8 -> 16        -0.23687
       8 -> 17        -0.30307
       9 -> 19        -0.24960
      10 -> 18        -0.10702
      11 -> 26         0.26768
      12 -> 27        -0.18661

 Excited State  50:      Singlet-A"    14.4087 eV   86.05 nm  f=0.0005  <S**2>=0.000
      11 -> 27         0.69874

 Excited State  51:      Singlet-A'    14.4739 eV   85.66 nm  f=0.1420  <S**2>=0.000
       8 -> 17         0.17988
       9 -> 19        -0.32303
       9 -> 20         0.54442
      11 -> 26         0.11289

 Excited State  52:      Singlet-A'    14.5851 eV   85.01 nm  f=0.0083  <S**2>=0.000
       7 -> 14         0.15701
       7 -> 15         0.14478
       8 -> 16         0.51387
       8 -> 17         0.13541
       8 -> 19        -0.10345
       9 -> 19        -0.15913
       9 -> 20        -0.24748
      10 -> 18        -0.15103

 Excited State  53:      Singlet-A'    14.6874 eV   84.42 nm  f=0.2228  <S**2>=0.000
       7 -> 14         0.14068
       7 -> 15         0.11865
       8 -> 16        -0.24496
       8 -> 17         0.56121
       9 -> 20        -0.11389
       9 -> 21         0.10137
      11 -> 26         0.11723

 Excited State  54:      Singlet-A"    14.9109 eV   83.15 nm  f=0.0003  <S**2>=0.000
       8 -> 18        -0.15204
      10 -> 21         0.68637

 Excited State  55:      Singlet-A"    14.9766 eV   82.79 nm  f=0.0005  <S**2>=0.000
       8 -> 18         0.67558
      10 -> 21         0.14473
      12 -> 28        -0.10423

 Excited State  56:      Singlet-A'    15.0242 eV   82.52 nm  f=0.0201  <S**2>=0.000
       7 -> 15         0.64041
       9 -> 21        -0.14825

 Excited State  57:      Singlet-A"    15.0403 eV   82.43 nm  f=0.0106  <S**2>=0.000
       6 -> 13         0.28865
       8 -> 18         0.12476
      12 -> 28         0.61534

 Excited State  58:      Singlet-A'    15.2198 eV   81.46 nm  f=0.1386  <S**2>=0.000
       7 -> 15         0.14211
       9 -> 21         0.64709
      11 -> 28         0.11525

 Excited State  59:      Singlet-A"    15.3180 eV   80.94 nm  f=0.0720  <S**2>=0.000
       6 -> 13         0.54094
       9 -> 22        -0.23413
      10 -> 20         0.14160
      12 -> 28        -0.30534

 Excited State  60:      Singlet-A'    15.4331 eV   80.34 nm  f=0.0550  <S**2>=0.000
       8 -> 19         0.34725
       8 -> 20         0.15769
      11 -> 28         0.58007

 Excited State  61:      Singlet-A'    15.5511 eV   79.73 nm  f=0.0025  <S**2>=0.000
       8 -> 19        -0.17261
       8 -> 20         0.65716

 Excited State  62:      Singlet-A"    15.5978 eV   79.49 nm  f=0.0608  <S**2>=0.000
      12 -> 29         0.69821

 Excited State  63:      Singlet-A'    15.6481 eV   79.23 nm  f=0.1439  <S**2>=0.000
       8 -> 19         0.53982
       9 -> 21         0.11438
      11 -> 28        -0.30359
      12 -> 30        -0.21144

 Excited State  64:      Singlet-A'    15.8893 eV   78.03 nm  f=0.0675  <S**2>=0.000
       7 -> 16        -0.10957
      11 -> 29         0.68308

 Excited State  65:      Singlet-A'    15.9753 eV   77.61 nm  f=0.0097  <S**2>=0.000
       6 -> 14         0.21515
      10 -> 23        -0.11672
      11 -> 28        -0.13262
      12 -> 30         0.60569

 Excited State  66:      Singlet-A"    16.0444 eV   77.28 nm  f=0.0006  <S**2>=0.000
       9 -> 22         0.27334
       9 -> 23         0.10746
      11 -> 30         0.61441
      12 -> 31        -0.17134

 Excited State  67:      Singlet-A"    16.1004 eV   77.01 nm  f=0.0414  <S**2>=0.000
       6 -> 13         0.11264
       9 -> 22         0.39038
      12 -> 31         0.53852

 Excited State  68:      Singlet-A'    16.1067 eV   76.98 nm  f=0.0065  <S**2>=0.000
       6 -> 14        -0.37978
       7 -> 16         0.41739
       8 -> 21        -0.22211
      10 -> 22         0.18953
      10 -> 23        -0.25576

 Excited State  69:      Singlet-A'    16.1093 eV   76.96 nm  f=0.0730  <S**2>=0.000
       7 -> 16        -0.25015
       8 -> 21         0.13389
      10 -> 22         0.62278

 Excited State  70:      Singlet-A"    16.1516 eV   76.76 nm  f=0.1600  <S**2>=0.000
       6 -> 13        -0.13750
       9 -> 22        -0.40575
       9 -> 23        -0.10779
      11 -> 30         0.32137
      12 -> 31         0.41024
      12 -> 33        -0.10950

 Excited State  71:      Singlet-A'    16.2794 eV   76.16 nm  f=0.0124  <S**2>=0.000
       6 -> 14        -0.17081
       7 -> 17         0.51527
       8 -> 21         0.38671
      10 -> 23         0.10361
      11 -> 31         0.16213

 Excited State  72:      Singlet-A'    16.2906 eV   76.11 nm  f=0.0935  <S**2>=0.000
       6 -> 14         0.34155
       7 -> 16         0.22579
       7 -> 17        -0.21787
       8 -> 21         0.19944
      10 -> 22         0.10808
      11 -> 31         0.39311
      12 -> 30        -0.16645

 Excited State  73:      Singlet-A"    16.2952 eV   76.09 nm  f=0.0017  <S**2>=0.000
       9 -> 22        -0.13835
       9 -> 23         0.66682
      10 -> 25        -0.11071

 Excited State  74:      Singlet-A'    16.3784 eV   75.70 nm  f=0.0431  <S**2>=0.000
       6 -> 14        -0.30386
       7 -> 16        -0.18865
       7 -> 17        -0.23684
       9 -> 25         0.10706
      10 -> 23         0.30558
      11 -> 31         0.38952
      12 -> 30         0.12327

 Excited State  75:      Singlet-A'    16.4333 eV   75.45 nm  f=0.0068  <S**2>=0.000
       6 -> 14         0.11148
       6 -> 15        -0.15773
       7 -> 16         0.23631
       8 -> 21        -0.15656
       9 -> 24         0.17049
      10 -> 22         0.16095
      10 -> 23         0.49796
      11 -> 31        -0.20666
      11 -> 32        -0.11001

 Excited State  76:      Singlet-A"    16.4854 eV   75.21 nm  f=0.0017  <S**2>=0.000
      10 -> 24         0.65534
      10 -> 25         0.16022
      12 -> 32         0.15568

 Excited State  77:      Singlet-A'    16.5324 eV   74.99 nm  f=0.0321  <S**2>=0.000
       6 -> 14        -0.14299
       7 -> 17        -0.25671
       8 -> 21         0.33951
       9 -> 24         0.36861
       9 -> 25         0.13618
      11 -> 31        -0.28565

 Excited State  78:      Singlet-A"    16.6225 eV   74.59 nm  f=0.0013  <S**2>=0.000
      10 -> 24        -0.22686
      10 -> 25         0.52552
      12 -> 32         0.40388

 Excited State  79:      Singlet-A'    16.6621 eV   74.41 nm  f=0.0937  <S**2>=0.000
       6 -> 15         0.11998
       7 -> 20        -0.10471
       8 -> 21        -0.20116
       9 -> 24         0.49564
       9 -> 25        -0.34680
      11 -> 32         0.15593

 Excited State  80:      Singlet-A"    16.6710 eV   74.37 nm  f=0.0041  <S**2>=0.000
      10 -> 25        -0.41304
      12 -> 32         0.53764
      12 -> 33         0.12684

 Excited State  81:      Singlet-A"    16.7832 eV   73.87 nm  f=0.0001  <S**2>=0.000
       7 -> 18         0.68978
       9 -> 23         0.10139

 Excited State  82:      Singlet-A'    16.8932 eV   73.39 nm  f=0.1266  <S**2>=0.000
       6 -> 15        -0.25458
       9 -> 25         0.25911
      11 -> 32         0.59249

 Excited State  83:      Singlet-A'    17.0345 eV   72.78 nm  f=0.0469  <S**2>=0.000
       6 -> 14         0.10408
       6 -> 15         0.23637
       7 -> 17         0.12995
       7 -> 19         0.10793
       7 -> 20        -0.23756
       8 -> 21        -0.12135
       9 -> 24         0.16457
       9 -> 25         0.48579
      11 -> 32        -0.13718

 Excited State  84:      Singlet-A"    17.1316 eV   72.37 nm  f=0.0794  <S**2>=0.000
       8 -> 22         0.19825
       9 -> 22        -0.13147
      12 -> 33         0.63882

 Excited State  85:      Singlet-A'    17.2211 eV   72.00 nm  f=0.0063  <S**2>=0.000
       6 -> 15        -0.41656
       7 -> 19        -0.10969
      10 -> 23        -0.10517
      11 -> 32        -0.17720
      11 -> 33         0.46697

 Excited State  86:      Singlet-A'    17.2971 eV   71.68 nm  f=0.0627  <S**2>=0.000
       6 -> 15         0.11919
       7 -> 19         0.56242
       7 -> 20         0.24280
      11 -> 33         0.28881

 Excited State  87:      Singlet-A"    17.3588 eV   71.42 nm  f=0.0049  <S**2>=0.000
       8 -> 22         0.16016
      12 -> 34         0.67691

 Excited State  88:      Singlet-A'    17.3810 eV   71.33 nm  f=0.0095  <S**2>=0.000
       6 -> 15         0.32524
       7 -> 16         0.10262
       7 -> 19        -0.32384
       7 -> 20         0.14865
      11 -> 32         0.16404
      11 -> 33         0.39718

 Excited State  89:      Singlet-A"    17.4177 eV   71.18 nm  f=0.0710  <S**2>=0.000
       8 -> 22         0.63828
      10 -> 26         0.14554
      12 -> 33        -0.15706
      12 -> 34        -0.18414

 Excited State  90:      Singlet-A'    17.5080 eV   70.82 nm  f=0.0531  <S**2>=0.000
       7 -> 19        -0.13870
       7 -> 20         0.49550
       9 -> 26         0.24270
      11 -> 33        -0.15878
      11 -> 34        -0.12331
      12 -> 35        -0.24759

 Excited State  91:      Singlet-A"    17.6192 eV   70.37 nm  f=0.0389  <S**2>=0.000
       8 -> 22        -0.12417
       8 -> 23        -0.28497
      10 -> 26         0.62148

 Excited State  92:      Singlet-A"    17.6420 eV   70.28 nm  f=0.0056  <S**2>=0.000
       8 -> 23         0.64237
      10 -> 26         0.28347

 Excited State  93:      Singlet-A'    17.7879 eV   69.70 nm  f=0.0202  <S**2>=0.000
       8 -> 24        -0.12709
       9 -> 26         0.44389
      11 -> 34         0.49045

 Excited State  94:      Singlet-A'    17.8214 eV   69.57 nm  f=0.0883  <S**2>=0.000
       7 -> 20        -0.20449
       8 -> 24         0.15432
       8 -> 25        -0.15601
       9 -> 26         0.46933
      11 -> 34        -0.36422

 Excited State  95:      Singlet-A'    17.9486 eV   69.08 nm  f=0.0114  <S**2>=0.000
       6 -> 16        -0.11726
       7 -> 21         0.10882
       8 -> 24         0.61504
      11 -> 34         0.15339
      12 -> 35        -0.20422

 Excited State  96:      Singlet-A'    18.0227 eV   68.79 nm  f=0.0160  <S**2>=0.000
       7 -> 21        -0.16327
       8 -> 25         0.63065
      10 -> 27         0.21202

 Excited State  97:      Singlet-A'    18.0882 eV   68.54 nm  f=0.0724  <S**2>=0.000
       6 -> 16        -0.39409
       7 -> 21         0.12025
      10 -> 27         0.44098
      12 -> 35         0.29730

 Excited State  98:      Singlet-A'    18.1393 eV   68.35 nm  f=0.0238  <S**2>=0.000
       6 -> 17        -0.14599
       7 -> 21         0.54367
       8 -> 25         0.19643
      10 -> 27        -0.24325
      12 -> 35         0.24173

 Excited State  99:      Singlet-A'    18.1882 eV   68.17 nm  f=0.0789  <S**2>=0.000
       6 -> 16         0.35840
       6 -> 17         0.11820
       7 -> 21         0.32862
      10 -> 27         0.40185
      12 -> 35        -0.23031

 Excited State 100:      Singlet-A"    18.1998 eV   68.12 nm  f=0.0938  <S**2>=0.000
       9 -> 27         0.69200

 Excited State 101:      Singlet-A"    18.4037 eV   67.37 nm  f=0.0066  <S**2>=0.000
      11 -> 35         0.69370
      12 -> 36         0.10440

 Excited State 102:      Singlet-A'    18.4223 eV   67.30 nm  f=0.0109  <S**2>=0.000
       6 -> 16         0.15942
       6 -> 17         0.59319
      11 -> 36         0.14719
      12 -> 35         0.22678

 Excited State 103:      Singlet-A"    18.5330 eV   66.90 nm  f=0.0002  <S**2>=0.000
      11 -> 35        -0.10422
      12 -> 36         0.69283

 Excited State 104:      Singlet-A"    18.8398 eV   65.81 nm  f=0.0026  <S**2>=0.000
       6 -> 18         0.68686
      10 -> 28         0.10797

 Excited State 105:      Singlet-A'    18.8787 eV   65.67 nm  f=0.0107  <S**2>=0.000
       6 -> 16         0.14708
       6 -> 17        -0.18154
      11 -> 36         0.61414

 Excited State 106:      Singlet-A'    18.9149 eV   65.55 nm  f=0.0631  <S**2>=0.000
       6 -> 16        -0.26505
       6 -> 17         0.18389
       7 -> 21         0.12388
       7 -> 24         0.15401
       8 -> 24        -0.16225
       8 -> 26         0.31666
      10 -> 30        -0.10209
      11 -> 34        -0.10400
      11 -> 36         0.23590
      12 -> 35        -0.21436
      12 -> 38        -0.12511

 Excited State 107:      Singlet-A'    19.0518 eV   65.08 nm  f=0.0756  <S**2>=0.000
       6 -> 16         0.13215
       8 -> 26         0.57495
       9 -> 28        -0.10488
       9 -> 29         0.16563
      11 -> 36        -0.13652
      12 -> 35         0.15403

 Excited State 108:      Singlet-A"    19.0567 eV   65.06 nm  f=0.0325  <S**2>=0.000
       6 -> 18        -0.11501
      10 -> 28         0.68598

 Excited State 109:      Singlet-A'    19.1861 eV   64.62 nm  f=0.0734  <S**2>=0.000
       6 -> 19         0.22304
       8 -> 26         0.11594
       9 -> 28         0.65289

 Excited State 110:      Singlet-A"    19.1864 eV   64.62 nm  f=0.0424  <S**2>=0.000
       7 -> 22         0.69121

 Excited State 111:      Singlet-A'    19.2825 eV   64.30 nm  f=0.0076  <S**2>=0.000

 The electronic state is 1-A'.
 Alpha  occ. eigenvalues --  -19.11598 -14.32003 -10.16084  -1.06695  -0.83969
 Alpha  occ. eigenvalues --   -0.59601  -0.52090  -0.45598  -0.40898  -0.40642
 Alpha  occ. eigenvalues --   -0.27042  -0.26128
 Alpha virt. eigenvalues --   -0.02942   0.01643   0.04507   0.09143   0.09673
 Alpha virt. eigenvalues --    0.11576   0.13166   0.13679   0.16375   0.20408
 Alpha virt. eigenvalues --    0.21499   0.22409   0.22731   0.26397   0.28096

 Mulliken charges:
               1
     1  O   -0.403836
     2  N   -0.043604
     3  C    0.472404
     4  H    0.218586
     5  H   -0.169295
     6  H   -0.074255
 Sum of Mulliken charges =  -0.00000

 Dipole moment (field-independent basis, Debye):
    X=              0.2093    Y=             -0.1399    Z=              0.0000  Tot=              0.2517
 Quadrupole moment (field-independent basis, Debye-Ang):
   XX=            -12.1244   YY=            -19.4905   ZZ=            -19.0629
   XY=             -1.4413   XZ=              0.0000   YZ=              0.0000

 1\1\GINC-HEL12\SP\RTPSSh TD-FC\Gen\C1H3N1O1\SABYASACHI\21-Mar-2022\0\\
 #P TD(Nstates=10000) tpssh/Gen SCF(maxcycles=100) Int(Grid=ultrafine)\
 \xGDB7_00001_tier4.com\\0,1\O,0,-1.028621,-0.395177,0.\N,0,0.,0.526228
 ,0.\C,0,1.132746,-0.030907,0.\H,0,-1.816572,0.151791,0.\H,0,1.994262,0
 .623439,0.\H,0,1.254802,-1.111965,0.\\Version=EM64L-G16RevC.01\State=1
 -A'\HF=-169.7032485\RMSD=2.535e-09\PG=CS [SG(C1H3N1O1)]\\@
 The archive entry for this job was punched.

 Normal termination of Gaussian 16 at Mon Mar 21 20:00:17 2022.
