 Gaussian 16, Revision C.01,
 Gaussian 16:  EM64L-G16RevC.01  3-Jul-2019

 ---------------------------------------------------------------------
 #P TD(Nstates=10000) tpssh/Gen SCF(maxcycles=100) Int(Grid=ultrafine)
 ---------------------------------------------------------------------

 ---------------------
 xGDB7_00001_tier4.com
 ---------------------
 Symbolic Z-matrix:
 Charge =  0 Multiplicity = 1

                         Standard orientation:
 ---------------------------------------------------------------------
 Center     Atomic      Atomic             Coordinates (Angstroms)
 Number     Number       Type             X           Y           Z
 ---------------------------------------------------------------------
      1          6           0        0.000000    0.000000    0.597322
      2          6           0        0.000000    0.000000   -0.597322
      3          1           0        0.000000    0.000000    1.661338
      4          1           0        0.000000    0.000000   -1.661338
 ---------------------------------------------------------------------

 SCF Done:  E(RTPSSh) =  -77.2783438885     A.U. after   11 cycles

 Excitation energies and oscillator strengths:

 Excited state symmetry could not be determined.
 Excited State   1:      Singlet-?Sym    7.1970 eV  172.27 nm  f=0.0000  <S**2>=0.000
       6 ->  8        -0.49970
       7 ->  9         0.49970
 This state for optimization and/or second-order correction.
 Total Energy, E(TD-HF/TD-DFT) =  -77.0138575593
 Copying the excited state density for this state as the 1-particle RhoCI density.

 Excited state symmetry could not be determined.
 Excited State   2:      Singlet-?Sym    7.2361 eV  171.34 nm  f=0.0000  <S**2>=0.000
       6 ->  9        -0.49983
       7 ->  8         0.49983

 Excited state symmetry could not be determined.
 Excited State   3:      Singlet-?Sym    7.2361 eV  171.34 nm  f=0.0000  <S**2>=0.000
       6 ->  8         0.49983
       7 ->  9         0.49983

 Excited state symmetry could not be determined.
 Excited State   4:      Singlet-?Sym    8.2969 eV  149.43 nm  f=0.0939  <S**2>=0.000
       6 -> 10         0.70322

 Excited state symmetry could not be determined.
 Excited State   5:      Singlet-?Sym    8.2969 eV  149.43 nm  f=0.0939  <S**2>=0.000
       7 -> 10         0.70322

 Excited state symmetry could not be determined.
 Excited State   6:      Singlet-?Sym    8.5760 eV  144.57 nm  f=0.0000  <S**2>=0.000
       6 -> 11         0.55753
       7 -> 11        -0.43400

 Excited state symmetry could not be determined.
 Excited State   7:      Singlet-?Sym    8.5760 eV  144.57 nm  f=0.0000  <S**2>=0.000
       6 -> 11         0.43400
       7 -> 11         0.55753

 Excited state symmetry could not be determined.
 Excited State   8:      Singlet-?Sym    9.9880 eV  124.13 nm  f=0.0464  <S**2>=0.000
       6 -> 12         0.68046
       7 -> 12        -0.18312

 Excited state symmetry could not be determined.
 Excited State   9:      Singlet-?Sym    9.9880 eV  124.13 nm  f=0.0464  <S**2>=0.000
       6 -> 12         0.18312
       7 -> 12         0.68046

 Excited state symmetry could not be determined.
 Excited State  10:      Singlet-?Sym   10.4293 eV  118.88 nm  f=0.8171  <S**2>=0.000
       6 ->  9         0.47095
       6 -> 18         0.16189
       7 ->  8         0.47095
       7 -> 19         0.16189

 Excited state symmetry could not be determined.
 Excited State  11:      Singlet-?Sym   11.5771 eV  107.09 nm  f=0.0000  <S**2>=0.000
       5 ->  8        -0.12248
       7 -> 13         0.69021

 Excited state symmetry could not be determined.
 Excited State  12:      Singlet-?Sym   11.5771 eV  107.09 nm  f=0.0000  <S**2>=0.000
       5 ->  9        -0.12248
       6 -> 13         0.69021

 Excited state symmetry could not be determined.
 Excited State  13:      Singlet-?Sym   11.7517 eV  105.50 nm  f=0.0000  <S**2>=0.000
       6 -> 14         0.49975
       7 -> 15        -0.49975

 Excited state symmetry could not be determined.
 Excited State  14:      Singlet-?Sym   11.7517 eV  105.50 nm  f=0.0000  <S**2>=0.000
       6 -> 15         0.49975
       7 -> 14         0.49975

 Excited state symmetry could not be determined.
 Excited State  15:      Singlet-?Sym   11.8429 eV  104.69 nm  f=0.0000  <S**2>=0.000
       6 -> 15        -0.49996
       7 -> 14         0.49996

 Excited state symmetry could not be determined.
 Excited State  16:      Singlet-?Sym   12.5336 eV   98.92 nm  f=0.0000  <S**2>=0.000
       5 -> 12        -0.15252
       6 -> 14         0.47906
       7 -> 15         0.47906

 Excited state symmetry could not be determined.
 Excited State  17:      Singlet-?Sym   12.8139 eV   96.76 nm  f=0.0000  <S**2>=0.000
       5 ->  8         0.60311
       5 ->  9         0.34053
       7 -> 13         0.10564

 Excited state symmetry could not be determined.
 Excited State  18:      Singlet-?Sym   12.8139 eV   96.76 nm  f=0.0000  <S**2>=0.000
       5 ->  8        -0.34053
       5 ->  9         0.60311
       6 -> 13         0.10564

 Excited state symmetry could not be determined.
 Excited State  19:      Singlet-?Sym   13.1741 eV   94.11 nm  f=0.0000  <S**2>=0.000
       6 -> 16         0.33027
       6 -> 17        -0.37549
       7 -> 16         0.37549
       7 -> 17         0.33027

 Excited state symmetry could not be determined.
 Excited State  20:      Singlet-?Sym   13.1741 eV   94.11 nm  f=0.0000  <S**2>=0.000
       6 -> 16         0.37549
       6 -> 17         0.33027
       7 -> 16        -0.33027
       7 -> 17         0.37549

 Excited State  21:      Singlet-SGG   13.8259 eV   89.68 nm  f=0.0000  <S**2>=0.000
       5 -> 10         0.69978

 Excited state symmetry could not be determined.
 Excited State  22:      Singlet-?Sym   13.8910 eV   89.25 nm  f=0.2228  <S**2>=0.000
       4 ->  8        -0.29695
       6 -> 16         0.45250
       7 -> 17        -0.45250

 Excited state symmetry could not be determined.
 Excited State  23:      Singlet-?Sym   13.8910 eV   89.25 nm  f=0.2228  <S**2>=0.000
       4 ->  9        -0.29695
       6 -> 17         0.45250
       7 -> 16         0.45250

 Excited State  24:      Singlet-SGU   13.9735 eV   88.73 nm  f=0.3618  <S**2>=0.000
       5 -> 11         0.70147

 Excited state symmetry could not be determined.
 Excited State  25:      Singlet-?Sym   14.1271 eV   87.76 nm  f=0.0000  <S**2>=0.000
       6 -> 18         0.49951
       7 -> 19        -0.49951

 Excited state symmetry could not be determined.
 Excited State  26:      Singlet-?Sym   14.1271 eV   87.76 nm  f=0.0000  <S**2>=0.000
       6 -> 19         0.49951
       7 -> 18         0.49951

 Excited state symmetry could not be determined.
 Excited State  27:      Singlet-?Sym   14.1831 eV   87.42 nm  f=0.0000  <S**2>=0.000
       6 -> 19        -0.49950
       7 -> 18         0.49950

 Excited State  28:      Singlet-SGU   15.2953 eV   81.06 nm  f=0.0560  <S**2>=0.000
       4 -> 10         0.46611
       6 -> 18         0.35181
       7 -> 19         0.35181

 Excited state symmetry could not be determined.
 Excited State  29:      Singlet-?Sym   15.6791 eV   79.08 nm  f=0.2827  <S**2>=0.000
       4 ->  8         0.19347
       4 ->  9         0.52244
       6 -> 17         0.16290
       6 -> 20        -0.29801
       6 -> 22         0.12011
       7 -> 16         0.16290
       7 -> 20        -0.11036

 Excited state symmetry could not be determined.
 Excited State  30:      Singlet-?Sym   15.6791 eV   79.08 nm  f=0.2827  <S**2>=0.000
       4 ->  8         0.52244
       4 ->  9        -0.19347
       6 -> 16         0.16290
       6 -> 20         0.11036
       7 -> 17        -0.16290
       7 -> 20        -0.29801
       7 -> 22         0.12011

 Excited State  31:      Singlet-SGG   15.7495 eV   78.72 nm  f=0.0000  <S**2>=0.000
       4 -> 11        -0.43476
       5 -> 12         0.55079

 Excited State  32:      Singlet-SGU   16.0754 eV   77.13 nm  f=0.0017  <S**2>=0.000
       4 -> 10         0.51043
       4 -> 12         0.13882
       5 -> 13         0.18569
       6 ->  9         0.10387
       6 -> 18        -0.26736
       7 ->  8         0.10387
       7 -> 19        -0.26736

 Excited state symmetry could not be determined.
 Excited State  33:      Singlet-?Sym   16.2150 eV   76.46 nm  f=0.4084  <S**2>=0.000
       4 ->  8         0.19606
       4 ->  9        -0.16836
       6 -> 20        -0.40792
       7 -> 20         0.47503

 Excited state symmetry could not be determined.
 Excited State  34:      Singlet-?Sym   16.2150 eV   76.46 nm  f=0.4084  <S**2>=0.000
       4 ->  8         0.16836
       4 ->  9         0.19606
       6 -> 20         0.47503
       7 -> 20         0.40792

 Excited state symmetry could not be determined.
 Excited State  35:      Singlet-?Sym   16.2809 eV   76.15 nm  f=0.0000  <S**2>=0.000
       6 -> 21         0.11823
       7 -> 21         0.68856

 Excited state symmetry could not be determined.
 Excited State  36:      Singlet-?Sym   16.2809 eV   76.15 nm  f=0.0000  <S**2>=0.000
       6 -> 21         0.68856
       7 -> 21        -0.11823

 Excited State  37:      Singlet-SGG   16.3602 eV   75.78 nm  f=0.0000  <S**2>=0.000
       4 -> 11         0.53354
       5 -> 12         0.39014
       6 -> 14         0.10060
       6 -> 25         0.10611
       7 -> 15         0.10060
       7 -> 26         0.10611

 Excited state symmetry could not be determined.
 Excited State  38:      Singlet-?Sym   17.0738 eV   72.62 nm  f=0.0363  <S**2>=0.000
       5 -> 14         0.33165
       5 -> 15        -0.31291
       6 -> 22         0.39084
       7 -> 22        -0.36875

 Excited state symmetry could not be determined.
 Excited State  39:      Singlet-?Sym   17.0738 eV   72.62 nm  f=0.0363  <S**2>=0.000
       5 -> 14         0.31291
       5 -> 15         0.33165
       6 -> 22         0.36875
       7 -> 22         0.39084

 Excited state symmetry could not be determined.
 Excited State  40:      Singlet-?Sym   17.0873 eV   72.56 nm  f=0.0000  <S**2>=0.000
       6 -> 23         0.15468
       6 -> 24        -0.47549
       7 -> 23         0.47549
       7 -> 24         0.15468

 Excited state symmetry could not be determined.
 Excited State  41:      Singlet-?Sym   17.0873 eV   72.56 nm  f=0.0000  <S**2>=0.000
       6 -> 23         0.47549
       6 -> 24         0.15468
       7 -> 23        -0.15468
       7 -> 24         0.47549

 Excited state symmetry could not be determined.
 Excited State  42:      Singlet-?Sym   17.3673 eV   71.39 nm  f=0.3572  <S**2>=0.000
       4 ->  8         0.10846
       4 ->  9         0.12793
       5 -> 14         0.39233
       5 -> 15         0.33264
       6 -> 22        -0.32697
       7 -> 22        -0.27722

 Excited state symmetry could not be determined.
 Excited State  43:      Singlet-?Sym   17.3673 eV   71.39 nm  f=0.3572  <S**2>=0.000
       4 ->  8         0.12793
       4 ->  9        -0.10846
       5 -> 14        -0.33264
       5 -> 15         0.39233
       6 -> 22         0.27722
       7 -> 22        -0.32697

 Excited state symmetry could not be determined.
 Excited State  44:      Singlet-?Sym   17.4191 eV   71.18 nm  f=0.0000  <S**2>=0.000
       6 -> 23        -0.49189
       7 -> 24         0.49189

 Excited state symmetry could not be determined.
 Excited State  45:      Singlet-?Sym   17.4191 eV   71.18 nm  f=0.0000  <S**2>=0.000
       6 -> 24         0.49189
       7 -> 23         0.49189

 Excited State  46:      Singlet-SGU   17.4285 eV   71.14 nm  f=0.1017  <S**2>=0.000
       4 -> 12         0.66148
       6 -> 29        -0.11981
       7 -> 28        -0.11981

 Excited State  47:      Singlet-SGU   17.5435 eV   70.67 nm  f=0.6580  <S**2>=0.000
       4 -> 12        -0.14845
       5 -> 13         0.66139

 Excited state symmetry could not be determined.
 Excited State  48:      Singlet-?Sym   17.6082 eV   70.41 nm  f=0.0000  <S**2>=0.000
       6 -> 26         0.49911
       7 -> 25         0.49911

 Excited state symmetry could not be determined.
 Excited State  49:      Singlet-?Sym   17.6082 eV   70.41 nm  f=0.0000  <S**2>=0.000
       6 -> 25         0.49911
       7 -> 26        -0.49911

 Excited state symmetry could not be determined.
 Excited State  50:      Singlet-?Sym   18.0358 eV   68.74 nm  f=0.0000  <S**2>=0.000
       6 -> 26        -0.49996
       7 -> 25         0.49996

 Excited state symmetry could not be determined.
 Excited State  51:      Singlet-?Sym   18.1169 eV   68.44 nm  f=0.0000  <S**2>=0.000
       4 -> 11        -0.11197
       6 -> 25         0.47424
       7 -> 26         0.47424

 Excited state symmetry could not be determined.
 Excited State  52:      Singlet-?Sym   18.4711 eV   67.12 nm  f=0.0000  <S**2>=0.000
       7 -> 27         0.69374

 Excited state symmetry could not be determined.
 Excited State  53:      Singlet-?Sym   18.4711 eV   67.12 nm  f=0.0000  <S**2>=0.000
       6 -> 27         0.69374

 Excited state symmetry could not be determined.
 Excited State  54:      Singlet-?Sym   18.8472 eV   65.78 nm  f=0.0000  <S**2>=0.000
       6 -> 28         0.49922
       7 -> 29         0.49922

 Excited state symmetry could not be determined.
 Excited State  55:      Singlet-?Sym   18.8472 eV   65.78 nm  f=0.0000  <S**2>=0.000
       6 -> 29        -0.49922
       7 -> 28         0.49922

 Excited state symmetry could not be determined.
 Excited State  56:      Singlet-?Sym   18.9216 eV   65.53 nm  f=0.0000  <S**2>=0.000
       4 -> 14         0.59993
       4 -> 15         0.16684
       5 -> 18         0.31431

 Excited state symmetry could not be determined.
 Excited State  57:      Singlet-?Sym   18.9216 eV   65.53 nm  f=0.0000  <S**2>=0.000
       4 -> 14        -0.16684
       4 -> 15         0.59993
       5 -> 19         0.31431

 Excited state symmetry could not be determined.
 Excited State  58:      Singlet-?Sym   18.9706 eV   65.36 nm  f=0.0000  <S**2>=0.000
       5 -> 16         0.70598

 Excited state symmetry could not be determined.
 Excited State  59:      Singlet-?Sym   18.9706 eV   65.36 nm  f=0.0000  <S**2>=0.000
       5 -> 17         0.70598

 Excited state symmetry could not be determined.
 Excited State  60:      Singlet-?Sym   18.9997 eV   65.26 nm  f=0.0000  <S**2>=0.000
       6 -> 28         0.49980
       7 -> 29        -0.49980

 Excited state symmetry could not be determined.
 Excited State  61:      Singlet-?Sym   19.2740 eV   64.33 nm  f=0.0189  <S**2>=0.000
       3 -> 11        -0.17573
       4 -> 12         0.10765
       6 -> 29         0.45470
       7 -> 28         0.45470

 Excited State  62:      Singlet-SGG   19.3126 eV   64.20 nm  f=0.0000  <S**2>=0.000
       4 -> 13         0.68367

 Excited state symmetry could not be determined.
 Excited State  63:      Singlet-?Sym   19.5140 eV   63.54 nm  f=0.0000  <S**2>=0.000
       3 ->  9         0.11119
       4 -> 14        -0.27570
       4 -> 15        -0.18655
       5 -> 18         0.50306
       5 -> 19         0.34039

 Excited state symmetry could not be determined.
 Excited State  64:      Singlet-?Sym   19.5140 eV   63.54 nm  f=0.0000  <S**2>=0.000
       3 ->  8         0.11119
       4 -> 14         0.18655
       4 -> 15        -0.27570
       5 -> 18        -0.34039
       5 -> 19         0.50306

 Excited state symmetry could not be determined.
 Excited State  65:      Singlet-?Sym   19.9717 eV   62.08 nm  f=0.0000  <S**2>=0.000
       3 ->  8        -0.44515
       3 ->  9         0.50645
       5 -> 18        -0.11541
       5 -> 19         0.10144

 Excited state symmetry could not be determined.
 Excited State  66:      Singlet-?Sym   19.9717 eV   62.08 nm  f=0.0000  <S**2>=0.000
       3 ->  8         0.50645
       3 ->  9         0.44515
       5 -> 18        -0.10144
       5 -> 19        -0.11541

 Excited State  67:      Singlet-SGG   20.4481 eV   60.63 nm  f=0.0000  <S**2>=0.000
       3 -> 10         0.69957

 Excited state symmetry could not be determined.
 Excited State  68:      Singlet-?Sym   20.8635 eV   59.43 nm  f=0.0000  <S**2>=0.000
       4 -> 16         0.70419

 Excited state symmetry could not be determined.
 Excited State  69:      Singlet-?Sym   20.8635 eV   59.43 nm  f=0.0000  <S**2>=0.000
       4 -> 17         0.70419

 Excited State  70:      Singlet-SGU   20.8886 eV   59.35 nm  f=0.0085  <S**2>=0.000
       3 -> 11         0.67220

 Excited state symmetry could not be determined.
 Excited State  71:      Singlet-?Sym   21.5173 eV   57.62 nm  f=0.0032  <S**2>=0.000
       4 -> 18         0.43178
       4 -> 19         0.55048

 Excited state symmetry could not be determined.
 Excited State  72:      Singlet-?Sym   21.5173 eV   57.62 nm  f=0.0032  <S**2>=0.000
       4 -> 18         0.55048
       4 -> 19        -0.43178

 Excited State  73:      Singlet-SGU   21.7086 eV   57.11 nm  f=0.2838  <S**2>=0.000
       5 -> 21         0.70085

 Excited State  74:      Singlet-SGG   21.7750 eV   56.94 nm  f=0.0000  <S**2>=0.000
       3 -> 12        -0.13555
       5 -> 20         0.68681

 Excited State  75:      Singlet-SGG   22.3152 eV   55.56 nm  f=0.0000  <S**2>=0.000
       3 -> 12         0.68120
       5 -> 20         0.13345
       5 -> 22         0.12145

 Excited state symmetry could not be determined.
 Excited State  76:      Singlet-?Sym   22.7280 eV   54.55 nm  f=0.0000  <S**2>=0.000
       5 -> 23         0.70484

 Excited state symmetry could not be determined.
 Excited State  77:      Singlet-?Sym   22.7280 eV   54.55 nm  f=0.0000  <S**2>=0.000
       5 -> 24         0.70484

 Excited State  78:      Singlet-SGG   22.8908 eV   54.16 nm  f=0.0000  <S**2>=0.000
       3 -> 12        -0.10810
       4 -> 21        -0.14453
       5 -> 22         0.66024
       6 -> 32        -0.10018
       7 -> 33        -0.10018

 Excited state symmetry could not be determined.
 Excited State  79:      Singlet-?Sym   23.5771 eV   52.59 nm  f=0.1554  <S**2>=0.000
       5 -> 25         0.54350
       5 -> 26         0.42533

 Excited state symmetry could not be determined.
 Excited State  80:      Singlet-?Sym   23.5771 eV   52.59 nm  f=0.1554  <S**2>=0.000
       5 -> 25        -0.42533
       5 -> 26         0.54350

 Excited State  81:      Singlet-SGU   23.6046 eV   52.53 nm  f=0.0023  <S**2>=0.000
       3 -> 13         0.20062
       4 -> 20         0.64832
       5 -> 27         0.19285

 Excited State  82:      Singlet-SGU   23.8275 eV   52.03 nm  f=0.0176  <S**2>=0.000
       3 -> 13         0.63121
       4 -> 20        -0.13345
       4 -> 22         0.20311
       5 -> 27        -0.18977

 Excited State  83:      Singlet-SGG   23.8279 eV   52.03 nm  f=0.0000  <S**2>=0.000
       4 -> 21         0.67742
       5 -> 22         0.10380
       6 -> 32        -0.10004
       7 -> 33        -0.10004

 Excited state symmetry could not be determined.
 Excited State  84:      Singlet-?Sym   24.1266 eV   51.39 nm  f=0.0004  <S**2>=0.000
       3 -> 14         0.66917
       3 -> 15         0.17941
       5 -> 25        -0.11434

 Excited state symmetry could not be determined.
 Excited State  85:      Singlet-?Sym   24.1266 eV   51.39 nm  f=0.0004  <S**2>=0.000
       3 -> 14        -0.17941
       3 -> 15         0.66917
       5 -> 26        -0.11434

 Excited state symmetry could not be determined.
 Excited State  86:      Singlet-?Sym   24.2885 eV   51.05 nm  f=0.0000  <S**2>=0.000
       5 -> 28         0.70544

 Excited state symmetry could not be determined.
 Excited State  87:      Singlet-?Sym   24.2885 eV   51.05 nm  f=0.0000  <S**2>=0.000
       5 -> 29         0.70544

 Excited State  88:      Singlet-SGU   24.5525 eV   50.50 nm  f=0.2439  <S**2>=0.000
       4 -> 22         0.57856
       5 -> 27         0.38456

 Excited state symmetry could not be determined.
 Excited State  89:      Singlet-?Sym   24.5574 eV   50.49 nm  f=0.0000  <S**2>=0.000
       6 -> 30         0.69983

 Excited state symmetry could not be determined.
 Excited State  90:      Singlet-?Sym   24.5574 eV   50.49 nm  f=0.0000  <S**2>=0.000
       7 -> 30         0.69983

 Excited state symmetry could not be determined.
 Excited State  91:      Singlet-?Sym   24.6120 eV   50.38 nm  f=0.0000  <S**2>=0.000
       4 -> 23         0.70514

 Excited state symmetry could not be determined.
 Excited State  92:      Singlet-?Sym   24.6120 eV   50.38 nm  f=0.0000  <S**2>=0.000
       4 -> 24         0.70514

 Excited State  93:      Singlet-SGU   25.1387 eV   49.32 nm  f=0.0231  <S**2>=0.000
       3 -> 13         0.19254
       4 -> 20        -0.20960
       4 -> 22        -0.33858
       5 -> 27         0.49680

 Excited state symmetry could not be determined.
 Excited State  94:      Singlet-?Sym   25.4827 eV   48.65 nm  f=0.0000  <S**2>=0.000
       3 -> 18         0.17558
       4 -> 25         0.68092

 Excited state symmetry could not be determined.
 Excited State  95:      Singlet-?Sym   25.4827 eV   48.65 nm  f=0.0000  <S**2>=0.000
       3 -> 19         0.17558
       4 -> 26         0.68092

 Excited state symmetry could not be determined.
 Excited State  96:      Singlet-?Sym   25.6707 eV   48.30 nm  f=0.0000  <S**2>=0.000
       3 -> 16         0.70000

 Excited state symmetry could not be determined.
 Excited State  97:      Singlet-?Sym   25.6707 eV   48.30 nm  f=0.0000  <S**2>=0.000
       3 -> 17         0.70000

 Excited state symmetry could not be determined.
 Excited State  98:      Singlet-?Sym   26.0711 eV   47.56 nm  f=0.0191  <S**2>=0.000
       4 -> 28        -0.36875
       7 -> 31         0.60063

 Excited state symmetry could not be determined.
 Excited State  99:      Singlet-?Sym   26.0711 eV   47.56 nm  f=0.0191  <S**2>=0.000
       4 -> 29        -0.36875
       6 -> 31         0.60063

 Excited state symmetry could not be determined.
 Excited State 100:      Singlet-?Sym   26.2860 eV   47.17 nm  f=0.0055  <S**2>=0.000
       4 -> 28         0.60196
       7 -> 31         0.36342

 Excited state symmetry could not be determined.
 Excited State 101:      Singlet-?Sym   26.2860 eV   47.17 nm  f=0.0055  <S**2>=0.000
       4 -> 29         0.60196
       6 -> 31         0.36342

 Excited State 102:      Singlet-SGG   26.3020 eV   47.14 nm  f=0.0000  <S**2>=0.000
       4 -> 27         0.69982

 Excited state symmetry could not be determined.
 Excited State 103:      Singlet-?Sym   26.5118 eV   46.77 nm  f=0.0000  <S**2>=0.000
       3 -> 18         0.58670
       3 -> 19        -0.34696
       4 -> 25        -0.14399

 Excited state symmetry could not be determined.
 Excited State 104:      Singlet-?Sym   26.5118 eV   46.77 nm  f=0.0000  <S**2>=0.000
       3 -> 18         0.34696
       3 -> 19         0.58670
       4 -> 26        -0.14399

 Excited state symmetry could not be determined.
 Excited State 105:      Singlet-?Sym   26.7580 eV   46.34 nm  f=0.0000  <S**2>=0.000
       6 -> 32         0.49476
       7 -> 33        -0.49476

 Excited state symmetry could not be determined.
 Excited State 106:      Singlet-?Sym   26.7580 eV   46.34 nm  f=0.0000  <S**2>=0.000
       6 -> 33         0.49476
       7 -> 32         0.49476

 Excited state symmetry could not be determined.
 Excited State 107:      Singlet-?Sym   27.1526 eV   45.66 nm  f=0.0000  <S**2>=0.000
       6 -> 33        -0.49994
       7 -> 32         0.49994

 Excited State 108:      Singlet-SGG   28.1081 eV   44.11 nm  f=0.0000  <S**2>=0.000
       3 -> 20         0.61075
       6 -> 32        -0.23989
       7 -> 33        -0.23989

 Excited State 109:      Singlet-SGU   28.5996 eV   43.35 nm  f=0.0041  <S**2>=0.000
       3 -> 21         0.68868

 Excited State 110:      Singlet-SGG   29.2295 eV   42.42 nm  f=0.0000  <S**2>=0.000
       3 -> 20         0.16186
       3 -> 22         0.64381
       5 -> 31        -0.10630
       6 -> 32         0.14136
       7 -> 33         0.14136

 Excited state symmetry could not be determined.
 Excited State 111:      Singlet-?Sym   29.4183 eV   42.15 nm  f=0.0000  <S**2>=0.000
       3 -> 23         0.70655

 Excited state symmetry could not be determined.
 Excited State 112:      Singlet-?Sym   29.4183 eV   42.15 nm  f=0.0000  <S**2>=0.000
       3 -> 24         0.70655

 Excited state symmetry could not be determined.

 The electronic state is 1-SGG.
 Alpha  occ. eigenvalues --  -10.13467 -10.13219  -0.72620  -0.54952  -0.47988
 Alpha  occ. eigenvalues --   -0.28247  -0.28247
 Alpha virt. eigenvalues --    0.01802   0.01802   0.04252   0.05112   0.10789
 Alpha virt. eigenvalues --    0.16428   0.17530   0.17530   0.24380   0.24380
 Alpha virt. eigenvalues --    0.26398   0.26398   0.33552   0.33628   0.36962

 Mulliken charges:
               1
     1  C    0.106759
     2  C    0.106759
     3  H   -0.106759
     4  H   -0.106759
 Sum of Mulliken charges =  -0.00000

 Dipole moment (field-independent basis, Debye):
    X=             -0.0000    Y=             -0.0000    Z=              0.0000  Tot=              0.0000
 Quadrupole moment (field-independent basis, Debye-Ang):
   XX=            -13.3928   YY=            -13.3928   ZZ=             -7.2231
   XY=             -0.0000   XZ=              0.0000   YZ=              0.0000

 Normal termination of Gaussian 16 at Mon Mar 21 20:00:32 2022.
