 Gaussian 16, Revision C.01,
 Gaussian 16:  EM64L-G16RevC.01  3-Jul-2019

 ---------------------------------------------------------------------
 #P TD(Nstates=10000) tpssh/Gen SCF(maxcycles=100) Int(Grid=ultrafine)
 ---------------------------------------------------------------------

 ---------------------
 xGDB7_00001_tier4.com
 ---------------------
 Symbolic Z-matrix:
 Charge =  0 Multiplicity = 1

                         Standard orientation:
 ---------------------------------------------------------------------
 Center     Atomic      Atomic             Coordinates (Angstroms)
 Number     Number       Type             X           Y           Z
 ---------------------------------------------------------------------
      1          7           0       -0.000002   -0.000000   -0.110463
      2          1           0       -0.147185    0.930214    0.257758
      3          1           0       -0.731998   -0.592574    0.257757
      4          1           0        0.879196   -0.337638    0.257728
 ---------------------------------------------------------------------

 SCF Done:  E(RTPSSh) =  -56.5200147399     A.U. after    9 cycles

 Excitation energies and oscillator strengths:

 Excited State   1:      Singlet-A      6.8902 eV  179.94 nm  f=0.0841  <S**2>=0.000
       5 ->  6         0.70660
 This state for optimization and/or second-order correction.
 Total Energy, E(TD-HF/TD-DFT) =  -56.2668048446
 Copying the excited state density for this state as the 1-particle RhoCI density.

 Excited State   2:      Singlet-A      9.0414 eV  137.13 nm  f=0.0202  <S**2>=0.000
       5 ->  7         0.70509

 Excited State   3:      Singlet-A      9.0414 eV  137.13 nm  f=0.0202  <S**2>=0.000
       5 ->  8         0.70509

 Excited State   4:      Singlet-A     10.6743 eV  116.15 nm  f=0.0004  <S**2>=0.000
       5 ->  9         0.70663

 Excited State   5:      Singlet-A     10.6743 eV  116.15 nm  f=0.0004  <S**2>=0.000
       5 -> 10         0.70663

 Excited State   6:      Singlet-A     11.4818 eV  107.98 nm  f=0.0310  <S**2>=0.000
       3 ->  7        -0.10943
       4 ->  8        -0.10943
       5 -> 11         0.67957

 Excited State   7:      Singlet-A     12.2577 eV  101.15 nm  f=0.0243  <S**2>=0.000
       4 ->  6         0.59544
       5 -> 13        -0.37685

 Excited State   8:      Singlet-A     12.2577 eV  101.15 nm  f=0.0243  <S**2>=0.000
       3 ->  6         0.59533
       5 -> 12        -0.37701

 Excited State   9:      Singlet-A     12.4229 eV   99.80 nm  f=0.2497  <S**2>=0.000
       4 ->  6         0.37545
       5 -> 12        -0.14820
       5 -> 13         0.57019

 Excited State  10:      Singlet-A     12.4229 eV   99.80 nm  f=0.2498  <S**2>=0.000
       3 ->  6         0.37561
       5 -> 12         0.57009
       5 -> 13         0.14821

 Excited State  11:      Singlet-A     12.4687 eV   99.44 nm  f=0.1905  <S**2>=0.000
       3 ->  7         0.10504
       4 ->  8         0.10504
       5 -> 14         0.68423

 Excited State  12:      Singlet-A     14.3489 eV   86.41 nm  f=0.0000  <S**2>=0.000
       3 ->  7         0.13213
       3 ->  8        -0.48063
       4 ->  7         0.48206
       4 ->  8         0.13239

 Excited State  13:      Singlet-A     14.3779 eV   86.23 nm  f=0.0774  <S**2>=0.000
       3 ->  7        -0.23251
       3 ->  8         0.43806
       4 ->  7         0.43671
       4 ->  8         0.23214

 Excited State  14:      Singlet-A     14.3779 eV   86.23 nm  f=0.0774  <S**2>=0.000
       3 ->  7        -0.43732
       3 ->  8        -0.23253
       4 ->  7        -0.23211
       4 ->  8         0.43745

 Excited State  15:      Singlet-A     15.6571 eV   79.19 nm  f=0.0001  <S**2>=0.000
       3 ->  7         0.28112
       4 ->  8         0.28111
       5 -> 11         0.11114
       5 -> 15         0.53496

 Excited State  16:      Singlet-A     15.8479 eV   78.23 nm  f=0.0000  <S**2>=0.000
       3 ->  9        -0.47921
       4 -> 10         0.47925
       5 -> 16        -0.19722

 Excited State  17:      Singlet-A     16.0074 eV   77.45 nm  f=0.0000  <S**2>=0.000
       3 ->  9        -0.13909
       4 -> 10         0.13911
       5 -> 16         0.67899

 Excited State  18:      Singlet-A     16.0319 eV   77.34 nm  f=0.0748  <S**2>=0.000
       3 ->  7        -0.28766
       3 -> 10        -0.21069
       4 ->  8        -0.28765
       4 ->  9        -0.21074
       5 -> 11        -0.10213
       5 -> 15         0.44641

 Excited State  19:      Singlet-A     16.1604 eV   76.72 nm  f=0.0117  <S**2>=0.000
       3 ->  7        -0.19003
       3 -> 10         0.44408
       4 ->  8        -0.19002
       4 ->  9         0.44421
       5 -> 15         0.11550

 Excited State  20:      Singlet-A     16.2969 eV   76.08 nm  f=0.0025  <S**2>=0.000
       3 -> 10        -0.19904
       4 ->  9         0.19891
       4 -> 11         0.63916

 Excited State  21:      Singlet-A     16.2970 eV   76.08 nm  f=0.0025  <S**2>=0.000
       3 ->  9        -0.19899
       3 -> 11         0.63915
       4 -> 10        -0.19898

 Excited State  22:      Singlet-A     16.4125 eV   75.54 nm  f=0.1601  <S**2>=0.000
       3 -> 10         0.30120
       4 ->  9        -0.30111
       4 -> 11         0.23845
       5 -> 17         0.49915

 Excited State  23:      Singlet-A     16.4125 eV   75.54 nm  f=0.1601  <S**2>=0.000
       3 ->  9        -0.30117
       3 -> 11        -0.23849
       4 -> 10        -0.30113
       5 -> 18         0.49914

 Excited State  24:      Singlet-A     16.8797 eV   73.45 nm  f=0.2002  <S**2>=0.000
       3 -> 10        -0.31177
       4 ->  9         0.31173
       4 -> 11        -0.14495
       4 -> 14         0.15238
       5 -> 17         0.47545

 Excited State  25:      Singlet-A     16.8797 eV   73.45 nm  f=0.2003  <S**2>=0.000
       3 ->  9         0.31176
       3 -> 11         0.14492
       3 -> 14        -0.15236
       4 -> 10         0.31174
       5 -> 18         0.47546

 Excited State  26:      Singlet-A     17.6241 eV   70.35 nm  f=0.0055  <S**2>=0.000
       3 -> 12        -0.45145
       3 -> 13        -0.13186
       4 -> 12        -0.13195
       4 -> 13         0.45153
       4 -> 14         0.23214

 Excited State  27:      Singlet-A     17.6241 eV   70.35 nm  f=0.0055  <S**2>=0.000
       3 -> 12        -0.13187
       3 -> 13         0.45132
       3 -> 14        -0.23217
       4 -> 12         0.45165
       4 -> 13         0.13192

 Excited State  28:      Singlet-A     17.7714 eV   69.77 nm  f=0.0000  <S**2>=0.000
       3 -> 13         0.49743
       4 -> 12        -0.49721

 Excited State  29:      Singlet-A     17.8323 eV   69.53 nm  f=0.0849  <S**2>=0.000
       3 -> 12         0.15267
       4 -> 13        -0.15264
       4 -> 14         0.63561
       5 -> 20        -0.13047

 Excited State  30:      Singlet-A     17.8324 eV   69.53 nm  f=0.0849  <S**2>=0.000
       3 -> 13         0.15281
       3 -> 14         0.63560
       4 -> 12         0.15252
       5 -> 19        -0.13047

 Excited State  31:      Singlet-A     17.9543 eV   69.06 nm  f=0.2699  <S**2>=0.000
       3 -> 12         0.48675
       4 -> 13         0.48668
       5 -> 21         0.11545

 Excited State  32:      Singlet-A     19.0561 eV   65.06 nm  f=0.1121  <S**2>=0.000
       4 -> 14         0.10766
       5 -> 20         0.68228

 Excited State  33:      Singlet-A     19.0561 eV   65.06 nm  f=0.1121  <S**2>=0.000
       3 -> 14         0.10766
       5 -> 19         0.68227

 Excited State  34:      Singlet-A     21.2459 eV   58.36 nm  f=0.0399  <S**2>=0.000
       3 -> 16        -0.27840
       4 -> 15         0.64716

 Excited State  35:      Singlet-A     21.2459 eV   58.36 nm  f=0.0398  <S**2>=0.000
       3 -> 15         0.64692
       4 -> 16         0.27897

 Excited State  36:      Singlet-A     21.2606 eV   58.32 nm  f=0.2575  <S**2>=0.000
       2 ->  6         0.10571
       3 -> 18        -0.14708
       4 -> 17         0.14714
       5 -> 21         0.64792

 Excited State  37:      Singlet-A     21.3088 eV   58.18 nm  f=0.0153  <S**2>=0.000
       3 -> 15        -0.27219
       4 -> 16         0.64230
       5 -> 22        -0.11277

 Excited State  38:      Singlet-A     21.3088 eV   58.18 nm  f=0.0152  <S**2>=0.000
       3 -> 16         0.64255
       4 -> 15         0.27163
       5 -> 23         0.11273

 Excited State  39:      Singlet-A     21.3574 eV   58.05 nm  f=0.0630  <S**2>=0.000
       3 -> 17         0.15201
       4 -> 18        -0.15202
       5 -> 22         0.65868

 Excited State  40:      Singlet-A     21.3574 eV   58.05 nm  f=0.0630  <S**2>=0.000
       3 -> 18        -0.15204
       4 -> 17        -0.15200
       5 -> 23         0.65869

 Excited State  41:      Singlet-A     21.9549 eV   56.47 nm  f=0.0000  <S**2>=0.000
       3 -> 17         0.48547
       3 -> 18        -0.11516
       4 -> 17         0.11518
       4 -> 18         0.48553

 Excited State  42:      Singlet-A     22.3709 eV   55.42 nm  f=0.1854  <S**2>=0.000
       3 -> 17         0.46071
       4 -> 18        -0.46065
       5 -> 22        -0.18230

 Excited State  43:      Singlet-A     22.3709 eV   55.42 nm  f=0.1854  <S**2>=0.000
       3 -> 18         0.46065
       4 -> 17         0.46071
       5 -> 23         0.18231

 Excited State  44:      Singlet-A     22.5213 eV   55.05 nm  f=0.0392  <S**2>=0.000
       2 ->  6         0.57616
       3 -> 18        -0.23544
       4 -> 17         0.23531
       5 -> 21        -0.17559

 Excited State  45:      Singlet-A     24.2215 eV   51.19 nm  f=0.1388  <S**2>=0.000
       2 ->  6         0.33773
       3 -> 18         0.35021
       3 -> 19         0.12459
       3 -> 22         0.13037
       4 -> 17        -0.35020
       4 -> 20         0.12463
       4 -> 23         0.13037
       5 -> 21         0.12133
       5 -> 27         0.10412

 Excited State  46:      Singlet-A     24.4643 eV   50.68 nm  f=0.0000  <S**2>=0.000
       3 -> 20        -0.49699
       4 -> 19         0.49725

 Excited State  47:      Singlet-A     24.5904 eV   50.42 nm  f=0.0645  <S**2>=0.000
       2 ->  7        -0.24941
       3 -> 19        -0.29167
       3 -> 20         0.35188
       4 -> 19         0.35165
       4 -> 20         0.29168

 Excited State  48:      Singlet-A     24.5904 eV   50.42 nm  f=0.0645  <S**2>=0.000
       2 ->  8         0.24940
       3 -> 19        -0.35174
       3 -> 20        -0.29176
       4 -> 19        -0.29160
       4 -> 20         0.35180

 Excited State  49:      Singlet-A     24.9294 eV   49.73 nm  f=0.0063  <S**2>=0.000
       2 ->  7         0.64358
       3 -> 20         0.14202
       4 -> 19         0.14200

 Excited State  50:      Singlet-A     24.9294 eV   49.73 nm  f=0.0063  <S**2>=0.000
       2 ->  8         0.64358
       3 -> 19         0.14194
       4 -> 20        -0.14206

 Excited State  51:      Singlet-A     24.9873 eV   49.62 nm  f=0.0526  <S**2>=0.000
       2 ->  6        -0.15898
       3 -> 19         0.46538
       4 -> 20         0.46528

 Excited State  52:      Singlet-A     26.3627 eV   47.03 nm  f=0.0023  <S**2>=0.000
       2 ->  9         0.13498
       3 -> 22        -0.14871
       4 -> 21         0.65839
       4 -> 23         0.14873

 Excited State  53:      Singlet-A     26.3627 eV   47.03 nm  f=0.0023  <S**2>=0.000
       2 -> 10         0.13501
       3 -> 21         0.65838
       3 -> 23        -0.14870
       4 -> 22        -0.14873

 Excited State  54:      Singlet-A     26.4764 eV   46.83 nm  f=0.0061  <S**2>=0.000
       2 ->  9         0.69253
       4 -> 21        -0.12253

 Excited State  55:      Singlet-A     26.4764 eV   46.83 nm  f=0.0061  <S**2>=0.000
       2 -> 10         0.69253
       3 -> 21        -0.12256

 Excited State  56:      Singlet-A     26.6610 eV   46.50 nm  f=0.0000  <S**2>=0.000
       3 -> 23        -0.49931
       4 -> 22         0.49934

 Excited State  57:      Singlet-A     26.6705 eV   46.49 nm  f=0.0800  <S**2>=0.000
       2 -> 11         0.64585
       3 -> 22        -0.19917
       4 -> 23        -0.19918

 Excited State  58:      Singlet-A     27.3295 eV   45.37 nm  f=0.2509  <S**2>=0.000
       2 -> 11         0.21094
       3 -> 22         0.37969
       4 -> 23         0.37974
       5 -> 24         0.33791

 Excited State  59:      Singlet-A     27.6112 eV   44.90 nm  f=0.0465  <S**2>=0.000
       2 -> 11        -0.14240
       2 -> 14        -0.32452
       3 -> 22        -0.15471
       4 -> 23        -0.15487
       5 -> 24         0.56453

 Excited State  60:      Singlet-A     27.6844 eV   44.78 nm  f=0.3651  <S**2>=0.000
       2 -> 13         0.27374
       3 -> 22         0.41007
       4 -> 21         0.17303
       4 -> 23        -0.40997

 Excited State  61:      Singlet-A     27.6844 eV   44.78 nm  f=0.3651  <S**2>=0.000
       2 -> 12         0.27379
       3 -> 21         0.17302
       3 -> 23         0.41003
       4 -> 22         0.40999

 Excited State  62:      Singlet-A     28.1064 eV   44.11 nm  f=0.0657  <S**2>=0.000
       2 -> 12         0.64971
       3 -> 23        -0.15852
       4 -> 22        -0.15850

 Excited State  63:      Singlet-A     28.1064 eV   44.11 nm  f=0.0657  <S**2>=0.000
       2 -> 13         0.64973
       3 -> 22        -0.15849
       4 -> 23         0.15848

 Excited State  64:      Singlet-A     28.4650 eV   43.56 nm  f=0.0415  <S**2>=0.000
       2 -> 14         0.61612
       3 -> 22        -0.13781
       4 -> 23        -0.13780
       5 -> 24         0.24390

 Excited State  65:      Singlet-A     31.6429 eV   39.18 nm  f=0.0000  <S**2>=0.000
       2 -> 16         0.70693

 Excited State  66:      Singlet-A     31.7862 eV   39.01 nm  f=0.0022  <S**2>=0.000
       5 -> 25         0.69752

 Excited State  67:      Singlet-A     31.7862 eV   39.01 nm  f=0.0022  <S**2>=0.000
       5 -> 26         0.69752

 Excited State  68:      Singlet-A     31.9527 eV   38.80 nm  f=0.0270  <S**2>=0.000
       2 -> 15         0.67539
       5 -> 27        -0.17647

 Excited State  69:      Singlet-A     32.5884 eV   38.05 nm  f=0.0002  <S**2>=0.000
       2 -> 17         0.66177
       4 -> 24         0.20621

 Excited State  70:      Singlet-A     32.5884 eV   38.05 nm  f=0.0002  <S**2>=0.000
       2 -> 18         0.66178
       3 -> 24        -0.20621

 Excited State  71:      Singlet-A     33.6090 eV   36.89 nm  f=0.1340  <S**2>=0.000
       2 -> 17        -0.21550
       2 -> 20        -0.11969
       4 -> 24         0.65299

 Excited State  72:      Singlet-A     33.6090 eV   36.89 nm  f=0.1340  <S**2>=0.000
       2 -> 18         0.21549
       2 -> 19        -0.11970
       3 -> 24         0.65299

 Excited State  73:      Singlet-A     34.9393 eV   35.49 nm  f=0.0003  <S**2>=0.000
       2 -> 19         0.68834
       3 -> 24         0.10833

 Excited State  74:      Singlet-A     34.9393 eV   35.49 nm  f=0.0003  <S**2>=0.000
       2 -> 20         0.68834
       4 -> 24         0.10832

 Excited State  75:      Singlet-A     35.3836 eV   35.04 nm  f=0.0105  <S**2>=0.000
       2 -> 15         0.10221
       3 -> 26        -0.26114
       4 -> 25         0.26115
       5 -> 27         0.57649

 Excited State  76:      Singlet-A     36.8224 eV   33.67 nm  f=0.0296  <S**2>=0.000
       2 -> 21         0.70430

 Excited State  77:      Singlet-A     37.2385 eV   33.29 nm  f=0.0000  <S**2>=0.000
       3 -> 25         0.48995
       4 -> 26         0.49006

 Excited State  78:      Singlet-A     37.2672 eV   33.27 nm  f=0.0041  <S**2>=0.000
       2 -> 22         0.66954
       3 -> 25         0.15257
       4 -> 26        -0.15236

 Excited State  79:      Singlet-A     37.2672 eV   33.27 nm  f=0.0041  <S**2>=0.000
       2 -> 23         0.66954
       3 -> 26        -0.15246
       4 -> 25        -0.15245

 Excited State  80:      Singlet-A     37.6366 eV   32.94 nm  f=0.0448  <S**2>=0.000
       2 -> 22        -0.21186
       3 -> 25         0.45244
       3 -> 26         0.10966
       4 -> 25         0.10967
       4 -> 26        -0.45240

 Excited State  81:      Singlet-A     37.6366 eV   32.94 nm  f=0.0447  <S**2>=0.000
       2 -> 23         0.21184
       3 -> 25        -0.10968
       3 -> 26         0.45242
       4 -> 25         0.45242
       4 -> 26         0.10964

 Excited State  82:      Singlet-A     39.4148 eV   31.46 nm  f=0.0278  <S**2>=0.000
       4 -> 27         0.65184
       5 -> 28        -0.26002

 Excited State  83:      Singlet-A     39.4148 eV   31.46 nm  f=0.0278  <S**2>=0.000
       3 -> 27         0.65184
       5 -> 29        -0.26002

 Excited State  84:      Singlet-A     39.9677 eV   31.02 nm  f=0.0443  <S**2>=0.000
       4 -> 27         0.26573
       5 -> 28         0.64348

 Excited State  85:      Singlet-A     39.9677 eV   31.02 nm  f=0.0443  <S**2>=0.000
       3 -> 27         0.26573
       5 -> 29         0.64348

 Excited State  86:      Singlet-A     40.0429 eV   30.96 nm  f=0.0189  <S**2>=0.000
       2 -> 24         0.25457
       3 -> 26         0.37415
       3 -> 29         0.13014
       4 -> 25        -0.37413
       4 -> 28         0.13015
       5 -> 27         0.27197

 Excited State  87:      Singlet-A     43.6720 eV   28.39 nm  f=0.0000  <S**2>=0.000
       2 -> 24         0.39789
       3 -> 29        -0.17014
       4 -> 28        -0.17015
       5 -> 30         0.52848

 Excited State  88:      Singlet-A     44.0885 eV   28.12 nm  f=0.1015  <S**2>=0.000
       2 -> 24        -0.44745
       3 -> 29         0.17270
       4 -> 28         0.17272
       5 -> 30         0.46341

 Excited State  89:      Singlet-A     45.1816 eV   27.44 nm  f=0.0000  <S**2>=0.000
       3 -> 28        -0.49398
       4 -> 29         0.49398

 Excited State  90:      Singlet-A     45.4943 eV   27.25 nm  f=0.0341  <S**2>=0.000
       3 -> 28         0.47669
       3 -> 29        -0.13356
       4 -> 28         0.13356
       4 -> 29         0.47668

 Excited State  91:      Singlet-A     45.4943 eV   27.25 nm  f=0.0341  <S**2>=0.000
       3 -> 28         0.13355
       3 -> 29         0.47669
       4 -> 28        -0.47668
       4 -> 29         0.13357

 Excited State  92:      Singlet-A     47.8346 eV   25.92 nm  f=0.0363  <S**2>=0.000
       2 -> 25         0.70254

 Excited State  93:      Singlet-A     47.8346 eV   25.92 nm  f=0.0363  <S**2>=0.000
       2 -> 26         0.70254

 Excited State  94:      Singlet-A     48.5919 eV   25.52 nm  f=0.0436  <S**2>=0.000
       2 -> 24         0.26243
       3 -> 26        -0.12510
       3 -> 29         0.39973
       4 -> 25         0.12510
       4 -> 28         0.39972
       5 -> 27        -0.17332

 Excited State  95:      Singlet-A     49.1792 eV   25.21 nm  f=0.0004  <S**2>=0.000
       4 -> 30         0.70072

 Excited State  96:      Singlet-A     49.1793 eV   25.21 nm  f=0.0004  <S**2>=0.000
       3 -> 30         0.70072

 Excited State  97:      Singlet-A     50.0188 eV   24.79 nm  f=0.1067  <S**2>=0.000
       2 -> 27         0.69984

 Excited State  98:      Singlet-A     52.5142 eV   23.61 nm  f=0.0000  <S**2>=0.000
       5 -> 31         0.70691

 Excited State  99:      Singlet-A     52.9020 eV   23.44 nm  f=0.0516  <S**2>=0.000
       5 -> 32         0.69647

 Excited State 100:      Singlet-A     52.9021 eV   23.44 nm  f=0.0516  <S**2>=0.000
       5 -> 33         0.69647

 Excited State 101:      Singlet-A     55.7502 eV   22.24 nm  f=0.0495  <S**2>=0.000
       2 -> 28         0.69770

 Excited State 102:      Singlet-A     55.7502 eV   22.24 nm  f=0.0495  <S**2>=0.000
       2 -> 29         0.69770

 Excited State 103:      Singlet-A     57.8950 eV   21.42 nm  f=0.0184  <S**2>=0.000
       3 -> 32        -0.16140
       4 -> 33        -0.16137
       5 -> 34         0.66260

 Excited State 104:      Singlet-A     58.0163 eV   21.37 nm  f=0.0372  <S**2>=0.000
       4 -> 31         0.69658

 Excited State 105:      Singlet-A     58.0164 eV   21.37 nm  f=0.0372  <S**2>=0.000
       3 -> 31         0.69658

 Excited State 106:      Singlet-A     58.1229 eV   21.33 nm  f=0.0000  <S**2>=0.000
       3 -> 33        -0.49822
       4 -> 32         0.49863

 Excited State 107:      Singlet-A     58.3415 eV   21.25 nm  f=0.0938  <S**2>=0.000
       3 -> 33         0.49189
       4 -> 32         0.49148

 Excited State 108:      Singlet-A     58.3415 eV   21.25 nm  f=0.0938  <S**2>=0.000
       3 -> 32         0.49169
       4 -> 33        -0.49168

 Excited State 109:      Singlet-A     58.7628 eV   21.10 nm  f=0.3268  <S**2>=0.000
       2 -> 30        -0.16162
       3 -> 32         0.45190
       4 -> 33         0.45192
       5 -> 34         0.22606

 Excited State 110:      Singlet-A     60.4711 eV   20.50 nm  f=0.0336  <S**2>=0.000
       3 -> 34        -0.13991
       5 -> 35         0.68664

 Excited State 111:      Singlet-A     60.4713 eV   20.50 nm  f=0.0336  <S**2>=0.000
       4 -> 34        -0.13992
       5 -> 36         0.68664

 Excited State 112:      Singlet-A     60.6868 eV   20.43 nm  f=0.0749  <S**2>=0.000
       2 -> 30         0.67390
       3 -> 32         0.11865
       4 -> 33         0.11865

 Excited State 113:      Singlet-A     63.0851 eV   19.65 nm  f=0.0186  <S**2>=0.000
       4 -> 34         0.68543
       5 -> 36         0.13204

 Excited State 114:      Singlet-A     63.0852 eV   19.65 nm  f=0.0186  <S**2>=0.000
       3 -> 34         0.68543
       5 -> 35         0.13203

 Excited State 115:      Singlet-A     64.2812 eV   19.29 nm  f=0.0085  <S**2>=0.000
       3 -> 35        -0.17722
       4 -> 36         0.17722
       5 -> 37         0.65311

 Excited State 116:      Singlet-A     64.2813 eV   19.29 nm  f=0.0085  <S**2>=0.000
       3 -> 36         0.17722
       4 -> 35         0.17724
       5 -> 38         0.65311

 Excited State 117:      Singlet-A     65.7518 eV   18.86 nm  f=0.0759  <S**2>=0.000
       3 -> 35         0.41458
       3 -> 36        -0.20697
       4 -> 35        -0.20723
       4 -> 36        -0.41428
       5 -> 37         0.21730

 Excited State 118:      Singlet-A     65.7518 eV   18.86 nm  f=0.0759  <S**2>=0.000
       3 -> 35         0.20712
       3 -> 36         0.41418
       4 -> 35         0.41467
       4 -> 36        -0.20708
       5 -> 38        -0.21731

 Excited State 119:      Singlet-A     65.8073 eV   18.84 nm  f=0.0019  <S**2>=0.000
       3 -> 35         0.48898
       4 -> 36         0.48925

 Excited State 120:      Singlet-A     65.9178 eV   18.81 nm  f=0.0000  <S**2>=0.000
       3 -> 36         0.49100
       4 -> 35        -0.49050

 Excited State 121:      Singlet-A     68.1275 eV   18.20 nm  f=0.0000  <S**2>=0.000
       2 -> 31         0.69773

 Excited State 122:      Singlet-A     68.7162 eV   18.04 nm  f=0.0091  <S**2>=0.000
       2 -> 32         0.70511

 The electronic state is 1-A.
 Alpha  occ. eigenvalues --  -14.24349  -0.82319  -0.44626  -0.44626  -0.24873
 Alpha virt. eigenvalues --    0.02672   0.10846   0.10846   0.17210   0.17210
 Alpha virt. eigenvalues --    0.18340   0.23121   0.23121   0.23218   0.36085
 Alpha virt. eigenvalues --    0.36525   0.39297   0.39298   0.48322   0.48322

 Mulliken charges:
               1
     1  N    0.043629
     2  H   -0.014543
     3  H   -0.014544
     4  H   -0.014542
 Sum of Mulliken charges =  -0.00000

 Dipole moment (field-independent basis, Debye):
    X=              0.0000    Y=             -0.0000    Z=              1.4872  Tot=              1.4872
 Quadrupole moment (field-independent basis, Debye-Ang):
   XX=             -6.3260   YY=             -6.3260   ZZ=             -9.2039
   XY=              0.0000   XZ=             -0.0001   YZ=              0.0000

 Normal termination of Gaussian 16 at Mon Mar 21 20:00:17 2022.
