 Gaussian 16, Revision C.01,
 Gaussian 16:  EM64L-G16RevC.01  3-Jul-2019

 ---------------------------------------------------------------------
 #P TD(Nstates=10000) tpssh/Gen SCF(maxcycles=100) Int(Grid=ultrafine)
 ---------------------------------------------------------------------

 ---------------------
 xGDB7_00001_tier4.com
 ---------------------
 Symbolic Z-matrix:
 Charge =  0 Multiplicity = 1

                         Standard orientation:
 ---------------------------------------------------------------------
 Center     Atomic      Atomic             Coordinates (Angstroms)
 Number     Number       Type             X           Y           Z
 ---------------------------------------------------------------------
      1          6           0        0.000284   -0.018657   -1.236532
      2          6           0       -0.000055    0.003295    0.218717
      3          6           0       -0.000323    0.021367    1.415619
      4          1           0        0.273656    0.958689   -1.636635
      5          1           0       -0.987794   -0.279414   -1.618263
      6          1           0        0.715256   -0.752703   -1.610700
      7          1           0       -0.000556    0.037402    2.478776
 ---------------------------------------------------------------------

 SCF Done:  E(RTPSSh) =  -116.582332739     A.U. after   13 cycles

 Excitation energies and oscillator strengths:

 Excited State   1:      Singlet-A      7.0403 eV  176.11 nm  f=0.0000  <S**2>=0.000
      10 -> 13        -0.31867
      10 -> 14         0.38403
      11 -> 13         0.38421
      11 -> 14         0.31863
 This state for optimization and/or second-order correction.
 Total Energy, E(TD-HF/TD-DFT) =  -116.323606121
 Copying the excited state density for this state as the 1-particle RhoCI density.

 Excited State   2:      Singlet-A      7.0966 eV  174.71 nm  f=0.0012  <S**2>=0.000
      10 -> 13        -0.20810
      10 -> 14         0.45327
      11 -> 13        -0.45315
      11 -> 14        -0.20800

 Excited State   3:      Singlet-A      7.0966 eV  174.71 nm  f=0.0012  <S**2>=0.000
      10 -> 13         0.45319
      10 -> 14         0.20810
      11 -> 13        -0.20801
      11 -> 14         0.45325

 Excited State   4:      Singlet-A      7.1622 eV  173.11 nm  f=0.0081  <S**2>=0.000
      11 -> 12         0.70348

 Excited State   5:      Singlet-A      7.1623 eV  173.11 nm  f=0.0081  <S**2>=0.000
      10 -> 12         0.70350

 Excited State   6:      Singlet-A      8.1523 eV  152.09 nm  f=0.0342  <S**2>=0.000
      11 -> 15         0.70573

 Excited State   7:      Singlet-A      8.1523 eV  152.09 nm  f=0.0342  <S**2>=0.000
      10 -> 15         0.70573

 Excited State   8:      Singlet-A      8.8241 eV  140.51 nm  f=0.0453  <S**2>=0.000
      11 -> 16         0.70372

 Excited State   9:      Singlet-A      8.8241 eV  140.51 nm  f=0.0453  <S**2>=0.000
      10 -> 16         0.70372

 Excited State  10:      Singlet-A      9.2710 eV  133.73 nm  f=0.5514  <S**2>=0.000
      10 -> 13         0.28115
      10 -> 14         0.23323
      10 -> 17         0.29992
      10 -> 18        -0.13370
      11 -> 13         0.23323
      11 -> 14        -0.28115
      11 -> 17        -0.13371
      11 -> 18        -0.29992

 Excited State  11:      Singlet-A      9.7464 eV  127.21 nm  f=0.0039  <S**2>=0.000
      10 -> 17         0.32337
      10 -> 18        -0.37967
      11 -> 17         0.38057
      11 -> 18         0.32296

 Excited State  12:      Singlet-A      9.7464 eV  127.21 nm  f=0.0039  <S**2>=0.000
      10 -> 17         0.38002
      10 -> 18         0.32293
      11 -> 17        -0.32340
      11 -> 18         0.38022

 Excited State  13:      Singlet-A      9.7559 eV  127.09 nm  f=0.0000  <S**2>=0.000
      10 -> 17         0.20236
      10 -> 18         0.45475
      11 -> 17         0.45366
      11 -> 18        -0.20261

 Excited State  14:      Singlet-A     10.4559 eV  118.58 nm  f=0.0000  <S**2>=0.000
      10 -> 19         0.46259
      10 -> 20         0.18243
      11 -> 19         0.18245
      11 -> 20        -0.46258

 Excited State  15:      Singlet-A     10.4877 eV  118.22 nm  f=0.3371  <S**2>=0.000
      10 -> 13         0.17396
      10 -> 14         0.14431
      10 -> 17        -0.28285
      10 -> 18         0.12610
      10 -> 19        -0.10415
      10 -> 20         0.26399
      11 -> 13         0.14431
      11 -> 14        -0.17396
      11 -> 17         0.12609
      11 -> 18         0.28285
      11 -> 19         0.26393
      11 -> 20         0.10406

 Excited State  16:      Singlet-A     10.5571 eV  117.44 nm  f=0.0000  <S**2>=0.000
      10 -> 20        -0.47503
      10 -> 21        -0.20686
      11 -> 19         0.47533

 Excited State  17:      Singlet-A     10.5571 eV  117.44 nm  f=0.0000  <S**2>=0.000
      10 -> 19         0.47518
      11 -> 20         0.47518
      11 -> 21        -0.20685

 Excited State  18:      Singlet-A     10.5743 eV  117.25 nm  f=0.3482  <S**2>=0.000
      10 -> 13        -0.13572
      10 -> 14        -0.11259
      10 -> 17         0.17503
      10 -> 19        -0.14884
      10 -> 20         0.37765
      11 -> 13        -0.11259
      11 -> 14         0.13573
      11 -> 18        -0.17504
      11 -> 19         0.37734
      11 -> 20         0.14893

 Excited State  19:      Singlet-A     10.6861 eV  116.02 nm  f=0.0279  <S**2>=0.000
      10 -> 19         0.14729
      11 -> 20         0.14731
      11 -> 21         0.66628

 Excited State  20:      Singlet-A     10.6861 eV  116.02 nm  f=0.0279  <S**2>=0.000
      10 -> 20        -0.14734
      10 -> 21         0.66627
      11 -> 19         0.14728

 Excited State  21:      Singlet-A     11.5116 eV  107.70 nm  f=0.1111  <S**2>=0.000
       9 -> 12         0.70082

 Excited State  22:      Singlet-A     11.5117 eV  107.70 nm  f=0.1112  <S**2>=0.000
       8 -> 12         0.70082

 Excited State  23:      Singlet-A     11.6387 eV  106.53 nm  f=0.0000  <S**2>=0.000
       8 -> 13        -0.42377
       8 -> 14         0.26352
       9 -> 13         0.26376
       9 -> 14         0.42401

 Excited State  24:      Singlet-A     11.6964 eV  106.00 nm  f=0.0048  <S**2>=0.000
      10 -> 22         0.10508
      10 -> 23        -0.48421
      11 -> 22         0.48428
      11 -> 23         0.10506

 Excited State  25:      Singlet-A     11.6964 eV  106.00 nm  f=0.0048  <S**2>=0.000
      10 -> 22         0.48424
      10 -> 23         0.10506
      11 -> 22        -0.10508
      11 -> 23         0.48425

 Excited State  26:      Singlet-A     11.7637 eV  105.40 nm  f=0.0229  <S**2>=0.000
       7 -> 13        -0.19807
       8 -> 13        -0.18857
       8 -> 14        -0.43404
       9 -> 13         0.43405
       9 -> 14        -0.18873

 Excited State  27:      Singlet-A     11.7637 eV  105.40 nm  f=0.0229  <S**2>=0.000
       7 -> 14         0.19804
       8 -> 13         0.43419
       8 -> 14        -0.18873
       9 -> 13         0.18857
       9 -> 14         0.43391

 Excited State  28:      Singlet-A     11.7867 eV  105.19 nm  f=0.0000  <S**2>=0.000
      10 -> 22         0.15640
      10 -> 23         0.47409
      11 -> 22         0.47401
      11 -> 23        -0.15639

 Excited State  29:      Singlet-A     11.9387 eV  103.85 nm  f=0.0009  <S**2>=0.000
       7 -> 14         0.43130
       8 -> 13        -0.10901
       9 -> 14        -0.10897
      10 -> 24        -0.39865
      11 -> 24         0.33583

 Excited State  30:      Singlet-A     11.9388 eV  103.85 nm  f=0.0009  <S**2>=0.000
       7 -> 13         0.43128
       8 -> 14        -0.10904
       9 -> 13         0.10902
      10 -> 24        -0.33582
      11 -> 24        -0.39866

 Excited State  31:      Singlet-A     12.0170 eV  103.17 nm  f=0.0276  <S**2>=0.000
       7 -> 12         0.68816

 Excited State  32:      Singlet-A     12.3545 eV  100.36 nm  f=0.0306  <S**2>=0.000
       8 -> 13         0.21529
       8 -> 14         0.34617
       9 -> 13         0.34605
       9 -> 14        -0.21525
      10 -> 22         0.17191
      11 -> 23        -0.17191

 Excited State  33:      Singlet-A     12.3946 eV  100.03 nm  f=0.0144  <S**2>=0.000
       7 -> 14         0.49227
      10 -> 24         0.22779
      11 -> 24        -0.40889

 Excited State  34:      Singlet-A     12.3946 eV  100.03 nm  f=0.0144  <S**2>=0.000
       7 -> 13         0.49227
      10 -> 24         0.40890
      11 -> 24         0.22777

 Excited State  35:      Singlet-A     12.6304 eV   98.16 nm  f=0.0037  <S**2>=0.000
       9 -> 15         0.69962

 Excited State  36:      Singlet-A     12.6305 eV   98.16 nm  f=0.0037  <S**2>=0.000
       8 -> 15         0.69962

 Excited State  37:      Singlet-A     12.6561 eV   97.96 nm  f=0.1874  <S**2>=0.000
       7 -> 12        -0.11244
       7 -> 15        -0.26135
       8 -> 13        -0.10459
       8 -> 14        -0.16815
       9 -> 13        -0.16814
       9 -> 14         0.10457
      10 -> 22         0.36263
      10 -> 23        -0.11964
      11 -> 22        -0.11964
      11 -> 23        -0.36263

 Excited State  38:      Singlet-A     13.1997 eV   93.93 nm  f=0.0012  <S**2>=0.000
       7 -> 15         0.64508
      10 -> 22         0.13155
      11 -> 23        -0.13154

 Excited State  39:      Singlet-A     13.2051 eV   93.89 nm  f=0.0020  <S**2>=0.000
       9 -> 16         0.69718

 Excited State  40:      Singlet-A     13.2052 eV   93.89 nm  f=0.0020  <S**2>=0.000
       8 -> 16         0.69718

 Excited State  41:      Singlet-A     13.3669 eV   92.75 nm  f=0.0000  <S**2>=0.000
      10 -> 25         0.19649
      10 -> 26         0.44373
      11 -> 25         0.44374
      11 -> 26        -0.19646

 Excited State  42:      Singlet-A     13.4213 eV   92.38 nm  f=0.0164  <S**2>=0.000
      10 -> 25        -0.40583
      10 -> 26         0.17966
      10 -> 28         0.17333
      11 -> 25         0.17972
      11 -> 26         0.40583
      11 -> 27         0.17331

 Excited State  43:      Singlet-A     13.7600 eV   90.11 nm  f=0.2227  <S**2>=0.000
       7 -> 16         0.69254

 Excited State  44:      Singlet-A     13.7611 eV   90.10 nm  f=0.0667  <S**2>=0.000
       6 -> 13        -0.33632
      10 -> 25         0.42328
      11 -> 26         0.42327

 Excited State  45:      Singlet-A     13.7611 eV   90.10 nm  f=0.0667  <S**2>=0.000
       6 -> 14         0.33631
      10 -> 26         0.42330
      11 -> 25        -0.42326

 Excited State  46:      Singlet-A     13.9594 eV   88.82 nm  f=0.0601  <S**2>=0.000
       8 -> 18        -0.47466
       9 -> 17         0.48418

 Excited State  47:      Singlet-A     13.9594 eV   88.82 nm  f=0.0601  <S**2>=0.000
       8 -> 17         0.47937
       9 -> 18         0.47952

 Excited State  48:      Singlet-A     13.9657 eV   88.78 nm  f=0.0000  <S**2>=0.000
       8 -> 18         0.50006
       9 -> 17         0.49083

 Excited State  49:      Singlet-A     14.0254 eV   88.40 nm  f=0.0114  <S**2>=0.000
       6 -> 13        -0.14592
       6 -> 14         0.18822
      10 -> 27         0.43279
      10 -> 28         0.16070
      11 -> 27        -0.16073
      11 -> 28         0.43290

 Excited State  50:      Singlet-A     14.0254 eV   88.40 nm  f=0.0114  <S**2>=0.000
       6 -> 13        -0.18820
       6 -> 14        -0.14590
      10 -> 27         0.16075
      10 -> 28        -0.43275
      11 -> 27         0.43284
      11 -> 28         0.16068

 Excited State  51:      Singlet-A     14.0463 eV   88.27 nm  f=0.0000  <S**2>=0.000
       6 -> 12         0.69235

 Excited State  52:      Singlet-A     14.0858 eV   88.02 nm  f=0.0000  <S**2>=0.000
      10 -> 26        -0.10039
      10 -> 27         0.42409
      10 -> 28         0.23909
      11 -> 25        -0.10040
      11 -> 27         0.23898
      11 -> 28        -0.42402

 Excited State  53:      Singlet-A     14.1811 eV   87.43 nm  f=0.0071  <S**2>=0.000
      10 -> 29        -0.11128
      11 -> 29         0.67825

 Excited State  54:      Singlet-A     14.1811 eV   87.43 nm  f=0.0071  <S**2>=0.000
      10 -> 29         0.67803
      11 -> 29         0.11136

 Excited State  55:      Singlet-A     14.4765 eV   85.65 nm  f=0.0354  <S**2>=0.000
       7 -> 17         0.69692

 Excited State  56:      Singlet-A     14.4765 eV   85.64 nm  f=0.0354  <S**2>=0.000
       7 -> 18         0.69692

 Excited State  57:      Singlet-A     14.5855 eV   85.01 nm  f=0.0000  <S**2>=0.000
       8 -> 19        -0.38078
       8 -> 20        -0.31912
       9 -> 19        -0.31923
       9 -> 20         0.38090

 Excited State  58:      Singlet-A     14.5981 eV   84.93 nm  f=0.0311  <S**2>=0.000
       6 -> 12         0.10135
       8 -> 17         0.33471
       8 -> 19        -0.21873
       8 -> 20         0.26096
       9 -> 18        -0.33468
       9 -> 19         0.26113
       9 -> 20         0.21883

 Excited State  59:      Singlet-A     14.6765 eV   84.48 nm  f=0.1146  <S**2>=0.000
       6 -> 15        -0.24705
       7 -> 21         0.10719
       8 -> 19         0.10868
       8 -> 20        -0.12967
       9 -> 19        -0.12986
       9 -> 20        -0.10883
      10 -> 25         0.11726
      10 -> 27        -0.17496
      10 -> 28         0.31043
      10 -> 31        -0.11010
      11 -> 26        -0.11712
      11 -> 27         0.31048
      11 -> 28         0.17504
      11 -> 30        -0.11016

 Excited State  60:      Singlet-A     14.7122 eV   84.27 nm  f=0.0847  <S**2>=0.000
       6 -> 13         0.42982
       6 -> 14        -0.15725
       8 -> 19        -0.20656
       8 -> 20         0.16183
       9 -> 19        -0.16164
       9 -> 20        -0.20635
      10 -> 25         0.16888
      10 -> 27         0.12243
      11 -> 26         0.16895
      11 -> 28         0.12265
      11 -> 29        -0.12245

 Excited State  61:      Singlet-A     14.7122 eV   84.27 nm  f=0.0847  <S**2>=0.000
       6 -> 13         0.15725
       6 -> 14         0.42983
       8 -> 19         0.16179
       8 -> 20         0.20654
       9 -> 19        -0.20632
       9 -> 20         0.16169
      10 -> 26        -0.16892
      10 -> 28        -0.12216
      10 -> 29        -0.12302
      11 -> 25         0.16891
      11 -> 27         0.12240

 Excited State  62:      Singlet-A     14.9895 eV   82.71 nm  f=0.0312  <S**2>=0.000
       6 -> 13         0.11308
       8 -> 19         0.16218
       9 -> 20         0.16234
       9 -> 21         0.62937

 Excited State  63:      Singlet-A     14.9896 eV   82.71 nm  f=0.0312  <S**2>=0.000
       6 -> 14         0.11305
       8 -> 20        -0.16207
       8 -> 21         0.62943
       9 -> 19         0.16227

 Excited State  64:      Singlet-A     15.0218 eV   82.54 nm  f=0.0191  <S**2>=0.000
       6 -> 15         0.30418
       6 -> 16         0.11844
       7 -> 21        -0.13275
       8 -> 17         0.27170
       8 -> 19         0.19054
       8 -> 20        -0.22741
       9 -> 18        -0.27169
       9 -> 19        -0.22727
       9 -> 20        -0.19052

 Excited State  65:      Singlet-A     15.1581 eV   81.79 nm  f=0.0457  <S**2>=0.000
       6 -> 15         0.49762
       7 -> 24        -0.10172
       8 -> 17        -0.11800
       9 -> 18         0.11799
      10 -> 28         0.10576
      10 -> 30        -0.13665
      10 -> 31        -0.22180
      11 -> 27         0.10576
      11 -> 30        -0.22185
      11 -> 31         0.13661

 Excited State  66:      Singlet-A     15.2894 eV   81.09 nm  f=0.0425  <S**2>=0.000
       7 -> 19         0.48572
       7 -> 20         0.49045

 Excited State  67:      Singlet-A     15.2894 eV   81.09 nm  f=0.0424  <S**2>=0.000
       7 -> 19         0.49052
       7 -> 20        -0.48575

 Excited State  68:      Singlet-A     15.3578 eV   80.73 nm  f=0.2709  <S**2>=0.000
       6 -> 13         0.15973
       7 -> 20         0.12870
       8 -> 19         0.10841
       8 -> 20        -0.25413
       8 -> 21        -0.14259
       9 -> 19         0.25407
       9 -> 20         0.10836
       9 -> 21        -0.16640
      10 -> 31        -0.18302
      10 -> 32         0.29510
      10 -> 34        -0.12936
      11 -> 30         0.18342
      11 -> 32         0.17642

 Excited State  69:      Singlet-A     15.3578 eV   80.73 nm  f=0.2710  <S**2>=0.000
       6 -> 14        -0.15975
       7 -> 19         0.12851
       8 -> 19         0.25412
       8 -> 20         0.10849
       8 -> 21         0.16642
       9 -> 19        -0.10846
       9 -> 20         0.25405
       9 -> 21        -0.14266
      10 -> 30         0.18227
      10 -> 32        -0.17762
      11 -> 31         0.18269
      11 -> 32         0.29507
      11 -> 34        -0.12937

 Excited State  70:      Singlet-A     15.5121 eV   79.93 nm  f=0.0003  <S**2>=0.000
      10 -> 30         0.43221
      10 -> 31         0.10580
      10 -> 32         0.20480
      11 -> 30        -0.10672
      11 -> 31         0.43102
      11 -> 32        -0.13646

 Excited State  71:      Singlet-A     15.5121 eV   79.93 nm  f=0.0003  <S**2>=0.000
      10 -> 30        -0.10551
      10 -> 31         0.43110
      10 -> 32         0.13754
      11 -> 30        -0.43070
      11 -> 31        -0.10636
      11 -> 32         0.20734

 Excited State  72:      Singlet-A     15.5494 eV   79.74 nm  f=0.0000  <S**2>=0.000
      10 -> 30        -0.42457
      10 -> 31         0.26192
      11 -> 30         0.26144
      11 -> 31         0.42514

 Excited State  73:      Singlet-A     15.6462 eV   79.24 nm  f=0.4009  <S**2>=0.000
       6 -> 13        -0.13675
       8 -> 19        -0.16303
       9 -> 20        -0.16298
       9 -> 21         0.17446
      10 -> 32         0.18140
      11 -> 32         0.51605
      11 -> 34         0.10653

 Excited State  74:      Singlet-A     15.6462 eV   79.24 nm  f=0.4008  <S**2>=0.000
       6 -> 14        -0.13674
       8 -> 20         0.16305
       8 -> 21         0.17440
       9 -> 19        -0.16301
      10 -> 32         0.51650
      10 -> 34         0.10653
      11 -> 32        -0.18173

 Excited State  75:      Singlet-A     15.6935 eV   79.00 nm  f=0.0107  <S**2>=0.000
       6 -> 15         0.10289
       6 -> 16         0.47622
       7 -> 21         0.48040

 Excited State  76:      Singlet-A     16.0036 eV   77.47 nm  f=0.0130  <S**2>=0.000
       6 -> 15        -0.17979
       6 -> 16         0.43095
       7 -> 21        -0.27779
       8 -> 22        -0.11495
       9 -> 23         0.11501
      10 -> 30        -0.12679
      10 -> 31        -0.20587
      11 -> 30        -0.20585
      11 -> 31         0.12680

 Excited State  77:      Singlet-A     16.0617 eV   77.19 nm  f=0.0034  <S**2>=0.000
      11 -> 33         0.70337

 Excited State  78:      Singlet-A     16.0617 eV   77.19 nm  f=0.0034  <S**2>=0.000
      10 -> 33         0.70337

 Excited State  79:      Singlet-A     16.1337 eV   76.85 nm  f=0.0038  <S**2>=0.000
       6 -> 15        -0.12167
       6 -> 16        -0.21416
       7 -> 21         0.34043
       8 -> 22        -0.19544
       9 -> 23         0.19564
      10 -> 28        -0.11893
      10 -> 30        -0.12542
      10 -> 31        -0.20363
      11 -> 27        -0.11894
      11 -> 30        -0.20363
      11 -> 31         0.12543

 Excited State  80:      Singlet-A     16.2270 eV   76.41 nm  f=0.0003  <S**2>=0.000
       8 -> 22         0.37911
       8 -> 23         0.24891
       9 -> 22        -0.24945
       9 -> 23         0.37920
      11 -> 34        -0.25284

 Excited State  81:      Singlet-A     16.2270 eV   76.41 nm  f=0.0003  <S**2>=0.000
       8 -> 22         0.24916
       8 -> 23        -0.37884
       9 -> 22         0.37954
       9 -> 23         0.24920
      10 -> 34        -0.25280

 Excited State  82:      Singlet-A     16.2872 eV   76.12 nm  f=0.0000  <S**2>=0.000
       8 -> 23         0.49841
       9 -> 22         0.49909

 Excited State  83:      Singlet-A     16.2941 eV   76.09 nm  f=0.0564  <S**2>=0.000
       6 -> 17        -0.12184
       7 -> 22         0.10465
       8 -> 23         0.18342
       9 -> 22        -0.17979
      10 -> 34        -0.27891
      10 -> 35         0.14724
      11 -> 34         0.45059
      11 -> 35        -0.23790

 Excited State  84:      Singlet-A     16.2941 eV   76.09 nm  f=0.0564  <S**2>=0.000
       6 -> 18        -0.12183
       7 -> 23         0.10464
       8 -> 22         0.18160
       9 -> 23         0.18168
      10 -> 34         0.45059
      10 -> 35        -0.23789
      11 -> 34         0.27888
      11 -> 35        -0.14725

 Excited State  85:      Singlet-A     16.3794 eV   75.70 nm  f=0.0999  <S**2>=0.000
      10 -> 35         0.16064
      11 -> 34         0.25018
      11 -> 35         0.58430
      11 -> 36        -0.19264

 Excited State  86:      Singlet-A     16.3794 eV   75.70 nm  f=0.0998  <S**2>=0.000
      10 -> 34         0.25018
      10 -> 35         0.58431
      10 -> 36        -0.19265
      11 -> 35        -0.16065

 Excited State  87:      Singlet-A     16.4031 eV   75.59 nm  f=0.0005  <S**2>=0.000
       9 -> 24         0.68065
      11 -> 34         0.10559

 Excited State  88:      Singlet-A     16.4032 eV   75.59 nm  f=0.0005  <S**2>=0.000
       8 -> 24         0.68067
      10 -> 34         0.10556

 Excited State  89:      Singlet-A     16.4213 eV   75.50 nm  f=0.0574  <S**2>=0.000
       6 -> 15        -0.10607
       7 -> 21         0.10461
       8 -> 22         0.43803
       9 -> 23        -0.43787
      10 -> 31        -0.13205
      11 -> 30        -0.13198

 Excited State  90:      Singlet-A     16.6595 eV   74.42 nm  f=0.0065  <S**2>=0.000
       6 -> 17         0.52509
       7 -> 22         0.43697
      10 -> 36        -0.13850

 Excited State  91:      Singlet-A     16.6595 eV   74.42 nm  f=0.0065  <S**2>=0.000
       6 -> 18         0.52506
       7 -> 23         0.43698
      11 -> 36         0.13858

 Excited State  92:      Singlet-A     16.6914 eV   74.28 nm  f=0.0003  <S**2>=0.000
       6 -> 18        -0.10261
       7 -> 23        -0.10762
      11 -> 35         0.21058
      11 -> 36         0.64877

 Excited State  93:      Singlet-A     16.6914 eV   74.28 nm  f=0.0003  <S**2>=0.000
       6 -> 17         0.10259
       7 -> 22         0.10752
      10 -> 35         0.21058

 The electronic state is 1-A.
 Alpha  occ. eigenvalues --  -10.15118 -10.12481 -10.11313  -0.75477  -0.67663
 Alpha  occ. eigenvalues --   -0.50875  -0.43697  -0.41890  -0.41890  -0.25872
 Alpha  occ. eigenvalues --   -0.25872
 Alpha virt. eigenvalues --    0.02238   0.03337   0.03337   0.05918   0.08390
 Alpha virt. eigenvalues --    0.11874   0.11874   0.14742   0.14742   0.15410
 Alpha virt. eigenvalues --    0.19716   0.19716   0.20615   0.26806   0.26806

 Mulliken charges:
               1
     1  C    0.413749
     2  C    0.771256
     3  C   -1.103828
     4  H   -0.015498
     5  H   -0.015506
     6  H   -0.015510
     7  H   -0.034662
 Sum of Mulliken charges =  -0.00000

 Dipole moment (field-independent basis, Debye):
    X=              0.0002    Y=             -0.0117    Z=             -0.7738  Tot=              0.7739
 Quadrupole moment (field-independent basis, Debye-Ang):
   XX=            -19.4799   YY=            -19.4786   ZZ=            -14.2815
   XY=             -0.0000   XZ=             -0.0011   YZ=              0.0784

 Normal termination of Gaussian 16 at Mon Mar 21 20:03:57 2022.
