 Gaussian 16, Revision C.01,
 Gaussian 16:  EM64L-G16RevC.01  3-Jul-2019

 ---------------------------------------------------------------------
 #P TD(Nstates=10000) tpssh/Gen SCF(maxcycles=100) Int(Grid=ultrafine)
 ---------------------------------------------------------------------

 ---------------------
 xGDB7_00001_tier4.com
 ---------------------
 Symbolic Z-matrix:
 Charge =  0 Multiplicity = 1

                         Standard orientation:
 ---------------------------------------------------------------------
 Center     Atomic      Atomic             Coordinates (Angstroms)
 Number     Number       Type             X           Y           Z
 ---------------------------------------------------------------------
      1          6           0       -0.049078    0.702042   -0.000000
      2          7           0       -0.049078   -0.754243    0.000000
      3          1           0        0.946109    1.166603   -0.000000
      4          1           0       -0.587574    1.062597    0.877770
      5          1           0       -0.587574    1.062597   -0.877770
      6          1           0        0.433525   -1.112175    0.812504
      7          1           0        0.433525   -1.112175   -0.812504
 ---------------------------------------------------------------------

 SCF Done:  E(RTPSSh) =  -95.8004778199     A.U. after   11 cycles

 Excitation energies and oscillator strengths:

 Excited State   1:      Singlet-A'     6.0662 eV  204.38 nm  f=0.0057  <S**2>=0.000
       9 -> 10         0.70559
 This state for optimization and/or second-order correction.
 Total Energy, E(TD-HF/TD-DFT) =  -95.5775473657
 Copying the excited state density for this state as the 1-particle RhoCI density.

 Excited State   2:      Singlet-A'     7.0844 eV  175.01 nm  f=0.0402  <S**2>=0.000
       9 -> 11         0.70533

 Excited State   3:      Singlet-A"     7.8150 eV  158.65 nm  f=0.0085  <S**2>=0.000
       9 -> 12         0.70619

 Excited State   4:      Singlet-A'     8.4191 eV  147.27 nm  f=0.0839  <S**2>=0.000
       9 -> 13         0.70556

 Excited State   5:      Singlet-A"     8.8236 eV  140.51 nm  f=0.0003  <S**2>=0.000
       9 -> 14         0.70618

 Excited State   6:      Singlet-A'     9.4330 eV  131.44 nm  f=0.0042  <S**2>=0.000
       9 -> 15         0.69590
       9 -> 16         0.11624

 Excited State   7:      Singlet-A'     9.5831 eV  129.38 nm  f=0.0176  <S**2>=0.000
       9 -> 15        -0.11502
       9 -> 16         0.69576

 Excited State   8:      Singlet-A"     9.6541 eV  128.43 nm  f=0.0081  <S**2>=0.000
       8 -> 10         0.70632

 Excited State   9:      Singlet-A"    10.0119 eV  123.84 nm  f=0.0004  <S**2>=0.000
       9 -> 17         0.70538

 Excited State  10:      Singlet-A'    10.6483 eV  116.44 nm  f=0.0466  <S**2>=0.000
       7 -> 10         0.69843

 Excited State  11:      Singlet-A"    10.6576 eV  116.33 nm  f=0.0894  <S**2>=0.000
       8 -> 11         0.70612

 Excited State  12:      Singlet-A'    11.0005 eV  112.71 nm  f=0.0035  <S**2>=0.000
       6 -> 10        -0.10565
       9 -> 18         0.58787
       9 -> 19         0.33806

 Excited State  13:      Singlet-A'    11.2720 eV  109.99 nm  f=0.0156  <S**2>=0.000
       6 -> 10         0.13714
       7 -> 11         0.12205
       8 -> 12         0.20827
       9 -> 18        -0.26249
       9 -> 19         0.58406

 Excited State  14:      Singlet-A"    11.3149 eV  109.58 nm  f=0.0132  <S**2>=0.000
       9 -> 20         0.70387

 Excited State  15:      Singlet-A'    11.5544 eV  107.30 nm  f=0.0284  <S**2>=0.000
       6 -> 10        -0.18286
       7 -> 11         0.11593
       8 -> 12         0.63564
       9 -> 18         0.13611
       9 -> 19        -0.14399

 Excited State  16:      Singlet-A'    11.6246 eV  106.66 nm  f=0.2012  <S**2>=0.000
       6 -> 10        -0.11275
       7 -> 11         0.67368
       8 -> 12        -0.16453

 Excited State  17:      Singlet-A'    11.7255 eV  105.74 nm  f=0.0619  <S**2>=0.000
       6 -> 10         0.64067
       7 -> 11         0.12178
       8 -> 12         0.10102
       8 -> 14         0.10800
       9 -> 18         0.16627
       9 -> 19        -0.11535

 Excited State  18:      Singlet-A"    11.9081 eV  104.12 nm  f=0.0262  <S**2>=0.000
       8 -> 13         0.70305

 Excited State  19:      Singlet-A"    12.3576 eV  100.33 nm  f=0.0197  <S**2>=0.000
       7 -> 12         0.70131

 Excited State  20:      Singlet-A'    12.4877 eV   99.29 nm  f=0.0120  <S**2>=0.000
       6 -> 11        -0.25161
       7 -> 13        -0.11032
       8 -> 14         0.49028
       9 -> 21         0.41237

 Excited State  21:      Singlet-A'    12.5970 eV   98.42 nm  f=0.1814  <S**2>=0.000
       6 -> 11         0.64084
       9 -> 21         0.26352

 Excited State  22:      Singlet-A'    12.6753 eV   97.82 nm  f=0.1437  <S**2>=0.000
       6 -> 11        -0.13075
       7 -> 13         0.21904
       8 -> 14        -0.41630
       9 -> 21         0.48768

 Excited State  23:      Singlet-A"    12.7906 eV   96.93 nm  f=0.0220  <S**2>=0.000
       5 -> 10        -0.17260
       9 -> 22         0.67469

 Excited State  24:      Singlet-A"    12.9877 eV   95.46 nm  f=0.0012  <S**2>=0.000
       7 -> 14         0.27920
       8 -> 15         0.63236
       8 -> 16        -0.12705

 Excited State  25:      Singlet-A"    13.0199 eV   95.23 nm  f=0.1287  <S**2>=0.000
       5 -> 10         0.66934
       7 -> 14         0.11156
       9 -> 22         0.14879

 Excited State  26:      Singlet-A'    13.0873 eV   94.74 nm  f=0.0193  <S**2>=0.000
       6 -> 13        -0.10705
       7 -> 13         0.62502
       8 -> 14         0.18293
       8 -> 17        -0.16877

 Excited State  27:      Singlet-A"    13.1106 eV   94.57 nm  f=0.0142  <S**2>=0.000
       6 -> 12        -0.15944
       8 -> 15         0.15950
       8 -> 16         0.65997

 Excited State  28:      Singlet-A'    13.2358 eV   93.67 nm  f=0.2204  <S**2>=0.000
       9 -> 23         0.67930
       9 -> 24        -0.10803

 Excited State  29:      Singlet-A"    13.3124 eV   93.13 nm  f=0.0031  <S**2>=0.000
       6 -> 12         0.47195
       7 -> 14         0.45062
       8 -> 15        -0.18141
       8 -> 16         0.18608

 Excited State  30:      Singlet-A"    13.4652 eV   92.08 nm  f=0.1897  <S**2>=0.000
       5 -> 10         0.12084
       6 -> 12         0.48415
       7 -> 14        -0.43411
       8 -> 15         0.17324
       8 -> 19         0.11933

 Excited State  31:      Singlet-A'    13.5793 eV   91.30 nm  f=0.0042  <S**2>=0.000
       6 -> 13         0.16848
       8 -> 17        -0.27472
       9 -> 23         0.10687
       9 -> 24         0.61392

 Excited State  32:      Singlet-A'    13.7097 eV   90.44 nm  f=0.0090  <S**2>=0.000
       6 -> 13        -0.33665
       7 -> 15        -0.11781
       8 -> 17         0.50470
       9 -> 24         0.32433

 Excited State  33:      Singlet-A'    13.9352 eV   88.97 nm  f=0.0293  <S**2>=0.000
       6 -> 13        -0.40184
       7 -> 15         0.53943
       7 -> 16         0.12217
       8 -> 17        -0.14194

 Excited State  34:      Singlet-A"    13.9604 eV   88.81 nm  f=0.0064  <S**2>=0.000
       5 -> 11         0.70198

 Excited State  35:      Singlet-A'    14.1595 eV   87.56 nm  f=0.0190  <S**2>=0.000
       5 -> 12         0.25377
       6 -> 13         0.30730
       7 -> 13         0.11788
       7 -> 15         0.38356
       7 -> 16        -0.26680
       8 -> 17         0.26597
       9 -> 25        -0.11840

 Excited State  36:      Singlet-A"    14.2529 eV   86.99 nm  f=0.0114  <S**2>=0.000
       6 -> 14         0.61926
       8 -> 18         0.30414
       8 -> 19        -0.12047

 Excited State  37:      Singlet-A"    14.3169 eV   86.60 nm  f=0.0050  <S**2>=0.000
       6 -> 14        -0.29507
       8 -> 18         0.63233

 Excited State  38:      Singlet-A'    14.3218 eV   86.57 nm  f=0.1833  <S**2>=0.000
       5 -> 12         0.17646
       6 -> 13         0.20662
       7 -> 16         0.60838
       8 -> 17         0.14044

 Excited State  39:      Singlet-A'    14.4729 eV   85.67 nm  f=0.0274  <S**2>=0.000
       9 -> 25         0.68986

 Excited State  40:      Singlet-A"    14.5032 eV   85.49 nm  f=0.0018  <S**2>=0.000
       6 -> 14         0.10821
       7 -> 17         0.64061
       8 -> 19         0.26471

 Excited State  41:      Singlet-A"    14.8669 eV   83.40 nm  f=0.0083  <S**2>=0.000
       9 -> 26         0.69461

 Excited State  42:      Singlet-A'    14.8899 eV   83.27 nm  f=0.0217  <S**2>=0.000
       5 -> 12        -0.30397
       6 -> 15         0.49903
       6 -> 16         0.20261
       8 -> 20        -0.30264

 Excited State  43:      Singlet-A"    14.9840 eV   82.74 nm  f=0.1984  <S**2>=0.000
       5 -> 13         0.17092
       7 -> 17        -0.24443
       7 -> 20         0.13736
       8 -> 19         0.57154
       9 -> 27         0.13210

 Excited State  44:      Singlet-A'    15.0157 eV   82.57 nm  f=0.0046  <S**2>=0.000
       6 -> 15         0.42409
       6 -> 16        -0.37344
       7 -> 18        -0.12597
       8 -> 20         0.38795

 Excited State  45:      Singlet-A'    15.1977 eV   81.58 nm  f=0.0830  <S**2>=0.000
       5 -> 12         0.28528
       6 -> 15         0.14507
       6 -> 16        -0.24068
       7 -> 18         0.41529
       8 -> 20        -0.29248
       9 -> 29        -0.10968
       9 -> 30         0.15716

 Excited State  46:      Singlet-A"    15.2568 eV   81.26 nm  f=0.0533  <S**2>=0.000
       5 -> 13         0.61347
       6 -> 17        -0.11897
       9 -> 27        -0.27822
       9 -> 28        -0.13533

 Excited State  47:      Singlet-A'    15.3278 eV   80.89 nm  f=0.2753  <S**2>=0.000
       5 -> 12        -0.20435
       6 -> 16         0.13445
       7 -> 18         0.54219
       8 -> 20         0.30359
       9 -> 30        -0.13766

 Excited State  48:      Singlet-A"    15.3672 eV   80.68 nm  f=0.0410  <S**2>=0.000
       5 -> 13         0.23711
       6 -> 17        -0.13158
       7 -> 20        -0.13292
       8 -> 19        -0.10794
       9 -> 27         0.60699

 Excited State  49:      Singlet-A"    15.4528 eV   80.23 nm  f=0.0307  <S**2>=0.000
       5 -> 13         0.12471
       6 -> 17         0.31460
       7 -> 20        -0.10149
       9 -> 27        -0.10874
       9 -> 28         0.58941

 Excited State  50:      Singlet-A'    15.5153 eV   79.91 nm  f=0.0014  <S**2>=0.000
       5 -> 12        -0.24534
       5 -> 14         0.13942
       6 -> 15        -0.13845
       6 -> 16        -0.37746
       7 -> 19         0.10036
       9 -> 29         0.43566

 Excited State  51:      Singlet-A"    15.5340 eV   79.81 nm  f=0.0217  <S**2>=0.000
       6 -> 17         0.59104
       7 -> 20        -0.11779
       9 -> 27         0.11225
       9 -> 28        -0.33175

 Excited State  52:      Singlet-A'    15.6438 eV   79.25 nm  f=0.0003  <S**2>=0.000
       5 -> 14        -0.25349
       7 -> 19        -0.27415
       9 -> 29         0.24748
       9 -> 30         0.53388

 Excited State  53:      Singlet-A'    15.7460 eV   78.74 nm  f=0.0748  <S**2>=0.000
       5 -> 12         0.27662
       5 -> 14         0.19186
       6 -> 15         0.13335
       6 -> 16         0.25159
       8 -> 20         0.14785
       9 -> 29         0.43788
       9 -> 30        -0.10043

 Excited State  54:      Singlet-A'    15.8350 eV   78.30 nm  f=0.1825  <S**2>=0.000
       5 -> 14         0.11293
       6 -> 18         0.18350
       7 -> 19         0.54090
       8 -> 20         0.11943
       9 -> 30         0.32232

 Excited State  55:      Singlet-A'    15.8774 eV   78.09 nm  f=0.1622  <S**2>=0.000
       5 -> 14         0.56520
       6 -> 18        -0.14970
       7 -> 19        -0.23434
       9 -> 29        -0.10493
       9 -> 30         0.19652

 Excited State  56:      Singlet-A"    15.9621 eV   77.67 nm  f=0.0265  <S**2>=0.000
       5 -> 15         0.26247
       7 -> 20         0.60524
       8 -> 19        -0.11414
       8 -> 21         0.13459

 Excited State  57:      Singlet-A"    16.1417 eV   76.81 nm  f=0.0142  <S**2>=0.000
       5 -> 15        -0.13718
       8 -> 21         0.67978

 Excited State  58:      Singlet-A'    16.3395 eV   75.88 nm  f=0.0149  <S**2>=0.000
       5 -> 17        -0.11579
       6 -> 18         0.56326
       6 -> 19        -0.22579
       7 -> 19        -0.14880
       8 -> 22         0.25742

 Excited State  59:      Singlet-A"    16.4099 eV   75.55 nm  f=0.0682  <S**2>=0.000
       5 -> 15         0.52348
       5 -> 16         0.36118
       6 -> 20        -0.13236
       7 -> 20        -0.18684
       8 -> 21         0.10785

 Excited State  60:      Singlet-A'    16.4499 eV   75.37 nm  f=0.1165  <S**2>=0.000
       6 -> 18        -0.27907
       8 -> 22         0.62573

 Excited State  61:      Singlet-A"    16.5453 eV   74.94 nm  f=0.1021  <S**2>=0.000
       5 -> 15        -0.24683
       5 -> 16         0.56779
       6 -> 20         0.26811
       7 -> 20         0.10887
       8 -> 23         0.13003

 Excited State  62:      Singlet-A"    16.6281 eV   74.56 nm  f=0.0089  <S**2>=0.000
       5 -> 15         0.10358
       6 -> 20        -0.10610
       8 -> 23         0.65692
       9 -> 31        -0.19392

 Excited State  63:      Singlet-A'    16.6708 eV   74.37 nm  f=0.0117  <S**2>=0.000
       6 -> 19        -0.22789
       9 -> 32         0.66127

 Excited State  64:      Singlet-A"    16.6779 eV   74.34 nm  f=0.0039  <S**2>=0.000
       8 -> 23         0.18612
       9 -> 31         0.66913

 Excited State  65:      Singlet-A'    16.7907 eV   73.84 nm  f=0.1009  <S**2>=0.000
       4 -> 10        -0.11665
       6 -> 19         0.53914
       7 -> 21        -0.31334
       8 -> 22         0.15765
       9 -> 32         0.20214

 Excited State  66:      Singlet-A"    16.9780 eV   73.03 nm  f=0.1338  <S**2>=0.000
       5 -> 15         0.18956
       5 -> 16        -0.16643
       6 -> 20         0.61512

 Excited State  67:      Singlet-A'    17.0306 eV   72.80 nm  f=0.1189  <S**2>=0.000
       5 -> 17         0.67480
       7 -> 21        -0.10108

 Excited State  68:      Singlet-A'    17.1929 eV   72.11 nm  f=0.0895  <S**2>=0.000
       4 -> 10        -0.38252
       6 -> 19         0.16228
       7 -> 21         0.53791

 Excited State  69:      Singlet-A"    17.2471 eV   71.89 nm  f=0.0939  <S**2>=0.000
       7 -> 22        -0.15477
       8 -> 24         0.67697

 Excited State  70:      Singlet-A"    17.3415 eV   71.50 nm  f=0.0000  <S**2>=0.000
       5 -> 18        -0.14107
       7 -> 22         0.67065
       8 -> 24         0.15166

 Excited State  71:      Singlet-A'    17.5045 eV   70.83 nm  f=0.0046  <S**2>=0.000
       4 -> 10         0.22286
       7 -> 23        -0.10649
       9 -> 33         0.65104

 Excited State  72:      Singlet-A"    17.5461 eV   70.66 nm  f=0.0019  <S**2>=0.000
       5 -> 18         0.68400
       7 -> 22         0.13241

 Excited State  73:      Singlet-A'    17.6580 eV   70.21 nm  f=0.0314  <S**2>=0.000
       4 -> 10        -0.34081
       7 -> 21        -0.13047
       7 -> 23         0.44809
       9 -> 33         0.21438
       9 -> 34         0.24970

 Excited State  74:      Singlet-A'    17.6881 eV   70.09 nm  f=0.0121  <S**2>=0.000
       4 -> 10         0.34250
       6 -> 19         0.11467
       6 -> 21         0.10983
       7 -> 21         0.20551
       7 -> 23         0.50753
       9 -> 34        -0.12334

 Excited State  75:      Singlet-A'    17.8984 eV   69.27 nm  f=0.0035  <S**2>=0.000
       5 -> 20         0.10224
       6 -> 21         0.20884
       7 -> 24         0.18102
       9 -> 33        -0.10381
       9 -> 34         0.59721

 Excited State  76:      Singlet-A"    17.9735 eV   68.98 nm  f=0.0063  <S**2>=0.000
       8 -> 25         0.69877

 Excited State  77:      Singlet-A"    18.1124 eV   68.45 nm  f=0.0319  <S**2>=0.000
       5 -> 19         0.67927
       6 -> 22        -0.12029

 Excited State  78:      Singlet-A'    18.1248 eV   68.41 nm  f=0.0089  <S**2>=0.000
       4 -> 11        -0.18720
       6 -> 21         0.51661
       7 -> 24        -0.42448

 Excited State  79:      Singlet-A'    18.2593 eV   67.90 nm  f=0.0548  <S**2>=0.000
       5 -> 20         0.44348
       6 -> 21        -0.28474
       7 -> 24        -0.36028
       8 -> 26        -0.11306
       9 -> 34         0.10781
       9 -> 36         0.14423

 Excited State  80:      Singlet-A"    18.3207 eV   67.67 nm  f=0.0068  <S**2>=0.000
       5 -> 19         0.11549
       6 -> 22         0.68912

 Excited State  81:      Singlet-A'    18.3771 eV   67.47 nm  f=0.0335  <S**2>=0.000
       4 -> 11        -0.14737
       5 -> 20         0.28389
       8 -> 26         0.60313

 Excited State  82:      Singlet-A'    18.4735 eV   67.11 nm  f=0.0467  <S**2>=0.000
       4 -> 11        -0.27483
       5 -> 20         0.37195
       7 -> 24         0.27281
       8 -> 26        -0.33111
       9 -> 34        -0.11133
       9 -> 36        -0.18276

 Excited State  83:      Singlet-A'    18.5096 eV   66.98 nm  f=0.0558  <S**2>=0.000
       4 -> 11         0.53813
       5 -> 20         0.19479
       6 -> 21         0.23566
       7 -> 24         0.12847
       7 -> 25         0.13298
       8 -> 28        -0.13494

 Excited State  84:      Singlet-A"    18.5358 eV   66.89 nm  f=0.0012  <S**2>=0.000
       9 -> 35         0.69770

 Excited State  85:      Singlet-A'    18.6249 eV   66.57 nm  f=0.0171  <S**2>=0.000
       4 -> 11        -0.11602
       6 -> 23         0.48235
       8 -> 27        -0.12657
       8 -> 28         0.13843
       9 -> 36         0.43683

 Excited State  86:      Singlet-A"    18.8307 eV   65.84 nm  f=0.0060  <S**2>=0.000
       5 -> 21         0.10176
       9 -> 37         0.68446

 Excited State  87:      Singlet-A'    18.8545 eV   65.76 nm  f=0.0491  <S**2>=0.000
       6 -> 23         0.38457
       6 -> 24        -0.21666
       7 -> 25        -0.36171
       9 -> 36        -0.35950

 Excited State  88:      Singlet-A'    19.0635 eV   65.04 nm  f=0.0017  <S**2>=0.000
       6 -> 23         0.11099
       6 -> 24        -0.42689
       6 -> 25         0.11281
       7 -> 25         0.43341
       8 -> 28         0.24714

 Excited State  89:      Singlet-A"    19.0954 eV   64.93 nm  f=0.0167  <S**2>=0.000
       7 -> 27        -0.11238
       8 -> 29         0.65278
       8 -> 30        -0.16944

 Excited State  90:      Singlet-A"    19.1545 eV   64.73 nm  f=0.0039  <S**2>=0.000
       4 -> 12         0.69035

 Excited State  91:      Singlet-A'    19.1829 eV   64.63 nm  f=0.1085  <S**2>=0.000
       6 -> 24         0.13592
       7 -> 25        -0.14995
       8 -> 27         0.53678
       8 -> 28         0.36048

 Excited State  92:      Singlet-A'    19.2940 eV   64.26 nm  f=0.2482  <S**2>=0.000
       6 -> 23         0.21807
       6 -> 24         0.36996
       6 -> 25         0.18944
       7 -> 25         0.29230
       8 -> 27         0.16284
       8 -> 28        -0.25146
       9 -> 36        -0.15946

 Excited State  93:      Singlet-A"    19.3039 eV   64.23 nm  f=0.0210  <S**2>=0.000
       5 -> 21         0.28631
       7 -> 26         0.21975
       8 -> 29         0.10319
       8 -> 30         0.59006

 Excited State  94:      Singlet-A"    19.3751 eV   63.99 nm  f=0.0125  <S**2>=0.000
       7 -> 26         0.65119
       8 -> 29        -0.13306
       8 -> 30        -0.18633

 Excited State  95:      Singlet-A"    19.4484 eV   63.75 nm  f=0.0548  <S**2>=0.000
       5 -> 21         0.62159
       7 -> 27         0.10338
       8 -> 30        -0.24897
       9 -> 37        -0.10295

 Excited State  96:      Singlet-A'    19.5197 eV   63.52 nm  f=0.0996  <S**2>=0.000
       4 -> 11         0.11690
       4 -> 13        -0.26999
       5 -> 22        -0.22366
       6 -> 24         0.23211
       7 -> 29         0.18367
       8 -> 27        -0.27266
       8 -> 28         0.35023
       9 -> 36        -0.15864

 Excited State  97:      Singlet-A'    19.6953 eV   62.95 nm  f=0.0276  <S**2>=0.000
       4 -> 13        -0.29901
       5 -> 22         0.61937

 Excited State  98:      Singlet-A'    19.8092 eV   62.59 nm  f=0.0293  <S**2>=0.000
       4 -> 13         0.56163
       5 -> 22         0.23241
       6 -> 24         0.14511
       6 -> 25         0.10654
       7 -> 29         0.10541
       8 -> 27        -0.14394
       8 -> 28         0.18990

 Excited State  99:      Singlet-A"    19.9153 eV   62.26 nm  f=0.0277  <S**2>=0.000
       7 -> 27         0.51189
       7 -> 28         0.45763

 Excited State 100:      Singlet-A"    19.9533 eV   62.14 nm  f=0.0000  <S**2>=0.000
       5 -> 23         0.69670

 Excited State 101:      Singlet-A"    20.0543 eV   61.82 nm  f=0.0864  <S**2>=0.000
       4 -> 14        -0.37776
       5 -> 24        -0.10688
       7 -> 27        -0.30627
       7 -> 28         0.44414
       8 -> 29        -0.10407
       8 -> 32        -0.11043

 Excited State 102:      Singlet-A'    20.0698 eV   61.78 nm  f=0.1169  <S**2>=0.000
       6 -> 25         0.48083
       7 -> 29         0.31985
       8 -> 31         0.11293
       9 -> 38         0.32102

 Excited State 103:      Singlet-A"    20.1582 eV   61.51 nm  f=0.0013  <S**2>=0.000
       4 -> 14        -0.46102
       6 -> 26         0.12874
       7 -> 27         0.11692
       7 -> 28        -0.14394
       8 -> 32         0.46220

 Excited State 104:      Singlet-A'    20.1813 eV   61.44 nm  f=0.0167  <S**2>=0.000
       6 -> 25        -0.24439
       6 -> 29        -0.10146
       7 -> 29         0.27062
       7 -> 30        -0.25334
       8 -> 31         0.52612

 Excited State 105:      Singlet-A'    20.2327 eV   61.28 nm  f=0.0295  <S**2>=0.000
       6 -> 25         0.10947
       7 -> 30         0.48031
       8 -> 31         0.25513
       9 -> 38        -0.41992

 Excited State 106:      Singlet-A"    20.2713 eV   61.16 nm  f=0.0012  <S**2>=0.000
       4 -> 14         0.31650
       5 -> 24         0.12732
       6 -> 28        -0.12432
       7 -> 27        -0.24485
       7 -> 28         0.19130
       8 -> 32         0.47320

 Excited State 107:      Singlet-A'    20.3253 eV   61.00 nm  f=0.0198  <S**2>=0.000
       4 -> 15         0.12332
       6 -> 25        -0.16800
       6 -> 29        -0.17580
       7 -> 29         0.45987
       8 -> 31        -0.34235
       9 -> 38        -0.12097

 Excited State 108:      Singlet-A"    20.3634 eV   60.89 nm  f=0.0116  <S**2>=0.000
       6 -> 26         0.67746
       8 -> 32        -0.13847

 Excited State 109:      Singlet-A'    20.4674 eV   60.58 nm  f=0.0610  <S**2>=0.000

 The electronic state is 1-A'.
 Alpha  occ. eigenvalues --  -14.24215 -10.14286  -0.84662  -0.63529  -0.47418
 Alpha  occ. eigenvalues --   -0.42372  -0.38775  -0.35291  -0.22163
 Alpha virt. eigenvalues --    0.02281   0.05737   0.08898   0.10764   0.12386
 Alpha virt. eigenvalues --    0.14774   0.15429   0.16830   0.19568   0.21288
 Alpha virt. eigenvalues --    0.21858   0.26239   0.27160   0.28331   0.29992

 Mulliken charges:
               1
     1  C    0.569820
     2  N   -0.318494
     3  H   -0.030853
     4  H   -0.108718
     5  H   -0.108718
     6  H   -0.001519
     7  H   -0.001519
 Sum of Mulliken charges =  -0.00000

 Dipole moment (field-independent basis, Debye):
    X=              1.2264    Y=              0.3246    Z=             -0.0000  Tot=              1.2686
 Quadrupole moment (field-independent basis, Debye-Ang):
   XX=            -15.0713   YY=            -14.3831   ZZ=            -12.7094
   XY=             -2.0654   XZ=              0.0000   YZ=              0.0000

 Normal termination of Gaussian 16 at Mon Mar 21 20:09:15 2022.
