 Gaussian 16, Revision C.01,
 Gaussian 16:  EM64L-G16RevC.01  3-Jul-2019

 ---------------------------------------------------------------------
 #P TD(Nstates=10000) tpssh/Gen SCF(maxcycles=100) Int(Grid=ultrafine)
 ---------------------------------------------------------------------

 ---------------------
 xGDB7_00001_tier4.com
 ---------------------
 Symbolic Z-matrix:
 Charge =  0 Multiplicity = 1

                         Standard orientation:
 ---------------------------------------------------------------------
 Center     Atomic      Atomic             Coordinates (Angstroms)
 Number     Number       Type             X           Y           Z
 ---------------------------------------------------------------------
      1          8           0        0.000000    0.000000    0.596896
      2          8           0        0.000000    0.000000   -0.596896
 ---------------------------------------------------------------------

 SCF Done:  E(RTPSSh) =  -150.153976723     A.U. after    9 cycles

 Excitation energies and oscillator strengths:

 Excited state symmetry could not be determined.
 Excited State   1:      Singlet-?Sym    0.0035 eV 356285.69 nm  f=0.0000  <S**2>=0.000
       8 ->  9        -5.02520
       8 <-  9        -4.97520
 This state for optimization and/or second-order correction.
 Total Energy, E(TD-HF/TD-DFT) =  -150.153848839
 Copying the excited state density for this state as the 1-particle RhoCI density.

 Excited state symmetry could not be determined.
 Excited State   2:      Singlet-?Sym    6.8953 eV  179.81 nm  f=0.0000  <S**2>=0.000
       7 ->  9         0.70705

 Excited state symmetry could not be determined.
 Excited State   3:      Singlet-?Sym    7.5701 eV  163.78 nm  f=0.0211  <S**2>=0.000
       8 -> 10         0.70702

 Excited state symmetry could not be determined.
 Excited State   4:      Singlet-?Sym    7.7544 eV  159.89 nm  f=0.0000  <S**2>=0.000
       8 -> 11         0.70627

 Excited state symmetry could not be determined.
 Excited State   5:      Singlet-?Sym    7.8638 eV  157.66 nm  f=0.0000  <S**2>=0.000
       5 ->  9         0.70659

 Excited state symmetry could not be determined.
 Excited State   6:      Singlet-?Sym    8.5805 eV  144.50 nm  f=0.0000  <S**2>=0.000
       8 -> 12         0.70691

 Excited state symmetry could not be determined.
 Excited State   7:      Singlet-?Sym    8.6950 eV  142.59 nm  f=0.0838  <S**2>=0.000
       6 ->  9         0.18679
       8 -> 13         0.68170

 Excited state symmetry could not be determined.
 Excited State   8:      Singlet-?Sym   10.0102 eV  123.86 nm  f=0.0000  <S**2>=0.000
       8 -> 14         0.70623

 Excited state symmetry could not be determined.
 Excited State   9:      Singlet-?Sym   10.3414 eV  119.89 nm  f=0.0000  <S**2>=0.000
       8 -> 16         0.70690

 Excited state symmetry could not be determined.
 Excited State  10:      Singlet-?Sym   10.5504 eV  117.52 nm  f=0.0000  <S**2>=0.000
       8 -> 15         0.70445

 Excited state symmetry could not be determined.
 Excited State  11:      Singlet-?Sym   10.6292 eV  116.65 nm  f=0.0965  <S**2>=0.000
       5 -> 17        -0.15229
       6 ->  9         0.66364
       8 -> 13        -0.18532
       6 <-  9        -0.11484

 Excited state symmetry could not be determined.
 Excited State  12:      Singlet-?Sym   11.9240 eV  103.98 nm  f=0.0060  <S**2>=0.000
       8 -> 17         0.70467

 Excited state symmetry could not be determined.
 Excited State  13:      Singlet-?Sym   14.8712 eV   83.37 nm  f=0.0959  <S**2>=0.000
       8 -> 18         0.70104

 Excited state symmetry could not be determined.
 Excited State  14:      Singlet-?Sym   14.9616 eV   82.87 nm  f=0.0000  <S**2>=0.000
       7 -> 10         0.69904
       8 -> 20        -0.10433

 Excited state symmetry could not be determined.
 Excited State  15:      Singlet-?Sym   15.1814 eV   81.67 nm  f=0.0682  <S**2>=0.000
       7 -> 11         0.70221

 Excited state symmetry could not be determined.
 Excited State  16:      Singlet-?Sym   15.3439 eV   80.80 nm  f=0.0000  <S**2>=0.000
       6 -> 10         0.62532
       8 -> 19        -0.32878

 Excited State  17:      Singlet-SGU   15.4848 eV   80.07 nm  f=0.2193  <S**2>=0.000
       5 -> 10         0.70364

 Excited state symmetry could not be determined.
 Excited State  18:      Singlet-?Sym   15.5443 eV   79.76 nm  f=0.0000  <S**2>=0.000
       6 -> 10         0.32892
       8 -> 19         0.62455

 Excited state symmetry could not be determined.
 Excited State  19:      Singlet-?Sym   15.5471 eV   79.75 nm  f=0.0000  <S**2>=0.000
       7 -> 10         0.10486
       8 -> 20         0.69829

 Excited state symmetry could not be determined.
 Excited State  20:      Singlet-?Sym   15.5878 eV   79.54 nm  f=0.1151  <S**2>=0.000
       6 -> 11         0.70339

 Excited State  21:      Singlet-SGG   15.8819 eV   78.07 nm  f=0.0000  <S**2>=0.000
       5 -> 11         0.64126
       6 -> 12        -0.10408
       7 -> 13        -0.27706

 Excited state symmetry could not be determined.
 Excited State  22:      Singlet-?Sym   15.9375 eV   77.79 nm  f=0.0000  <S**2>=0.000
       7 -> 12         0.70510

 Excited state symmetry could not be determined.
 Excited State  23:      Singlet-?Sym   16.0180 eV   77.40 nm  f=0.0406  <S**2>=0.000
       4 ->  9         0.68612

 Excited state symmetry could not be determined.
 Excited State  24:      Singlet-?Sym   16.1822 eV   76.62 nm  f=0.0000  <S**2>=0.000
       5 -> 11         0.14609
       6 -> 12        -0.46401
       7 -> 13         0.51289

 Excited state symmetry could not be determined.
 Excited State  25:      Singlet-?Sym   16.5074 eV   75.11 nm  f=0.0558  <S**2>=0.000
       5 -> 12         0.70296

 Excited state symmetry could not be determined.
 Excited State  26:      Singlet-?Sym   16.5226 eV   75.04 nm  f=0.0000  <S**2>=0.000
       6 -> 13         0.70529

 Excited state symmetry could not be determined.
 Excited State  27:      Singlet-?Sym   16.6670 eV   74.39 nm  f=0.0447  <S**2>=0.000
       5 -> 13         0.70630

 Excited state symmetry could not be determined.
 Excited State  28:      Singlet-?Sym   16.9768 eV   73.03 nm  f=0.0000  <S**2>=0.000
       5 -> 11         0.24958
       5 -> 14        -0.10933
       6 -> 12         0.51110
       7 -> 13         0.38822

 Excited state symmetry could not be determined.
 Excited State  29:      Singlet-?Sym   17.4432 eV   71.08 nm  f=0.0532  <S**2>=0.000
       7 -> 14         0.70508

 Excited state symmetry could not be determined.
 Excited State  30:      Singlet-?Sym   17.7444 eV   69.87 nm  f=0.0000  <S**2>=0.000
       7 -> 16         0.70614

 Excited state symmetry could not be determined.
 Excited State  31:      Singlet-?Sym   17.7721 eV   69.76 nm  f=0.0126  <S**2>=0.000
       6 -> 16        -0.13220
       7 -> 15         0.68988

 Excited state symmetry could not be determined.
 Excited State  32:      Singlet-?Sym   17.8863 eV   69.32 nm  f=0.0763  <S**2>=0.000
       6 -> 14         0.70053

 Excited state symmetry could not be determined.
 Excited State  33:      Singlet-?Sym   18.0026 eV   68.87 nm  f=0.0000  <S**2>=0.000
       5 -> 14         0.69761

 Excited state symmetry could not be determined.
 Excited State  34:      Singlet-?Sym   18.1382 eV   68.36 nm  f=0.0000  <S**2>=0.000
       6 -> 15         0.70631

 Excited state symmetry could not be determined.
 Excited State  35:      Singlet-?Sym   18.2196 eV   68.05 nm  f=0.0000  <S**2>=0.000
       5 -> 15         0.70626

 Excited state symmetry could not be determined.
 Excited State  36:      Singlet-?Sym   18.2231 eV   68.04 nm  f=0.0000  <S**2>=0.000
       5 -> 16         0.70646

 Excited state symmetry could not be determined.
 Excited State  37:      Singlet-?Sym   18.2309 eV   68.01 nm  f=0.0245  <S**2>=0.000
       5 -> 17         0.11419
       6 -> 16         0.68638
       7 -> 15         0.11779

 Excited state symmetry could not be determined.
 Excited State  38:      Singlet-?Sym   19.2370 eV   64.45 nm  f=0.0000  <S**2>=0.000
       7 -> 17         0.70181

 Excited state symmetry could not be determined.
 Excited State  39:      Singlet-?Sym   19.5774 eV   63.33 nm  f=0.0000  <S**2>=0.000
       6 -> 17         0.70131

 Excited state symmetry could not be determined.
 Excited State  40:      Singlet-?Sym   20.3029 eV   61.07 nm  f=0.0000  <S**2>=0.000
       8 -> 21         0.70560

 Excited state symmetry could not be determined.
 Excited State  41:      Singlet-?Sym   20.3421 eV   60.95 nm  f=0.0007  <S**2>=0.000
       5 -> 17        -0.41217
       8 -> 23         0.55936

 Excited state symmetry could not be determined.
 Excited State  42:      Singlet-?Sym   20.3698 eV   60.87 nm  f=0.0000  <S**2>=0.000
       8 -> 22         0.70681

 Excited state symmetry could not be determined.
 Excited State  43:      Singlet-?Sym   21.3992 eV   57.94 nm  f=0.1215  <S**2>=0.000
       6 -> 19        -0.13299
       8 -> 25         0.69335

 Excited state symmetry could not be determined.
 Excited State  44:      Singlet-?Sym   21.4025 eV   57.93 nm  f=0.1525  <S**2>=0.000
       6 -> 20         0.14139
       8 -> 24         0.68875

 Excited State  45:      Singlet-SGU   21.6380 eV   57.30 nm  f=0.7214  <S**2>=0.000
       4 -> 11         0.38391
       5 -> 17         0.36695
       5 -> 18         0.27659
       8 -> 23         0.36357

 Excited state symmetry could not be determined.
 Excited State  46:      Singlet-?Sym   21.8616 eV   56.71 nm  f=0.0000  <S**2>=0.000
       8 -> 26         0.70546

 Excited state symmetry could not be determined.
 Excited State  47:      Singlet-?Sym   21.9662 eV   56.44 nm  f=0.0565  <S**2>=0.000
       8 -> 28         0.70628

 Excited State  48:      Singlet-SGG   21.9797 eV   56.41 nm  f=0.0000  <S**2>=0.000
       4 -> 10         0.59236
       8 -> 27        -0.38325

 Excited state symmetry could not be determined.
 Excited State  49:      Singlet-?Sym   22.1868 eV   55.88 nm  f=0.0000  <S**2>=0.000
       7 -> 18         0.70397

 Excited State  50:      Singlet-SGU   22.5132 eV   55.07 nm  f=0.0296  <S**2>=0.000
       4 -> 11         0.52489
       5 -> 17        -0.13603
       5 -> 18        -0.44690

 Excited state symmetry could not be determined.
 Excited State  51:      Singlet-?Sym   22.5971 eV   54.87 nm  f=0.0000  <S**2>=0.000
       6 -> 18         0.70128

 Excited state symmetry could not be determined.
 Excited State  52:      Singlet-?Sym   22.7295 eV   54.55 nm  f=0.0117  <S**2>=0.000
       6 -> 20         0.39493
       7 -> 19         0.58255

 Excited state symmetry could not be determined.
 Excited State  53:      Singlet-?Sym   22.7322 eV   54.54 nm  f=0.0100  <S**2>=0.000
       6 -> 19        -0.39086
       7 -> 20         0.58496

 Excited state symmetry could not be determined.
 Excited State  54:      Singlet-?Sym   22.7599 eV   54.47 nm  f=0.0000  <S**2>=0.000
       4 -> 10         0.38084
       8 -> 27         0.57272

 Excited state symmetry could not be determined.
 Excited State  55:      Singlet-?Sym   23.1330 eV   53.60 nm  f=0.0000  <S**2>=0.000
       4 -> 12         0.70244

 Excited state symmetry could not be determined.
 Excited State  56:      Singlet-?Sym   23.3005 eV   53.21 nm  f=0.0000  <S**2>=0.000
       4 -> 13         0.70551

 Excited state symmetry could not be determined.
 Excited State  57:      Singlet-?Sym   23.4309 eV   52.91 nm  f=0.0000  <S**2>=0.000
       5 -> 19         0.70583

 Excited state symmetry could not be determined.
 Excited State  58:      Singlet-?Sym   23.4465 eV   52.88 nm  f=0.0000  <S**2>=0.000
       5 -> 20         0.70462

 Excited state symmetry could not be determined.
 Excited State  59:      Singlet-?Sym   23.9073 eV   51.86 nm  f=0.6139  <S**2>=0.000
       4 -> 15         0.10823
       6 -> 19         0.56488
       7 -> 20         0.38746
       8 -> 25         0.10600

 Excited state symmetry could not be determined.
 Excited State  60:      Singlet-?Sym   23.9890 eV   51.68 nm  f=0.6666  <S**2>=0.000
       4 -> 16        -0.13036
       6 -> 20         0.55449
       7 -> 19        -0.38166
       8 -> 24        -0.11012

 Excited state symmetry could not be determined.
 Excited State  61:      Singlet-?Sym   24.4803 eV   50.65 nm  f=0.0136  <S**2>=0.000
       4 -> 11         0.11760
       4 -> 14         0.65679
       5 -> 17        -0.10027
       5 -> 18         0.17987

 Excited state symmetry could not be determined.
 Excited State  62:      Singlet-?Sym   24.9103 eV   49.77 nm  f=0.0002  <S**2>=0.000
       4 -> 15         0.69760

 Excited state symmetry could not be determined.
 Excited State  63:      Singlet-?Sym   24.9472 eV   49.70 nm  f=0.0019  <S**2>=0.000
       4 -> 16         0.69330

 Excited State  64:      Singlet-SGU   25.0571 eV   49.48 nm  f=0.7581  <S**2>=0.000
       4 -> 11         0.22392
       4 -> 14        -0.25619
       5 -> 17        -0.32838
       5 -> 18         0.41589
       5 -> 28        -0.12331
       6 ->  9        -0.14532
       8 -> 23        -0.19350
       8 -> 30        -0.10927

 Excited State  65:      Singlet-SGG   26.9623 eV   45.98 nm  f=0.0000  <S**2>=0.000
       4 -> 17         0.62948
       5 -> 21         0.18933
       6 -> 22        -0.17785
       7 -> 23        -0.17378

 Excited state symmetry could not be determined.
 Excited State  66:      Singlet-?Sym   27.6889 eV   44.78 nm  f=0.0000  <S**2>=0.000
       6 -> 23         0.11938
       7 -> 22         0.69647

 Excited state symmetry could not be determined.
 Excited State  67:      Singlet-?Sym   27.7598 eV   44.66 nm  f=0.0330  <S**2>=0.000
       5 -> 23        -0.18320
       7 -> 21         0.68143

 Excited state symmetry could not be determined.
 Excited State  68:      Singlet-?Sym   27.9631 eV   44.34 nm  f=0.0000  <S**2>=0.000
       6 -> 22         0.50209
       7 -> 23        -0.49710

 Excited state symmetry could not be determined.
 Excited State  69:      Singlet-?Sym   28.0520 eV   44.20 nm  f=0.0001  <S**2>=0.000
       5 -> 22        -0.36794
       6 -> 21         0.60332

 Excited state symmetry could not be determined.
 Excited State  70:      Singlet-?Sym   28.1651 eV   44.02 nm  f=0.0000  <S**2>=0.000
       4 -> 18         0.15333
       5 -> 21         0.44892
       6 -> 22         0.35812
       7 -> 23         0.37058

 Excited state symmetry could not be determined.
 Excited State  71:      Singlet-?Sym   28.3981 eV   43.66 nm  f=0.0000  <S**2>=0.000
       3 ->  9        -0.49306
       7 -> 24         0.50039

 Excited state symmetry could not be determined.
 Excited State  72:      Singlet-?Sym   28.5160 eV   43.48 nm  f=0.0000  <S**2>=0.000
       6 -> 23         0.69677
       7 -> 22        -0.11977

 Excited state symmetry could not be determined.
 Excited State  73:      Singlet-?Sym   28.6211 eV   43.32 nm  f=0.0000  <S**2>=0.000
       6 -> 24        -0.28130
       7 -> 25         0.64757

 Excited state symmetry could not be determined.
 Excited State  74:      Singlet-?Sym   28.7225 eV   43.17 nm  f=0.0000  <S**2>=0.000
       3 ->  9         0.34692
       6 -> 25         0.46020
       7 -> 24         0.40441

 Excited state symmetry could not be determined.
 Excited State  75:      Singlet-?Sym   28.7453 eV   43.13 nm  f=0.3468  <S**2>=0.000
       5 -> 22         0.59480
       6 -> 21         0.36429

 Excited state symmetry could not be determined.
 Excited State  76:      Singlet-?Sym   28.9210 eV   42.87 nm  f=0.0000  <S**2>=0.000
       4 -> 17        -0.26566
       4 -> 18        -0.25658
       5 -> 21         0.49348
       6 -> 22        -0.23360
       7 -> 23        -0.22886

 Excited state symmetry could not be determined.
 Excited State  77:      Singlet-?Sym   28.9733 eV   42.79 nm  f=0.2833  <S**2>=0.000
       5 -> 23         0.67791
       7 -> 21         0.17866

 Excited state symmetry could not be determined.
 Excited State  78:      Singlet-?Sym   29.0245 eV   42.72 nm  f=0.0000  <S**2>=0.000
       4 -> 19         0.14690
       5 -> 24         0.56884
       6 -> 27        -0.13308
       7 -> 26        -0.36640

 Excited state symmetry could not be determined.
 Excited State  79:      Singlet-?Sym   29.0830 eV   42.63 nm  f=0.0017  <S**2>=0.000
       4 -> 20         0.14792
       5 -> 25         0.62201
       6 -> 26         0.20776
       7 -> 27        -0.20743

 Excited state symmetry could not be determined.
 Excited State  80:      Singlet-?Sym   29.1376 eV   42.55 nm  f=0.0000  <S**2>=0.000
       6 -> 24         0.60928
       7 -> 25         0.25045
       7 -> 28        -0.24266

 Excited state symmetry could not be determined.
 Excited State  81:      Singlet-?Sym   29.2706 eV   42.36 nm  f=0.0000  <S**2>=0.000
       3 ->  9        -0.31784
       5 -> 26        -0.14247
       6 -> 25         0.50310
       6 -> 28         0.22687
       7 -> 24        -0.26290

 Excited state symmetry could not be determined.
 Excited State  82:      Singlet-?Sym   29.3449 eV   42.25 nm  f=0.0000  <S**2>=0.000
       5 -> 27        -0.10631
       6 -> 24         0.21895
       7 -> 25         0.13020
       7 -> 28         0.65017

 Excited state symmetry could not be determined.
 Excited State  83:      Singlet-?Sym   29.3511 eV   42.24 nm  f=0.0000  <S**2>=0.000
       5 -> 24         0.38024
       7 -> 26         0.59497

 Excited state symmetry could not be determined.
 Excited State  84:      Singlet-?Sym   29.4349 eV   42.12 nm  f=0.0082  <S**2>=0.000
       5 -> 25         0.26352
       5 -> 28         0.29851
       7 -> 27         0.57360

 Excited state symmetry could not be determined.
 Excited State  85:      Singlet-?Sym   29.6747 eV   41.78 nm  f=0.0000  <S**2>=0.000
       3 ->  9        -0.11150
       5 -> 26         0.65003
       6 -> 25         0.14428
       6 -> 28        -0.18332

 Excited state symmetry could not be determined.
 Excited State  86:      Singlet-?Sym   29.6883 eV   41.76 nm  f=0.0172  <S**2>=0.000
       5 -> 25        -0.17085
       5 -> 28         0.39983
       6 -> 26         0.55179

 Excited state symmetry could not be determined.
 Excited State  87:      Singlet-?Sym   29.7900 eV   41.62 nm  f=0.0000  <S**2>=0.000
       5 -> 27         0.69402
       7 -> 28         0.12763

 Excited state symmetry could not be determined.
 Excited State  88:      Singlet-?Sym   29.8054 eV   41.60 nm  f=0.0000  <S**2>=0.000
       4 -> 19        -0.15501
       5 -> 24         0.14994
       6 -> 27         0.66902

 Excited state symmetry could not be determined.
 Excited State  89:      Singlet-?Sym   29.8569 eV   41.53 nm  f=0.0000  <S**2>=0.000
       3 ->  9         0.12527
       5 -> 26         0.23660
       6 -> 28         0.64147

 Excited State  90:      Singlet-SGG   30.0009 eV   41.33 nm  f=0.0000  <S**2>=0.000
       4 -> 17        -0.12759
       4 -> 18         0.63820
       6 -> 22        -0.17995
       7 -> 23        -0.17690

 Excited state symmetry could not be determined.
 Excited State  91:      Singlet-?Sym   30.0572 eV   41.25 nm  f=0.0000  <S**2>=0.000
       4 -> 19         0.67258
       6 -> 27         0.18440

 Excited state symmetry could not be determined.
 Excited State  92:      Singlet-?Sym   30.0629 eV   41.24 nm  f=0.0001  <S**2>=0.000
       4 -> 20         0.68424
       5 -> 25        -0.10921
       7 -> 27         0.10440

 Excited state symmetry could not be determined.
 Excited State  93:      Singlet-?Sym   30.6297 eV   40.48 nm  f=0.0026  <S**2>=0.000
       5 -> 28         0.44785
       6 -> 26        -0.33992
       7 -> 27        -0.30837
       8 -> 30        -0.24551

 Excited state symmetry could not be determined.
 Excited State  94:      Singlet-?Sym   32.6668 eV   37.95 nm  f=0.0000  <S**2>=0.000
       8 -> 29         0.70354

 Excited state symmetry could not be determined.
 Excited State  95:      Singlet-?Sym   34.4916 eV   35.95 nm  f=0.0291  <S**2>=0.000
       3 -> 10         0.25917
       3 -> 17        -0.14650
       4 -> 21         0.34015
       5 -> 28         0.12387
       8 -> 30         0.50774

 Excited state symmetry could not be determined.
 Excited State  96:      Singlet-?Sym   34.9211 eV   35.50 nm  f=0.0765  <S**2>=0.000
       3 -> 10        -0.19872
       4 -> 21         0.61600
       8 -> 30        -0.25879

 Excited state symmetry could not be determined.
 Excited State  97:      Singlet-?Sym   34.9305 eV   35.49 nm  f=0.0000  <S**2>=0.000
       4 -> 23         0.11700
       8 -> 31         0.69666

 Excited state symmetry could not be determined.
 Excited State  98:      Singlet-?Sym   35.0300 eV   35.39 nm  f=0.0000  <S**2>=0.000
       4 -> 22         0.70438

 Excited state symmetry could not be determined.
 Excited State  99:      Singlet-?Sym   35.3997 eV   35.02 nm  f=0.0000  <S**2>=0.000
       4 -> 23         0.69584
       8 -> 31        -0.11657

 Excited state symmetry could not be determined.
 Excited State 100:      Singlet-?Sym   35.8221 eV   34.61 nm  f=0.0000  <S**2>=0.000
       4 -> 24         0.70666

 Excited state symmetry could not be determined.
 Excited State 101:      Singlet-?Sym   35.8360 eV   34.60 nm  f=0.0000  <S**2>=0.000
       4 -> 25         0.70661

 Excited State 102:      Singlet-SGG   35.9202 eV   34.52 nm  f=0.0000  <S**2>=0.000
       3 -> 11         0.70481

 Excited State 103:      Singlet-SGU   36.2071 eV   34.24 nm  f=0.0043  <S**2>=0.000
       3 -> 10         0.61747
       3 -> 17         0.18528
       8 -> 30        -0.24107

 Excited state symmetry could not be determined.
 Excited State 104:      Singlet-?Sym   36.4105 eV   34.05 nm  f=0.0555  <S**2>=0.000
       4 -> 26         0.69856

 Excited state symmetry could not be determined.
 Excited State 105:      Singlet-?Sym   36.5180 eV   33.95 nm  f=0.0538  <S**2>=0.000
       4 -> 27         0.69931

 Excited state symmetry could not be determined.
 Excited State 106:      Singlet-?Sym   36.5694 eV   33.90 nm  f=0.0000  <S**2>=0.000
       4 -> 28         0.70495

 Excited state symmetry could not be determined.
 Excited State 107:      Singlet-?Sym   36.8356 eV   33.66 nm  f=0.0026  <S**2>=0.000
       3 -> 12         0.69962

 Excited state symmetry could not be determined.
 Excited State 108:      Singlet-?Sym   36.9889 eV   33.52 nm  f=0.0019  <S**2>=0.000
       3 -> 13         0.69998

 Excited state symmetry could not be determined.
 Excited State 109:      Singlet-?Sym   38.2720 eV   32.40 nm  f=0.0000  <S**2>=0.000
       3 -> 14         0.70366

 Excited state symmetry could not be determined.
 Excited State 110:      Singlet-?Sym   38.5240 eV   32.18 nm  f=0.0000  <S**2>=0.000
       3 -> 15         0.70647

 Excited state symmetry could not be determined.
 Excited State 111:      Singlet-?Sym   38.5602 eV   32.15 nm  f=0.0000  <S**2>=0.000
       3 -> 16         0.70663

 Excited state symmetry could not be determined.
 Excited State 112:      Singlet-?Sym   39.9031 eV   31.07 nm  f=0.0000  <S**2>=0.000
       6 -> 30         0.15840
       7 -> 29         0.68605

 Excited state symmetry could not be determined.
 Excited State 113:      Singlet-?Sym   40.1659 eV   30.87 nm  f=0.0000  <S**2>=0.000
       6 -> 29         0.52733
       7 -> 30        -0.46694

 Excited state symmetry could not be determined.
 Excited State 114:      Singlet-?Sym   40.6091 eV   30.53 nm  f=0.0611  <S**2>=0.000
       5 -> 29         0.70544

 Excited state symmetry could not be determined.
 Excited State 115:      Singlet-?Sym   40.9009 eV   30.31 nm  f=0.0000  <S**2>=0.000
       6 -> 30         0.68804
       7 -> 29        -0.16059

 Excited state symmetry could not be determined.
 Excited State 116:      Singlet-?Sym   40.9237 eV   30.30 nm  f=0.0934  <S**2>=0.000
       5 -> 30        -0.26444
       8 -> 32         0.65126

 Excited state symmetry could not be determined.
 Excited State 117:      Singlet-?Sym   41.1355 eV   30.14 nm  f=0.0139  <S**2>=0.000
       5 -> 30         0.65350
       8 -> 32         0.25975

 Excited State 118:      Singlet-SGG   42.2003 eV   29.38 nm  f=0.0000  <S**2>=0.000
       5 -> 31         0.45750
       6 -> 29        -0.33577
       7 -> 30        -0.38927
       8 -> 35         0.13037

 Excited state symmetry could not be determined.
 Excited State 119:      Singlet-?Sym   42.4144 eV   29.23 nm  f=0.1102  <S**2>=0.000
       7 -> 31         0.70072

 Excited State 120:      Singlet-SGU   42.4747 eV   29.19 nm  f=0.1379  <S**2>=0.000
       3 -> 17         0.58317
       3 -> 18         0.29145
       4 -> 31        -0.11452
       5 -> 32         0.11101
       8 -> 30         0.13082

 Unable to determine electronic state:  partially filled degenerate orbitals.
 Alpha  occ. eigenvalues --  -19.22191 -19.22172  -1.26768  -0.76642  -0.52458
 Alpha  occ. eigenvalues --   -0.52075  -0.50503  -0.23542
 Alpha virt. eigenvalues --   -0.20722   0.06414   0.07680   0.10651   0.11197
 Alpha virt. eigenvalues --    0.15913   0.16683   0.16828   0.23394   0.33884
 Alpha virt. eigenvalues --    0.36922   0.36974   0.54317   0.54954   0.56259

 Mulliken charges:
               1
     1  O    0.000000
     2  O    0.000000
 Sum of Mulliken charges =   0.00000

 Dipole moment (field-independent basis, Debye):
    X=              0.0000    Y=             -0.0000    Z=             -0.0000  Tot=              0.0000
 Quadrupole moment (field-independent basis, Debye-Ang):
   XX=            -11.1663   YY=             -9.2182   ZZ=            -10.7677
   XY=              0.0000   XZ=              0.0000   YZ=              0.0000

 Normal termination of Gaussian 16 at Mon Mar 21 20:08:48 2022.
