 Gaussian 16, Revision C.01,
 Gaussian 16:  EM64L-G16RevC.01  3-Jul-2019

 ---------------------------------------------------------------------
 #P TD(Nstates=10000) tpssh/Gen SCF(maxcycles=100) Int(Grid=ultrafine)
 ---------------------------------------------------------------------

 ---------------------
 xGDB7_00001_tier4.com
 ---------------------
 Symbolic Z-matrix:
 Charge =  0 Multiplicity = 1

                         Standard orientation:
 ---------------------------------------------------------------------
 Center     Atomic      Atomic             Coordinates (Angstroms)
 Number     Number       Type             X           Y           Z
 ---------------------------------------------------------------------
      1          6           0        0.630149   -0.000001   -0.000003
      2          9           0       -0.748512    0.000002    0.000001
      3          1           0        0.985250    0.897475   -0.509314
      4          1           0        0.985222   -0.889832   -0.522562
      5          1           0        0.985245   -0.007652    1.031883
 ---------------------------------------------------------------------

 SCF Done:  E(RTPSSh) =  -139.647135815     A.U. after   11 cycles

 Excitation energies and oscillator strengths:

 Excited State   1:      Singlet-A      9.0544 eV  136.93 nm  f=0.0223  <S**2>=0.000
       9 -> 10         0.70304
 This state for optimization and/or second-order correction.
 Total Energy, E(TD-HF/TD-DFT) =  -139.314391668
 Copying the excited state density for this state as the 1-particle RhoCI density.

 Excited State   2:      Singlet-A      9.0545 eV  136.93 nm  f=0.0223  <S**2>=0.000
       8 -> 10         0.70304

 Excited State   3:      Singlet-A      9.7830 eV  126.73 nm  f=0.0148  <S**2>=0.000
       9 -> 11         0.70230

 Excited State   4:      Singlet-A      9.7830 eV  126.73 nm  f=0.0148  <S**2>=0.000
       8 -> 11         0.70230

 Excited State   5:      Singlet-A     11.0213 eV  112.50 nm  f=0.0349  <S**2>=0.000
       8 -> 12         0.43216
       8 -> 13         0.24896
       9 -> 12         0.24950
       9 -> 13        -0.43211

 Excited State   6:      Singlet-A     11.0213 eV  112.50 nm  f=0.0349  <S**2>=0.000
       8 -> 12        -0.24913
       8 -> 13         0.43160
       9 -> 12         0.43267
       9 -> 13         0.24933

 Excited State   7:      Singlet-A     11.0484 eV  112.22 nm  f=0.0000  <S**2>=0.000
       8 -> 13         0.49276
       9 -> 12        -0.49154

 Excited State   8:      Singlet-A     11.2441 eV  110.27 nm  f=0.1097  <S**2>=0.000
       8 -> 12         0.48569
       9 -> 13         0.48565

 Excited State   9:      Singlet-A     12.1895 eV  101.71 nm  f=0.0000  <S**2>=0.000
       8 -> 15         0.49837
       9 -> 16         0.49847

 Excited State  10:      Singlet-A     12.2311 eV  101.37 nm  f=0.0220  <S**2>=0.000
       9 -> 14         0.69255

 Excited State  11:      Singlet-A     12.2312 eV  101.37 nm  f=0.0220  <S**2>=0.000
       8 -> 14         0.69251

 Excited State  12:      Singlet-A     12.4640 eV   99.47 nm  f=0.0047  <S**2>=0.000
       8 -> 16        -0.48317
       9 -> 15         0.48367

 Excited State  13:      Singlet-A     12.5259 eV   98.98 nm  f=0.0539  <S**2>=0.000
       6 -> 10         0.10950
       8 -> 14         0.12786
       8 -> 15        -0.44697
       8 -> 16         0.16666
       9 -> 15         0.16654
       9 -> 16         0.44701

 Excited State  14:      Singlet-A     12.5259 eV   98.98 nm  f=0.0539  <S**2>=0.000
       7 -> 10         0.10951
       8 -> 15         0.16660
       8 -> 16         0.44725
       9 -> 14         0.12767
       9 -> 15         0.44678
       9 -> 16        -0.16660

 Excited State  15:      Singlet-A     12.8129 eV   96.76 nm  f=0.1493  <S**2>=0.000
       7 -> 10         0.69728

 Excited State  16:      Singlet-A     12.8130 eV   96.76 nm  f=0.1493  <S**2>=0.000
       6 -> 10         0.69728

 Excited State  17:      Singlet-A     13.0908 eV   94.71 nm  f=0.0007  <S**2>=0.000
       5 -> 10         0.67571
       8 -> 17         0.13322
       9 -> 18         0.13318

 Excited State  18:      Singlet-A     13.1079 eV   94.59 nm  f=0.0009  <S**2>=0.000
       8 -> 17        -0.42178
       8 -> 18        -0.26251
       9 -> 17        -0.26331
       9 -> 18         0.42179

 Excited State  19:      Singlet-A     13.1079 eV   94.59 nm  f=0.0009  <S**2>=0.000
       8 -> 17        -0.26291
       8 -> 18         0.42112
       9 -> 17         0.42244
       9 -> 18         0.26290

 Excited State  20:      Singlet-A     13.1384 eV   94.37 nm  f=0.0000  <S**2>=0.000
       8 -> 18         0.49996
       9 -> 17        -0.49842

 Excited State  21:      Singlet-A     13.4769 eV   92.00 nm  f=0.0034  <S**2>=0.000
       5 -> 10        -0.16137
       5 -> 11         0.34544
       8 -> 17         0.39705
       9 -> 18         0.39706

 Excited State  22:      Singlet-A     13.6020 eV   91.15 nm  f=0.0121  <S**2>=0.000
       7 -> 11         0.69747

 Excited State  23:      Singlet-A     13.6021 eV   91.15 nm  f=0.0121  <S**2>=0.000
       6 -> 11         0.69747

 Excited State  24:      Singlet-A     14.3715 eV   86.27 nm  f=0.4334  <S**2>=0.000
       5 -> 11         0.58461
       5 -> 14         0.14943
       8 -> 17        -0.21389
       9 -> 18        -0.21389

 Excited State  25:      Singlet-A     14.7272 eV   84.19 nm  f=0.0000  <S**2>=0.000
       6 -> 12         0.18319
       6 -> 13        -0.45791
       7 -> 12         0.46842
       7 -> 13         0.18532

 Excited State  26:      Singlet-A     14.7312 eV   84.16 nm  f=0.0471  <S**2>=0.000
       6 -> 12         0.24717
       6 -> 13         0.41661
       7 -> 12         0.40904
       7 -> 13        -0.25021
       8 -> 19        -0.14993

 Excited State  27:      Singlet-A     14.7312 eV   84.16 nm  f=0.0471  <S**2>=0.000
       6 -> 12         0.41422
       6 -> 13        -0.25215
       7 -> 12        -0.24518
       7 -> 13        -0.41146
       9 -> 19        -0.14995

 Excited State  28:      Singlet-A     14.8705 eV   83.38 nm  f=0.0011  <S**2>=0.000
       5 -> 13        -0.30401
       6 -> 12         0.11408
       7 -> 13        -0.11413
       9 -> 19         0.60571

 Excited State  29:      Singlet-A     14.8705 eV   83.38 nm  f=0.0011  <S**2>=0.000
       5 -> 12        -0.30415
       6 -> 13         0.11410
       7 -> 12         0.11407
       8 -> 19         0.60565

 Excited State  30:      Singlet-A     14.9782 eV   82.78 nm  f=0.0477  <S**2>=0.000
       5 -> 12         0.62487
       8 -> 19         0.29114

 Excited State  31:      Singlet-A     14.9782 eV   82.78 nm  f=0.0477  <S**2>=0.000
       5 -> 13         0.62493
       9 -> 19         0.29101

 Excited State  32:      Singlet-A     15.4527 eV   80.23 nm  f=0.0043  <S**2>=0.000
       6 -> 12         0.43056
       6 -> 13         0.17128
       7 -> 12        -0.17126
       7 -> 13         0.43052

 Excited State  33:      Singlet-A     15.8245 eV   78.35 nm  f=0.0337  <S**2>=0.000
       6 -> 16        -0.11167
       7 -> 14         0.16398
       7 -> 15        -0.11167
       9 -> 20         0.65768

 Excited State  34:      Singlet-A     15.8246 eV   78.35 nm  f=0.0337  <S**2>=0.000
       6 -> 14         0.16385
       6 -> 15         0.11169
       7 -> 16        -0.11174
       8 -> 20         0.65770

 Excited State  35:      Singlet-A     15.8897 eV   78.03 nm  f=0.0000  <S**2>=0.000
       6 -> 15         0.49038
       7 -> 16         0.49041

 Excited State  36:      Singlet-A     15.9983 eV   77.50 nm  f=0.0004  <S**2>=0.000
       7 -> 14         0.66676
       9 -> 20        -0.19885

 Excited State  37:      Singlet-A     15.9984 eV   77.50 nm  f=0.0004  <S**2>=0.000
       6 -> 14         0.66675
       8 -> 20        -0.19878

 Excited State  38:      Singlet-A     16.0350 eV   77.32 nm  f=0.0030  <S**2>=0.000
       5 -> 14         0.29910
       6 -> 16        -0.43870
       7 -> 15         0.43873

 Excited State  39:      Singlet-A     16.2395 eV   76.35 nm  f=0.0238  <S**2>=0.000
       5 -> 15         0.69166

 Excited State  40:      Singlet-A     16.2396 eV   76.35 nm  f=0.0238  <S**2>=0.000
       5 -> 16         0.69169

 Excited State  41:      Singlet-A     16.4293 eV   75.47 nm  f=0.2214  <S**2>=0.000
       6 -> 14         0.10752
       6 -> 15        -0.34589
       6 -> 16         0.18295
       7 -> 15         0.18287
       7 -> 16         0.34590
       8 -> 22        -0.24774
       9 -> 21        -0.24781

 Excited State  42:      Singlet-A     16.4293 eV   75.47 nm  f=0.2214  <S**2>=0.000
       6 -> 15         0.18290
       6 -> 16         0.34593
       7 -> 14         0.10733
       7 -> 15         0.34585
       7 -> 16        -0.18290
       8 -> 21        -0.24779
       9 -> 22         0.24780

 Excited State  43:      Singlet-A     16.4623 eV   75.31 nm  f=0.0008  <S**2>=0.000
       5 -> 14         0.56089
       6 -> 16         0.19126
       6 -> 17        -0.13503
       7 -> 15        -0.19130
       7 -> 18        -0.13501
       8 -> 21         0.11317
       9 -> 22         0.11318

 Excited State  44:      Singlet-A     16.5910 eV   74.73 nm  f=0.0702  <S**2>=0.000
       6 -> 16        -0.16793
       6 -> 17        -0.20585
       6 -> 18         0.10451
       7 -> 15        -0.16792
       7 -> 17         0.10454
       7 -> 18         0.20588
       8 -> 21        -0.35952
       8 -> 22        -0.13135
       9 -> 21        -0.13137
       9 -> 22         0.35956

 Excited State  45:      Singlet-A     16.5910 eV   74.73 nm  f=0.0702  <S**2>=0.000
       6 -> 15        -0.16791
       6 -> 17         0.10452
       6 -> 18         0.20578
       7 -> 16         0.16790
       7 -> 17         0.20594
       7 -> 18        -0.10452
       8 -> 21        -0.13126
       8 -> 22         0.35935
       9 -> 21         0.35974
       9 -> 22         0.13146

 Excited State  46:      Singlet-A     16.6515 eV   74.46 nm  f=0.0000  <S**2>=0.000
       8 -> 21        -0.28429
       8 -> 22         0.40100
       9 -> 21        -0.40066
       9 -> 22        -0.28415

 Excited State  47:      Singlet-A     16.7798 eV   73.89 nm  f=0.3794  <S**2>=0.000
       5 -> 14        -0.15210
       5 -> 19        -0.10308
       6 -> 17         0.11630
       7 -> 18         0.11623
       8 -> 21         0.37382
       8 -> 22         0.26510
       9 -> 21        -0.26503
       9 -> 22         0.37381

 Excited State  48:      Singlet-A     16.8744 eV   73.47 nm  f=0.0000  <S**2>=0.000
       6 -> 17         0.10410
       6 -> 18        -0.47997
       7 -> 17         0.48094
       7 -> 18         0.10419

 Excited State  49:      Singlet-A     16.9237 eV   73.26 nm  f=0.0994  <S**2>=0.000
       6 -> 15         0.11836
       6 -> 17         0.12639
       6 -> 18         0.41690
       7 -> 16        -0.11841
       7 -> 17         0.41588
       7 -> 18        -0.12667
       8 -> 22        -0.14647
       9 -> 21        -0.14631

 Excited State  50:      Singlet-A     16.9237 eV   73.26 nm  f=0.0994  <S**2>=0.000
       6 -> 16        -0.11841
       6 -> 17         0.41643
       6 -> 18        -0.12675
       7 -> 15        -0.11841
       7 -> 17        -0.12633
       7 -> 18        -0.41635
       8 -> 21        -0.14641
       9 -> 22         0.14636

 Excited State  51:      Singlet-A     17.0443 eV   72.74 nm  f=0.0085  <S**2>=0.000
       5 -> 17         0.58561
       8 -> 23        -0.38417

 Excited State  52:      Singlet-A     17.0444 eV   72.74 nm  f=0.0084  <S**2>=0.000
       5 -> 18         0.58508
       9 -> 23        -0.38500

 Excited State  53:      Singlet-A     17.0717 eV   72.63 nm  f=0.0130  <S**2>=0.000
       5 -> 18         0.38034
       9 -> 23         0.58561

 Excited State  54:      Singlet-A     17.0717 eV   72.63 nm  f=0.0130  <S**2>=0.000
       5 -> 17         0.37950
       8 -> 23         0.58616

 Excited State  55:      Singlet-A     17.1019 eV   72.50 nm  f=0.0407  <S**2>=0.000
       5 -> 14         0.16944
       5 -> 19         0.15260
       6 -> 17         0.44345
       7 -> 18         0.44338

 Excited State  56:      Singlet-A     17.7303 eV   69.93 nm  f=0.0055  <S**2>=0.000
       9 -> 24         0.70248

 Excited State  57:      Singlet-A     17.7303 eV   69.93 nm  f=0.0055  <S**2>=0.000
       8 -> 24         0.70248

 Excited State  58:      Singlet-A     17.9369 eV   69.12 nm  f=0.0000  <S**2>=0.000
       8 -> 25         0.48766
       8 -> 26        -0.10388
       9 -> 25         0.10394
       9 -> 26         0.48768

 Excited State  59:      Singlet-A     18.0914 eV   68.53 nm  f=0.0188  <S**2>=0.000
       7 -> 19        -0.10085
       8 -> 25         0.14773
       8 -> 26         0.45815
       9 -> 25         0.45846
       9 -> 26        -0.14784

 Excited State  60:      Singlet-A     18.0914 eV   68.53 nm  f=0.0188  <S**2>=0.000
       6 -> 19         0.10085
       8 -> 25         0.45833
       8 -> 26        -0.14776
       9 -> 25        -0.14781
       9 -> 26        -0.45828

 Excited State  61:      Singlet-A     18.1915 eV   68.15 nm  f=0.0270  <S**2>=0.000
       4 -> 10         0.17120
       8 -> 26         0.45500
       9 -> 25        -0.45465

 Excited State  62:      Singlet-A     18.6210 eV   66.58 nm  f=0.0018  <S**2>=0.000
       7 -> 19         0.69335

 Excited State  63:      Singlet-A     18.6211 eV   66.58 nm  f=0.0018  <S**2>=0.000
       6 -> 19         0.69335

 Excited State  64:      Singlet-A     18.6995 eV   66.30 nm  f=0.0279  <S**2>=0.000
       4 -> 10         0.63481
       5 -> 19         0.22623
       8 -> 26        -0.10516
       9 -> 25         0.10513

 Excited State  65:      Singlet-A     19.3195 eV   64.18 nm  f=0.0202  <S**2>=0.000
       4 -> 11         0.24449
       5 -> 19        -0.24730
       8 -> 27         0.38944
       8 -> 28         0.17102
       9 -> 27         0.17117
       9 -> 28        -0.38938

 Excited State  66:      Singlet-A     19.3833 eV   63.96 nm  f=0.0000  <S**2>=0.000
       8 -> 27        -0.20075
       8 -> 28         0.45640
       9 -> 27         0.45734
       9 -> 28         0.20072

 Excited State  67:      Singlet-A     19.4263 eV   63.82 nm  f=0.0383  <S**2>=0.000
       7 -> 20        -0.31727
       8 -> 27         0.32956
       8 -> 28         0.29657
       9 -> 27        -0.29592
       9 -> 28         0.32982

 Excited State  68:      Singlet-A     19.4263 eV   63.82 nm  f=0.0383  <S**2>=0.000
       6 -> 20         0.31714
       8 -> 27        -0.29635
       8 -> 28         0.33008
       9 -> 27        -0.32938
       9 -> 28        -0.29619

 Excited State  69:      Singlet-A     19.5453 eV   63.43 nm  f=0.1314  <S**2>=0.000
       4 -> 11         0.60141
       5 -> 19         0.22778
       5 -> 20         0.12577

 Excited State  70:      Singlet-A     19.5625 eV   63.38 nm  f=0.0495  <S**2>=0.000
       7 -> 20         0.61546
       8 -> 27         0.18356
       8 -> 28         0.13155
       9 -> 27        -0.13144
       9 -> 28         0.18350

 Excited State  71:      Singlet-A     19.5626 eV   63.38 nm  f=0.0494  <S**2>=0.000
       6 -> 20         0.61553
       8 -> 27         0.13145
       8 -> 28        -0.18353
       9 -> 27         0.18340
       9 -> 28         0.13143

 Excited State  72:      Singlet-A     19.7537 eV   62.76 nm  f=0.0088  <S**2>=0.000
       4 -> 10        -0.11565
       4 -> 11        -0.13482
       5 -> 19         0.17190
       5 -> 20         0.59505
       8 -> 27         0.14249
       9 -> 28        -0.14251

 Excited State  73:      Singlet-A     19.7912 eV   62.65 nm  f=0.0398  <S**2>=0.000
       9 -> 29         0.69388

 Excited State  74:      Singlet-A     19.7912 eV   62.65 nm  f=0.0398  <S**2>=0.000
       8 -> 29         0.69388

 Excited State  75:      Singlet-A     20.2958 eV   61.09 nm  f=0.0011  <S**2>=0.000
       6 -> 21        -0.49297
       7 -> 22         0.49326

 Excited State  76:      Singlet-A     20.2958 eV   61.09 nm  f=0.0011  <S**2>=0.000
       6 -> 22         0.49279
       7 -> 21         0.49343

 Excited State  77:      Singlet-A     20.3174 eV   61.02 nm  f=0.0159  <S**2>=0.000
       4 -> 10        -0.11614
       4 -> 11        -0.15290
       5 -> 19         0.35836
       5 -> 20        -0.27992
       6 -> 21         0.13934
       6 -> 22         0.15113
       6 -> 26         0.15819
       7 -> 21        -0.15062
       7 -> 22         0.13931
       7 -> 25        -0.15819
       8 -> 27         0.14080
       8 -> 31        -0.11283
       9 -> 28        -0.14080
       9 -> 32        -0.11282

 Excited State  78:      Singlet-A     20.3554 eV   60.91 nm  f=0.0000  <S**2>=0.000
       6 -> 21         0.36723
       6 -> 22        -0.33923
       7 -> 21         0.33871
       7 -> 22         0.36692

 Excited State  79:      Singlet-A     20.4704 eV   60.57 nm  f=0.0945  <S**2>=0.000
       5 -> 19        -0.20654
       6 -> 21         0.28952
       6 -> 22         0.31356
       7 -> 21        -0.31338
       7 -> 22         0.28943
       8 -> 31         0.11693
       9 -> 32         0.11693

 Excited State  80:      Singlet-A     20.5504 eV   60.33 nm  f=0.0396  <S**2>=0.000
       4 -> 12        -0.24837
       5 -> 21         0.63221

 Excited State  81:      Singlet-A     20.5504 eV   60.33 nm  f=0.0396  <S**2>=0.000
       4 -> 13        -0.24839
       5 -> 22         0.63219

 Excited State  82:      Singlet-A     20.6523 eV   60.03 nm  f=0.0143  <S**2>=0.000
       4 -> 12         0.43569
       4 -> 13        -0.30468
       5 -> 21         0.27404
       6 -> 23         0.12596
       7 -> 23        -0.19167
       8 -> 30        -0.17481
       9 -> 30         0.17355

 Excited State  83:      Singlet-A     20.6523 eV   60.03 nm  f=0.0143  <S**2>=0.000
       4 -> 12         0.30492
       4 -> 13         0.43552
       5 -> 22         0.27406
       6 -> 23         0.19159
       7 -> 23         0.12604
       8 -> 30        -0.17321
       9 -> 30        -0.17517

 Excited State  84:      Singlet-A     20.6758 eV   59.97 nm  f=0.0474  <S**2>=0.000
       4 -> 13         0.29020
       9 -> 30         0.63992

 Excited State  85:      Singlet-A     20.6759 eV   59.97 nm  f=0.0475  <S**2>=0.000
       4 -> 12         0.28976
       8 -> 30         0.64013

 Excited State  86:      Singlet-A     20.8551 eV   59.45 nm  f=0.0664  <S**2>=0.000
       4 -> 13        -0.19121
       7 -> 23         0.66000
       9 -> 30         0.12087

 Excited State  87:      Singlet-A     20.8551 eV   59.45 nm  f=0.0664  <S**2>=0.000
       4 -> 12        -0.19112
       6 -> 23         0.66004
       8 -> 30         0.12086

 Excited State  88:      Singlet-A     21.1536 eV   58.61 nm  f=0.0114  <S**2>=0.000
       4 -> 14         0.13873
       5 -> 23         0.67572

 Excited State  89:      Singlet-A     21.4262 eV   57.87 nm  f=0.0020  <S**2>=0.000
       7 -> 24         0.70124

 Excited State  90:      Singlet-A     21.4263 eV   57.87 nm  f=0.0020  <S**2>=0.000
       6 -> 24         0.70124

 Excited State  91:      Singlet-A     21.5833 eV   57.44 nm  f=0.0000  <S**2>=0.000
       5 -> 24         0.17997
       6 -> 25         0.48159
       7 -> 26         0.48162

 Excited State  92:      Singlet-A     21.7103 eV   57.11 nm  f=0.0000  <S**2>=0.000
       5 -> 24         0.68322
       6 -> 25        -0.12766
       7 -> 26        -0.12767

 Excited State  93:      Singlet-A     21.7834 eV   56.92 nm  f=0.0146  <S**2>=0.000
       4 -> 15        -0.31064
       5 -> 25         0.36778
       6 -> 25         0.18710
       6 -> 26         0.22934
       7 -> 25         0.22949
       7 -> 26        -0.18708
       8 -> 31         0.19159
       9 -> 32        -0.19162

 Excited State  94:      Singlet-A     21.7835 eV   56.92 nm  f=0.0146  <S**2>=0.000
       4 -> 16        -0.31057
       5 -> 26         0.36772
       6 -> 25         0.22944
       6 -> 26        -0.18703
       7 -> 25        -0.18713
       7 -> 26        -0.22939
       8 -> 32        -0.19167
       9 -> 31        -0.19173

 Excited State  95:      Singlet-A     21.8477 eV   56.75 nm  f=0.0152  <S**2>=0.000
       4 -> 15         0.40577
       5 -> 25        -0.22156
       6 -> 26         0.10612
       7 -> 25         0.10602
       8 -> 31         0.29494
       8 -> 32         0.19409
       9 -> 31         0.19414
       9 -> 32        -0.29489

 Excited State  96:      Singlet-A     21.8477 eV   56.75 nm  f=0.0152  <S**2>=0.000
       4 -> 16         0.40581
       5 -> 26        -0.22171
       6 -> 25         0.10603
       7 -> 26        -0.10601
       8 -> 31         0.19405
       8 -> 32        -0.29478
       9 -> 31        -0.29495
       9 -> 32        -0.19416

 Excited State  97:      Singlet-A     21.9143 eV   56.58 nm  f=0.0514  <S**2>=0.000
       4 -> 14         0.64844
       6 -> 26        -0.15375
       7 -> 25         0.15370

 Excited State  98:      Singlet-A     21.9491 eV   56.49 nm  f=0.0000  <S**2>=0.000
       8 -> 31        -0.27873
       8 -> 32         0.41423
       9 -> 31        -0.41412
       9 -> 32        -0.27869

 Excited State  99:      Singlet-A     21.9716 eV   56.43 nm  f=0.0051  <S**2>=0.000
       4 -> 15         0.45337
       5 -> 25         0.51889

 Excited State 100:      Singlet-A     21.9717 eV   56.43 nm  f=0.0051  <S**2>=0.000
       4 -> 16         0.45336
       5 -> 26         0.51892

 Excited State 101:      Singlet-A     22.1650 eV   55.94 nm  f=0.1456  <S**2>=0.000
       4 -> 16         0.14002
       5 -> 26        -0.18780
       6 -> 25         0.24544
       6 -> 26        -0.26341
       7 -> 25        -0.26365
       7 -> 26        -0.24543
       8 -> 32         0.26715
       9 -> 31         0.26705

 Excited State 102:      Singlet-A     22.1650 eV   55.94 nm  f=0.1456  <S**2>=0.000
       4 -> 15        -0.13998
       5 -> 25         0.18792
       6 -> 25        -0.26352
       6 -> 26        -0.24525
       7 -> 25        -0.24558
       7 -> 26         0.26352
       8 -> 31         0.26711
       9 -> 32        -0.26709

 Excited State 103:      Singlet-A     22.2064 eV   55.83 nm  f=0.0003  <S**2>=0.000
       4 -> 14         0.20761
       5 -> 19        -0.10644
       6 -> 26         0.38671
       6 -> 27        -0.22105
       7 -> 25        -0.38626

 The electronic state is 1-A.
 Alpha  occ. eigenvalues --  -24.59972 -10.20424  -1.15201  -0.67756  -0.47379
 Alpha  occ. eigenvalues --   -0.46641  -0.46641  -0.33009  -0.33009
 Alpha virt. eigenvalues --    0.02369   0.05494   0.09804   0.09804   0.14237
 Alpha virt. eigenvalues --    0.14656   0.14657   0.17542   0.17542   0.24779
 Alpha virt. eigenvalues --    0.27276   0.30377   0.30377   0.32125   0.34510

 Mulliken charges:
               1
     1  C    0.676671
     2  F   -0.502118
     3  H   -0.058172
     4  H   -0.058189
     5  H   -0.058193
 Sum of Mulliken charges =  -0.00000

 Dipole moment (field-independent basis, Debye):
    X=              1.8208    Y=             -0.0000    Z=              0.0000  Tot=              1.8208
 Quadrupole moment (field-independent basis, Debye-Ang):
   XX=            -12.6732   YY=            -11.9502   ZZ=            -11.9503
   XY=              0.0000   XZ=              0.0000   YZ=              0.0000

 Normal termination of Gaussian 16 at Mon Mar 21 20:09:23 2022.
