 Gaussian 16, Revision C.01,
 Gaussian 16:  EM64L-G16RevC.01  3-Jul-2019

 ---------------------------------------------------------------------
 #P TD(Nstates=10000) tpssh/Gen SCF(maxcycles=100) Int(Grid=ultrafine)
 ---------------------------------------------------------------------

 ---------------------
 xGDB7_00001_tier4.com
 ---------------------
 Symbolic Z-matrix:
 Charge =  0 Multiplicity = 1

                         Standard orientation:
 ---------------------------------------------------------------------
 Center     Atomic      Atomic             Coordinates (Angstroms)
 Number     Number       Type             X           Y           Z
 ---------------------------------------------------------------------
      1          6           0       -0.000001    0.000006    0.000000
      2          1           0       -0.991926    0.448073    0.033817
      3          1           0        0.066172   -0.671147   -0.854975
      4          1           0        0.176250   -0.561167    0.916416
      5          1           0        0.749514    0.784204   -0.095260
 ---------------------------------------------------------------------

 SCF Done:  E(RTPSSh) =  -40.4935084870     A.U. after    9 cycles

 Excitation energies and oscillator strengths:

 Excited State   1:      Singlet-A     10.4985 eV  118.10 nm  f=0.1283  <S**2>=0.000
       5 ->  6         0.70696
 This state for optimization and/or second-order correction.
 Total Energy, E(TD-HF/TD-DFT) =  -40.1076966702
 Copying the excited state density for this state as the 1-particle RhoCI density.

 Excited State   2:      Singlet-A     10.4986 eV  118.10 nm  f=0.1283  <S**2>=0.000
       4 ->  6         0.70695

 Excited State   3:      Singlet-A     10.4986 eV  118.10 nm  f=0.1283  <S**2>=0.000
       3 ->  6         0.70696

 Excited State   4:      Singlet-A     12.8959 eV   96.14 nm  f=0.0000  <S**2>=0.000
       4 ->  7         0.14706
       4 ->  8        -0.25256
       4 ->  9         0.39350
       5 ->  7        -0.26014
       5 ->  8         0.30546
       5 ->  9         0.29157

 Excited State   5:      Singlet-A     12.8959 eV   96.14 nm  f=0.0000  <S**2>=0.000
       3 ->  7         0.15485
       3 ->  8        -0.28244
       3 ->  9         0.36968
       5 ->  7         0.39711
       5 ->  8         0.29067

 Excited State   6:      Singlet-A     12.8960 eV   96.14 nm  f=0.0000  <S**2>=0.000
       3 ->  7         0.19101
       3 ->  8        -0.32225
       3 ->  9        -0.32364
       4 ->  7         0.42479
       4 ->  8         0.25291

 Excited State   7:      Singlet-A     12.9556 eV   95.70 nm  f=0.1353  <S**2>=0.000
       3 ->  7        -0.14059
       4 ->  8         0.15865
       4 ->  9        -0.40471
       5 ->  7        -0.21856
       5 ->  8         0.44327

 Excited State   8:      Singlet-A     12.9556 eV   95.70 nm  f=0.1353  <S**2>=0.000
       3 ->  7         0.41807
       3 ->  8         0.16752
       4 ->  9        -0.18307
       5 ->  8        -0.12387
       5 ->  9         0.44498

 Excited State   9:      Singlet-A     12.9557 eV   95.70 nm  f=0.1353  <S**2>=0.000
       3 ->  7        -0.19380
       3 ->  8         0.36738
       3 ->  9         0.24640
       3 -> 12         0.10441
       4 ->  7         0.41557
       4 ->  8         0.23908

 Excited State  10:      Singlet-A     12.9897 eV   95.45 nm  f=0.0000  <S**2>=0.000
       3 ->  7        -0.10081
       3 ->  8         0.21193
       3 ->  9        -0.40197
       4 ->  7        -0.12444
       4 ->  8         0.11059
       5 ->  7         0.43515
       5 ->  8         0.16320
       5 ->  9         0.17456

 Excited State  11:      Singlet-A     12.9897 eV   95.45 nm  f=0.0000  <S**2>=0.000
       3 ->  7        -0.23012
       3 ->  8        -0.21662
       3 ->  9         0.12064
       4 ->  7        -0.23075
       4 ->  8         0.42622
       4 ->  9         0.25119
       5 ->  8        -0.13365
       5 ->  9         0.23694

 Excited State  12:      Singlet-A     13.6275 eV   90.98 nm  f=0.0000  <S**2>=0.000
       3 ->  7        -0.22480
       3 ->  8        -0.12890
       3 -> 10         0.24336
       3 -> 11         0.17660
       4 ->  7         0.10572
       4 ->  8        -0.17923
       4 ->  9        -0.15449
       4 -> 12         0.29845
       5 ->  8        -0.13575
       5 ->  9         0.20804
       5 -> 10        -0.18992
       5 -> 11         0.24487

 Excited State  13:      Singlet-A     13.6479 eV   90.84 nm  f=0.0000  <S**2>=0.000
       4 -> 10         0.31898
       4 -> 11        -0.36509
       5 -> 10         0.10622
       5 -> 11         0.14799
       5 -> 12         0.45331

 Excited State  14:      Singlet-A     13.6479 eV   90.84 nm  f=0.0000  <S**2>=0.000
       3 -> 10        -0.29561
       3 -> 11         0.38334
       4 -> 14        -0.10458
       5 -> 10        -0.37374
       5 -> 11        -0.26438
       5 -> 12         0.17409

 Excited State  15:      Singlet-A     13.6480 eV   90.84 nm  f=0.0000  <S**2>=0.000
       3 -> 11         0.11614
       3 -> 12         0.46859
       4 -> 10        -0.36361
       4 -> 11        -0.29942
       4 -> 12         0.13267

 Excited State  16:      Singlet-A     13.7450 eV   90.20 nm  f=0.0000  <S**2>=0.000
       3 -> 10        -0.28404
       3 -> 11         0.34862
       3 -> 12        -0.10204
       4 -> 12         0.18388
       5 -> 10         0.47587
       5 -> 11         0.12395

 Excited State  17:      Singlet-A     13.7451 eV   90.20 nm  f=0.0000  <S**2>=0.000
       3 -> 10        -0.13925
       3 -> 11        -0.29253
       3 -> 12         0.11549
       4 -> 11         0.21125
       4 -> 12         0.49679
       5 -> 11        -0.24747
       5 -> 12         0.15054

 Excited State  18:      Singlet-A     14.2139 eV   87.23 nm  f=0.0165  <S**2>=0.000
       3 -> 13         0.14737
       3 -> 14         0.36290
       4 -> 10        -0.21731
       4 -> 11         0.27547
       4 -> 12        -0.12575
       5 -> 11         0.19033
       5 -> 12         0.33122
       5 -> 13         0.20095

 Excited State  19:      Singlet-A     14.2140 eV   87.23 nm  f=0.0165  <S**2>=0.000
       3 -> 10         0.33586
       3 -> 11         0.17096
       4 -> 13         0.42172
       4 -> 14        -0.12179
       5 -> 10         0.17113
       5 -> 11        -0.29641
       5 -> 12         0.12790

 Excited State  20:      Singlet-A     14.2140 eV   87.23 nm  f=0.0164  <S**2>=0.000
       3 -> 12        -0.36330
       3 -> 13         0.21983
       4 -> 10        -0.30875
       4 -> 11        -0.18432
       5 -> 14         0.37310

 Excited State  21:      Singlet-A     14.4921 eV   85.55 nm  f=0.0000  <S**2>=0.000
       3 -> 13        -0.15062
       3 -> 14        -0.30272
       5 -> 13         0.60139

 Excited State  22:      Singlet-A     14.4922 eV   85.55 nm  f=0.0000  <S**2>=0.000
       3 -> 13        -0.28811
       3 -> 14         0.14538
       4 -> 13         0.17048
       4 -> 14         0.54283
       5 -> 14         0.23895

 Excited State  23:      Singlet-A     14.4923 eV   85.55 nm  f=0.0000  <S**2>=0.000
       3 -> 13         0.46269
       3 -> 14        -0.23321
       4 -> 13         0.11235
       4 -> 14         0.38192
       5 -> 14        -0.24318

 Excited State  24:      Singlet-A     14.7531 eV   84.04 nm  f=0.0000  <S**2>=0.000
       2 ->  6        -0.10569
       3 ->  7         0.25666
       3 ->  8         0.14717
       3 -> 10         0.20404
       3 -> 11         0.14812
       4 ->  7        -0.12071
       4 ->  8         0.20463
       4 ->  9         0.17638
       4 -> 12         0.25036
       5 ->  8         0.15498
       5 ->  9        -0.23751
       5 -> 10        -0.15914
       5 -> 11         0.20529

 Excited State  25:      Singlet-A     15.0636 eV   82.31 nm  f=0.6730  <S**2>=0.000
       3 -> 12         0.28026
       3 -> 13         0.25647
       4 ->  7        -0.10074
       4 -> 10         0.23823
       4 -> 11         0.15309
       5 -> 14         0.44532

 Excited State  26:      Singlet-A     15.0637 eV   82.31 nm  f=0.6729  <S**2>=0.000
       3 ->  7         0.10052
       3 -> 10        -0.26362
       3 -> 11        -0.12426
       4 -> 13         0.50353
       4 -> 14        -0.15154
       5 -> 10        -0.13253
       5 -> 11         0.25104

 Excited State  27:      Singlet-A     15.0637 eV   82.31 nm  f=0.6729  <S**2>=0.000
       3 -> 13         0.17388
       3 -> 14         0.42610
       4 ->  9        -0.10604
       4 -> 10         0.17255
       4 -> 11        -0.21843
       5 -> 11        -0.11868
       5 -> 12        -0.26875
       5 -> 13         0.24289

 Excited State  28:      Singlet-A     17.4880 eV   70.90 nm  f=0.1203  <S**2>=0.000
       5 -> 15         0.69938

 Excited State  29:      Singlet-A     17.4881 eV   70.90 nm  f=0.1203  <S**2>=0.000
       4 -> 15         0.69938

 Excited State  30:      Singlet-A     17.4882 eV   70.90 nm  f=0.1203  <S**2>=0.000
       3 -> 15         0.69942

 Excited State  31:      Singlet-A     18.6256 eV   66.57 nm  f=0.0000  <S**2>=0.000
       2 ->  6         0.66737
       5 -> 20         0.12048

 Excited State  32:      Singlet-A     18.9541 eV   65.41 nm  f=0.0331  <S**2>=0.000
       3 -> 18        -0.15561
       4 -> 19        -0.15632
       5 -> 16         0.66410

 Excited State  33:      Singlet-A     18.9542 eV   65.41 nm  f=0.0331  <S**2>=0.000
       3 -> 17        -0.15523
       4 -> 16         0.66374
       5 -> 19         0.15595

 Excited State  34:      Singlet-A     18.9542 eV   65.41 nm  f=0.0331  <S**2>=0.000
       3 -> 16         0.66379
       4 -> 17         0.15566
       5 -> 18         0.15542

 Excited State  35:      Singlet-A     19.1521 eV   64.74 nm  f=0.0000  <S**2>=0.000
       3 -> 17         0.46137
       4 -> 18        -0.16438
       5 -> 17        -0.12050
       5 -> 19         0.47732

 Excited State  36:      Singlet-A     19.1522 eV   64.74 nm  f=0.0000  <S**2>=0.000
       3 -> 17         0.18672
       3 -> 19         0.27830
       4 -> 18         0.54309
       5 -> 17         0.26342
       5 -> 19         0.11773

 Excited State  37:      Singlet-A     19.2084 eV   64.55 nm  f=0.0285  <S**2>=0.000
       3 -> 16        -0.23099
       4 -> 17         0.46045
       5 -> 18         0.46384

 Excited State  38:      Singlet-A     19.2084 eV   64.55 nm  f=0.0285  <S**2>=0.000
       3 -> 17        -0.46186
       4 -> 16        -0.23097
       5 -> 19         0.46368

 Excited State  39:      Singlet-A     19.2085 eV   64.55 nm  f=0.0285  <S**2>=0.000
       3 -> 18         0.46268
       4 -> 19         0.46428
       5 -> 16         0.23101

 Excited State  40:      Singlet-A     19.2417 eV   64.44 nm  f=0.0000  <S**2>=0.000
       4 -> 17        -0.47930
       5 -> 18         0.48488

 Excited State  41:      Singlet-A     19.2418 eV   64.43 nm  f=0.0000  <S**2>=0.000
       3 -> 19        -0.47905
       4 -> 17        -0.11114
       5 -> 17         0.47919

 Excited State  42:      Singlet-A     19.2419 eV   64.43 nm  f=0.0000  <S**2>=0.000
       3 -> 18         0.48216
       4 -> 19        -0.48001

 Excited State  43:      Singlet-A     19.3692 eV   64.01 nm  f=0.0000  <S**2>=0.000
       3 -> 19         0.40067
       4 -> 18        -0.39925
       5 -> 17         0.39800

 Excited State  44:      Singlet-A     19.6267 eV   63.17 nm  f=0.0000  <S**2>=0.000
       4 -> 20         0.48302
       5 -> 21         0.35250
       5 -> 22         0.33361

 Excited State  45:      Singlet-A     19.6267 eV   63.17 nm  f=0.0000  <S**2>=0.000
       3 -> 20         0.48329
       5 -> 21        -0.33045
       5 -> 22         0.36028

 Excited State  46:      Singlet-A     19.6268 eV   63.17 nm  f=0.0000  <S**2>=0.000
       3 -> 21         0.33654
       3 -> 22         0.35298
       4 -> 21         0.35068
       4 -> 22        -0.34079

 Excited State  47:      Singlet-A     19.6659 eV   63.05 nm  f=0.0000  <S**2>=0.000
       3 -> 20         0.44470
       3 -> 21         0.12479
       4 -> 21        -0.14886
       5 -> 20        -0.22644
       5 -> 21         0.26470
       5 -> 22        -0.35357

 Excited State  48:      Singlet-A     19.6659 eV   63.05 nm  f=0.0000  <S**2>=0.000
       3 -> 20         0.11249
       3 -> 21         0.25623
       3 -> 22        -0.19617
       4 -> 20        -0.16229
       4 -> 21         0.33696
       4 -> 22         0.39507
       5 -> 20         0.19722
       5 -> 21         0.20979

 Excited State  49:      Singlet-A     20.1960 eV   61.39 nm  f=0.2048  <S**2>=0.000
       2 ->  9        -0.10127
       3 -> 27        -0.11260
       4 -> 20         0.41031
       4 -> 21         0.15259
       5 -> 20         0.26415
       5 -> 21        -0.23988
       5 -> 22        -0.32205

 Excited State  50:      Singlet-A     20.1961 eV   61.39 nm  f=0.2048  <S**2>=0.000
       3 -> 20         0.14292
       3 -> 21        -0.29736
       3 -> 22         0.31520
       4 -> 20        -0.14887
       4 -> 26         0.13194
       5 -> 20         0.37612
       5 -> 21         0.24977

 Excited State  51:      Singlet-A     20.1962 eV   61.39 nm  f=0.2048  <S**2>=0.000
       2 ->  7         0.12746
       3 -> 20        -0.11680
       3 -> 21         0.30172
       3 -> 22         0.34012
       4 -> 21        -0.32867
       4 -> 22         0.32582
       5 -> 27        -0.12332

 Excited State  52:      Singlet-A     20.3007 eV   61.07 nm  f=0.0000  <S**2>=0.000
       2 ->  6        -0.12956
       3 -> 21         0.23288
       3 -> 22        -0.22808
       3 -> 25        -0.21864
       4 -> 21        -0.22291
       4 -> 22        -0.23555
       4 -> 24        -0.21663
       5 -> 20         0.32175
       5 -> 23        -0.21302

 Excited State  53:      Singlet-A     21.1400 eV   58.65 nm  f=0.0000  <S**2>=0.000
       4 -> 23        -0.47953
       4 -> 24         0.12055
       5 -> 23         0.12278
       5 -> 24         0.48124

 Excited State  54:      Singlet-A     21.1401 eV   58.65 nm  f=0.0000  <S**2>=0.000
       3 -> 23        -0.47963
       5 -> 25         0.48795

 Excited State  55:      Singlet-A     21.1402 eV   58.65 nm  f=0.0000  <S**2>=0.000
       3 -> 24        -0.48706
       4 -> 25         0.49171

 Excited State  56:      Singlet-A     21.1974 eV   58.49 nm  f=0.0122  <S**2>=0.000
       2 ->  7        -0.14772
       2 ->  8         0.40029
       2 ->  9        -0.32444
       3 -> 25        -0.11702
       4 -> 23         0.24359
       4 -> 24        -0.12561
       5 -> 23         0.23326
       5 -> 24         0.21624

 Excited State  57:      Singlet-A     21.1975 eV   58.49 nm  f=0.0122  <S**2>=0.000
       2 ->  7        -0.14841
       2 ->  8         0.29096
       2 ->  9         0.42595
       3 -> 25        -0.27755
       4 -> 23        -0.13634
       5 -> 23         0.21794
       5 -> 24        -0.19500

 Excited State  58:      Singlet-A     21.1975 eV   58.49 nm  f=0.0122  <S**2>=0.000
       2 ->  7         0.49519
       2 ->  8         0.20747
       3 -> 23        -0.10181
       3 -> 24        -0.28064
       4 -> 25        -0.30135

 Excited State  59:      Singlet-A     21.2161 eV   58.44 nm  f=0.0003  <S**2>=0.000
       2 ->  8        -0.27734
       2 ->  9         0.29851
       4 -> 23         0.32840
       4 -> 24        -0.16867
       5 -> 23         0.25049
       5 -> 24         0.30605

 Excited State  60:      Singlet-A     21.2162 eV   58.44 nm  f=0.0004  <S**2>=0.000
       2 ->  7        -0.11842
       2 ->  8         0.27370
       2 ->  9         0.29080
       3 -> 24         0.10363
       3 -> 25         0.36494
       4 -> 23         0.12786
       4 -> 26        -0.10205
       5 -> 23        -0.31664
       5 -> 24         0.20325

 Excited State  61:      Singlet-A     21.2162 eV   58.44 nm  f=0.0004  <S**2>=0.000
       2 ->  7         0.38756
       2 ->  8         0.14795
       3 -> 23         0.12936
       3 -> 24         0.35427
       4 -> 25         0.38148

 Excited State  62:      Singlet-A     21.2295 eV   58.40 nm  f=0.0000  <S**2>=0.000
       3 -> 23         0.44285
       3 -> 24        -0.16723
       4 -> 24         0.11216
       5 -> 24         0.10383
       5 -> 25         0.48665

 Excited State  63:      Singlet-A     21.2295 eV   58.40 nm  f=0.0000  <S**2>=0.000
       3 -> 23        -0.16711
       3 -> 25        -0.27899
       4 -> 23         0.21472
       4 -> 24         0.50976
       5 -> 23        -0.23443
       5 -> 24         0.14016

 Excited State  64:      Singlet-A     21.9365 eV   56.52 nm  f=0.0299  <S**2>=0.000
       2 -> 10         0.68624
       2 -> 11         0.14892

 Excited State  65:      Singlet-A     21.9365 eV   56.52 nm  f=0.0299  <S**2>=0.000
       2 -> 10        -0.13623
       2 -> 11         0.67881
       2 -> 12         0.13087

 Excited State  66:      Singlet-A     21.9365 eV   56.52 nm  f=0.0299  <S**2>=0.000
       2 -> 11        -0.11623
       2 -> 12         0.68991

 Excited State  67:      Singlet-A     22.4700 eV   55.18 nm  f=0.0000  <S**2>=0.000
       2 ->  6        -0.14196
       2 -> 15        -0.19315
       3 -> 21         0.12574
       3 -> 22        -0.12315
       3 -> 25         0.31512
       4 -> 21        -0.12047
       4 -> 22        -0.12730
       4 -> 24         0.31215
       5 -> 20         0.17409
       5 -> 23         0.30685

 Excited State  68:      Singlet-A     22.5919 eV   54.88 nm  f=0.0000  <S**2>=0.000
       2 -> 13         0.70562

 Excited State  69:      Singlet-A     22.5919 eV   54.88 nm  f=0.0000  <S**2>=0.000
       2 -> 14         0.70562

 Excited State  70:      Singlet-A     22.7640 eV   54.47 nm  f=0.0000  <S**2>=0.000
       3 -> 26        -0.22303
       3 -> 27        -0.26682
       5 -> 26         0.61038

 Excited State  71:      Singlet-A     22.7640 eV   54.46 nm  f=0.0000  <S**2>=0.000
       3 -> 26         0.48953
       3 -> 27        -0.30329
       4 -> 27        -0.19676
       5 -> 27        -0.35000

 Excited State  72:      Singlet-A     22.7640 eV   54.46 nm  f=0.0000  <S**2>=0.000
       3 -> 26         0.19185
       3 -> 27        -0.10083
       4 -> 26         0.20081
       4 -> 27         0.64026

 Excited State  73:      Singlet-A     23.4595 eV   52.85 nm  f=0.3818  <S**2>=0.000
       2 ->  7        -0.10273
       3 -> 26         0.26762
       3 -> 27        -0.18295
       5 -> 27         0.57607

 Excited State  74:      Singlet-A     23.4595 eV   52.85 nm  f=0.3817  <S**2>=0.000
       2 ->  9         0.10948
       3 -> 26         0.23248
       3 -> 27         0.38809
       4 -> 26         0.36754
       4 -> 27        -0.12736
       5 -> 26         0.29726

 Excited State  75:      Singlet-A     23.4595 eV   52.85 nm  f=0.3817  <S**2>=0.000
       2 ->  8         0.11092
       3 -> 26        -0.16903
       3 -> 27        -0.32572
       4 -> 26         0.51305
       4 -> 27        -0.15901
       5 -> 20        -0.10064
       5 -> 26        -0.14511

 Excited State  76:      Singlet-A     25.8074 eV   48.04 nm  f=0.0000  <S**2>=0.000
       2 -> 15         0.65252
       2 -> 16        -0.20480

 Excited State  77:      Singlet-A     27.2477 eV   45.50 nm  f=0.0000  <S**2>=0.000
       2 -> 17         0.70676

 Excited State  78:      Singlet-A     27.2478 eV   45.50 nm  f=0.0000  <S**2>=0.000
       2 -> 18         0.70676

 Excited State  79:      Singlet-A     27.2478 eV   45.50 nm  f=0.0000  <S**2>=0.000
       2 -> 19         0.70677

 Excited State  80:      Singlet-A     27.4524 eV   45.16 nm  f=0.0000  <S**2>=0.000
       2 -> 15         0.16236
       2 -> 16         0.66521

 Excited State  81:      Singlet-A     27.9997 eV   44.28 nm  f=0.0003  <S**2>=0.000
       2 -> 20         0.69567

 Excited State  82:      Singlet-A     27.9997 eV   44.28 nm  f=0.0003  <S**2>=0.000
       2 -> 21         0.57342
       2 -> 22         0.39781

 Excited State  83:      Singlet-A     27.9997 eV   44.28 nm  f=0.0003  <S**2>=0.000
       2 -> 21        -0.39426
       2 -> 22         0.57540

 Excited State  84:      Singlet-A     29.2863 eV   42.34 nm  f=0.0125  <S**2>=0.000
       2 -> 23         0.70136

 Excited State  85:      Singlet-A     29.2864 eV   42.34 nm  f=0.0125  <S**2>=0.000
       2 -> 24         0.70137

 Excited State  86:      Singlet-A     29.2865 eV   42.33 nm  f=0.0125  <S**2>=0.000
       2 -> 25         0.70145

 Excited State  87:      Singlet-A     31.0162 eV   39.97 nm  f=0.0000  <S**2>=0.000
       2 -> 26         0.69947

 Excited State  88:      Singlet-A     31.0162 eV   39.97 nm  f=0.0000  <S**2>=0.000
       2 -> 27         0.69947

 Excited State  89:      Singlet-A     31.1261 eV   39.83 nm  f=0.0000  <S**2>=0.000
       4 -> 28         0.48705
       5 -> 29        -0.48700

 Excited State  90:      Singlet-A     31.1262 eV   39.83 nm  f=0.0000  <S**2>=0.000
       3 -> 28         0.49047
       5 -> 30         0.49023

 Excited State  91:      Singlet-A     31.1263 eV   39.83 nm  f=0.0000  <S**2>=0.000
       3 -> 29         0.46669
       3 -> 30         0.17657
       4 -> 29        -0.17557
       4 -> 30         0.46613

 Excited State  92:      Singlet-A     31.3639 eV   39.53 nm  f=0.0000  <S**2>=0.000
       3 -> 28         0.45713
       4 -> 29         0.15244
       4 -> 30         0.11073
       5 -> 28        -0.20782
       5 -> 29         0.17307
       5 -> 30        -0.41122

 Excited State  93:      Singlet-A     31.3640 eV   39.53 nm  f=0.0000  <S**2>=0.000
       3 -> 28        -0.14017
       3 -> 29        -0.11126
       3 -> 30         0.28895
       4 -> 29         0.50922
       4 -> 30         0.17215
       5 -> 28        -0.22967
       5 -> 30         0.17420

 Excited State  94:      Singlet-A     31.5962 eV   39.24 nm  f=0.0000  <S**2>=0.000
       3 -> 29         0.14224
       3 -> 30        -0.37891
       4 -> 29         0.37567
       4 -> 30         0.14362
       5 -> 28         0.40162

 Excited State  95:      Singlet-A     32.4891 eV   38.16 nm  f=0.1462  <S**2>=0.000
       4 -> 28         0.46251
       5 -> 29         0.44408

 The electronic state is 1-A.
 Alpha  occ. eigenvalues --  -10.11349  -0.66999  -0.37647  -0.37647  -0.37646
 Alpha virt. eigenvalues --    0.02810   0.12384   0.12384   0.12384   0.15554
 Alpha virt. eigenvalues --    0.15554   0.15554   0.18179   0.18179   0.28480
 Alpha virt. eigenvalues --    0.34679   0.35666   0.35666   0.35666   0.37514

 Mulliken charges:
               1
     1  C    0.144868
     2  H   -0.036195
     3  H   -0.036229
     4  H   -0.036238
     5  H   -0.036205
 Sum of Mulliken charges =  -0.00000

 Dipole moment (field-independent basis, Debye):
    X=              0.0000    Y=             -0.0000    Z=              0.0000  Tot=              0.0000
 Quadrupole moment (field-independent basis, Debye-Ang):
   XX=             -8.3889   YY=             -8.3890   ZZ=             -8.3891
   XY=              0.0000   XZ=              0.0000   YZ=             -0.0000

 Normal termination of Gaussian 16 at Mon Mar 21 20:00:23 2022.
