 Gaussian 16, Revision C.01,
 Gaussian 16:  EM64L-G16RevC.01  3-Jul-2019

 ---------------------------------------------------------------------
 #P TD(Nstates=10000) tpssh/Gen SCF(maxcycles=100) Int(Grid=ultrafine)
 ---------------------------------------------------------------------

 ---------------------
 xGDB7_00001_tier4.com
 ---------------------
 Symbolic Z-matrix:
 Charge =  0 Multiplicity = 1

                         Standard orientation:
 ---------------------------------------------------------------------
 Center     Atomic      Atomic             Coordinates (Angstroms)
 Number     Number       Type             X           Y           Z
 ---------------------------------------------------------------------
      1          9           0        0.000000    0.000000    0.091801
      2          1           0        0.000000    0.000000   -0.826212
 ---------------------------------------------------------------------

 SCF Done:  E(RTPSSh) =  -100.367790099     A.U. after    9 cycles

 Excitation energies and oscillator strengths:

 Excited state symmetry could not be determined.
 Excited State   1:      Singlet-?Sym   10.0550 eV  123.31 nm  f=0.0330  <S**2>=0.000
       4 ->  6         0.57399
       5 ->  6        -0.41236
 This state for optimization and/or second-order correction.
 Total Energy, E(TD-HF/TD-DFT) =  -99.9982771957
 Copying the excited state density for this state as the 1-particle RhoCI density.

 Excited state symmetry could not be determined.
 Excited State   2:      Singlet-?Sym   10.0550 eV  123.31 nm  f=0.0330  <S**2>=0.000
       4 ->  6         0.41236
       5 ->  6         0.57399

 Excited State   3:      Singlet-SG    13.9488 eV   88.89 nm  f=0.1380  <S**2>=0.000
       3 ->  6         0.62971
       4 ->  8         0.22499
       5 ->  9         0.22499

 Excited state symmetry could not be determined.
 Excited State   4:      Singlet-?Sym   13.9620 eV   88.80 nm  f=0.0000  <S**2>=0.000
       4 ->  8        -0.49986
       5 ->  9         0.49986

 Excited state symmetry could not be determined.
 Excited State   5:      Singlet-?Sym   13.9620 eV   88.80 nm  f=0.0000  <S**2>=0.000
       4 ->  9         0.49986
       5 ->  8         0.49986

 Excited state symmetry could not be determined.
 Excited State   6:      Singlet-?Sym   14.0360 eV   88.33 nm  f=0.0236  <S**2>=0.000
       4 ->  7        -0.40479
       5 ->  7         0.57851

 Excited state symmetry could not be determined.
 Excited State   7:      Singlet-?Sym   14.0360 eV   88.33 nm  f=0.0236  <S**2>=0.000
       4 ->  7         0.57851
       5 ->  7         0.40479

 Excited state symmetry could not be determined.
 Excited State   8:      Singlet-?Sym   14.0413 eV   88.30 nm  f=0.0000  <S**2>=0.000
       4 ->  9        -0.49981
       5 ->  8         0.49981

 Excited state symmetry could not be determined.
 Excited State   9:      Singlet-?Sym   15.5743 eV   79.61 nm  f=0.0153  <S**2>=0.000
       3 ->  6        -0.28560
       3 ->  7        -0.16510
       3 -> 10         0.11161
       4 ->  8         0.41319
       4 -> 12        -0.12846
       5 ->  9         0.41319
       5 -> 11        -0.12846

 Excited state symmetry could not be determined.
 Excited State  10:      Singlet-?Sym   15.9092 eV   77.93 nm  f=0.0742  <S**2>=0.000
       4 -> 10         0.23621
       5 -> 10         0.66427

 Excited state symmetry could not be determined.
 Excited State  11:      Singlet-?Sym   15.9092 eV   77.93 nm  f=0.0742  <S**2>=0.000
       4 -> 10         0.66427
       5 -> 10        -0.23621

 Excited state symmetry could not be determined.
 Excited State  12:      Singlet-?Sym   16.6603 eV   74.42 nm  f=0.0000  <S**2>=0.000
       4 -> 12        -0.49977
       5 -> 11         0.49977

 Excited state symmetry could not be determined.
 Excited State  13:      Singlet-?Sym   16.6603 eV   74.42 nm  f=0.0000  <S**2>=0.000
       4 -> 11         0.49977
       5 -> 12         0.49977

 Excited state symmetry could not be determined.
 Excited State  14:      Singlet-?Sym   16.7980 eV   73.81 nm  f=0.0000  <S**2>=0.000
       4 -> 11         0.49979
       5 -> 12        -0.49979

 Excited state symmetry could not be determined.
 Excited State  15:      Singlet-?Sym   16.8750 eV   73.47 nm  f=0.1915  <S**2>=0.000
       3 ->  7        -0.10931
       3 -> 10         0.12610
       4 -> 12         0.47452
       5 -> 11         0.47452

 Excited state symmetry could not be determined.
 Excited State  16:      Singlet-?Sym   17.8244 eV   69.56 nm  f=0.0004  <S**2>=0.000
       3 ->  8         0.19782
       3 ->  9         0.67808

 Excited state symmetry could not be determined.
 Excited State  17:      Singlet-?Sym   17.8244 eV   69.56 nm  f=0.0004  <S**2>=0.000
       3 ->  8         0.67808
       3 ->  9        -0.19782

 Excited State  18:      Singlet-SG    18.2309 eV   68.01 nm  f=0.0426  <S**2>=0.000
       3 ->  7         0.67180
       3 -> 10         0.13901
       4 ->  8         0.10145
       5 ->  9         0.10145

 Excited state symmetry could not be determined.
 Excited State  19:      Singlet-?Sym   19.0998 eV   64.91 nm  f=0.0216  <S**2>=0.000
       4 -> 13         0.47619
       5 -> 13         0.52112

 Excited state symmetry could not be determined.
 Excited State  20:      Singlet-?Sym   19.0998 eV   64.91 nm  f=0.0216  <S**2>=0.000
       4 -> 13         0.52112
       5 -> 13        -0.47619

 Excited state symmetry could not be determined.
 Excited State  21:      Singlet-?Sym   20.4919 eV   60.50 nm  f=0.0723  <S**2>=0.000
       3 -> 11         0.55525
       3 -> 12         0.43399

 Excited state symmetry could not be determined.
 Excited State  22:      Singlet-?Sym   20.4919 eV   60.50 nm  f=0.0723  <S**2>=0.000
       3 -> 11        -0.43399
       3 -> 12         0.55525

 Excited State  23:      Singlet-SG    20.6538 eV   60.03 nm  f=0.1015  <S**2>=0.000
       3 -> 10         0.64442
       3 -> 13        -0.21601

 Excited State  24:      Singlet-SG    23.5900 eV   52.56 nm  f=0.0851  <S**2>=0.000
       3 -> 10         0.17608
       3 -> 13         0.66431

 Excited state symmetry could not be determined.
 Excited State  25:      Singlet-?Sym   24.4871 eV   50.63 nm  f=0.0000  <S**2>=0.000
       4 -> 14         0.48739
       4 -> 15        -0.11178
       5 -> 14         0.11178
       5 -> 15         0.48739

 Excited state symmetry could not be determined.
 Excited State  26:      Singlet-?Sym   24.4871 eV   50.63 nm  f=0.0000  <S**2>=0.000
       4 -> 14        -0.11178
       4 -> 15        -0.48739
       5 -> 14         0.48739
       5 -> 15        -0.11178

 Excited state symmetry could not be determined.
 Excited State  27:      Singlet-?Sym   25.8210 eV   48.02 nm  f=0.4499  <S**2>=0.000
       4 -> 14         0.47775
       5 -> 15        -0.47775
       5 -> 16        -0.16059

 Excited state symmetry could not be determined.
 Excited State  28:      Singlet-?Sym   25.8210 eV   48.02 nm  f=0.4499  <S**2>=0.000
       4 -> 15         0.47775
       4 -> 16        -0.16059
       5 -> 14         0.47775

 Excited state symmetry could not be determined.
 Excited State  29:      Singlet-?Sym   27.1788 eV   45.62 nm  f=0.1479  <S**2>=0.000
       4 -> 14         0.10794
       4 -> 16        -0.10229
       5 -> 15        -0.10794
       5 -> 16         0.67754

 Excited state symmetry could not be determined.
 Excited State  30:      Singlet-?Sym   27.1788 eV   45.62 nm  f=0.1479  <S**2>=0.000
       4 -> 15         0.10794
       4 -> 16         0.67754
       5 -> 14         0.10794
       5 -> 16         0.10229

 Excited state symmetry could not be determined.
 Excited State  31:      Singlet-?Sym   28.5946 eV   43.36 nm  f=0.0000  <S**2>=0.000
       3 -> 14         0.64604
       4 -> 17         0.20313
       5 -> 18         0.20313

 Excited state symmetry could not be determined.
 Excited State  32:      Singlet-?Sym   28.5946 eV   43.36 nm  f=0.0000  <S**2>=0.000
       3 -> 15         0.64604
       4 -> 18         0.20313
       5 -> 17        -0.20313

 Excited state symmetry could not be determined.
 Excited State  33:      Singlet-?Sym   29.2294 eV   42.42 nm  f=0.0000  <S**2>=0.000
       3 -> 14        -0.28740
       4 -> 17         0.45678
       5 -> 18         0.45678

 Excited state symmetry could not be determined.
 Excited State  34:      Singlet-?Sym   29.2294 eV   42.42 nm  f=0.0000  <S**2>=0.000
       3 -> 15         0.28740
       4 -> 18        -0.45678
       5 -> 17         0.45678

 Excited state symmetry could not be determined.
 Excited State  35:      Singlet-?Sym   29.5050 eV   42.02 nm  f=0.0000  <S**2>=0.000
       4 -> 17         0.49995
       5 -> 18        -0.49995

 Excited state symmetry could not be determined.
 Excited State  36:      Singlet-?Sym   29.6473 eV   41.82 nm  f=0.1433  <S**2>=0.000
       3 -> 16         0.34794
       4 -> 18         0.43032
       5 -> 17         0.43032

 Excited State  37:      Singlet-SG    31.4695 eV   39.40 nm  f=0.1745  <S**2>=0.000
       2 ->  6         0.63816
       3 -> 16        -0.27591

 Excited State  38:      Singlet-SG    32.4688 eV   38.19 nm  f=0.4740  <S**2>=0.000
       2 ->  6         0.27793
       3 -> 16         0.54375
       4 -> 18        -0.24046
       5 -> 17        -0.24046

 Excited state symmetry could not be determined.
 Excited State  39:      Singlet-?Sym   33.5005 eV   37.01 nm  f=0.3077  <S**2>=0.000
       2 ->  9        -0.12849
       3 -> 17         0.68084
       3 -> 18         0.10773

 Excited state symmetry could not be determined.
 Excited State  40:      Singlet-?Sym   33.5005 eV   37.01 nm  f=0.3077  <S**2>=0.000
       2 ->  8        -0.12849
       3 -> 17        -0.10773
       3 -> 18         0.68084

 Excited State  41:      Singlet-SG    35.1670 eV   35.26 nm  f=0.0058  <S**2>=0.000
       2 ->  7         0.70093

 Excited state symmetry could not be determined.
 Excited State  42:      Singlet-?Sym   35.3014 eV   35.12 nm  f=0.0017  <S**2>=0.000
       2 ->  9         0.68728
       3 -> 17         0.12335

 Excited state symmetry could not be determined.
 Excited State  43:      Singlet-?Sym   35.3014 eV   35.12 nm  f=0.0017  <S**2>=0.000
       2 ->  8         0.68728
       3 -> 18         0.12335

 Excited State  44:      Singlet-SG    37.0730 eV   33.44 nm  f=0.0089  <S**2>=0.000
       2 -> 10         0.70512

 Excited state symmetry could not be determined.
 Excited State  45:      Singlet-?Sym   37.6641 eV   32.92 nm  f=0.0020  <S**2>=0.000
       2 -> 11         0.19802
       2 -> 12        -0.22339
       4 -> 19         0.47907
       5 -> 19        -0.42466

 Excited state symmetry could not be determined.
 Excited State  46:      Singlet-?Sym   37.6641 eV   32.92 nm  f=0.0020  <S**2>=0.000
       2 -> 11        -0.22339
       2 -> 12        -0.19802
       4 -> 19         0.42466
       5 -> 19         0.47907

 Excited state symmetry could not be determined.
 Excited State  47:      Singlet-?Sym   37.6946 eV   32.89 nm  f=0.0062  <S**2>=0.000
       2 -> 11         0.59518
       2 -> 12         0.23729
       4 -> 19         0.11049
       5 -> 19         0.27713

 Excited state symmetry could not be determined.
 Excited State  48:      Singlet-?Sym   37.6946 eV   32.89 nm  f=0.0062  <S**2>=0.000
       2 -> 11        -0.23729
       2 -> 12         0.59518
       4 -> 19         0.27713
       5 -> 19        -0.11049

 Excited State  49:      Singlet-SG    40.4839 eV   30.63 nm  f=0.0159  <S**2>=0.000
       2 -> 13         0.67491
       3 -> 19         0.18744

 Excited State  50:      Singlet-SG    41.7836 eV   29.67 nm  f=0.0025  <S**2>=0.000
       2 -> 13        -0.15838
       3 -> 19         0.65393
       4 -> 20        -0.14917
       5 -> 21        -0.14917

 Excited state symmetry could not be determined.
 Excited State  51:      Singlet-?Sym   44.6080 eV   27.79 nm  f=0.0000  <S**2>=0.000
       2 -> 15        -0.15796
       4 -> 20         0.48729
       5 -> 21        -0.48729

 Excited state symmetry could not be determined.
 Excited State  52:      Singlet-?Sym   44.6080 eV   27.79 nm  f=0.0000  <S**2>=0.000
       2 -> 14        -0.15797
       4 -> 21         0.48729
       5 -> 20         0.48729

 Excited state symmetry could not be determined.
 Excited State  53:      Singlet-?Sym   45.1444 eV   27.46 nm  f=0.0000  <S**2>=0.000
       4 -> 21        -0.49997
       5 -> 20         0.49997

 Excited state symmetry could not be determined.
 Excited State  54:      Singlet-?Sym   46.0686 eV   26.91 nm  f=0.0000  <S**2>=0.000
       2 -> 15         0.68921
       4 -> 20         0.11173
       5 -> 21        -0.11173

 Excited state symmetry could not be determined.
 Excited State  55:      Singlet-?Sym   46.0686 eV   26.91 nm  f=0.0000  <S**2>=0.000
       2 -> 14         0.68921
       4 -> 21         0.11173
       5 -> 20         0.11173

 Excited State  56:      Singlet-SG    48.2293 eV   25.71 nm  f=0.0000  <S**2>=0.000
       2 -> 16         0.69489

 Excited state symmetry could not be determined.
 Excited State  57:      Singlet-?Sym   48.8661 eV   25.37 nm  f=0.0004  <S**2>=0.000
       3 -> 20         0.69880

 Excited state symmetry could not be determined.
 Excited State  58:      Singlet-?Sym   48.8661 eV   25.37 nm  f=0.0004  <S**2>=0.000
       3 -> 21         0.69880

 Excited state symmetry could not be determined.
 Excited State  59:      Singlet-?Sym   50.3364 eV   24.63 nm  f=0.0271  <S**2>=0.000
       2 -> 17         0.14095
       2 -> 18        -0.29461
       4 -> 22         0.56318
       5 -> 22        -0.26945

 Excited state symmetry could not be determined.
 Excited State  60:      Singlet-?Sym   50.3364 eV   24.63 nm  f=0.0271  <S**2>=0.000
       2 -> 17        -0.29461
       2 -> 18        -0.14095
       4 -> 22         0.26945
       5 -> 22         0.56318

 Excited state symmetry could not be determined.
 Excited State  61:      Singlet-?Sym   50.6347 eV   24.49 nm  f=0.0254  <S**2>=0.000
       2 -> 17         0.60695
       2 -> 18         0.14175
       5 -> 22         0.32122

 Excited state symmetry could not be determined.
 Excited State  62:      Singlet-?Sym   50.6347 eV   24.49 nm  f=0.0254  <S**2>=0.000
       2 -> 17        -0.14175
       2 -> 18         0.60695
       4 -> 22         0.32122

 Excited State  63:      Singlet-SG    51.3429 eV   24.15 nm  f=0.0830  <S**2>=0.000
       2 -> 16        -0.12428
       3 -> 19        -0.12843
       3 -> 22         0.45465
       4 -> 20        -0.34369
       5 -> 21        -0.34369

 Excited State  64:      Singlet-SG    57.9252 eV   21.40 nm  f=0.0073  <S**2>=0.000
       2 -> 19         0.42136
       3 -> 22        -0.41118
       4 -> 20        -0.18815
       4 -> 23        -0.17118
       5 -> 21        -0.18815
       5 -> 24        -0.17118

 Excited state symmetry could not be determined.
 Excited State  65:      Singlet-?Sym   59.0069 eV   21.01 nm  f=0.0000  <S**2>=0.000
       4 -> 23         0.49995
       5 -> 24        -0.49995

 Excited state symmetry could not be determined.
 Excited State  66:      Singlet-?Sym   59.0069 eV   21.01 nm  f=0.0000  <S**2>=0.000
       4 -> 24         0.49995
       5 -> 23         0.49995

 Excited state symmetry could not be determined.
 Excited State  67:      Singlet-?Sym   59.4921 eV   20.84 nm  f=0.0000  <S**2>=0.000
       4 -> 24        -0.49999
       5 -> 23         0.49999

 Excited State  68:      Singlet-SG    59.6051 eV   20.80 nm  f=0.1324  <S**2>=0.000
       2 -> 19         0.50437
       3 -> 22         0.12187
       4 -> 20         0.10013
       4 -> 23         0.31462
       5 -> 21         0.10013
       5 -> 24         0.31462

 Excited state symmetry could not be determined.
 Excited State  69:      Singlet-?Sym   60.4279 eV   20.52 nm  f=0.0215  <S**2>=0.000
       2 -> 19        -0.23933
       2 -> 22        -0.12798
       3 -> 22        -0.29636
       3 -> 25         0.19985
       4 -> 20        -0.17235
       4 -> 23         0.33670
       5 -> 21        -0.17235
       5 -> 24         0.33670

 Excited state symmetry could not be determined.
 Excited State  70:      Singlet-?Sym   62.0415 eV   19.98 nm  f=0.0001  <S**2>=0.000
       3 -> 23        -0.39672
       4 -> 25         0.58421

 Excited state symmetry could not be determined.
 Excited State  71:      Singlet-?Sym   62.0415 eV   19.98 nm  f=0.0001  <S**2>=0.000
       3 -> 24        -0.39672
       5 -> 25         0.58421

 Excited state symmetry could not be determined.
 Excited State  72:      Singlet-?Sym   63.3606 eV   19.57 nm  f=0.1774  <S**2>=0.000
       3 -> 23         0.57553
       4 -> 25         0.39084

 Excited state symmetry could not be determined.
 Excited State  73:      Singlet-?Sym   63.3606 eV   19.57 nm  f=0.1774  <S**2>=0.000
       3 -> 24         0.57553
       5 -> 25         0.39084

 Excited state symmetry could not be determined.
 Excited State  74:      Singlet-?Sym   66.5963 eV   18.62 nm  f=0.1902  <S**2>=0.000
       2 -> 20         0.28972
       2 -> 21         0.64343

 Excited state symmetry could not be determined.
 Excited State  75:      Singlet-?Sym   66.5963 eV   18.62 nm  f=0.1902  <S**2>=0.000
       2 -> 20         0.64343
       2 -> 21        -0.28972

 Excited State  76:      Singlet-SG    66.9484 eV   18.52 nm  f=0.0201  <S**2>=0.000
       2 -> 22         0.17672
       3 -> 25         0.66161

 Excited state symmetry could not be determined.
 Excited State  77:      Singlet-?Sym   73.4792 eV   16.87 nm  f=0.0200  <S**2>=0.000
       4 -> 26         0.15994
       5 -> 26         0.68664

 Excited state symmetry could not be determined.
 Excited State  78:      Singlet-?Sym   73.4792 eV   16.87 nm  f=0.0200  <S**2>=0.000
       4 -> 26         0.68664
       5 -> 26        -0.15994

 Excited State  79:      Singlet-SG    73.5379 eV   16.86 nm  f=0.0767  <S**2>=0.000
       2 -> 22         0.63724
       2 -> 25         0.13229
       3 -> 25        -0.12727
       3 -> 26        -0.16047

 Excited State  80:      Singlet-SG    77.9311 eV   15.91 nm  f=0.0201  <S**2>=0.000
       2 -> 22         0.12880
       2 -> 25         0.10643
       3 -> 26         0.67690

 Excited state symmetry could not be determined.
 Excited State  81:      Singlet-?Sym   80.2172 eV   15.46 nm  f=0.0017  <S**2>=0.000
       2 -> 23         0.51029
       2 -> 24         0.48873

 Excited state symmetry could not be determined.
 Excited State  82:      Singlet-?Sym   80.2172 eV   15.46 nm  f=0.0017  <S**2>=0.000
       2 -> 23        -0.48873
       2 -> 24         0.51029

 Excited State  83:      Singlet-SG    85.5707 eV   14.49 nm  f=0.0394  <S**2>=0.000
       2 -> 22        -0.11101
       2 -> 25         0.67979

 Excited State  84:      Singlet-SG    95.0036 eV   13.05 nm  f=0.0195  <S**2>=0.000
       2 -> 26         0.70468

 Excited state symmetry could not be determined.
 Excited State  85:      Singlet-?Sym   97.3924 eV   12.73 nm  f=0.0000  <S**2>=0.000
       4 -> 27         0.49216
       5 -> 28         0.49216

 Excited state symmetry could not be determined.
 Excited State  86:      Singlet-?Sym   97.3924 eV   12.73 nm  f=0.0000  <S**2>=0.000
       4 -> 28        -0.49216
       5 -> 27         0.49216

 Excited state symmetry could not be determined.
 Excited State  87:      Singlet-?Sym  101.8583 eV   12.17 nm  f=0.0000  <S**2>=0.000
       3 -> 27         0.60670
       4 -> 29         0.25662
       5 -> 30         0.25662

 Excited state symmetry could not be determined.
 Excited State  88:      Singlet-?Sym  101.8583 eV   12.17 nm  f=0.0000  <S**2>=0.000
       3 -> 28         0.60670
       4 -> 30         0.25662
       5 -> 29        -0.25662

 Excited state symmetry could not be determined.
 Excited State  89:      Singlet-?Sym  102.4635 eV   12.10 nm  f=0.2642  <S**2>=0.000
       3 -> 29         0.36601
       4 -> 27        -0.41422
       5 -> 28         0.41422

 Excited state symmetry could not be determined.
 Excited State  90:      Singlet-?Sym  102.4635 eV   12.10 nm  f=0.2642  <S**2>=0.000
       3 -> 30        -0.36601
       4 -> 28         0.41422
       5 -> 27         0.41422

 Excited state symmetry could not be determined.
 Excited State  91:      Singlet-?Sym  102.8673 eV   12.05 nm  f=0.0000  <S**2>=0.000
       3 -> 27        -0.36282
       4 -> 29         0.42913
       5 -> 30         0.42913

 Excited state symmetry could not be determined.
 Excited State  92:      Singlet-?Sym  102.8673 eV   12.05 nm  f=0.0000  <S**2>=0.000
       3 -> 28         0.36282
       4 -> 30        -0.42912
       5 -> 29         0.42912

 Excited state symmetry could not be determined.
 Excited State  93:      Singlet-?Sym  103.3280 eV   12.00 nm  f=0.0000  <S**2>=0.000
       4 -> 29         0.50000
       5 -> 30        -0.50000

 Excited state symmetry could not be determined.
 Excited State  94:      Singlet-?Sym  108.5217 eV   11.42 nm  f=0.5601  <S**2>=0.000
       3 -> 31        -0.10719
       4 -> 30         0.49098
       5 -> 29         0.49098

 Excited state symmetry could not be determined.
 Excited State  95:      Singlet-?Sym  111.2244 eV   11.15 nm  f=0.6851  <S**2>=0.000
       3 -> 29         0.47560
       3 -> 30        -0.35844
       4 -> 27         0.20710
       4 -> 28        -0.15608
       5 -> 27        -0.15608
       5 -> 28        -0.20710

 Excited state symmetry could not be determined.
 Excited State  96:      Singlet-?Sym  111.2244 eV   11.15 nm  f=0.6851  <S**2>=0.000
       3 -> 29         0.35844
       3 -> 30         0.47560
       4 -> 27         0.15608
       4 -> 28         0.20710
       5 -> 27         0.20710
       5 -> 28        -0.15608

 Excited state symmetry could not be determined.
 Excited State  97:      Singlet-?Sym  120.7299 eV   10.27 nm  f=0.0000  <S**2>=0.000
       2 -> 27         0.70692

 Excited state symmetry could not be determined.
 Excited State  98:      Singlet-?Sym  120.7299 eV   10.27 nm  f=0.0000  <S**2>=0.000
       2 -> 28         0.70692

 Excited state symmetry could not be determined.
 Excited State  99:      Singlet-?Sym  125.4782 eV    9.88 nm  f=0.0092  <S**2>=0.000
       2 -> 29        -0.34982
       2 -> 30         0.61320

 Excited state symmetry could not be determined.
 Excited State 100:      Singlet-?Sym  125.4782 eV    9.88 nm  f=0.0092  <S**2>=0.000
       2 -> 29         0.61320
       2 -> 30         0.34982

 Excited state symmetry could not be determined.
 Excited State 101:      Singlet-?Sym  129.4638 eV    9.58 nm  f=0.1106  <S**2>=0.000
       4 -> 31        -0.24976
       5 -> 31         0.65414

 Excited state symmetry could not be determined.
 Excited State 102:      Singlet-?Sym  129.4638 eV    9.58 nm  f=0.1106  <S**2>=0.000
       4 -> 31         0.65414
       5 -> 31         0.24976

 Excited State 103:      Singlet-SG   134.1503 eV    9.24 nm  f=0.2377  <S**2>=0.000
       3 -> 31         0.69822

 Excited State 104:      Singlet-SG   150.2281 eV    8.25 nm  f=0.0004  <S**2>=0.000
       2 -> 31         0.70663

 The electronic state is 1-SG.
 Alpha  occ. eigenvalues --  -24.61398  -1.16222  -0.53188  -0.39332  -0.39332
 Alpha virt. eigenvalues --    0.00521   0.15021   0.15250   0.15250   0.22393
 Alpha virt. eigenvalues --    0.24953   0.24953   0.33977   0.56584   0.56584
 Alpha virt. eigenvalues --    0.63922   0.72813   0.72813   1.03951   1.32704

 Mulliken charges:
               1
     1  F   -0.267636
     2  H    0.267636
 Sum of Mulliken charges =  -0.00000

 Dipole moment (field-independent basis, Debye):
    X=              0.0000    Y=              0.0000    Z=             -1.8011  Tot=              1.8011
 Quadrupole moment (field-independent basis, Debye-Ang):
   XX=             -5.8988   YY=             -5.8988   ZZ=             -3.8024
   XY=              0.0000   XZ=              0.0000   YZ=              0.0000

 Normal termination of Gaussian 16 at Mon Mar 21 20:08:37 2022.
