 Gaussian 16, Revision C.01,
 Gaussian 16:  EM64L-G16RevC.01  3-Jul-2019

 ---------------------------------------------------------------------
 #P TD(Nstates=10000) tpssh/Gen SCF(maxcycles=100) Int(Grid=ultrafine)
 ---------------------------------------------------------------------

 ---------------------
 xGDB7_00001_tier4.com
 ---------------------
 Symbolic Z-matrix:
 Charge =  0 Multiplicity = 1

                         Standard orientation:
 ---------------------------------------------------------------------
 Center     Atomic      Atomic             Coordinates (Angstroms)
 Number     Number       Type             X           Y           Z
 ---------------------------------------------------------------------
      1          6           0       -1.131573   -0.504386    0.000000
      2          6           0        0.000000    0.472223    0.000000
      3          6           0        1.284136    0.150792    0.000000
      4          1           0       -1.767446   -0.362776    0.877699
      5          1           0       -0.770122   -1.533458    0.000000
      6          1           0       -1.767446   -0.362776   -0.877699
      7          1           0       -0.276551    1.523465    0.000000
      8          1           0        1.608435   -0.884555    0.000000
      9          1           0        2.057749    0.908327    0.000000
 ---------------------------------------------------------------------

 SCF Done:  E(RTPSSh) =  -117.838522528     A.U. after   13 cycles

 Excitation energies and oscillator strengths:

 Excited State   1:      Singlet-A"     7.0576 eV  175.67 nm  f=0.0110  <S**2>=0.000
      12 -> 14         0.70459
 This state for optimization and/or second-order correction.
 Total Energy, E(TD-HF/TD-DFT) =  -117.579160196
 Copying the excited state density for this state as the 1-particle RhoCI density.

 Excited State   2:      Singlet-A'     7.6485 eV  162.10 nm  f=0.4073  <S**2>=0.000
      12 -> 13         0.69112

 Excited State   3:      Singlet-A"     7.8011 eV  158.93 nm  f=0.0298  <S**2>=0.000
      12 -> 15         0.69705
      12 -> 16        -0.10837

 Excited State   4:      Singlet-A"     7.8212 eV  158.52 nm  f=0.0074  <S**2>=0.000
      12 -> 15         0.10844
      12 -> 16         0.69474

 Excited State   5:      Singlet-A"     8.2869 eV  149.61 nm  f=0.0000  <S**2>=0.000
      11 -> 13         0.70175

 Excited State   6:      Singlet-A"     8.9906 eV  137.90 nm  f=0.0024  <S**2>=0.000
      10 -> 13         0.54956
      12 -> 17        -0.43673

 Excited State   7:      Singlet-A"     9.0530 eV  136.95 nm  f=0.0003  <S**2>=0.000
      10 -> 13         0.43681
      12 -> 17         0.55193

 Excited State   8:      Singlet-A'     9.2661 eV  133.80 nm  f=0.0214  <S**2>=0.000
      11 -> 14        -0.18603
      12 -> 18         0.68034

 Excited State   9:      Singlet-A'     9.4001 eV  131.90 nm  f=0.0409  <S**2>=0.000
      11 -> 14         0.67768
      12 -> 18         0.18289

 Excited State  10:      Singlet-A"     9.5092 eV  130.38 nm  f=0.0273  <S**2>=0.000
      12 -> 19         0.70279

 Excited State  11:      Singlet-A"     9.9813 eV  124.22 nm  f=0.0137  <S**2>=0.000
      12 -> 20         0.70245

 Excited State  12:      Singlet-A'    10.0182 eV  123.76 nm  f=0.0363  <S**2>=0.000
      10 -> 14         0.60496
      11 -> 15        -0.36081

 Excited State  13:      Singlet-A'    10.0923 eV  122.85 nm  f=0.0390  <S**2>=0.000
      10 -> 14         0.32720
      11 -> 15         0.56483
      11 -> 16         0.23843
      12 -> 21         0.10670

 Excited State  14:      Singlet-A'    10.1692 eV  121.92 nm  f=0.1981  <S**2>=0.000
      10 -> 14        -0.14639
      11 -> 15        -0.20598
      11 -> 16         0.65195

 Excited State  15:      Singlet-A"    10.2676 eV  120.75 nm  f=0.0000  <S**2>=0.000
       8 -> 13         0.68928
      12 -> 22         0.13258

 Excited State  16:      Singlet-A'    10.3902 eV  119.33 nm  f=0.0573  <S**2>=0.000
      11 -> 16        -0.10303
      12 -> 21         0.68301

 Excited State  17:      Singlet-A"    10.5023 eV  118.05 nm  f=0.0376  <S**2>=0.000
       8 -> 13        -0.12986
      12 -> 22         0.68759

 Excited State  18:      Singlet-A'    10.5999 eV  116.97 nm  f=0.0337  <S**2>=0.000
       9 -> 13         0.68480

 Excited State  19:      Singlet-A"    10.7852 eV  114.96 nm  f=0.0023  <S**2>=0.000
      12 -> 23         0.70418

 Excited State  20:      Singlet-A'    10.8315 eV  114.47 nm  f=0.0191  <S**2>=0.000
      10 -> 15         0.67657
      10 -> 16         0.13566
      12 -> 24         0.12979

 Excited State  21:      Singlet-A'    10.8505 eV  114.27 nm  f=0.0415  <S**2>=0.000
      10 -> 15        -0.14326
      10 -> 16         0.68591

 Excited State  22:      Singlet-A"    11.1906 eV  110.79 nm  f=0.1099  <S**2>=0.000
       9 -> 14         0.69892

 Excited State  23:      Singlet-A'    11.2766 eV  109.95 nm  f=0.0325  <S**2>=0.000
       8 -> 14        -0.22152
      11 -> 17        -0.34762
      12 -> 24         0.54032

 Excited State  24:      Singlet-A'    11.4359 eV  108.42 nm  f=0.0122  <S**2>=0.000
       8 -> 14         0.48178
      11 -> 17         0.31607
      12 -> 24         0.35859

 Excited State  25:      Singlet-A'    11.4488 eV  108.29 nm  f=0.0633  <S**2>=0.000
       8 -> 14        -0.45634
      11 -> 17         0.49517
      12 -> 24         0.11872

 Excited State  26:      Singlet-A"    11.4761 eV  108.04 nm  f=0.0014  <S**2>=0.000
      11 -> 18         0.68980
      12 -> 25        -0.11082

 Excited State  27:      Singlet-A"    11.5284 eV  107.55 nm  f=0.0049  <S**2>=0.000
       7 -> 13         0.63691
      11 -> 18        -0.11489
      12 -> 25        -0.27451

 Excited State  28:      Singlet-A"    11.7084 eV  105.89 nm  f=0.0896  <S**2>=0.000
       7 -> 13         0.27946
      12 -> 25         0.62524

 Excited State  29:      Singlet-A'    11.8407 eV  104.71 nm  f=0.0696  <S**2>=0.000
      10 -> 17         0.17549
      11 -> 19         0.66856

 Excited State  30:      Singlet-A"    11.9621 eV  103.65 nm  f=0.0027  <S**2>=0.000
       9 -> 15         0.28044
       9 -> 16         0.63575
      10 -> 18        -0.11715

 Excited State  31:      Singlet-A"    11.9813 eV  103.48 nm  f=0.0249  <S**2>=0.000
       9 -> 15         0.63420
       9 -> 16        -0.29116

 Excited State  32:      Singlet-A'    12.0087 eV  103.25 nm  f=0.0896  <S**2>=0.000
       8 -> 15        -0.24292
       8 -> 16        -0.16276
      10 -> 17         0.59226
      11 -> 19        -0.18153
      11 -> 20        -0.12079

 Excited State  33:      Singlet-A"    12.1333 eV  102.19 nm  f=0.0336  <S**2>=0.000
       9 -> 15         0.10792
      10 -> 18         0.68427

 Excited State  34:      Singlet-A'    12.1583 eV  101.97 nm  f=0.0411  <S**2>=0.000
       8 -> 15         0.49217
       8 -> 16        -0.42702
      10 -> 19         0.10685
      11 -> 20        -0.17484
      12 -> 26         0.11711

 Excited State  35:      Singlet-A'    12.2027 eV  101.60 nm  f=0.0566  <S**2>=0.000
       8 -> 15         0.37269
       8 -> 16         0.51667
      10 -> 17         0.25036

 Excited State  36:      Singlet-A'    12.2588 eV  101.14 nm  f=0.0285  <S**2>=0.000
       8 -> 15         0.14144
      10 -> 17         0.14625
      11 -> 20         0.65704
      12 -> 26         0.10379

 Excited State  37:      Singlet-A'    12.4925 eV   99.25 nm  f=0.1452  <S**2>=0.000
       8 -> 15        -0.11866
      10 -> 17        -0.12238
      10 -> 19         0.11145
      11 -> 22        -0.10954
      12 -> 26         0.63899

 Excited State  38:      Singlet-A"    12.5183 eV   99.04 nm  f=0.0137  <S**2>=0.000
      11 -> 21         0.59006
      12 -> 27         0.37840

 Excited State  39:      Singlet-A'    12.5692 eV   98.64 nm  f=0.0348  <S**2>=0.000
       7 -> 14        -0.32795
      10 -> 19         0.59832
      12 -> 26        -0.12048

 Excited State  40:      Singlet-A"    12.5866 eV   98.50 nm  f=0.0323  <S**2>=0.000
      11 -> 21        -0.37436
      12 -> 27         0.58251
      12 -> 28        -0.11905

 Excited State  41:      Singlet-A'    12.6857 eV   97.74 nm  f=0.0375  <S**2>=0.000
       7 -> 14         0.60572
      10 -> 19         0.29948
      11 -> 23         0.12680

 Excited State  42:      Singlet-A'    12.8355 eV   96.60 nm  f=0.0828  <S**2>=0.000
      10 -> 20         0.11178
      11 -> 22         0.66886
      12 -> 26         0.11094

 Excited State  43:      Singlet-A'    12.9503 eV   95.74 nm  f=0.0009  <S**2>=0.000
       9 -> 18        -0.25358
      10 -> 20         0.64160

 Excited State  44:      Singlet-A"    12.9987 eV   95.38 nm  f=0.0026  <S**2>=0.000
       9 -> 17        -0.14240
      12 -> 27         0.10945
      12 -> 28         0.67099

 Excited State  45:      Singlet-A"    13.0920 eV   94.70 nm  f=0.0132  <S**2>=0.000
       9 -> 17         0.60283
       9 -> 19        -0.10405
      10 -> 21        -0.32022
      12 -> 28         0.10573

 Excited State  46:      Singlet-A'    13.1724 eV   94.12 nm  f=0.0475  <S**2>=0.000
       7 -> 16         0.19344
       9 -> 18        -0.16906
      11 -> 23         0.62499

 Excited State  47:      Singlet-A"    13.2193 eV   93.79 nm  f=0.0045  <S**2>=0.000
       9 -> 17         0.31845
       9 -> 19         0.15861
      10 -> 21         0.59024

 Excited State  48:      Singlet-A"    13.3325 eV   92.99 nm  f=0.0005  <S**2>=0.000
       8 -> 18        -0.11071
      11 -> 24         0.69010

 Excited State  49:      Singlet-A'    13.3532 eV   92.85 nm  f=0.1621  <S**2>=0.000
       7 -> 15         0.49804
       8 -> 17        -0.43690
       9 -> 18         0.10652
      10 -> 22        -0.19180

 Excited State  50:      Singlet-A'    13.3846 eV   92.63 nm  f=0.0321  <S**2>=0.000
       7 -> 15        -0.33632
       7 -> 16         0.42586
       8 -> 17        -0.29608
       9 -> 18         0.24510
      10 -> 20         0.15180
      10 -> 22        -0.11205
      12 -> 29        -0.11626

 Excited State  51:      Singlet-A'    13.4712 eV   92.04 nm  f=0.1685  <S**2>=0.000
       7 -> 15         0.25584
       7 -> 16         0.40367
      10 -> 22         0.47762
      11 -> 23        -0.12892

 Excited State  52:      Singlet-A"    13.5094 eV   91.78 nm  f=0.0000  <S**2>=0.000
       8 -> 18         0.68549
      11 -> 24         0.11344

 Excited State  53:      Singlet-A'    13.5234 eV   91.68 nm  f=0.0043  <S**2>=0.000
       7 -> 15         0.18237
       7 -> 16         0.21580
       8 -> 17         0.35916
       9 -> 18         0.27528
      10 -> 20         0.12576
      10 -> 22        -0.25706
      12 -> 29         0.29790

 Excited State  54:      Singlet-A'    13.7128 eV   90.42 nm  f=0.0596  <S**2>=0.000
       7 -> 16        -0.13513
       8 -> 17        -0.12957
       8 -> 20        -0.13847
       9 -> 18         0.23950
      10 -> 22         0.28359
      10 -> 23         0.31337
      12 -> 29         0.39308

 Excited State  55:      Singlet-A'    13.7393 eV   90.24 nm  f=0.0525  <S**2>=0.000
       7 -> 16        -0.13880
       8 -> 19         0.47204
       9 -> 18         0.22162
      10 -> 22         0.15322
      10 -> 23        -0.35783
      11 -> 23         0.14599

 Excited State  56:      Singlet-A"    13.7483 eV   90.18 nm  f=0.0555  <S**2>=0.000
       6 -> 13         0.20650
       9 -> 19         0.63020
      10 -> 21        -0.16685

 Excited State  57:      Singlet-A'    13.8803 eV   89.32 nm  f=0.0305  <S**2>=0.000
       8 -> 17         0.11224
       8 -> 19         0.37030
       8 -> 20         0.11848
      10 -> 22        -0.10321
      10 -> 23         0.48936
      12 -> 29        -0.22700

 Excited State  58:      Singlet-A'    13.9166 eV   89.09 nm  f=0.0071  <S**2>=0.000
       7 -> 15        -0.10737
       8 -> 17        -0.14956
       8 -> 19         0.29823
       8 -> 20         0.13794
       9 -> 18        -0.22316
      10 -> 22        -0.11118
      11 -> 25        -0.31600
      12 -> 29         0.33580
      12 -> 31        -0.10429

 Excited State  59:      Singlet-A"    13.9830 eV   88.67 nm  f=0.0036  <S**2>=0.000
       6 -> 13         0.10436
       9 -> 20         0.30495
      12 -> 30         0.61732

 Excited State  60:      Singlet-A'    13.9987 eV   88.57 nm  f=0.0448  <S**2>=0.000
       8 -> 19         0.15319
       9 -> 18        -0.18146
      11 -> 25         0.60001
      12 -> 29         0.14364

 Excited State  61:      Singlet-A"    14.0445 eV   88.28 nm  f=0.0020  <S**2>=0.000
       9 -> 20         0.61092
      12 -> 30        -0.31697

 Excited State  62:      Singlet-A"    14.0956 eV   87.96 nm  f=0.0046  <S**2>=0.000
       6 -> 13         0.29322
      10 -> 24         0.62129

 Excited State  63:      Singlet-A'    14.2745 eV   86.86 nm  f=0.0127  <S**2>=0.000
       8 -> 20         0.27127
       9 -> 21         0.11167
      12 -> 31         0.61545

 Excited State  64:      Singlet-A'    14.3963 eV   86.12 nm  f=0.0198  <S**2>=0.000
       7 -> 17         0.28637
       8 -> 20         0.51571
      10 -> 25         0.16900
      11 -> 25         0.10468
      12 -> 31        -0.27802

 Excited State  65:      Singlet-A"    14.4223 eV   85.97 nm  f=0.1378  <S**2>=0.000
       6 -> 13         0.46480
       7 -> 18         0.21974
       8 -> 21         0.20247
       9 -> 19        -0.16511
      10 -> 24        -0.29833
      11 -> 26        -0.15105

 Excited State  66:      Singlet-A"    14.4924 eV   85.55 nm  f=0.0131  <S**2>=0.000
       6 -> 13        -0.19196
       8 -> 21         0.61560
       9 -> 22        -0.19036
      11 -> 26        -0.13808

 Excited State  67:      Singlet-A'    14.4928 eV   85.55 nm  f=0.0118  <S**2>=0.000
       7 -> 17        -0.22044
       9 -> 21         0.62334
      12 -> 31        -0.10846

 Excited State  68:      Singlet-A"    14.6616 eV   84.56 nm  f=0.0013  <S**2>=0.000
       8 -> 21         0.21756
       9 -> 22         0.62985
       9 -> 23        -0.10335
      11 -> 26         0.15418

 Excited State  69:      Singlet-A'    14.6752 eV   84.49 nm  f=0.0110  <S**2>=0.000
       6 -> 14        -0.10953
       7 -> 17        -0.41985
       8 -> 22        -0.25474
      10 -> 25         0.46502

 Excited State  70:      Singlet-A"    14.7263 eV   84.19 nm  f=0.0253  <S**2>=0.000
       8 -> 21         0.14195
       9 -> 22        -0.11459
      11 -> 26         0.54037
      12 -> 32        -0.39392

 Excited State  71:      Singlet-A"    14.7535 eV   84.04 nm  f=0.0130  <S**2>=0.000
       7 -> 18        -0.11491
       9 -> 22        -0.16216
      11 -> 26         0.36431
      12 -> 32         0.55591

 Excited State  72:      Singlet-A"    14.8294 eV   83.61 nm  f=0.0904  <S**2>=0.000
       6 -> 13        -0.13864
       7 -> 18         0.59171
       9 -> 23         0.30633
      12 -> 32         0.11766

 Excited State  73:      Singlet-A'    14.8365 eV   83.57 nm  f=0.0033  <S**2>=0.000
       6 -> 14         0.25515
       6 -> 16        -0.11651
       7 -> 17         0.29642
       7 -> 19        -0.18660
       8 -> 20        -0.20330
       9 -> 21         0.11238
      10 -> 25         0.42198

 Excited State  74:      Singlet-A'    14.8960 eV   83.23 nm  f=0.0043  <S**2>=0.000
       6 -> 14        -0.23398
       7 -> 19        -0.11838
       8 -> 22         0.49159
      10 -> 25         0.16080
      11 -> 27         0.38160

 Excited State  75:      Singlet-A"    14.9615 eV   82.87 nm  f=0.1195  <S**2>=0.000
       6 -> 13         0.12160
       7 -> 18        -0.24564
       9 -> 22         0.11820
       9 -> 23         0.61017

 Excited State  76:      Singlet-A'    14.9902 eV   82.71 nm  f=0.1811  <S**2>=0.000
       6 -> 14         0.55462
       7 -> 17        -0.18111
       7 -> 19         0.12235
       8 -> 20         0.11158
       8 -> 22         0.23410
       8 -> 23         0.11333
       9 -> 21        -0.12627

 Excited State  77:      Singlet-A"    15.0881 eV   82.17 nm  f=0.0175  <S**2>=0.000
      12 -> 33         0.69689

 Excited State  78:      Singlet-A'    15.1275 eV   81.96 nm  f=0.0539  <S**2>=0.000
       6 -> 14        -0.15992
       8 -> 22         0.12963
       8 -> 23         0.55962
      11 -> 27        -0.30857

 Excited State  79:      Singlet-A'    15.1696 eV   81.73 nm  f=0.1332  <S**2>=0.000
       7 -> 17         0.13328
       7 -> 19         0.36854
       8 -> 22        -0.15738
       8 -> 23         0.33923
       9 -> 24         0.10728
      10 -> 27        -0.12002
      11 -> 27         0.35205

 Excited State  80:      Singlet-A'    15.2954 eV   81.06 nm  f=0.1830  <S**2>=0.000
       6 -> 16        -0.14224
       7 -> 19         0.40900
       8 -> 22         0.19813
       8 -> 23        -0.15552
       9 -> 24         0.29191
      10 -> 28        -0.14065
      11 -> 27        -0.22824
      11 -> 28        -0.10909

 Excited State  81:      Singlet-A"    15.3289 eV   80.88 nm  f=0.0092  <S**2>=0.000
      10 -> 26        -0.11765
      12 -> 34         0.68281

 Excited State  82:      Singlet-A'    15.3712 eV   80.66 nm  f=0.1099  <S**2>=0.000
       6 -> 16         0.12302
       7 -> 19        -0.19775
       9 -> 24         0.57788
      11 -> 28         0.25945

 Excited State  83:      Singlet-A"    15.3912 eV   80.56 nm  f=0.0204  <S**2>=0.000
       8 -> 24         0.15115
      10 -> 26         0.67207
      12 -> 34         0.10079

 Excited State  84:      Singlet-A"    15.4148 eV   80.43 nm  f=0.0117  <S**2>=0.000
       8 -> 24         0.64713
      10 -> 26        -0.15309
      11 -> 29        -0.20635

 Excited State  85:      Singlet-A'    15.5204 eV   79.88 nm  f=0.0823  <S**2>=0.000
       6 -> 15         0.24380
       7 -> 20         0.35976
      11 -> 28         0.31719
      12 -> 35         0.41938

 Excited State  86:      Singlet-A'    15.5294 eV   79.84 nm  f=0.1051  <S**2>=0.000
       6 -> 15         0.19270
       7 -> 20        -0.12600
       9 -> 24        -0.20519
      10 -> 27        -0.30752
      11 -> 27        -0.12692
      11 -> 28         0.36698
      12 -> 35        -0.30523

 Excited State  87:      Singlet-A'    15.5638 eV   79.66 nm  f=0.0023  <S**2>=0.000
       6 -> 15        -0.29267
       6 -> 16        -0.11927
       7 -> 20         0.52735
      10 -> 27        -0.18980
      12 -> 35        -0.26004

 Excited State  88:      Singlet-A"    15.6550 eV   79.20 nm  f=0.0164  <S**2>=0.000
       7 -> 21         0.14060
       8 -> 24         0.21195
      11 -> 29         0.64723

 Excited State  89:      Singlet-A'    15.6660 eV   79.14 nm  f=0.1089  <S**2>=0.000
       6 -> 15         0.17158
       7 -> 20         0.12263
      10 -> 27         0.52502
      11 -> 28         0.10550
      12 -> 35        -0.35810

 Excited State  90:      Singlet-A"    15.7306 eV   78.82 nm  f=0.0002  <S**2>=0.000
       7 -> 21         0.19132
       9 -> 25         0.35362
      12 -> 36         0.57509

 Excited State  91:      Singlet-A"    15.7720 eV   78.61 nm  f=0.0002  <S**2>=0.000
       7 -> 21         0.40299
       9 -> 25         0.38762
      11 -> 29        -0.13816
      12 -> 36        -0.37863

 Excited State  92:      Singlet-A'    15.7951 eV   78.50 nm  f=0.0074  <S**2>=0.000
       6 -> 15         0.37675
       6 -> 16         0.35253
       7 -> 20         0.16954
       7 -> 22        -0.11224
       8 -> 25         0.18631
      10 -> 27        -0.15975
      10 -> 28        -0.18147
      11 -> 28        -0.20801

 Excited State  93:      Singlet-A'    15.8582 eV   78.18 nm  f=0.0063  <S**2>=0.000
       6 -> 15        -0.31296
       6 -> 16         0.44405
       7 -> 19         0.15547
       8 -> 25         0.24752
      11 -> 28         0.13457

 Excited State  94:      Singlet-A'    15.9864 eV   77.56 nm  f=0.0522  <S**2>=0.000
       6 -> 16        -0.10664
       7 -> 22         0.45964
       8 -> 25         0.31685
      10 -> 28        -0.35641
      11 -> 28         0.10000

 Excited State  95:      Singlet-A"    15.9921 eV   77.53 nm  f=0.1074  <S**2>=0.000
       7 -> 21         0.50209
       9 -> 25        -0.42766
      12 -> 36         0.10032

 Excited State  96:      Singlet-A'    16.0850 eV   77.08 nm  f=0.0088  <S**2>=0.000
       6 -> 16        -0.20578
       7 -> 22        -0.28183
       8 -> 25         0.52346
      10 -> 28         0.18032

 Excited State  97:      Singlet-A'    16.2559 eV   76.27 nm  f=0.0062  <S**2>=0.000
       7 -> 22         0.15389
      11 -> 30         0.65966

 Excited State  98:      Singlet-A'    16.3422 eV   75.87 nm  f=0.1707  <S**2>=0.000
       7 -> 22         0.35480
       7 -> 23        -0.23532
      10 -> 28         0.41575
      11 -> 28        -0.15037
      11 -> 30        -0.12318

 Excited State  99:      Singlet-A"    16.3625 eV   75.77 nm  f=0.0017  <S**2>=0.000
      10 -> 29         0.22787
      12 -> 37         0.66026

 Excited State 100:      Singlet-A"    16.4221 eV   75.50 nm  f=0.0018  <S**2>=0.000
      10 -> 29         0.29389
      12 -> 37        -0.13016
      12 -> 38         0.60510

 Excited State 101:      Singlet-A"    16.4395 eV   75.42 nm  f=0.0038  <S**2>=0.000
       7 -> 24         0.10719
      10 -> 29         0.56547
      12 -> 37        -0.18093
      12 -> 38        -0.33526

 Excited State 102:      Singlet-A'    16.4687 eV   75.28 nm  f=0.0771  <S**2>=0.000
       7 -> 23         0.54514
       9 -> 26        -0.21046
      12 -> 39        -0.13626
      12 -> 40         0.27076

 Excited State 103:      Singlet-A'    16.5294 eV   75.01 nm  f=0.0200  <S**2>=0.000
       7 -> 23        -0.22258
       9 -> 26         0.19815
      11 -> 32        -0.10515
      12 -> 39        -0.37323
      12 -> 40         0.45714

 Excited State 104:      Singlet-A"    16.5644 eV   74.85 nm  f=0.1156  <S**2>=0.000
      11 -> 31         0.68160

 Excited State 105:      Singlet-A'    16.5760 eV   74.80 nm  f=0.1073  <S**2>=0.000
       7 -> 23        -0.15908
       8 -> 27        -0.14033
       9 -> 26        -0.35729
      10 -> 28        -0.12006
      12 -> 39         0.40630
      12 -> 40         0.35226

 Excited State 106:      Singlet-A'    16.6323 eV   74.54 nm  f=0.0783  <S**2>=0.000
       7 -> 23         0.12437
       9 -> 26         0.50093
      12 -> 39         0.37655
      12 -> 40         0.22363

 Excited State 107:      Singlet-A"    16.6711 eV   74.37 nm  f=0.0064  <S**2>=0.000
       7 -> 24         0.63677
       8 -> 26        -0.19118
       9 -> 27         0.13305
      10 -> 29        -0.16206

 Excited State 108:      Singlet-A"    16.7092 eV   74.20 nm  f=0.0374  <S**2>=0.000
       7 -> 24        -0.21943
       8 -> 26        -0.40780
       9 -> 27         0.51193

 The electronic state is 1-A'.
 Alpha  occ. eigenvalues --  -10.12693 -10.12413 -10.11460  -0.76073  -0.66118
 Alpha  occ. eigenvalues --   -0.53273  -0.45068  -0.40519  -0.39846  -0.35630
 Alpha  occ. eigenvalues --   -0.33057  -0.24761
 Alpha virt. eigenvalues --    0.00091   0.03059   0.05694   0.05934   0.10369
 Alpha virt. eigenvalues --    0.11068   0.12325   0.13865   0.15056   0.15861
 Alpha virt. eigenvalues --    0.16916   0.18284   0.20141   0.22995   0.23637

 Mulliken charges:
               1
     1  C    0.491176
     2  C   -0.438430
     3  C   -0.057046
     4  H    0.037559
     5  H    0.047066
     6  H    0.037559
     7  H   -0.142289
     8  H    0.002782
     9  H    0.021624
 Sum of Mulliken charges =  -0.00000

 Dipole moment (field-independent basis, Debye):
    X=             -0.3851    Y=             -0.0437    Z=              0.0000  Tot=              0.3876
 Quadrupole moment (field-independent basis, Debye-Ang):
   XX=            -19.3002   YY=            -19.1982   ZZ=            -21.6275
   XY=             -0.2114   XZ=             -0.0000   YZ=             -0.0000

 Normal termination of Gaussian 16 at Mon Mar 21 20:03:06 2022.
