 Gaussian 16, Revision C.01,
 Gaussian 16:  EM64L-G16RevC.01  3-Jul-2019

 ---------------------------------------------------------------------
 #P TD(Nstates=10000) tpssh/Gen SCF(maxcycles=100) Int(Grid=ultrafine)
 ---------------------------------------------------------------------

 ---------------------
 xGDB7_00001_tier4.com
 ---------------------
 Symbolic Z-matrix:
 Charge =  0 Multiplicity = 1

                         Standard orientation:
 ---------------------------------------------------------------------
 Center     Atomic      Atomic             Coordinates (Angstroms)
 Number     Number       Type             X           Y           Z
 ---------------------------------------------------------------------
      1          9           0        0.000000    0.000000    0.688193
      2          9           0        0.000000    0.000000   -0.688193
 ---------------------------------------------------------------------

 SCF Done:  E(RTPSSh) =  -199.355752865     A.U. after   10 cycles

 Excitation energies and oscillator strengths:

 Excited state symmetry could not be determined.
 Excited State   1:      Singlet-?Sym    5.0161 eV  247.17 nm  f=0.0001  <S**2>=0.000
       8 -> 10        -0.48103
       9 -> 10         0.51932
 This state for optimization and/or second-order correction.
 Total Energy, E(TD-HF/TD-DFT) =  -199.171414211
 Copying the excited state density for this state as the 1-particle RhoCI density.

 Excited state symmetry could not be determined.
 Excited State   2:      Singlet-?Sym    5.0161 eV  247.17 nm  f=0.0001  <S**2>=0.000
       8 -> 10         0.51932
       9 -> 10         0.48103

 Excited state symmetry could not be determined.
 Excited State   3:      Singlet-?Sym    8.7960 eV  140.95 nm  f=0.0000  <S**2>=0.000
       6 -> 10         0.70654

 Excited state symmetry could not be determined.
 Excited State   4:      Singlet-?Sym    8.7960 eV  140.95 nm  f=0.0000  <S**2>=0.000
       7 -> 10         0.70654

 Excited state symmetry could not be determined.
 Excited State   5:      Singlet-?Sym   12.6020 eV   98.38 nm  f=0.0000  <S**2>=0.000
       8 -> 12         0.67293
       9 -> 12         0.21314

 Excited state symmetry could not be determined.
 Excited State   6:      Singlet-?Sym   12.6020 eV   98.38 nm  f=0.0000  <S**2>=0.000
       8 -> 12        -0.21314
       9 -> 12         0.67293

 Excited state symmetry could not be determined.
 Excited State   7:      Singlet-?Sym   12.6973 eV   97.65 nm  f=0.0248  <S**2>=0.000
       8 -> 11         0.70588

 Excited state symmetry could not be determined.
 Excited State   8:      Singlet-?Sym   12.6973 eV   97.65 nm  f=0.0248  <S**2>=0.000
       9 -> 11         0.70588

 Excited State   9:      Singlet-SGU   13.2295 eV   93.72 nm  f=0.3289  <S**2>=0.000
       5 -> 10         0.41383
       8 -> 14        -0.40374
       9 -> 13        -0.40374

 Excited state symmetry could not be determined.
 Excited State  10:      Singlet-?Sym   13.6772 eV   90.65 nm  f=0.0000  <S**2>=0.000
       8 -> 14        -0.49977
       9 -> 13         0.49977

 Excited state symmetry could not be determined.
 Excited State  11:      Singlet-?Sym   13.6772 eV   90.65 nm  f=0.0000  <S**2>=0.000
       8 -> 13         0.49977
       9 -> 14         0.49977

 Excited state symmetry could not be determined.
 Excited State  12:      Singlet-?Sym   13.7366 eV   90.26 nm  f=0.0000  <S**2>=0.000
       8 -> 13        -0.49989
       9 -> 14         0.49989

 Excited state symmetry could not be determined.
 Excited State  13:      Singlet-?Sym   15.4417 eV   80.29 nm  f=0.0000  <S**2>=0.000
       8 -> 15         0.49874
       9 -> 16        -0.49874

 Excited state symmetry could not be determined.
 Excited State  14:      Singlet-?Sym   15.4417 eV   80.29 nm  f=0.0000  <S**2>=0.000
       8 -> 16         0.49874
       9 -> 15         0.49874

 Excited state symmetry could not be determined.
 Excited State  15:      Singlet-?Sym   15.4866 eV   80.06 nm  f=0.0000  <S**2>=0.000
       8 -> 17         0.70432

 Excited state symmetry could not be determined.
 Excited State  16:      Singlet-?Sym   15.4866 eV   80.06 nm  f=0.0000  <S**2>=0.000
       9 -> 17         0.70432

 Excited state symmetry could not be determined.
 Excited State  17:      Singlet-?Sym   15.5212 eV   79.88 nm  f=0.0000  <S**2>=0.000
       8 -> 16        -0.49926
       9 -> 15         0.49926

 Excited State  18:      Singlet-SGU   15.8361 eV   78.29 nm  f=0.3544  <S**2>=0.000
       5 -> 10         0.51554
       5 -> 11         0.22714
       8 -> 14         0.28103
       9 -> 13         0.28103

 Excited state symmetry could not be determined.
 Excited State  19:      Singlet-?Sym   15.8463 eV   78.24 nm  f=0.0000  <S**2>=0.000
       6 -> 14        -0.10309
       7 -> 13        -0.10309
       8 -> 15         0.48726
       9 -> 16         0.48726

 Excited state symmetry could not be determined.
 Excited State  20:      Singlet-?Sym   16.4967 eV   75.16 nm  f=0.1020  <S**2>=0.000
       7 -> 12         0.70396

 Excited state symmetry could not be determined.
 Excited State  21:      Singlet-?Sym   16.4967 eV   75.16 nm  f=0.1020  <S**2>=0.000
       6 -> 12         0.70396

 Excited state symmetry could not be determined.
 Excited State  22:      Singlet-?Sym   16.5450 eV   74.94 nm  f=0.0000  <S**2>=0.000
       6 -> 11         0.70360

 Excited state symmetry could not be determined.
 Excited State  23:      Singlet-?Sym   16.5450 eV   74.94 nm  f=0.0000  <S**2>=0.000
       7 -> 11         0.70360

 Excited state symmetry could not be determined.
 Excited State  24:      Singlet-?Sym   17.4795 eV   70.93 nm  f=0.0000  <S**2>=0.000
       6 -> 13         0.49874
       7 -> 14         0.49874

 Excited state symmetry could not be determined.
 Excited State  25:      Singlet-?Sym   17.4795 eV   70.93 nm  f=0.0000  <S**2>=0.000
       6 -> 14        -0.49874
       7 -> 13         0.49874

 Excited state symmetry could not be determined.
 Excited State  26:      Singlet-?Sym   17.5497 eV   70.65 nm  f=0.0000  <S**2>=0.000
       6 -> 13        -0.49927
       7 -> 14         0.49927

 Excited State  27:      Singlet-SGG   18.0554 eV   68.67 nm  f=0.0000  <S**2>=0.000
       5 -> 12         0.42994
       6 -> 14        -0.39001
       7 -> 13        -0.39001

 Excited State  28:      Singlet-SGU   18.8479 eV   65.78 nm  f=0.0117  <S**2>=0.000
       5 -> 10        -0.10012
       5 -> 11         0.58533
       6 -> 15         0.26512
       7 -> 16         0.26512

 Excited State  29:      Singlet-SGG   18.9418 eV   65.46 nm  f=0.0000  <S**2>=0.000
       5 -> 12         0.55536
       6 -> 14         0.28801
       7 -> 13         0.28801

 Excited state symmetry could not be determined.
 Excited State  30:      Singlet-?Sym   19.2815 eV   64.30 nm  f=0.0000  <S**2>=0.000
       6 -> 15         0.49974
       7 -> 16        -0.49974

 Excited state symmetry could not be determined.
 Excited State  31:      Singlet-?Sym   19.2815 eV   64.30 nm  f=0.0000  <S**2>=0.000
       6 -> 16         0.49974
       7 -> 15         0.49974

 Excited state symmetry could not be determined.
 Excited State  32:      Singlet-?Sym   19.3369 eV   64.12 nm  f=0.0000  <S**2>=0.000
       6 -> 16        -0.49988
       7 -> 15         0.49988

 Excited state symmetry could not be determined.
 Excited State  33:      Singlet-?Sym   19.3538 eV   64.06 nm  f=0.0405  <S**2>=0.000
       5 -> 13        -0.12471
       5 -> 14         0.15457
       6 -> 17         0.52749
       7 -> 17        -0.42559

 Excited state symmetry could not be determined.
 Excited State  34:      Singlet-?Sym   19.3538 eV   64.06 nm  f=0.0405  <S**2>=0.000
       5 -> 13         0.15457
       5 -> 14         0.12471
       6 -> 17         0.42559
       7 -> 17         0.52749

 Excited state symmetry could not be determined.
 Excited State  35:      Singlet-?Sym   19.5185 eV   63.52 nm  f=0.0382  <S**2>=0.000
       5 -> 14         0.67770
       6 -> 17        -0.19819

 Excited state symmetry could not be determined.
 Excited State  36:      Singlet-?Sym   19.5185 eV   63.52 nm  f=0.0382  <S**2>=0.000
       5 -> 13         0.67770
       7 -> 17        -0.19819

 Excited state symmetry could not be determined.
 Excited State  37:      Singlet-?Sym   19.9861 eV   62.04 nm  f=0.0005  <S**2>=0.000
       5 -> 10         0.19785
       5 -> 11        -0.31570
       6 -> 15         0.40905
       7 -> 16         0.40905

 Excited state symmetry could not be determined.
 Excited State  38:      Singlet-?Sym   20.8694 eV   59.41 nm  f=0.0784  <S**2>=0.000
       9 -> 18         0.70299

 Excited state symmetry could not be determined.
 Excited State  39:      Singlet-?Sym   20.8694 eV   59.41 nm  f=0.0784  <S**2>=0.000
       8 -> 18         0.70299

 Excited state symmetry could not be determined.
 Excited State  40:      Singlet-?Sym   21.2610 eV   58.32 nm  f=0.0000  <S**2>=0.000
       5 -> 15         0.70532

 Excited state symmetry could not be determined.
 Excited State  41:      Singlet-?Sym   21.2610 eV   58.32 nm  f=0.0000  <S**2>=0.000
       5 -> 16         0.70532

 Excited State  42:      Singlet-SGG   21.3775 eV   58.00 nm  f=0.0000  <S**2>=0.000
       5 -> 17         0.69774

 Excited state symmetry could not be determined.
 Excited State  43:      Singlet-?Sym   22.5103 eV   55.08 nm  f=0.0000  <S**2>=0.000
       8 -> 20        -0.49936
       9 -> 19         0.49940

 Excited state symmetry could not be determined.
 Excited State  44:      Singlet-?Sym   22.5103 eV   55.08 nm  f=0.0000  <S**2>=0.000
       8 -> 19         0.49940
       9 -> 20         0.49936

 Excited state symmetry could not be determined.
 Excited State  45:      Singlet-?Sym   22.9706 eV   53.98 nm  f=0.0000  <S**2>=0.000
       8 -> 19        -0.49885
       9 -> 20         0.49890

 Excited state symmetry could not be determined.
 Excited State  46:      Singlet-?Sym   22.9706 eV   53.98 nm  f=0.0000  <S**2>=0.000
       8 -> 20         0.49890
       9 -> 19         0.49885

 Excited state symmetry could not be determined.
 Excited State  47:      Singlet-?Sym   24.6410 eV   50.32 nm  f=0.0000  <S**2>=0.000
       6 -> 18         0.70615

 Excited state symmetry could not be determined.
 Excited State  48:      Singlet-?Sym   24.6410 eV   50.32 nm  f=0.0000  <S**2>=0.000
       7 -> 18         0.70615

 Excited State  49:      Singlet-SGG   25.1575 eV   49.28 nm  f=0.0000  <S**2>=0.000
       4 -> 10         0.68126

 Excited state symmetry could not be determined.
 Excited State  50:      Singlet-?Sym   26.1598 eV   47.39 nm  f=0.0000  <S**2>=0.000
       6 -> 19         0.47438
       6 -> 20        -0.13912
       7 -> 19         0.13912
       7 -> 20         0.47437

 Excited state symmetry could not be determined.
 Excited State  51:      Singlet-?Sym   26.1598 eV   47.39 nm  f=0.0000  <S**2>=0.000
       6 -> 19        -0.13912
       6 -> 20        -0.47437
       7 -> 19         0.47438
       7 -> 20        -0.13912

 Excited state symmetry could not be determined.
 Excited State  52:      Singlet-?Sym   26.6255 eV   46.57 nm  f=0.0000  <S**2>=0.000
       8 -> 22        -0.49956
       9 -> 21         0.49956

 Excited state symmetry could not be determined.
 Excited State  53:      Singlet-?Sym   26.6256 eV   46.57 nm  f=0.0000  <S**2>=0.000
       8 -> 21         0.49956
       9 -> 22         0.49956

 Excited State  54:      Singlet-SGU   26.6446 eV   46.53 nm  f=0.2175  <S**2>=0.000
       5 -> 18         0.65030
       8 -> 22         0.19551
       9 -> 21         0.19551

 Excited state symmetry could not be determined.
 Excited State  55:      Singlet-?Sym   26.8644 eV   46.15 nm  f=0.0000  <S**2>=0.000
       8 -> 21         0.49991
       9 -> 22        -0.49991

 Excited state symmetry could not be determined.
 Excited State  56:      Singlet-?Sym   27.1609 eV   45.65 nm  f=0.3111  <S**2>=0.000
       6 -> 19        -0.45870
       6 -> 20        -0.16059
       7 -> 19        -0.16058
       7 -> 20         0.45871

 Excited state symmetry could not be determined.
 Excited State  57:      Singlet-?Sym   27.1609 eV   45.65 nm  f=0.3111  <S**2>=0.000
       6 -> 19        -0.16058
       6 -> 20         0.45871
       7 -> 19         0.45870
       7 -> 20         0.16059

 Excited state symmetry could not be determined.
 Excited State  58:      Singlet-?Sym   28.3065 eV   43.80 nm  f=0.9879  <S**2>=0.000
       4 -> 12        -0.16005
       5 -> 10        -0.12771
       5 -> 18        -0.26017
       8 -> 22         0.43557
       9 -> 21         0.43557

 Excited state symmetry could not be determined.
 Excited State  59:      Singlet-?Sym   28.4620 eV   43.56 nm  f=0.0000  <S**2>=0.000
       5 -> 19         0.70348

 Excited state symmetry could not be determined.
 Excited State  60:      Singlet-?Sym   28.4620 eV   43.56 nm  f=0.0000  <S**2>=0.000
       5 -> 20         0.70348

 Excited state symmetry could not be determined.
 Excited State  61:      Singlet-?Sym   28.5431 eV   43.44 nm  f=0.0000  <S**2>=0.000
       8 -> 24        -0.24272
       8 -> 25         0.43065
       9 -> 24         0.43066
       9 -> 25         0.24271

 Excited state symmetry could not be determined.
 Excited State  62:      Singlet-?Sym   28.5431 eV   43.44 nm  f=0.0000  <S**2>=0.000
       8 -> 24         0.43066
       8 -> 25         0.24271
       9 -> 24         0.24272
       9 -> 25        -0.43065

 Excited state symmetry could not be determined.
 Excited State  63:      Singlet-?Sym   28.5963 eV   43.36 nm  f=0.0225  <S**2>=0.000
       8 -> 23         0.68593
       9 -> 23        -0.11913

 Excited state symmetry could not be determined.
 Excited State  64:      Singlet-?Sym   28.5963 eV   43.36 nm  f=0.0225  <S**2>=0.000
       8 -> 23         0.11913
       9 -> 23         0.68593

 Excited state symmetry could not be determined.
 Excited State  65:      Singlet-?Sym   29.2574 eV   42.38 nm  f=0.5677  <S**2>=0.000
       5 -> 22         0.11351
       8 -> 24         0.14646
       8 -> 25         0.45422
       9 -> 24        -0.45420
       9 -> 25         0.14646

 Excited state symmetry could not be determined.
 Excited State  66:      Singlet-?Sym   29.2574 eV   42.38 nm  f=0.5677  <S**2>=0.000
       5 -> 21        -0.11351
       8 -> 24         0.45420
       8 -> 25        -0.14646
       9 -> 24         0.14646
       9 -> 25         0.45422

 Excited state symmetry could not be determined.
 Excited State  67:      Singlet-?Sym   30.2138 eV   41.04 nm  f=0.0000  <S**2>=0.000
       6 -> 22        -0.41803
       7 -> 21         0.41803
       8 -> 27         0.26959
       9 -> 28        -0.26959

 Excited state symmetry could not be determined.
 Excited State  68:      Singlet-?Sym   30.2138 eV   41.04 nm  f=0.0000  <S**2>=0.000
       6 -> 21         0.41804
       7 -> 22         0.41804
       8 -> 28        -0.26958
       9 -> 27        -0.26958

 Excited state symmetry could not be determined.
 Excited State  69:      Singlet-?Sym   30.5912 eV   40.53 nm  f=0.0000  <S**2>=0.000
       6 -> 21         0.41915
       7 -> 22        -0.41915
       8 -> 28        -0.27257
       9 -> 27         0.27257

 Excited state symmetry could not be determined.
 Excited State  70:      Singlet-?Sym   30.6609 eV   40.44 nm  f=0.0000  <S**2>=0.000
       6 -> 23         0.11013
       8 -> 26         0.68929

 Excited state symmetry could not be determined.
 Excited State  71:      Singlet-?Sym   30.6609 eV   40.44 nm  f=0.0000  <S**2>=0.000
       7 -> 23         0.11013
       9 -> 26         0.68929

 Excited state symmetry could not be determined.
 Excited State  72:      Singlet-?Sym   30.7462 eV   40.33 nm  f=0.0000  <S**2>=0.000
       6 -> 21         0.27102
       7 -> 22         0.27102
       8 -> 28         0.41994
       9 -> 27         0.41994

 Excited state symmetry could not be determined.
 Excited State  73:      Singlet-?Sym   30.7462 eV   40.33 nm  f=0.0000  <S**2>=0.000
       6 -> 22         0.27103
       7 -> 21        -0.27103
       8 -> 27         0.41993
       9 -> 28        -0.41993

 Excited state symmetry could not be determined.
 Excited State  74:      Singlet-?Sym   30.8642 eV   40.17 nm  f=0.0000  <S**2>=0.000
       6 -> 21        -0.27255
       7 -> 22         0.27255
       8 -> 28        -0.41907
       9 -> 27         0.41907

 Excited State  75:      Singlet-SGG   30.8943 eV   40.13 nm  f=0.0000  <S**2>=0.000
       4 -> 11         0.52759
       6 -> 22         0.32903
       7 -> 21         0.32903

 Excited State  76:      Singlet-SGU   31.3339 eV   39.57 nm  f=0.0501  <S**2>=0.000
       3 -> 10         0.11635
       4 -> 12         0.67725

 Excited State  77:      Singlet-SGG   31.6499 eV   39.17 nm  f=0.0000  <S**2>=0.000
       4 -> 11         0.45980
       6 -> 22        -0.35218
       7 -> 21        -0.35218
       8 -> 27        -0.12108
       9 -> 28        -0.12108

 Excited state symmetry could not be determined.
 Excited State  78:      Singlet-?Sym   31.8184 eV   38.97 nm  f=0.0000  <S**2>=0.000
       4 -> 10        -0.12014
       5 -> 26         0.13176
       8 -> 27         0.46713
       9 -> 28         0.46713

 Excited state symmetry could not be determined.
 Excited State  79:      Singlet-?Sym   32.1052 eV   38.62 nm  f=0.0000  <S**2>=0.000
       4 -> 13        -0.17174
       4 -> 14         0.64784
       6 -> 25         0.14012
       7 -> 24        -0.14011

 Excited state symmetry could not be determined.
 Excited State  80:      Singlet-?Sym   32.1052 eV   38.62 nm  f=0.0000  <S**2>=0.000
       4 -> 13         0.64784
       4 -> 14         0.17174
       6 -> 24        -0.14011
       7 -> 25        -0.14012

 Excited state symmetry could not be determined.
 Excited State  81:      Singlet-?Sym   32.2907 eV   38.40 nm  f=0.0000  <S**2>=0.000
       6 -> 24        -0.17816
       6 -> 25         0.46668
       7 -> 24         0.46669
       7 -> 25         0.17816

 Excited state symmetry could not be determined.
 Excited State  82:      Singlet-?Sym   32.2907 eV   38.40 nm  f=0.0000  <S**2>=0.000
       6 -> 24         0.46669
       6 -> 25         0.17816
       7 -> 24         0.17816
       7 -> 25        -0.46668

 Excited State  83:      Singlet-SGU   32.3834 eV   38.29 nm  f=0.0585  <S**2>=0.000
       3 -> 10         0.64190
       5 -> 23        -0.12068
       6 -> 27         0.16294
       7 -> 28         0.16294

 Excited state symmetry could not be determined.
 Excited State  84:      Singlet-?Sym   32.4570 eV   38.20 nm  f=0.0000  <S**2>=0.000
       6 -> 23         0.68912
       8 -> 26        -0.10488

 Excited state symmetry could not be determined.
 Excited State  85:      Singlet-?Sym   32.4570 eV   38.20 nm  f=0.0000  <S**2>=0.000
       7 -> 23         0.68912
       9 -> 26        -0.10488

 Excited state symmetry could not be determined.
 Excited State  86:      Singlet-?Sym   32.8439 eV   37.75 nm  f=0.0000  <S**2>=0.000
       4 -> 14        -0.19852
       6 -> 25         0.47668
       7 -> 24        -0.47667

 Excited state symmetry could not be determined.
 Excited State  87:      Singlet-?Sym   32.8439 eV   37.75 nm  f=0.0000  <S**2>=0.000
       4 -> 13         0.19852
       6 -> 24         0.47667
       7 -> 25         0.47668

 Excited state symmetry could not be determined.
 Excited State  88:      Singlet-?Sym   32.9423 eV   37.64 nm  f=0.3855  <S**2>=0.000
       4 -> 16        -0.12298
       5 -> 21         0.62010
       5 -> 22        -0.25743
       7 -> 26         0.11637

 Excited state symmetry could not be determined.
 Excited State  89:      Singlet-?Sym   32.9423 eV   37.64 nm  f=0.3855  <S**2>=0.000
       4 -> 15        -0.12298
       5 -> 21         0.25743
       5 -> 22         0.62010
       6 -> 26         0.11637

 Excited State  90:      Singlet-SGU   33.8558 eV   36.62 nm  f=0.0433  <S**2>=0.000
       4 -> 17         0.68250
       5 -> 23        -0.17805

 Excited state symmetry could not be determined.
 Excited State  91:      Singlet-?Sym   33.9198 eV   36.55 nm  f=0.0001  <S**2>=0.000
       4 -> 15         0.61845
       4 -> 16        -0.29800
       6 -> 26         0.11301

 Excited state symmetry could not be determined.
 Excited State  92:      Singlet-?Sym   33.9198 eV   36.55 nm  f=0.0001  <S**2>=0.000
       4 -> 15         0.29800
       4 -> 16         0.61845
       7 -> 26         0.11301

 Excited State  93:      Singlet-SGU   34.2635 eV   36.19 nm  f=0.0071  <S**2>=0.000
       4 -> 17         0.14532
       5 -> 23         0.60143
       6 -> 27         0.24106
       7 -> 28         0.24106

 Excited state symmetry could not be determined.
 Excited State  94:      Singlet-?Sym   34.3110 eV   36.14 nm  f=0.0000  <S**2>=0.000
       5 -> 24         0.50623
       6 -> 28        -0.34796
       7 -> 27        -0.34796

 Excited state symmetry could not be determined.
 Excited State  95:      Singlet-?Sym   34.3110 eV   36.14 nm  f=0.0000  <S**2>=0.000
       5 -> 25         0.50621
       6 -> 27         0.34797
       7 -> 28        -0.34797

 Excited state symmetry could not be determined.
 Excited State  96:      Singlet-?Sym   34.5953 eV   35.84 nm  f=0.0000  <S**2>=0.000
       5 -> 24         0.49334
       6 -> 28         0.35798
       7 -> 27         0.35798

 Excited state symmetry could not be determined.
 Excited State  97:      Singlet-?Sym   34.5953 eV   35.84 nm  f=0.0000  <S**2>=0.000
       5 -> 25         0.49336
       6 -> 27        -0.35797
       7 -> 28         0.35797

 Excited state symmetry could not be determined.
 Excited State  98:      Singlet-?Sym   34.6015 eV   35.83 nm  f=0.0000  <S**2>=0.000
       6 -> 28        -0.49974
       7 -> 27         0.49974

 Excited state symmetry could not be determined.
 Excited State  99:      Singlet-?Sym   34.6794 eV   35.75 nm  f=0.0994  <S**2>=0.000
       5 -> 21        -0.12400
       6 -> 26        -0.31565
       7 -> 26         0.60566

 Excited state symmetry could not be determined.
 Excited State 100:      Singlet-?Sym   34.6794 eV   35.75 nm  f=0.0994  <S**2>=0.000
       5 -> 22        -0.12400
       6 -> 26         0.60566
       7 -> 26         0.31565

 Excited state symmetry could not be determined.
 Excited State 101:      Singlet-?Sym   35.8821 eV   34.55 nm  f=0.0853  <S**2>=0.000
       3 -> 10        -0.22983
       5 -> 23        -0.29052
       6 -> 27         0.39590
       7 -> 28         0.39590
       8 -> 29         0.12025
       9 -> 30         0.12025

 Excited state symmetry could not be determined.
 Excited State 102:      Singlet-?Sym   36.4243 eV   34.04 nm  f=0.0000  <S**2>=0.000
       5 -> 27         0.70411

 Excited state symmetry could not be determined.
 Excited State 103:      Singlet-?Sym   36.4243 eV   34.04 nm  f=0.0000  <S**2>=0.000
       5 -> 28         0.70411

 Excited State 104:      Singlet-SGG   36.8435 eV   33.65 nm  f=0.0000  <S**2>=0.000
       5 -> 26         0.68560

 Excited State 105:      Singlet-SGG   38.3882 eV   32.30 nm  f=0.0000  <S**2>=0.000
       3 -> 12         0.69765

 Excited State 106:      Singlet-SGU   38.4807 eV   32.22 nm  f=0.0010  <S**2>=0.000
       3 -> 11         0.70527

 Excited State 107:      Singlet-SGG   39.4240 eV   31.45 nm  f=0.0000  <S**2>=0.000
       4 -> 18         0.69862

 Excited state symmetry could not be determined.
 Excited State 108:      Singlet-?Sym   39.4879 eV   31.40 nm  f=0.0003  <S**2>=0.000
       3 -> 13         0.61567
       3 -> 14         0.34562

 Excited state symmetry could not be determined.
 Excited State 109:      Singlet-?Sym   39.4879 eV   31.40 nm  f=0.0003  <S**2>=0.000
       3 -> 13        -0.34562
       3 -> 14         0.61567

 Excited state symmetry could not be determined.
 Excited State 110:      Singlet-?Sym   41.0600 eV   30.20 nm  f=0.0000  <S**2>=0.000
       4 -> 19         0.70311

 Excited state symmetry could not be determined.
 Excited State 111:      Singlet-?Sym   41.0600 eV   30.20 nm  f=0.0000  <S**2>=0.000
       4 -> 20         0.70311

 Excited state symmetry could not be determined.

 The electronic state is 1-SGG.
 Alpha  occ. eigenvalues --  -24.72552 -24.72536  -1.33054  -1.06123  -0.60041
 Alpha  occ. eigenvalues --   -0.52825  -0.52825  -0.38844  -0.38844
 Alpha virt. eigenvalues --   -0.16298   0.10181   0.10252   0.14272   0.14272
 Alpha virt. eigenvalues --    0.20487   0.20487   0.20990   0.40441   0.48268
 Alpha virt. eigenvalues --    0.48268   0.63422   0.63422   0.69668   0.70081

 Mulliken charges:
               1
     1  F   -0.000000
     2  F   -0.000000
 Sum of Mulliken charges =  -0.00000

 Dipole moment (field-independent basis, Debye):
    X=             -0.0000    Y=              0.0000    Z=             -0.0000  Tot=              0.0000
 Quadrupole moment (field-independent basis, Debye-Ang):
   XX=             -9.7727   YY=             -9.7727   ZZ=             -8.9209
   XY=              0.0000   XZ=              0.0000   YZ=              0.0000

 Normal termination of Gaussian 16 at Mon Mar 21 20:08:42 2022.
