 Gaussian 16, Revision C.01,
 Gaussian 16:  EM64L-G16RevC.01  3-Jul-2019

 ---------------------------------------------------------------------
 #P TD(Nstates=10000) tpssh/Gen SCF(maxcycles=100) Int(Grid=ultrafine)
 ---------------------------------------------------------------------

 ---------------------
 xGDB7_00001_tier4.com
 ---------------------
 Symbolic Z-matrix:
 Charge =  0 Multiplicity = 1

                         Standard orientation:
 ---------------------------------------------------------------------
 Center     Atomic      Atomic             Coordinates (Angstroms)
 Number     Number       Type             X           Y           Z
 ---------------------------------------------------------------------
      1          6           0        0.000000    0.729549   -0.367364
      2          6           0       -0.000000   -0.729549   -0.367364
      3          8           0       -0.000000   -0.000000    0.845033
      4          1           0       -0.918945    1.264243   -0.587975
      5          1           0        0.918945    1.264243   -0.587975
      6          1           0        0.918945   -1.264243   -0.587975
      7          1           0       -0.918945   -1.264243   -0.587975
 ---------------------------------------------------------------------

 SCF Done:  E(RTPSSh) =  -153.696811220     A.U. after   11 cycles

 Excitation energies and oscillator strengths:

 Excited State   1:      Singlet-B1     7.3383 eV  168.96 nm  f=0.0276  <S**2>=0.000
      12 -> 13         0.70504
 This state for optimization and/or second-order correction.
 Total Energy, E(TD-HF/TD-DFT) =  -153.427134390
 Copying the excited state density for this state as the 1-particle RhoCI density.

 Excited State   2:      Singlet-A2     7.8622 eV  157.70 nm  f=0.0000  <S**2>=0.000
      12 -> 14         0.70251

 Excited State   3:      Singlet-B1     7.9453 eV  156.05 nm  f=0.0107  <S**2>=0.000
      12 -> 15         0.70387

 Excited State   4:      Singlet-A1     8.4143 eV  147.35 nm  f=0.0357  <S**2>=0.000
      11 -> 13         0.16427
      12 -> 16         0.68611

 Excited State   5:      Singlet-A2     8.4712 eV  146.36 nm  f=0.0000  <S**2>=0.000
      12 -> 17         0.70111

 Excited State   6:      Singlet-A1     8.5598 eV  144.84 nm  f=0.0085  <S**2>=0.000
      11 -> 13         0.68346
      12 -> 16        -0.16032

 Excited State   7:      Singlet-B2     9.1280 eV  135.83 nm  f=0.0526  <S**2>=0.000
      11 -> 14         0.70308

 Excited State   8:      Singlet-A1     9.1873 eV  134.95 nm  f=0.0585  <S**2>=0.000
      11 -> 15         0.69846

 Excited State   9:      Singlet-B1     9.5227 eV  130.20 nm  f=0.0048  <S**2>=0.000
      11 -> 16        -0.42307
      12 -> 18         0.56496

 Excited State  10:      Singlet-B1     9.6212 eV  128.87 nm  f=0.0189  <S**2>=0.000
      11 -> 16         0.56485
      12 -> 18         0.42176

 Excited State  11:      Singlet-B2    10.3245 eV  120.09 nm  f=0.1921  <S**2>=0.000
       9 -> 15        -0.11047
      11 -> 17         0.50784
      12 -> 19        -0.46171

 Excited State  12:      Singlet-B2    10.3683 eV  119.58 nm  f=0.0012  <S**2>=0.000
      11 -> 17         0.43464
      12 -> 19         0.53458

 Excited State  13:      Singlet-A2    10.3894 eV  119.34 nm  f=0.0000  <S**2>=0.000
      10 -> 13         0.70629

 Excited State  14:      Singlet-A2    10.6545 eV  116.37 nm  f=0.0000  <S**2>=0.000
      12 -> 21         0.70491

 Excited State  15:      Singlet-B1    10.6805 eV  116.09 nm  f=0.0079  <S**2>=0.000
      12 -> 20         0.69934

 Excited State  16:      Singlet-A1    10.7527 eV  115.30 nm  f=0.0065  <S**2>=0.000
      11 -> 18         0.69837

 Excited State  17:      Singlet-B2    10.8303 eV  114.48 nm  f=0.0267  <S**2>=0.000
       9 -> 13         0.70345

 Excited State  18:      Singlet-B1    10.9899 eV  112.82 nm  f=0.0850  <S**2>=0.000
      10 -> 14         0.69626

 Excited State  19:      Singlet-A2    11.0736 eV  111.96 nm  f=0.0000  <S**2>=0.000
      10 -> 15         0.70362

 Excited State  20:      Singlet-A1    11.1919 eV  110.78 nm  f=0.0000  <S**2>=0.000
       9 -> 17         0.20888
      11 -> 20         0.15331
      12 -> 22         0.64876

 Excited State  21:      Singlet-A1    11.4291 eV  108.48 nm  f=0.0178  <S**2>=0.000
       9 -> 14         0.70345

 Excited State  22:      Singlet-A2    11.4883 eV  107.92 nm  f=0.0000  <S**2>=0.000
      11 -> 19         0.70218

 Excited State  23:      Singlet-B2    11.5587 eV  107.27 nm  f=0.0409  <S**2>=0.000
       9 -> 15         0.64874
      11 -> 17         0.11166
      11 -> 21         0.22468

 Excited State  24:      Singlet-B2    11.6002 eV  106.88 nm  f=0.1727  <S**2>=0.000
       9 -> 15         0.14044
      10 -> 16         0.67884
      11 -> 21        -0.12546

 Excited State  25:      Singlet-A2    11.6143 eV  106.75 nm  f=0.0000  <S**2>=0.000
      12 -> 23         0.70284

 Excited State  26:      Singlet-B1    11.6559 eV  106.37 nm  f=0.0071  <S**2>=0.000
      10 -> 17         0.69988

 Excited State  27:      Singlet-A1    11.8482 eV  104.64 nm  f=0.0057  <S**2>=0.000
      11 -> 20         0.13950
      12 -> 24         0.69073

 Excited State  28:      Singlet-A2    11.8755 eV  104.40 nm  f=0.0000  <S**2>=0.000
       9 -> 16         0.70587

 Excited State  29:      Singlet-A1    11.9922 eV  103.39 nm  f=0.0069  <S**2>=0.000
       9 -> 17        -0.28990
      11 -> 20         0.61866
      12 -> 24        -0.11488

 Excited State  30:      Singlet-B2    12.1615 eV  101.95 nm  f=0.0523  <S**2>=0.000
       9 -> 15        -0.16178
      10 -> 16         0.14922
      11 -> 17        -0.11945
      11 -> 21         0.63535
      11 -> 23        -0.12341

 Excited State  31:      Singlet-B1    12.1917 eV  101.70 nm  f=0.0007  <S**2>=0.000
      11 -> 22         0.70473

 Excited State  32:      Singlet-B1    12.5143 eV   99.07 nm  f=0.0040  <S**2>=0.000
      11 -> 24        -0.12072
      12 -> 25         0.69186

 Excited State  33:      Singlet-A2    12.7232 eV   97.45 nm  f=0.0000  <S**2>=0.000
      10 -> 18         0.70241

 Excited State  34:      Singlet-B2    12.7890 eV   96.95 nm  f=0.0186  <S**2>=0.000
      11 -> 23         0.68834

 Excited State  35:      Singlet-A1    12.8971 eV   96.13 nm  f=0.0151  <S**2>=0.000
       8 -> 13         0.40564
       8 -> 15        -0.14568
       9 -> 17         0.45970
      11 -> 20         0.17815
      11 -> 27         0.13266
      12 -> 22        -0.15058

 Excited State  36:      Singlet-B1    13.0340 eV   95.12 nm  f=0.0222  <S**2>=0.000
      11 -> 24         0.68588
      12 -> 25         0.11601

 Excited State  37:      Singlet-B2    13.0724 eV   94.84 nm  f=0.0065  <S**2>=0.000
       9 -> 18         0.70100

 Excited State  38:      Singlet-A1    13.2189 eV   93.79 nm  f=0.0077  <S**2>=0.000
       8 -> 13         0.52115
       8 -> 15         0.14598
       9 -> 17        -0.24713
      10 -> 19        -0.32033
      12 -> 22         0.10792

 Excited State  39:      Singlet-B2    13.4673 eV   92.06 nm  f=0.0248  <S**2>=0.000
      12 -> 26         0.69641

 Excited State  40:      Singlet-B1    13.6110 eV   91.09 nm  f=0.0072  <S**2>=0.000
       9 -> 19         0.12488
      10 -> 21         0.11209
      12 -> 27         0.67477

 Excited State  41:      Singlet-B2    13.6189 eV   91.04 nm  f=0.1715  <S**2>=0.000
       8 -> 14         0.69888

 Excited State  42:      Singlet-A1    13.6552 eV   90.80 nm  f=0.0150  <S**2>=0.000
       8 -> 13        -0.14098
       8 -> 15         0.12550
       9 -> 17         0.14380
      10 -> 19        -0.41898
      11 -> 20         0.11946
      11 -> 25         0.45613

 Excited State  43:      Singlet-A2    13.7586 eV   90.11 nm  f=0.0000  <S**2>=0.000
      10 -> 20         0.69910

 Excited State  44:      Singlet-B1    13.8169 eV   89.73 nm  f=0.0201  <S**2>=0.000
       9 -> 19         0.63168
      10 -> 21        -0.29144

 Excited State  45:      Singlet-A1    13.8198 eV   89.71 nm  f=0.0010  <S**2>=0.000
       8 -> 13         0.11405
       8 -> 15         0.47143
       9 -> 21         0.23563
      10 -> 19         0.34467
      11 -> 25         0.25816

 Excited State  46:      Singlet-B1    13.8503 eV   89.52 nm  f=0.0003  <S**2>=0.000
       7 -> 13         0.25076
       9 -> 19         0.22975
      10 -> 21         0.60278
      12 -> 27        -0.13741

 Excited State  47:      Singlet-A1    13.8916 eV   89.25 nm  f=0.2401  <S**2>=0.000
       8 -> 13         0.13839
       8 -> 15        -0.42142
       9 -> 17        -0.10394
      10 -> 19         0.20860
      11 -> 25         0.45553
      12 -> 29         0.12801

 Excited State  48:      Singlet-B1    13.9248 eV   89.04 nm  f=0.1216  <S**2>=0.000
       7 -> 13         0.64969
       9 -> 19        -0.17078
      10 -> 21        -0.19041

 Excited State  49:      Singlet-B1    14.1379 eV   87.70 nm  f=0.0665  <S**2>=0.000
       8 -> 16         0.68532
      10 -> 23         0.11050

 Excited State  50:      Singlet-B2    14.1572 eV   87.58 nm  f=0.0012  <S**2>=0.000
       8 -> 17         0.18143
       9 -> 20        -0.32524
      10 -> 22         0.59233

 Excited State  51:      Singlet-A2    14.1741 eV   87.47 nm  f=0.0000  <S**2>=0.000
      12 -> 28         0.69675

 Excited State  52:      Singlet-B2    14.1959 eV   87.34 nm  f=0.0413  <S**2>=0.000
       9 -> 20         0.61840
      10 -> 22         0.33763

 Excited State  53:      Singlet-A1    14.2851 eV   86.79 nm  f=0.0000  <S**2>=0.000
       7 -> 16         0.18012
       9 -> 21         0.61313
      10 -> 19        -0.16140
      12 -> 29         0.19203

 Excited State  54:      Singlet-B2    14.3845 eV   86.19 nm  f=0.0052  <S**2>=0.000
       8 -> 17         0.66306
      10 -> 22        -0.15944

 Excited State  55:      Singlet-A2    14.4508 eV   85.80 nm  f=0.0000  <S**2>=0.000
       7 -> 14         0.69394

 Excited State  56:      Singlet-A2    14.4767 eV   85.64 nm  f=0.0000  <S**2>=0.000
       9 -> 22         0.69575

 Excited State  57:      Singlet-A1    14.4919 eV   85.55 nm  f=0.1046  <S**2>=0.000
       9 -> 21        -0.14164
      11 -> 27         0.27731
      12 -> 29         0.62472

 Excited State  58:      Singlet-B1    14.5813 eV   85.03 nm  f=0.0021  <S**2>=0.000
       7 -> 15         0.66215
      10 -> 23         0.23984

 Excited State  59:      Singlet-A2    14.6570 eV   84.59 nm  f=0.0000  <S**2>=0.000
      11 -> 26         0.70004

 Excited State  60:      Singlet-B1    14.9245 eV   83.07 nm  f=0.3320  <S**2>=0.000
       7 -> 15        -0.19363
      10 -> 23         0.55662
      12 -> 30         0.33906

 Excited State  61:      Singlet-B1    15.0488 eV   82.39 nm  f=0.0807  <S**2>=0.000
       7 -> 15         0.10020
      10 -> 23        -0.29303
      12 -> 30         0.61725

 Excited State  62:      Singlet-A2    15.0662 eV   82.29 nm  f=0.0000  <S**2>=0.000
       7 -> 17         0.66980
      12 -> 31         0.19094

 Excited State  63:      Singlet-B2    15.0761 eV   82.24 nm  f=0.2492  <S**2>=0.000
       9 -> 25         0.18014
      10 -> 24         0.66243

 Excited State  64:      Singlet-A1    15.0927 eV   82.15 nm  f=0.0212  <S**2>=0.000
       8 -> 18         0.14289
       9 -> 23         0.63353
      11 -> 27         0.24600

 Excited State  65:      Singlet-A2    15.1195 eV   82.00 nm  f=0.0000  <S**2>=0.000
       7 -> 17        -0.18182
       9 -> 24        -0.10549
      12 -> 31         0.66995

 Excited State  66:      Singlet-A1    15.1290 eV   81.95 nm  f=0.0833  <S**2>=0.000
       7 -> 16         0.43441
       8 -> 18         0.38441
       9 -> 23        -0.23400
      11 -> 27         0.25906
      12 -> 32        -0.11682

 Excited State  67:      Singlet-A2    15.3038 eV   81.02 nm  f=0.0000  <S**2>=0.000
       9 -> 24         0.69498

 Excited State  68:      Singlet-A1    15.4282 eV   80.36 nm  f=0.0157  <S**2>=0.000
       7 -> 16        -0.45536
       8 -> 18         0.45553
       8 -> 20         0.10582
       9 -> 21         0.10508
       9 -> 23        -0.11653

 Excited State  69:      Singlet-A1    15.5017 eV   79.98 nm  f=0.1077  <S**2>=0.000
       7 -> 16        -0.16994
       8 -> 18        -0.31515
       8 -> 20         0.17140
       9 -> 17        -0.10529
       9 -> 21         0.11773
       9 -> 23        -0.14863
      11 -> 27         0.38188
      12 -> 29        -0.10362
      12 -> 32        -0.31056

 Excited State  70:      Singlet-B2    15.5160 eV   79.91 nm  f=0.0488  <S**2>=0.000
      11 -> 28         0.69628

 Excited State  71:      Singlet-B1    15.6520 eV   79.21 nm  f=0.0200  <S**2>=0.000
      11 -> 29         0.70143

 Excited State  72:      Singlet-A2    15.6817 eV   79.06 nm  f=0.0000  <S**2>=0.000
      10 -> 25         0.69295

 Excited State  73:      Singlet-A1    15.7094 eV   78.92 nm  f=0.0986  <S**2>=0.000
       8 -> 18        -0.12651
      11 -> 27         0.21634
      11 -> 30         0.10219
      12 -> 29        -0.10029
      12 -> 32         0.60268

 Excited State  74:      Singlet-A2    16.0110 eV   77.44 nm  f=0.0000  <S**2>=0.000
       8 -> 19         0.70561

 Excited State  75:      Singlet-B1    16.0183 eV   77.40 nm  f=0.0772  <S**2>=0.000
       7 -> 18         0.22708
      12 -> 33         0.66514

 Excited State  76:      Singlet-B2    16.0996 eV   77.01 nm  f=0.2359  <S**2>=0.000
       9 -> 25         0.60125
      10 -> 24        -0.12564
      11 -> 31        -0.27145
      12 -> 34        -0.13893

 Excited State  77:      Singlet-A1    16.2554 eV   76.27 nm  f=0.0271  <S**2>=0.000
      11 -> 30         0.69222

 Excited State  78:      Singlet-B1    16.3072 eV   76.03 nm  f=0.2706  <S**2>=0.000
       7 -> 18         0.62791
       8 -> 22         0.10721
       9 -> 26         0.13017
      11 -> 32        -0.11608
      12 -> 33        -0.19539

 Excited State  79:      Singlet-B2    16.3294 eV   75.93 nm  f=0.0081  <S**2>=0.000
       7 -> 19         0.12154
       8 -> 21         0.45797
       9 -> 25         0.15965
      11 -> 31         0.43223
      12 -> 34        -0.19896

 Excited State  80:      Singlet-B2    16.4064 eV   75.57 nm  f=0.0893  <S**2>=0.000
       8 -> 21         0.29249
       9 -> 25         0.11839
      12 -> 34         0.62340

 Excited State  81:      Singlet-B2    16.5277 eV   75.02 nm  f=0.1316  <S**2>=0.000
       6 -> 13        -0.10875
       7 -> 19        -0.19486
       8 -> 21         0.44192
       9 -> 25        -0.14679
      11 -> 31        -0.40927
      12 -> 34        -0.22158

 Excited State  82:      Singlet-A1    16.5555 eV   74.89 nm  f=0.0506  <S**2>=0.000
       8 -> 20         0.44941
      10 -> 26         0.52980

 Excited State  83:      Singlet-A1    16.6719 eV   74.37 nm  f=0.1759  <S**2>=0.000
       8 -> 20         0.46565
       9 -> 28         0.12828
      10 -> 26        -0.43040
      11 -> 33         0.15411

 Excited State  84:      Singlet-A2    16.7293 eV   74.11 nm  f=0.0000  <S**2>=0.000
      10 -> 27         0.69197

 Excited State  85:      Singlet-B1    16.7376 eV   74.08 nm  f=0.0134  <S**2>=0.000
       8 -> 22         0.66612
      11 -> 32         0.21715

 Excited State  86:      Singlet-B1    16.8248 eV   73.69 nm  f=0.0143  <S**2>=0.000
       8 -> 22        -0.18501
       9 -> 26         0.19899
      11 -> 32         0.63263

 Excited State  87:      Singlet-B2    16.9262 eV   73.25 nm  f=0.0000  <S**2>=0.000
       6 -> 13        -0.36072
       7 -> 19         0.52557
       9 -> 27        -0.27217

 Excited State  88:      Singlet-A2    17.0124 eV   72.88 nm  f=0.0000  <S**2>=0.000
      12 -> 35         0.69579

 Excited State  89:      Singlet-B1    17.0158 eV   72.86 nm  f=0.1165  <S**2>=0.000
       7 -> 18        -0.10490
       8 -> 24        -0.15508
       9 -> 26         0.64235
      11 -> 32        -0.13201
      12 -> 36         0.11145

 Excited State  90:      Singlet-B2    17.0388 eV   72.77 nm  f=0.0004  <S**2>=0.000
       6 -> 13        -0.42051
       9 -> 27         0.55325

 Excited State  91:      Singlet-B1    17.2291 eV   71.96 nm  f=0.0045  <S**2>=0.000
       7 -> 20         0.62067
       8 -> 24        -0.16002
      10 -> 28        -0.19506
      12 -> 36        -0.20345

 Excited State  92:      Singlet-B2    17.2345 eV   71.94 nm  f=0.0349  <S**2>=0.000
       6 -> 13         0.27711
       7 -> 19         0.32771
       8 -> 23         0.48035
       9 -> 27         0.21883
      11 -> 31        -0.11460

 Excited State  93:      Singlet-B1    17.2628 eV   71.82 nm  f=0.0160  <S**2>=0.000
       7 -> 20         0.20325
      10 -> 28        -0.10192
      12 -> 36         0.65281

 Excited State  94:      Singlet-A1    17.2829 eV   71.74 nm  f=0.0960  <S**2>=0.000
       6 -> 14         0.16593
      11 -> 33         0.66554

 Excited State  95:      Singlet-A2    17.3060 eV   71.64 nm  f=0.0000  <S**2>=0.000
       7 -> 21         0.69137

 Excited State  96:      Singlet-A2    17.3364 eV   71.52 nm  f=0.0000  <S**2>=0.000
      12 -> 37         0.69077

 Excited State  97:      Singlet-B1    17.4518 eV   71.04 nm  f=0.0300  <S**2>=0.000
       7 -> 20         0.22959
      10 -> 28         0.65541

 Excited State  98:      Singlet-B2    17.5217 eV   70.76 nm  f=0.0028  <S**2>=0.000
       6 -> 13         0.19437
       7 -> 19         0.14049
       8 -> 23        -0.37275
      10 -> 29         0.48476
      11 -> 35        -0.12858
      12 -> 38        -0.13007

 Excited State  99:      Singlet-A2    17.5736 eV   70.55 nm  f=0.0000  <S**2>=0.000
      11 -> 34         0.70286

 Excited State 100:      Singlet-A1    17.6043 eV   70.43 nm  f=0.0609  <S**2>=0.000
       6 -> 14         0.36519
       7 -> 22         0.58423
       9 -> 28        -0.13013

 Excited State 101:      Singlet-B2    17.6338 eV   70.31 nm  f=0.0636  <S**2>=0.000
       6 -> 13        -0.15704
       6 -> 15         0.27716
       7 -> 19        -0.10833
       8 -> 23         0.28648
       9 -> 27        -0.12500
      10 -> 29         0.42687
      11 -> 31         0.10969
      11 -> 35         0.24058

 Excited State 102:      Singlet-B1    17.6533 eV   70.23 nm  f=0.1207  <S**2>=0.000
       7 -> 20         0.11275
       8 -> 24         0.65516
       9 -> 26         0.12313

 Excited State 103:      Singlet-B2    17.7387 eV   69.89 nm  f=0.0002  <S**2>=0.000
       6 -> 15         0.54818
       9 -> 27         0.10082
      10 -> 29        -0.14930
      12 -> 38         0.35454

 Excited State 104:      Singlet-A1    17.7466 eV   69.86 nm  f=0.0037  <S**2>=0.000
       5 -> 13         0.24747
       6 -> 14         0.52243
       7 -> 22        -0.33110
      11 -> 33        -0.10561

 Excited State 105:      Singlet-B2    17.7842 eV   69.72 nm  f=0.0307  <S**2>=0.000
       6 -> 15        -0.32669
      10 -> 29         0.18359
      12 -> 38         0.58907

 Excited State 106:      Singlet-B1    17.8056 eV   69.63 nm  f=0.0002  <S**2>=0.000
      12 -> 39         0.70043

 Excited State 107:      Singlet-A2    17.9579 eV   69.04 nm  f=0.0000  <S**2>=0.000
       6 -> 16         0.11177
       7 -> 23        -0.27355
       9 -> 29         0.62734
      10 -> 30         0.12748

 Excited State 108:      Singlet-A1    17.9812 eV   68.95 nm  f=0.0670  <S**2>=0.000
       5 -> 13        -0.29630
       6 -> 14         0.11417
       6 -> 17         0.17950
       8 -> 25         0.21663
       9 -> 28         0.53008
      11 -> 36        -0.10617

 Excited State 109:      Singlet-A2    18.0481 eV   68.70 nm  f=0.0000  <S**2>=0.000
       6 -> 16         0.43839
       7 -> 23        -0.13029
       9 -> 29        -0.23385
      10 -> 30         0.48123

 Excited State 110:      Singlet-A1    18.1227 eV   68.41 nm  f=0.0047  <S**2>=0.000
       5 -> 13         0.55395
       6 -> 14        -0.11121
       6 -> 17         0.18294
       7 -> 24        -0.14103
       8 -> 25         0.14724
       9 -> 28         0.19804
       9 -> 31         0.16971

 Excited State 111:      Singlet-A2    18.1341 eV   68.37 nm  f=0.0000  <S**2>=0.000
       6 -> 16         0.53884
       7 -> 23         0.11199
      10 -> 30        -0.43729

 Excited State 112:      Singlet-B1    18.1606 eV   68.27 nm  f=0.0175  <S**2>=0.000
      10 -> 31         0.69486

 Excited State 113:      Singlet-A1    18.2669 eV   67.87 nm  f=0.0652  <S**2>=0.000
       5 -> 15         0.18671
       6 -> 17        -0.10743
       7 -> 24         0.23868
       8 -> 25         0.56791
       9 -> 28        -0.12213
      11 -> 36         0.19452

 Excited State 114:      Singlet-A2    18.2795 eV   67.83 nm  f=0.0000  <S**2>=0.000
       7 -> 23         0.61797
       9 -> 29         0.21123
      10 -> 30         0.23413

 Excited State 115:      Singlet-B2    18.3042 eV   67.74 nm  f=0.0225  <S**2>=0.000
       5 -> 14         0.27824
       9 -> 30        -0.27385
      11 -> 35         0.53504
      11 -> 37        -0.14782

 Excited State 116:      Singlet-A1    18.3926 eV   67.41 nm  f=0.0533  <S**2>=0.000
       6 -> 17        -0.20661
       7 -> 24         0.51813
       8 -> 25        -0.12486
       9 -> 31         0.18544
      11 -> 36        -0.31392

 Excited State 117:      Singlet-B2    18.5179 eV   66.95 nm  f=0.0001  <S**2>=0.000
       5 -> 14         0.17347
       9 -> 30         0.14708
      11 -> 35         0.16194
      11 -> 37         0.64483

 Excited State 118:      Singlet-B2    18.5489 eV   66.84 nm  f=0.0016  <S**2>=0.000
       5 -> 14         0.39975
       9 -> 30         0.52469
      11 -> 37        -0.23275

 Excited State 119:      Singlet-A1    18.5497 eV   66.84 nm  f=0.0137  <S**2>=0.000
       7 -> 24         0.15060
       8 -> 25        -0.17470
       9 -> 28         0.11132
       9 -> 31         0.29029
      11 -> 36         0.55621
      12 -> 44         0.13087

 Excited State 120:      Singlet-A1    18.7407 eV   66.16 nm  f=0.0650  <S**2>=0.000
       5 -> 13        -0.10241
       5 -> 15         0.37259
       6 -> 17         0.22950
       8 -> 27         0.12720
       9 -> 31         0.41072
      10 -> 34         0.10020
      11 -> 36        -0.12147
      12 -> 41        -0.14414

 Excited State 121:      Singlet-B2    18.8193 eV   65.88 nm  f=0.0127  <S**2>=0.000
       5 -> 14        -0.24581
       5 -> 17        -0.12094
       6 -> 18        -0.11444
       9 -> 30         0.26111
      10 -> 32         0.46282
      11 -> 35         0.21164
      12 -> 42         0.20564

 Excited State 122:      Singlet-A1    18.8257 eV   65.86 nm  f=0.0050  <S**2>=0.000
       5 -> 15         0.50483
       6 -> 17        -0.13978
       8 -> 25        -0.10596
       8 -> 27        -0.10457
       9 -> 31        -0.25739
      11 -> 39        -0.23984
      12 -> 41         0.11549
      12 -> 44         0.20915

 Excited State 123:      Singlet-A1    18.8621 eV   65.73 nm  f=0.0215  <S**2>=0.000
       6 -> 17         0.45187
       7 -> 24         0.29836
       9 -> 31        -0.26878

 The electronic state is 1-A1.
 Alpha  occ. eigenvalues --  -19.08279 -10.18139 -10.18114  -1.05320  -0.65168
 Alpha  occ. eigenvalues --   -0.61569  -0.50191  -0.47070  -0.38942  -0.37440
 Alpha  occ. eigenvalues --   -0.30485  -0.26072
 Alpha virt. eigenvalues --    0.02742   0.04736   0.05495   0.06864   0.07991
 Alpha virt. eigenvalues --    0.11126   0.13826   0.15346   0.15405   0.16489
 Alpha virt. eigenvalues --    0.18597   0.19442   0.22130   0.25515   0.26612

 Mulliken charges:
               1
     1  C    0.541605
     2  C    0.541605
     3  O   -0.646757
     4  H   -0.109113
     5  H   -0.109113
     6  H   -0.109113
     7  H   -0.109113
 Sum of Mulliken charges =  -0.00000

 Dipole moment (field-independent basis, Debye):
    X=             -0.0000    Y=              0.0000    Z=             -1.8745  Tot=              1.8745
 Quadrupole moment (field-independent basis, Debye-Ang):
   XX=            -17.5373   YY=            -16.5670   ZZ=            -20.8452
   XY=              0.0000   XZ=             -0.0000   YZ=             -0.0000

 Normal termination of Gaussian 16 at Mon Mar 21 20:10:13 2022.
