 Gaussian 16, Revision C.01,
 Gaussian 16:  EM64L-G16RevC.01  3-Jul-2019

 ---------------------------------------------------------------------
 #P TD(Nstates=10000) tpssh/Gen SCF(maxcycles=100) Int(Grid=ultrafine)
 ---------------------------------------------------------------------

 ---------------------
 xGDB7_00001_tier4.com
 ---------------------
 Symbolic Z-matrix:
 Charge =  0 Multiplicity = 1

                         Standard orientation:
 ---------------------------------------------------------------------
 Center     Atomic      Atomic             Coordinates (Angstroms)
 Number     Number       Type             X           Y           Z
 ---------------------------------------------------------------------
      1          6           0       -1.240791   -0.237624   -0.027525
      2          6           0        0.048946    0.559205    0.053709
      3          7           0        1.202342   -0.317606   -0.116703
      4          1           0       -2.109817    0.415828    0.064703
      5          1           0       -1.292929   -0.976209    0.776809
      6          1           0       -1.300329   -0.769884   -0.977746
      7          1           0        0.066306    1.122818    0.997967
      8          1           0        0.069957    1.296574   -0.752592
      9          1           0        1.236408   -1.003082    0.627159
     10          1           0        2.065080    0.207710   -0.076483
 ---------------------------------------------------------------------

 SCF Done:  E(RTPSSh) =  -135.094826736     A.U. after   13 cycles

 Excitation energies and oscillator strengths:

 Excited State   1:      Singlet-A      6.0878 eV  203.66 nm  f=0.0111  <S**2>=0.000
      13 -> 14         0.70250
 This state for optimization and/or second-order correction.
 Total Energy, E(TD-HF/TD-DFT) =  -134.871103196
 Copying the excited state density for this state as the 1-particle RhoCI density.

 Excited State   2:      Singlet-A      6.9415 eV  178.61 nm  f=0.0042  <S**2>=0.000
      13 -> 15         0.70096

 Excited State   3:      Singlet-A      7.1908 eV  172.42 nm  f=0.0297  <S**2>=0.000
      13 -> 16         0.70474

 Excited State   4:      Singlet-A      7.8420 eV  158.10 nm  f=0.0691  <S**2>=0.000
      13 -> 17         0.70366

 Excited State   5:      Singlet-A      8.3135 eV  149.14 nm  f=0.0278  <S**2>=0.000
      13 -> 18         0.70331

 Excited State   6:      Singlet-A      8.8092 eV  140.74 nm  f=0.0059  <S**2>=0.000
      13 -> 19         0.69387
      13 -> 21        -0.10092

 Excited State   7:      Singlet-A      9.0517 eV  136.97 nm  f=0.0035  <S**2>=0.000
      12 -> 14        -0.17553
      13 -> 20         0.67587

 Excited State   8:      Singlet-A      9.1024 eV  136.21 nm  f=0.0011  <S**2>=0.000
      12 -> 14         0.68011
      13 -> 20         0.17202

 Excited State   9:      Singlet-A      9.2940 eV  133.40 nm  f=0.0149  <S**2>=0.000
      13 -> 21         0.68799

 Excited State  10:      Singlet-A      9.5479 eV  129.86 nm  f=0.0087  <S**2>=0.000
      11 -> 14         0.70023

 Excited State  11:      Singlet-A      9.7491 eV  127.18 nm  f=0.0601  <S**2>=0.000
      10 -> 14         0.69818

 Excited State  12:      Singlet-A      9.8691 eV  125.63 nm  f=0.0203  <S**2>=0.000
      12 -> 15        -0.48595
      13 -> 22         0.49790

 Excited State  13:      Singlet-A      9.9081 eV  125.13 nm  f=0.0202  <S**2>=0.000
      12 -> 15         0.49534
      13 -> 22         0.43252
      13 -> 23        -0.17963
      13 -> 24         0.14286

 Excited State  14:      Singlet-A     10.0729 eV  123.09 nm  f=0.0040  <S**2>=0.000
      12 -> 15         0.10512
      13 -> 22         0.18734
      13 -> 23         0.64681
      13 -> 24        -0.15276

 Excited State  15:      Singlet-A     10.2077 eV  121.46 nm  f=0.0821  <S**2>=0.000
      12 -> 16         0.56569
      13 -> 23        -0.14131
      13 -> 24        -0.38132

 Excited State  16:      Singlet-A     10.2399 eV  121.08 nm  f=0.0416  <S**2>=0.000
      12 -> 16         0.41459
      13 -> 23         0.14594
      13 -> 24         0.54048

 Excited State  17:      Singlet-A     10.3472 eV  119.82 nm  f=0.0644  <S**2>=0.000
      11 -> 15         0.69607

 Excited State  18:      Singlet-A     10.5272 eV  117.78 nm  f=0.0293  <S**2>=0.000
      10 -> 15         0.69512

 Excited State  19:      Singlet-A     10.6386 eV  116.54 nm  f=0.0131  <S**2>=0.000
      11 -> 16         0.68549
      13 -> 25        -0.11021

 Excited State  20:      Singlet-A     10.7102 eV  115.76 nm  f=0.0449  <S**2>=0.000
      11 -> 16         0.12031
      13 -> 25         0.65378
      13 -> 26         0.14803

 Excited State  21:      Singlet-A     10.8134 eV  114.66 nm  f=0.0050  <S**2>=0.000
      10 -> 16         0.54961
      12 -> 17        -0.42309

 Excited State  22:      Singlet-A     10.8815 eV  113.94 nm  f=0.0515  <S**2>=0.000
      10 -> 16         0.41884
      12 -> 17         0.55008

 Excited State  23:      Singlet-A     11.1437 eV  111.26 nm  f=0.0080  <S**2>=0.000
       9 -> 14         0.25005
      11 -> 17        -0.14021
      13 -> 26         0.53763
      13 -> 27         0.33697

 Excited State  24:      Singlet-A     11.2100 eV  110.60 nm  f=0.0077  <S**2>=0.000
       9 -> 14        -0.21360
      11 -> 17         0.50891
      12 -> 18         0.34908
      13 -> 26         0.10950
      13 -> 27         0.22479

 Excited State  25:      Singlet-A     11.2281 eV  110.42 nm  f=0.0233  <S**2>=0.000
       9 -> 14         0.33676
      12 -> 18         0.45954
      13 -> 26         0.10351
      13 -> 27        -0.39486

 Excited State  26:      Singlet-A     11.2568 eV  110.14 nm  f=0.0554  <S**2>=0.000
       9 -> 14         0.50154
      11 -> 17         0.35477
      12 -> 18        -0.20704
      13 -> 26        -0.21319
      13 -> 27         0.12153

 Excited State  27:      Singlet-A     11.3632 eV  109.11 nm  f=0.1202  <S**2>=0.000
      11 -> 17        -0.28944
      12 -> 18         0.33132
      12 -> 19        -0.12156
      13 -> 25         0.10331
      13 -> 26        -0.31752
      13 -> 27         0.38309

 Excited State  28:      Singlet-A     11.4106 eV  108.66 nm  f=0.0510  <S**2>=0.000
      10 -> 17         0.69270

 Excited State  29:      Singlet-A     11.7011 eV  105.96 nm  f=0.0278  <S**2>=0.000
      11 -> 18         0.68676

 Excited State  30:      Singlet-A     11.7941 eV  105.12 nm  f=0.0175  <S**2>=0.000
       9 -> 15         0.11528
      10 -> 18        -0.19058
      12 -> 19         0.64048
      12 -> 20         0.10119

 Excited State  31:      Singlet-A     11.8817 eV  104.35 nm  f=0.0528  <S**2>=0.000
       9 -> 15        -0.15997
      10 -> 18         0.52887
      11 -> 18        -0.10164
      12 -> 19         0.22551
      12 -> 20        -0.20619
      13 -> 28        -0.27410

 Excited State  32:      Singlet-A     11.9510 eV  103.74 nm  f=0.0576  <S**2>=0.000
       9 -> 15         0.23229
      10 -> 18         0.29990
      13 -> 28         0.56998

 Excited State  33:      Singlet-A     12.0348 eV  103.02 nm  f=0.0411  <S**2>=0.000
       9 -> 15        -0.45254
      10 -> 18         0.12350
      12 -> 20         0.46445
      12 -> 21         0.10166
      13 -> 28         0.18659

 Excited State  34:      Singlet-A     12.0688 eV  102.73 nm  f=0.0595  <S**2>=0.000
       9 -> 15         0.41546
      10 -> 18         0.20463
      11 -> 19        -0.26619
      12 -> 20         0.36658
      13 -> 28        -0.18960

 Excited State  35:      Singlet-A     12.1857 eV  101.75 nm  f=0.0085  <S**2>=0.000
      11 -> 19         0.38664
      12 -> 21         0.55985

 Excited State  36:      Singlet-A     12.2308 eV  101.37 nm  f=0.0712  <S**2>=0.000
       8 -> 14         0.27561
      11 -> 19         0.46255
      11 -> 20        -0.10950
      12 -> 20         0.17901
      12 -> 21        -0.32534
      13 -> 29         0.14334

 Excited State  37:      Singlet-A     12.3129 eV  100.69 nm  f=0.0128  <S**2>=0.000
       8 -> 14        -0.40937
       9 -> 16         0.43135
      10 -> 19         0.18579
      11 -> 19         0.11390
      12 -> 21        -0.19660
      13 -> 29        -0.19268

 Excited State  38:      Singlet-A     12.3257 eV  100.59 nm  f=0.0832  <S**2>=0.000
       8 -> 14         0.37385
       9 -> 16         0.48244
      11 -> 19        -0.16139
      11 -> 20        -0.10588
      12 -> 20        -0.14779
      13 -> 29         0.16853

 Excited State  39:      Singlet-A     12.3842 eV  100.12 nm  f=0.1637  <S**2>=0.000
       8 -> 14        -0.29730
      11 -> 20        -0.13728
      13 -> 29         0.59142

 Excited State  40:      Singlet-A     12.4193 eV   99.83 nm  f=0.0183  <S**2>=0.000
       9 -> 16         0.18350
      10 -> 19        -0.29434
      11 -> 19         0.10500
      11 -> 20         0.58419

 Excited State  41:      Singlet-A     12.4628 eV   99.48 nm  f=0.0314  <S**2>=0.000
      10 -> 19         0.56279
      10 -> 20        -0.16898
      11 -> 20         0.31364
      13 -> 29         0.12319

 Excited State  42:      Singlet-A     12.6351 eV   98.13 nm  f=0.1036  <S**2>=0.000
      10 -> 19         0.10402
      10 -> 20         0.58179
      11 -> 21         0.33961

 Excited State  43:      Singlet-A     12.6744 eV   97.82 nm  f=0.0022  <S**2>=0.000
       9 -> 17         0.10935
      10 -> 20        -0.27607
      10 -> 21         0.25175
      11 -> 21         0.51301
      12 -> 22         0.20400

 Excited State  44:      Singlet-A     12.8047 eV   96.83 nm  f=0.0219  <S**2>=0.000
       7 -> 14         0.10105
       9 -> 17        -0.23971
      10 -> 21         0.48878
      12 -> 22        -0.36571
      13 -> 31        -0.13235

 Excited State  45:      Singlet-A     12.8361 eV   96.59 nm  f=0.0195  <S**2>=0.000
      10 -> 20         0.14347
      10 -> 21         0.34163
      11 -> 21        -0.19744
      12 -> 22         0.49636

 Excited State  46:      Singlet-A     12.9533 eV   95.72 nm  f=0.0760  <S**2>=0.000
       7 -> 14         0.53612
       9 -> 17        -0.35697
      10 -> 21        -0.12761
      12 -> 22         0.14915

 Excited State  47:      Singlet-A     12.9603 eV   95.66 nm  f=0.0135  <S**2>=0.000
       7 -> 14         0.37549
       8 -> 15        -0.13786
       9 -> 17         0.43579
      12 -> 22        -0.10239
      12 -> 23         0.30591

 Excited State  48:      Singlet-A     13.0287 eV   95.16 nm  f=0.0153  <S**2>=0.000
       8 -> 15        -0.20744
      12 -> 23         0.12602
      13 -> 30         0.61656

 Excited State  49:      Singlet-A     13.0479 eV   95.02 nm  f=0.0058  <S**2>=0.000
       8 -> 15         0.58388
       9 -> 17         0.20439
      12 -> 23        -0.13513
      13 -> 30         0.22600

 Excited State  50:      Singlet-A     13.1196 eV   94.50 nm  f=0.0650  <S**2>=0.000
       8 -> 15         0.18144
       9 -> 17        -0.14607
      11 -> 22        -0.16413
      12 -> 23         0.49434
      12 -> 24        -0.24389
      13 -> 31         0.26988

 Excited State  51:      Singlet-A     13.1561 eV   94.24 nm  f=0.0881  <S**2>=0.000
       8 -> 15        -0.14777
       8 -> 16        -0.10209
      10 -> 21         0.11030
      11 -> 21        -0.12575
      12 -> 23        -0.17800
      12 -> 24         0.15363
      13 -> 30         0.14618
      13 -> 31         0.57089

 Excited State  52:      Singlet-A     13.1878 eV   94.01 nm  f=0.0102  <S**2>=0.000
       8 -> 15         0.12060
      10 -> 22        -0.10132
      11 -> 22        -0.44117
      12 -> 24         0.48188
      13 -> 31        -0.10370

 Excited State  53:      Singlet-A     13.2692 eV   93.44 nm  f=0.0253  <S**2>=0.000
       7 -> 14        -0.10570
       8 -> 16        -0.14212
       9 -> 18         0.15939
      10 -> 22         0.12720
      11 -> 22         0.46106
      11 -> 23        -0.20122
      12 -> 23         0.21563
      12 -> 24         0.29344

 Excited State  54:      Singlet-A     13.3390 eV   92.95 nm  f=0.0343  <S**2>=0.000
       8 -> 16         0.54929
       9 -> 18         0.12763
      10 -> 22         0.35771
      11 -> 23         0.10153
      12 -> 24         0.10393

 Excited State  55:      Singlet-A     13.3723 eV   92.72 nm  f=0.0618  <S**2>=0.000
       8 -> 16        -0.32998
       9 -> 18         0.44634
      10 -> 22         0.28433
      11 -> 22        -0.11833
      11 -> 23         0.23982

 Excited State  56:      Singlet-A     13.4310 eV   92.31 nm  f=0.0901  <S**2>=0.000
       8 -> 16         0.18725
       9 -> 18         0.44628
      10 -> 22        -0.42761
      11 -> 24         0.14604
      13 -> 31         0.10494

 Excited State  57:      Singlet-A     13.5753 eV   91.33 nm  f=0.0067  <S**2>=0.000
      10 -> 22        -0.12583
      10 -> 23        -0.32259
      11 -> 23         0.52863
      11 -> 24         0.10896
      12 -> 24         0.10697

 Excited State  58:      Singlet-A     13.6109 eV   91.09 nm  f=0.0020  <S**2>=0.000
       7 -> 15        -0.11076
       9 -> 19         0.12711
      10 -> 23         0.49181
      10 -> 24         0.23047
      11 -> 23         0.19707
      11 -> 24        -0.22781
      12 -> 25         0.19823

 Excited State  59:      Singlet-A     13.6565 eV   90.79 nm  f=0.0090  <S**2>=0.000
       9 -> 18        -0.10266
      11 -> 24         0.45183
      12 -> 25         0.48014

 Excited State  60:      Singlet-A     13.7603 eV   90.10 nm  f=0.0535  <S**2>=0.000
       9 -> 19        -0.21899
      10 -> 23        -0.21268
      10 -> 24        -0.11819
      11 -> 24        -0.40513
      11 -> 25         0.14388
      12 -> 25         0.40897

 Excited State  61:      Singlet-A     13.7898 eV   89.91 nm  f=0.0905  <S**2>=0.000
       7 -> 15         0.65194
       9 -> 19         0.13952
      10 -> 24         0.13363
      12 -> 25         0.12999

 Excited State  62:      Singlet-A     13.8528 eV   89.50 nm  f=0.0121  <S**2>=0.000
       7 -> 16         0.12655
       9 -> 19        -0.30082
      10 -> 23        -0.12317
      10 -> 24         0.58328

 Excited State  63:      Singlet-A     13.9385 eV   88.95 nm  f=0.0054  <S**2>=0.000
       7 -> 15        -0.11946
       8 -> 17         0.52865
       9 -> 19         0.36514
      10 -> 23        -0.12372

 Excited State  64:      Singlet-A     13.9899 eV   88.62 nm  f=0.0158  <S**2>=0.000
       8 -> 17         0.10309
      11 -> 25        -0.14760
      12 -> 26         0.32658
      13 -> 32         0.58475

 Excited State  65:      Singlet-A     14.0042 eV   88.53 nm  f=0.0123  <S**2>=0.000
       7 -> 16         0.43134
       8 -> 17        -0.21418
       9 -> 19         0.29375
      11 -> 25         0.16524
      12 -> 26        -0.22016
      13 -> 32         0.25907

 Excited State  66:      Singlet-A     14.0299 eV   88.37 nm  f=0.0080  <S**2>=0.000
       7 -> 16        -0.29178
       9 -> 20         0.10651
      11 -> 25         0.16765
      12 -> 26        -0.32563
      13 -> 32         0.22171
      13 -> 33         0.44074

 Excited State  67:      Singlet-A     14.0661 eV   88.14 nm  f=0.0454  <S**2>=0.000
       7 -> 16         0.18949
       8 -> 17        -0.13145
       9 -> 19         0.11862
       9 -> 20        -0.10066
      11 -> 25        -0.22642
      12 -> 26         0.25129
      13 -> 32        -0.12115
      13 -> 33         0.51569

 Excited State  68:      Singlet-A     14.1019 eV   87.92 nm  f=0.0143  <S**2>=0.000
       7 -> 16         0.30642
       8 -> 17         0.22513
       9 -> 20         0.33804
      10 -> 23         0.11457
      10 -> 24        -0.11477
      12 -> 27        -0.10562
      13 -> 34         0.38035

 Excited State  69:      Singlet-A     14.1665 eV   87.52 nm  f=0.0199  <S**2>=0.000
       7 -> 16        -0.16421
       8 -> 17        -0.12314
       9 -> 19         0.13765
       9 -> 20        -0.11862
       9 -> 21         0.20043
      12 -> 27         0.17231
      13 -> 33        -0.10796
      13 -> 34         0.53864

 Excited State  70:      Singlet-A     14.2276 eV   87.14 nm  f=0.0221  <S**2>=0.000
       8 -> 17         0.11295
       8 -> 18        -0.29163
       9 -> 20        -0.20599
       9 -> 21        -0.24523
      11 -> 25        -0.15758
      12 -> 26        -0.21788
      12 -> 27         0.41092

 Excited State  71:      Singlet-A     14.2751 eV   86.85 nm  f=0.0989  <S**2>=0.000
       8 -> 18         0.16898
       9 -> 20         0.42793
       9 -> 21         0.14321
      11 -> 25        -0.21432
      12 -> 27         0.35885
      13 -> 34        -0.14840

 Excited State  72:      Singlet-A     14.3022 eV   86.69 nm  f=0.0420  <S**2>=0.000
       9 -> 21         0.32483
      10 -> 25         0.44740
      11 -> 25         0.27324
      12 -> 27         0.23445

 Excited State  73:      Singlet-A     14.4082 eV   86.05 nm  f=0.0989  <S**2>=0.000
       8 -> 18        -0.15132
       9 -> 20        -0.10179
       9 -> 21         0.46992
      10 -> 25        -0.19198
      10 -> 26         0.15100
      11 -> 25        -0.22660
      12 -> 26        -0.14265
      12 -> 27        -0.13847
      13 -> 34        -0.10599

 Excited State  74:      Singlet-A     14.4348 eV   85.89 nm  f=0.0928  <S**2>=0.000
       8 -> 18         0.22329
       9 -> 21        -0.10167
      10 -> 25         0.40129
      10 -> 26         0.23562
      11 -> 25        -0.27023
      11 -> 26         0.17110
      11 -> 27         0.14505
      12 -> 26        -0.19108
      12 -> 27        -0.12041

 Excited State  75:      Singlet-A     14.5280 eV   85.34 nm  f=0.0456  <S**2>=0.000
       7 -> 17         0.44054
       8 -> 18         0.42547
       9 -> 20        -0.10455
      10 -> 25        -0.16210
      12 -> 27         0.11841

 Excited State  76:      Singlet-A     14.5989 eV   84.93 nm  f=0.1036  <S**2>=0.000
      10 -> 27        -0.16252
      11 -> 26         0.58850
      12 -> 28        -0.15217
      13 -> 35         0.17419

 Excited State  77:      Singlet-A     14.6167 eV   84.82 nm  f=0.0210  <S**2>=0.000
      11 -> 26        -0.12075
      11 -> 27         0.62442
      12 -> 28        -0.11687
      13 -> 35         0.20328

 Excited State  78:      Singlet-A     14.6473 eV   84.65 nm  f=0.0282  <S**2>=0.000
      11 -> 26        -0.12531
      11 -> 27        -0.19533
      12 -> 28         0.11133
      13 -> 35         0.62884

 Excited State  79:      Singlet-A     14.7350 eV   84.14 nm  f=0.0506  <S**2>=0.000
       9 -> 23         0.10541
      10 -> 25        -0.11760
      10 -> 26         0.57788
      10 -> 27         0.20710
      11 -> 25         0.10645

 Excited State  80:      Singlet-A     14.8331 eV   83.59 nm  f=0.0201  <S**2>=0.000
       8 -> 19        -0.20464
       9 -> 22        -0.25746
      10 -> 26        -0.19275
      10 -> 27         0.52427
      11 -> 26         0.11950
      12 -> 28        -0.11655

 Excited State  81:      Singlet-A     14.9246 eV   83.07 nm  f=0.0281  <S**2>=0.000
       7 -> 17        -0.29489
       7 -> 18        -0.15810
       8 -> 18         0.14777
       8 -> 19         0.44760
      10 -> 27         0.22252
      12 -> 28        -0.12100
      13 -> 36        -0.16542

 Excited State  82:      Singlet-A     14.9398 eV   82.99 nm  f=0.0167  <S**2>=0.000
       7 -> 18        -0.11067
       9 -> 22         0.57954
      10 -> 27         0.24480
      12 -> 28         0.22391

 Excited State  83:      Singlet-A     14.9568 eV   82.89 nm  f=0.1066  <S**2>=0.000
       7 -> 17        -0.29454
       7 -> 18        -0.16233
       8 -> 18         0.11727
       8 -> 19        -0.32244
       8 -> 20         0.12120
       9 -> 22        -0.17993
      12 -> 28         0.33635

 Excited State  84:      Singlet-A     15.0563 eV   82.35 nm  f=0.0137  <S**2>=0.000
       9 -> 23         0.14184
      12 -> 28        -0.12706
      13 -> 36         0.62659
      13 -> 38         0.11910

 Excited State  85:      Singlet-A     15.0789 eV   82.22 nm  f=0.0646  <S**2>=0.000
       7 -> 17        -0.11575
       8 -> 18         0.11696
       8 -> 19        -0.27457
       8 -> 21         0.10128
       9 -> 22         0.13212
       9 -> 23         0.40548
      10 -> 28        -0.11229
      11 -> 26        -0.10805
      12 -> 28        -0.32016
      13 -> 36        -0.10749

 Excited State  86:      Singlet-A     15.1291 eV   81.95 nm  f=0.0089  <S**2>=0.000
       7 -> 18         0.40175
       8 -> 20         0.47777
       9 -> 23         0.13044
       9 -> 24        -0.20077
      11 -> 28         0.15485

 Excited State  87:      Singlet-A     15.1992 eV   81.57 nm  f=0.0054  <S**2>=0.000
       7 -> 18         0.24657
       8 -> 20        -0.25754
      13 -> 37         0.27099
      13 -> 38         0.49918
      13 -> 39        -0.12516

 Excited State  88:      Singlet-A     15.2486 eV   81.31 nm  f=0.0584  <S**2>=0.000
       9 -> 23        -0.36373
       9 -> 24         0.12337
      11 -> 28         0.48348
      12 -> 28        -0.19259
      13 -> 37         0.18406

 Excited State  89:      Singlet-A     15.2798 eV   81.14 nm  f=0.0083  <S**2>=0.000
       7 -> 18        -0.25753
       8 -> 20         0.18795
      11 -> 28         0.12236
      13 -> 37        -0.32861
      13 -> 38         0.41700
      13 -> 41        -0.11738

 Excited State  90:      Singlet-A     15.3079 eV   80.99 nm  f=0.0493  <S**2>=0.000
       8 -> 20         0.24553
       9 -> 24         0.53454
      11 -> 28        -0.18109
      12 -> 29         0.11259
      13 -> 37         0.25972

 Excited State  91:      Singlet-A     15.3451 eV   80.80 nm  f=0.0040  <S**2>=0.000
       7 -> 18         0.16623
       8 -> 21        -0.12902
       9 -> 23        -0.11379
      12 -> 29         0.55309
      13 -> 37        -0.26824

 Excited State  92:      Singlet-A     15.3949 eV   80.54 nm  f=0.1202  <S**2>=0.000
       7 -> 17         0.12086
       7 -> 18        -0.18674
       8 -> 21        -0.20254
       9 -> 23         0.20814
       9 -> 24        -0.20092
      10 -> 28        -0.11607
      11 -> 28         0.15848
      12 -> 28         0.10652
      12 -> 29         0.33286
      13 -> 37         0.28787

 Excited State  93:      Singlet-A     15.4097 eV   80.46 nm  f=0.0390  <S**2>=0.000
       8 -> 21         0.59537
      11 -> 28         0.15655
      12 -> 29         0.17578

 Excited State  94:      Singlet-A     15.5018 eV   79.98 nm  f=0.0553  <S**2>=0.000
       7 -> 19         0.18879

 The electronic state is 1-A.
 Alpha  occ. eigenvalues --  -14.24088 -10.14561 -10.11383  -0.85116  -0.70438
 Alpha  occ. eigenvalues --   -0.57994  -0.47214  -0.44680  -0.40870  -0.35332
 Alpha  occ. eigenvalues --   -0.34722  -0.33093  -0.22178
 Alpha virt. eigenvalues --    0.02178   0.05009   0.06169   0.08505   0.10229
 Alpha virt. eigenvalues --    0.12170   0.12996   0.13725   0.15849   0.16889
 Alpha virt. eigenvalues --    0.17388   0.19310   0.20610   0.21026   0.23776

 Mulliken charges:
               1
     1  C    0.219717
     2  C    0.109468
     3  N   -0.214519
     4  H    0.021391
     5  H    0.005740
     6  H    0.048875
     7  H   -0.082295
     8  H   -0.115959
     9  H    0.038060
    10  H   -0.030479
 Sum of Mulliken charges =  -0.00000

 Dipole moment (field-independent basis, Debye):
    X=              0.1519    Y=              0.5887    Z=              1.0795  Tot=              1.2389
 Quadrupole moment (field-independent basis, Debye-Ang):
   XX=            -19.6189   YY=            -20.8499   ZZ=            -21.5335
   XY=              0.7077   XZ=              1.5297   YZ=             -1.6857

 Normal termination of Gaussian 16 at Mon Mar 21 20:06:29 2022.
