 Gaussian 16, Revision C.01,
 Gaussian 16:  EM64L-G16RevC.01  3-Jul-2019

 ---------------------------------------------------------------------
 #P TD(Nstates=10000) tpssh/Gen SCF(maxcycles=100) Int(Grid=ultrafine)
 ---------------------------------------------------------------------

 ---------------------
 xGDB7_00001_tier4.com
 ---------------------
 Symbolic Z-matrix:
 Charge =  0 Multiplicity = 1

                         Standard orientation:
 ---------------------------------------------------------------------
 Center     Atomic      Atomic             Coordinates (Angstroms)
 Number     Number       Type             X           Y           Z
 ---------------------------------------------------------------------
      1          6           0       -1.122844   -0.452320    0.000000
      2          6           0        0.000000    0.553997    0.000000
      3          9           0        1.225284   -0.098236    0.000000
      4          1           0       -2.083314    0.066805    0.000000
      5          1           0       -1.072796   -1.085651    0.886148
      6          1           0       -1.072796   -1.085651   -0.886148
      7          1           0       -0.030794    1.189278    0.888716
      8          1           0       -0.030794    1.189278   -0.888716
 ---------------------------------------------------------------------

 SCF Done:  E(RTPSSh) =  -178.945210445     A.U. after   12 cycles

 Excitation energies and oscillator strengths:

 Excited State   1:      Singlet-A"     8.6745 eV  142.93 nm  f=0.0024  <S**2>=0.000
      13 -> 14         0.70416
 This state for optimization and/or second-order correction.
 Total Energy, E(TD-HF/TD-DFT) =  -178.626427976
 Copying the excited state density for this state as the 1-particle RhoCI density.

 Excited State   2:      Singlet-A'     8.8897 eV  139.47 nm  f=0.0148  <S**2>=0.000
      12 -> 14         0.70159

 Excited State   3:      Singlet-A"     9.4893 eV  130.66 nm  f=0.0267  <S**2>=0.000
      13 -> 15         0.69427
      13 -> 16         0.11092

 Excited State   4:      Singlet-A'     9.6457 eV  128.54 nm  f=0.0466  <S**2>=0.000
      12 -> 15         0.69441
      12 -> 16         0.10083

 Excited State   5:      Singlet-A"     9.9723 eV  124.33 nm  f=0.0281  <S**2>=0.000
      13 -> 15        -0.11329
      13 -> 16         0.69520

 Excited State   6:      Singlet-A'    10.1254 eV  122.45 nm  f=0.0190  <S**2>=0.000
      12 -> 16         0.67387
      13 -> 17        -0.18064

 Excited State   7:      Singlet-A'    10.2718 eV  120.70 nm  f=0.1146  <S**2>=0.000
      12 -> 16         0.17524
      13 -> 17         0.68016

 Excited State   8:      Singlet-A"    10.3448 eV  119.85 nm  f=0.0262  <S**2>=0.000
      12 -> 17         0.70072

 Excited State   9:      Singlet-A"    10.4657 eV  118.47 nm  f=0.0244  <S**2>=0.000
      11 -> 14         0.70058

 Excited State  10:      Singlet-A'    10.4873 eV  118.22 nm  f=0.0668  <S**2>=0.000
      10 -> 14         0.70409

 Excited State  11:      Singlet-A"    10.8124 eV  114.67 nm  f=0.0031  <S**2>=0.000
      13 -> 18         0.70401

 Excited State  12:      Singlet-A'    10.9528 eV  113.20 nm  f=0.0388  <S**2>=0.000
      12 -> 18         0.69759

 Excited State  13:      Singlet-A"    11.2753 eV  109.96 nm  f=0.0375  <S**2>=0.000
      11 -> 15         0.67489
      13 -> 20        -0.19244

 Excited State  14:      Singlet-A'    11.3331 eV  109.40 nm  f=0.0890  <S**2>=0.000
      10 -> 15         0.69542

 Excited State  15:      Singlet-A"    11.3821 eV  108.93 nm  f=0.0508  <S**2>=0.000
      11 -> 15         0.18934
      13 -> 20         0.67440

 Excited State  16:      Singlet-A'    11.4677 eV  108.12 nm  f=0.0086  <S**2>=0.000
      12 -> 20         0.64884
      13 -> 19         0.26619

 Excited State  17:      Singlet-A"    11.4706 eV  108.09 nm  f=0.0028  <S**2>=0.000
      12 -> 19         0.70153

 Excited State  18:      Singlet-A'    11.5221 eV  107.61 nm  f=0.0001  <S**2>=0.000
      12 -> 20        -0.26714
      13 -> 19         0.63829

 Excited State  19:      Singlet-A"    11.8148 eV  104.94 nm  f=0.0000  <S**2>=0.000
      11 -> 16         0.68870
      13 -> 21        -0.12139

 Excited State  20:      Singlet-A'    11.8772 eV  104.39 nm  f=0.0389  <S**2>=0.000
       9 -> 14         0.50289
      10 -> 16        -0.48109

 Excited State  21:      Singlet-A"    11.8820 eV  104.35 nm  f=0.0001  <S**2>=0.000
      11 -> 16         0.11432
      13 -> 21         0.68933

 Excited State  22:      Singlet-A"    11.9727 eV  103.56 nm  f=0.0380  <S**2>=0.000
      10 -> 17         0.69813

 Excited State  23:      Singlet-A'    11.9780 eV  103.51 nm  f=0.0435  <S**2>=0.000
       9 -> 14        -0.36177
      10 -> 16        -0.31161
      11 -> 17         0.44137
      12 -> 21         0.18694
      13 -> 22        -0.17571

 Excited State  24:      Singlet-A'    12.0398 eV  102.98 nm  f=0.0107  <S**2>=0.000
       9 -> 14         0.31569
      10 -> 16         0.36387
      10 -> 18        -0.11567
      11 -> 17         0.47273
      12 -> 21         0.11034

 Excited State  25:      Singlet-A'    12.1063 eV  102.41 nm  f=0.0376  <S**2>=0.000
      11 -> 17        -0.20956
      12 -> 21         0.65705

 Excited State  26:      Singlet-A'    12.2836 eV  100.93 nm  f=0.0055  <S**2>=0.000
      11 -> 17         0.11255
      13 -> 22         0.67248

 Excited State  27:      Singlet-A"    12.3429 eV  100.45 nm  f=0.0018  <S**2>=0.000
      12 -> 22         0.69847

 Excited State  28:      Singlet-A"    12.5169 eV   99.05 nm  f=0.0126  <S**2>=0.000
      11 -> 18         0.67872
      13 -> 23        -0.11281

 Excited State  29:      Singlet-A"    12.6225 eV   98.22 nm  f=0.0028  <S**2>=0.000
      11 -> 18         0.11079
      13 -> 23         0.68294

 Excited State  30:      Singlet-A'    12.6876 eV   97.72 nm  f=0.0942  <S**2>=0.000
       9 -> 15         0.34035
      10 -> 18         0.48178
      12 -> 23         0.35950

 Excited State  31:      Singlet-A'    12.7257 eV   97.43 nm  f=0.0773  <S**2>=0.000
       9 -> 15         0.54552
      12 -> 23        -0.37760
      13 -> 24         0.18088

 Excited State  32:      Singlet-A'    12.8415 eV   96.55 nm  f=0.0555  <S**2>=0.000
       9 -> 15         0.20972
      10 -> 18        -0.42134
      11 -> 19        -0.16482
      12 -> 23         0.44216

 Excited State  33:      Singlet-A"    13.0130 eV   95.28 nm  f=0.0032  <S**2>=0.000
      12 -> 24         0.62875
      13 -> 25        -0.29085

 Excited State  34:      Singlet-A"    13.0255 eV   95.19 nm  f=0.0017  <S**2>=0.000
      10 -> 19        -0.47016
      11 -> 20         0.48424
      12 -> 24        -0.11994
      13 -> 23         0.10972

 Excited State  35:      Singlet-A'    13.0727 eV   94.84 nm  f=0.1714  <S**2>=0.000
       9 -> 15        -0.15741
       9 -> 16         0.33745
      10 -> 20        -0.10970
      11 -> 19        -0.17885
      13 -> 24         0.53967

 Excited State  36:      Singlet-A'    13.1208 eV   94.49 nm  f=0.0050  <S**2>=0.000
       8 -> 14         0.31706
      10 -> 20         0.44169
      11 -> 19         0.37463
      12 -> 25         0.16620
      13 -> 24         0.14905

 Excited State  37:      Singlet-A"    13.1572 eV   94.23 nm  f=0.0322  <S**2>=0.000
       7 -> 14         0.58845
      10 -> 19         0.22106
      11 -> 20         0.31559

 Excited State  38:      Singlet-A"    13.1675 eV   94.16 nm  f=0.0353  <S**2>=0.000
       7 -> 14        -0.31916
      10 -> 19         0.34805
      11 -> 20         0.35151
      12 -> 24         0.14832
      13 -> 25         0.34266

 Excited State  39:      Singlet-A'    13.2258 eV   93.74 nm  f=0.0602  <S**2>=0.000
       8 -> 14         0.59350
      10 -> 20        -0.29465
      11 -> 19        -0.10446
      13 -> 24        -0.13724

 Excited State  40:      Singlet-A'    13.2380 eV   93.66 nm  f=0.0011  <S**2>=0.000
       9 -> 16         0.43924
      10 -> 20         0.30479
      10 -> 21        -0.12032
      11 -> 19        -0.27531
      13 -> 24        -0.30161

 Excited State  41:      Singlet-A"    13.3313 eV   93.00 nm  f=0.0815  <S**2>=0.000
       7 -> 14        -0.14268
       9 -> 17         0.44184
      10 -> 19         0.22932
      11 -> 20         0.11607
      12 -> 24        -0.20482
      13 -> 25        -0.39588

 Excited State  42:      Singlet-A'    13.4015 eV   92.52 nm  f=0.0898  <S**2>=0.000
       8 -> 14        -0.12771
       9 -> 16         0.35937
      10 -> 20        -0.30447
      11 -> 19         0.33446
      12 -> 25         0.30430
      13 -> 24        -0.10210

 Excited State  43:      Singlet-A"    13.4410 eV   92.24 nm  f=0.1148  <S**2>=0.000
       7 -> 14         0.12907
       9 -> 17         0.54014
      10 -> 19        -0.15647
      11 -> 21         0.10513
      12 -> 24         0.10869
      13 -> 25         0.34364

 Excited State  44:      Singlet-A'    13.5888 eV   91.24 nm  f=0.0015  <S**2>=0.000
      10 -> 21         0.33117
      11 -> 19        -0.23006
      12 -> 25         0.52346

 Excited State  45:      Singlet-A"    13.6337 eV   90.94 nm  f=0.0155  <S**2>=0.000
      11 -> 21         0.68009

 Excited State  46:      Singlet-A'    13.6953 eV   90.53 nm  f=0.0514  <S**2>=0.000
       9 -> 16         0.16071
       9 -> 18         0.15900
      10 -> 21         0.55088
      10 -> 23         0.10952
      11 -> 19         0.12195
      11 -> 22        -0.16424
      12 -> 25        -0.22870

 Excited State  47:      Singlet-A"    13.9313 eV   89.00 nm  f=0.0194  <S**2>=0.000
       7 -> 15        -0.44733
      10 -> 22         0.51700
      13 -> 26        -0.12477

 Excited State  48:      Singlet-A"    13.9508 eV   88.87 nm  f=0.0031  <S**2>=0.000
       7 -> 15         0.52689
      10 -> 22         0.44915

 Excited State  49:      Singlet-A'    13.9558 eV   88.84 nm  f=0.0160  <S**2>=0.000
       8 -> 15        -0.20636
       9 -> 18         0.58001
      11 -> 22         0.31918

 Excited State  50:      Singlet-A'    14.0268 eV   88.39 nm  f=0.0534  <S**2>=0.000
       8 -> 15         0.64606
       9 -> 18         0.22779

 Excited State  51:      Singlet-A"    14.0898 eV   88.00 nm  f=0.0290  <S**2>=0.000
      13 -> 26         0.67593

 Excited State  52:      Singlet-A'    14.1717 eV   87.49 nm  f=0.0457  <S**2>=0.000
       8 -> 15         0.12991
       9 -> 18        -0.13849
      11 -> 22         0.44318
      12 -> 26         0.47446

 Excited State  53:      Singlet-A'    14.3182 eV   86.59 nm  f=0.0015  <S**2>=0.000
       7 -> 17         0.22590
       8 -> 16        -0.18608
       9 -> 18         0.19698
      10 -> 21        -0.10665
      11 -> 22        -0.32256
      12 -> 26         0.47040

 Excited State  54:      Singlet-A'    14.3836 eV   86.20 nm  f=0.0158  <S**2>=0.000
       9 -> 20        -0.15504
      10 -> 23        -0.14801
      13 -> 27         0.66186

 Excited State  55:      Singlet-A"    14.4393 eV   85.87 nm  f=0.0001  <S**2>=0.000
       7 -> 16         0.10974
      10 -> 24        -0.13192
      11 -> 23         0.66561
      12 -> 27        -0.12602

 Excited State  56:      Singlet-A"    14.4861 eV   85.59 nm  f=0.0006  <S**2>=0.000
       7 -> 16         0.53453
       8 -> 17        -0.11500
      12 -> 27         0.42742

 Excited State  57:      Singlet-A"    14.5078 eV   85.46 nm  f=0.0001  <S**2>=0.000
       7 -> 16        -0.36970
       8 -> 17         0.16196
       9 -> 19        -0.10394
      10 -> 24        -0.10093
      11 -> 23         0.14356
      12 -> 27         0.53074

 Excited State  58:      Singlet-A'    14.5186 eV   85.40 nm  f=0.0694  <S**2>=0.000
       8 -> 16        -0.40291
       9 -> 20         0.52749
      11 -> 24        -0.10216
      12 -> 26        -0.11531
      13 -> 27         0.10986

 Excited State  59:      Singlet-A"    14.5258 eV   85.35 nm  f=0.0001  <S**2>=0.000
       7 -> 16        -0.10893
       9 -> 19         0.69334

 Excited State  60:      Singlet-A'    14.5782 eV   85.05 nm  f=0.0392  <S**2>=0.000
       8 -> 16        -0.41693
       9 -> 20        -0.32389
      10 -> 23         0.43244

 Excited State  61:      Singlet-A"    14.6401 eV   84.69 nm  f=0.0239  <S**2>=0.000
       7 -> 16         0.18008
       8 -> 17         0.66613
      13 -> 28         0.11050

 Excited State  62:      Singlet-A"    14.7569 eV   84.02 nm  f=0.0032  <S**2>=0.000
      10 -> 24         0.60360
      11 -> 23         0.11301
      11 -> 25        -0.30514

 Excited State  63:      Singlet-A'    14.8407 eV   83.54 nm  f=0.1194  <S**2>=0.000
       7 -> 17        -0.19200
       8 -> 16        -0.20396
       9 -> 21         0.18288
      10 -> 23        -0.34027
      11 -> 24         0.43427
      12 -> 28        -0.11305

 Excited State  64:      Singlet-A'    14.8663 eV   83.40 nm  f=0.0846  <S**2>=0.000
       7 -> 17         0.50401
       8 -> 18         0.15940
       9 -> 21        -0.28205
      11 -> 24         0.23224

 Excited State  65:      Singlet-A'    14.9254 eV   83.07 nm  f=0.1089  <S**2>=0.000
       8 -> 16         0.20683
       8 -> 18         0.14724
       9 -> 20         0.20063
       9 -> 21         0.26158
      10 -> 23         0.31220
      10 -> 25        -0.20361
      11 -> 24         0.35104
      12 -> 29         0.11661

 Excited State  66:      Singlet-A"    14.9459 eV   82.96 nm  f=0.0022  <S**2>=0.000
      13 -> 28         0.68141

 Excited State  67:      Singlet-A'    15.0316 eV   82.48 nm  f=0.0002  <S**2>=0.000
       8 -> 18         0.11252
      10 -> 25         0.65716
      11 -> 24         0.15729

 Excited State  68:      Singlet-A'    15.0749 eV   82.25 nm  f=0.0086  <S**2>=0.000
       9 -> 21         0.14356
      12 -> 28         0.67430

 Excited State  69:      Singlet-A"    15.1089 eV   82.06 nm  f=0.0375  <S**2>=0.000
       7 -> 18         0.31782
      10 -> 24         0.20860
      11 -> 25         0.56665

 Excited State  70:      Singlet-A"    15.2988 eV   81.04 nm  f=0.0988  <S**2>=0.000
       7 -> 18         0.60499
       9 -> 22        -0.10926
      10 -> 24        -0.16314
      11 -> 25        -0.21894

 Excited State  71:      Singlet-A'    15.3310 eV   80.87 nm  f=0.0280  <S**2>=0.000
       8 -> 18         0.45226
       9 -> 21         0.35952
      11 -> 24        -0.20325
      12 -> 29        -0.22486

 Excited State  72:      Singlet-A"    15.4065 eV   80.48 nm  f=0.0221  <S**2>=0.000
       9 -> 22         0.69505

 Excited State  73:      Singlet-A'    15.5572 eV   79.70 nm  f=0.0174  <S**2>=0.000
       7 -> 17        -0.27033
       7 -> 19         0.12190
       8 -> 18         0.39959
       8 -> 20        -0.14326
       9 -> 21        -0.34990
       9 -> 23         0.11906

 Excited State  74:      Singlet-A"    15.6085 eV   79.43 nm  f=0.0848  <S**2>=0.000
      13 -> 29         0.69356

 Excited State  75:      Singlet-A"    15.7790 eV   78.58 nm  f=0.0007  <S**2>=0.000
       7 -> 20         0.32943
       8 -> 19         0.56220
      11 -> 26        -0.24794

 Excited State  76:      Singlet-A'    15.7936 eV   78.50 nm  f=0.0481  <S**2>=0.000
       7 -> 19         0.46062
       8 -> 18        -0.12075
       8 -> 20         0.18821
      10 -> 26        -0.26683
      12 -> 29        -0.39005

 Excited State  77:      Singlet-A'    15.8480 eV   78.23 nm  f=0.0092  <S**2>=0.000
       7 -> 19        -0.10973
       8 -> 18         0.11713
       8 -> 20         0.42497
       9 -> 21        -0.11377
       9 -> 23        -0.38229
      10 -> 26         0.27714
      12 -> 29        -0.15960

 Excited State  78:      Singlet-A"    15.8873 eV   78.04 nm  f=0.0738  <S**2>=0.000
       7 -> 20         0.55122
       8 -> 19        -0.32663
       9 -> 24        -0.23909

 Excited State  79:      Singlet-A"    15.9110 eV   77.92 nm  f=0.0300  <S**2>=0.000
       7 -> 20         0.14024
       8 -> 19         0.21300
       9 -> 24         0.11635
      11 -> 26         0.62960

 Excited State  80:      Singlet-A'    15.9277 eV   77.84 nm  f=0.0244  <S**2>=0.000
       7 -> 19        -0.16778
       8 -> 20         0.30126
       9 -> 23         0.45426
       9 -> 25         0.11153
      13 -> 30         0.37206

 Excited State  81:      Singlet-A'    15.9917 eV   77.53 nm  f=0.0241  <S**2>=0.000
       7 -> 19         0.41704
       8 -> 20         0.12496
      10 -> 26         0.14712
      11 -> 27        -0.19857
      12 -> 29         0.38478
      12 -> 31        -0.15221
      13 -> 30         0.19729

 Excited State  82:      Singlet-A'    16.0709 eV   77.15 nm  f=0.0284  <S**2>=0.000
       7 -> 19         0.13470
       8 -> 18        -0.12058
       8 -> 20        -0.24198
      10 -> 26         0.41128
      11 -> 27         0.29790
      12 -> 29        -0.13604
      13 -> 30         0.27317

 Excited State  83:      Singlet-A"    16.0914 eV   77.05 nm  f=0.0002  <S**2>=0.000
       7 -> 21         0.11014
       9 -> 24        -0.32588
      10 -> 27         0.59078

 Excited State  84:      Singlet-A'    16.1089 eV   76.97 nm  f=0.2111  <S**2>=0.000
       9 -> 23        -0.30093
       9 -> 25        -0.13712
      10 -> 26        -0.33845
      11 -> 27         0.10653
      12 -> 31         0.16085
      13 -> 30         0.42103

 Excited State  85:      Singlet-A'    16.1577 eV   76.73 nm  f=0.1832  <S**2>=0.000
       8 -> 20         0.16533
       9 -> 25        -0.19827
      11 -> 27         0.55176
      12 -> 29         0.16677
      12 -> 31        -0.15950
      13 -> 30        -0.16997

 Excited State  86:      Singlet-A"    16.1609 eV   76.72 nm  f=0.0031  <S**2>=0.000
       9 -> 24        -0.16788
      12 -> 30         0.52687
      13 -> 31         0.41962

 Excited State  87:      Singlet-A"    16.1834 eV   76.61 nm  f=0.0630  <S**2>=0.000
       7 -> 20         0.12285
       7 -> 21        -0.33417
       9 -> 24         0.28807
      10 -> 27         0.20322
      12 -> 30        -0.17472
      13 -> 31         0.43556

 Excited State  88:      Singlet-A"    16.1948 eV   76.56 nm  f=0.0087  <S**2>=0.000
       9 -> 24         0.38276
      10 -> 27         0.29096
      12 -> 30         0.40986
      13 -> 31        -0.29078

 Excited State  89:      Singlet-A'    16.3575 eV   75.80 nm  f=0.0095  <S**2>=0.000
       8 -> 21         0.64755
      12 -> 31         0.16275

 Excited State  90:      Singlet-A'    16.3974 eV   75.61 nm  f=0.2083  <S**2>=0.000
       8 -> 20         0.10246
       8 -> 21        -0.21409
      12 -> 31         0.59843
      13 -> 30        -0.12042

 Excited State  91:      Singlet-A"    16.4332 eV   75.45 nm  f=0.1729  <S**2>=0.000
       7 -> 20         0.11042
       7 -> 21         0.59106
       9 -> 24         0.20794
      11 -> 26        -0.11964
      13 -> 31         0.16305

 Excited State  92:      Singlet-A'    16.5393 eV   74.96 nm  f=0.1844  <S**2>=0.000
       6 -> 14         0.40242
       9 -> 25         0.52959
      11 -> 27         0.15751

 Excited State  93:      Singlet-A"    16.6828 eV   74.32 nm  f=0.0000  <S**2>=0.000
       8 -> 22         0.69951

 Excited State  94:      Singlet-A'    16.7059 eV   74.22 nm  f=0.0331  <S**2>=0.000
       6 -> 14        -0.23064
       7 -> 22         0.62390
       9 -> 25         0.10612
      10 -> 28         0.18131

 Excited State  95:      Singlet-A"    16.7516 eV   74.01 nm  f=0.0241  <S**2>=0.000
      11 -> 28         0.69688

 Excited State  96:      Singlet-A'    16.7785 eV   73.89 nm  f=0.0565  <S**2>=0.000
       6 -> 14         0.10684
       8 -> 23         0.18675
       9 -> 25        -0.12649
      10 -> 28         0.61999

 Excited State  97:      Singlet-A'    16.9338 eV   73.22 nm  f=0.0188  <S**2>=0.000
       6 -> 14         0.46866
       7 -> 22         0.26054
       9 -> 25        -0.25244
      10 -> 28        -0.12555
      12 -> 29        -0.12037
      12 -> 32        -0.10212
      12 -> 39         0.11527

 Excited State  98:      Singlet-A"    17.0695 eV   72.64 nm  f=0.0049  <S**2>=0.000
      13 -> 32         0.66692
      13 -> 33         0.17893

 Excited State  99:      Singlet-A"    17.1073 eV   72.47 nm  f=0.0013  <S**2>=0.000
       7 -> 23         0.69669

 Excited State 100:      Singlet-A"    17.1575 eV   72.26 nm  f=0.0002  <S**2>=0.000
      13 -> 32        -0.18191
      13 -> 33         0.66620

 Excited State 101:      Singlet-A'    17.1863 eV   72.14 nm  f=0.0745  <S**2>=0.000
       6 -> 15         0.14165
       8 -> 23        -0.36962
      12 -> 32         0.54656

 Excited State 102:      Singlet-A'    17.2433 eV   71.90 nm  f=0.0004  <S**2>=0.000
       7 -> 24         0.29764
       8 -> 23         0.40794
       8 -> 25        -0.10869
       9 -> 26         0.16183
       9 -> 28        -0.10959
      12 -> 32         0.26787
      12 -> 33         0.21954
      13 -> 34        -0.19121
      13 -> 36        -0.12243

 Excited State 103:      Singlet-A'    17.2807 eV   71.75 nm  f=0.0199  <S**2>=0.000
       7 -> 24        -0.10160
       8 -> 23        -0.17780
       9 -> 26         0.50255
      12 -> 32        -0.13136
      12 -> 33         0.40038

 Excited State 104:      Singlet-A"    17.3448 eV   71.48 nm  f=0.0008  <S**2>=0.000
       7 -> 25         0.12441
       8 -> 24         0.46178
      11 -> 29         0.48465
      12 -> 34        -0.11770

 Excited State 105:      Singlet-A"    17.3557 eV   71.44 nm  f=0.0062  <S**2>=0.000
       8 -> 24         0.49803
      11 -> 29        -0.44991
      12 -> 34         0.16295

 Excited State 106:      Singlet-A'    17.3677 eV   71.39 nm  f=0.0083  <S**2>=0.000
       9 -> 26        -0.35312
      10 -> 29        -0.30882
      12 -> 32        -0.11700
      12 -> 33         0.43500
      13 -> 34        -0.22402

 Excited State 107:      Singlet-A'    17.4034 eV   71.24 nm  f=0.0039  <S**2>=0.000
       7 -> 24        -0.14464
       9 -> 26        -0.25030
      10 -> 29         0.57860
      12 -> 33         0.24269

 Excited State 108:      Singlet-A'    17.4836 eV   70.91 nm  f=0.0127  <S**2>=0.000
       6 -> 15        -0.24383
       7 -> 24         0.46699
       8 -> 23        -0.21053
       8 -> 25         0.14347
       9 -> 28         0.10398
      10 -> 29         0.16703
      13 -> 34        -0.23121
      13 -> 36         0.11615

 Excited State 109:      Singlet-A"    17.4920 eV   70.88 nm  f=0.0033  <S**2>=0.000
       7 -> 25        -0.16547
       9 -> 27        -0.35335
      11 -> 29         0.18184
      12 -> 34         0.53173
      13 -> 35        -0.11062

 Excited State 110:      Singlet-A'    17.5509 eV   70.64 nm  f=0.0423  <S**2>=0.000
       6 -> 15         0.51300
       8 -> 25         0.16508
       9 -> 26         0.11369
      12 -> 32        -0.12277

 The electronic state is 1-A'.
 Alpha  occ. eigenvalues --  -24.59376 -10.20185 -10.12969  -1.14478  -0.74109
 Alpha  occ. eigenvalues --   -0.60832  -0.47981  -0.47965  -0.43401  -0.38186
 Alpha  occ. eigenvalues --   -0.38166  -0.32155  -0.31659
 Alpha virt. eigenvalues --    0.02186   0.05119   0.07301   0.07854   0.10008
 Alpha virt. eigenvalues --    0.12123   0.12147   0.14089   0.15159   0.16964
 Alpha virt. eigenvalues --    0.17913   0.19078   0.22250   0.23174   0.25692

 Mulliken charges:
               1
     1  C    0.077587
     2  C    0.483059
     3  F   -0.496675
     4  H    0.042190
     5  H    0.035216
     6  H    0.035216
     7  H   -0.088297
     8  H   -0.088297
 Sum of Mulliken charges =  -0.00000

 Dipole moment (field-independent basis, Debye):
    X=             -1.8097    Y=              0.7126    Z=             -0.0000  Tot=              1.9449
 Quadrupole moment (field-independent basis, Debye-Ang):
   XX=            -20.9549   YY=            -18.3223   ZZ=            -18.3283
   XY=              0.2913   XZ=              0.0000   YZ=              0.0000

 Normal termination of Gaussian 16 at Mon Mar 21 20:03:16 2022.
