 Gaussian 16, Revision C.01,
 Gaussian 16:  EM64L-G16RevC.01  3-Jul-2019

 ---------------------------------------------------------------------
 #P TD(Nstates=10000) tpssh/Gen SCF(maxcycles=100) Int(Grid=ultrafine)
 ---------------------------------------------------------------------

 ---------------------
 xGDB7_00001_tier4.com
 ---------------------
 Symbolic Z-matrix:
 Charge =  0 Multiplicity = 1

                         Standard orientation:
 ---------------------------------------------------------------------
 Center     Atomic      Atomic             Coordinates (Angstroms)
 Number     Number       Type             X           Y           Z
 ---------------------------------------------------------------------
      1          9           0        0.000000    1.098813   -0.289120
      2          6           0       -0.000000   -0.000000    0.499944
      3          9           0       -0.000000   -1.098813   -0.289120
      4          1           0       -0.911346    0.000000    1.102246
      5          1           0        0.911346   -0.000000    1.102246
 ---------------------------------------------------------------------

 SCF Done:  E(RTPSSh) =  -238.817436243     A.U. after   11 cycles

 Excitation energies and oscillator strengths:

 Excited State   1:      Singlet-B1     9.0965 eV  136.30 nm  f=0.0250  <S**2>=0.000
      13 -> 14         0.70620
 This state for optimization and/or second-order correction.
 Total Energy, E(TD-HF/TD-DFT) =  -238.483145419
 Copying the excited state density for this state as the 1-particle RhoCI density.

 Excited State   2:      Singlet-A2     9.9754 eV  124.29 nm  f=0.0000  <S**2>=0.000
      13 -> 15         0.70496

 Excited State   3:      Singlet-B1    10.4221 eV  118.96 nm  f=0.0215  <S**2>=0.000
      13 -> 16         0.70448

 Excited State   4:      Singlet-B2    10.6433 eV  116.49 nm  f=0.0339  <S**2>=0.000
      12 -> 14         0.70415

 Excited State   5:      Singlet-A1    10.6449 eV  116.47 nm  f=0.0684  <S**2>=0.000
      13 -> 17         0.69707

 Excited State   6:      Singlet-A1    11.0491 eV  112.21 nm  f=0.0015  <S**2>=0.000
      11 -> 14         0.69160
      12 -> 15         0.10824

 Excited State   7:      Singlet-A2    11.1520 eV  111.18 nm  f=0.0000  <S**2>=0.000
      10 -> 14         0.70516

 Excited State   8:      Singlet-A1    11.6037 eV  106.85 nm  f=0.0163  <S**2>=0.000
      12 -> 15         0.68795
      13 -> 22        -0.10105

 Excited State   9:      Singlet-B2    11.8937 eV  104.24 nm  f=0.0035  <S**2>=0.000
      11 -> 15         0.45344
      12 -> 16         0.53929

 Excited State  10:      Singlet-B1    11.9248 eV  103.97 nm  f=0.0361  <S**2>=0.000
      10 -> 15        -0.25213
      13 -> 18         0.65437

 Excited State  11:      Singlet-B1    12.0544 eV  102.85 nm  f=0.0584  <S**2>=0.000
      10 -> 15         0.65755
      13 -> 18         0.25239

 Excited State  12:      Singlet-A2    12.0668 eV  102.75 nm  f=0.0000  <S**2>=0.000
      12 -> 17         0.70659

 Excited State  13:      Singlet-A1    12.3036 eV  100.77 nm  f=0.1232  <S**2>=0.000
      11 -> 16         0.70507

 Excited State  14:      Singlet-B2    12.3105 eV  100.71 nm  f=0.0842  <S**2>=0.000
      11 -> 15         0.49929
      12 -> 16        -0.42936
      13 -> 20         0.21965

 Excited State  15:      Singlet-B1    12.4004 eV   99.98 nm  f=0.0483  <S**2>=0.000
      11 -> 17         0.70491

 Excited State  16:      Singlet-A2    12.4288 eV   99.76 nm  f=0.0000  <S**2>=0.000
      10 -> 16         0.67820
      13 -> 19        -0.19271

 Excited State  17:      Singlet-A2    12.5162 eV   99.06 nm  f=0.0000  <S**2>=0.000
      10 -> 16         0.18863
      13 -> 19         0.67510

 Excited State  18:      Singlet-B2    12.5878 eV   98.50 nm  f=0.0265  <S**2>=0.000
      10 -> 17         0.69011
      13 -> 20        -0.14825

 Excited State  19:      Singlet-B1    12.8830 eV   96.24 nm  f=0.0095  <S**2>=0.000
      13 -> 21         0.70397

 Excited State  20:      Singlet-B2    12.9546 eV   95.71 nm  f=0.0251  <S**2>=0.000
      10 -> 17         0.15049
      11 -> 15        -0.14931
      12 -> 16         0.12258
      13 -> 20         0.64597

 Excited State  21:      Singlet-A1    13.1661 eV   94.17 nm  f=0.0549  <S**2>=0.000
      13 -> 22         0.67942

 Excited State  22:      Singlet-B2    13.3569 eV   92.82 nm  f=0.0016  <S**2>=0.000
      12 -> 18         0.69201

 Excited State  23:      Singlet-A2    13.6311 eV   90.96 nm  f=0.0000  <S**2>=0.000
      13 -> 23         0.70190

 Excited State  24:      Singlet-A1    13.7269 eV   90.32 nm  f=0.0091  <S**2>=0.000
      11 -> 18         0.67183
      12 -> 19        -0.19828

 Excited State  25:      Singlet-A2    13.8420 eV   89.57 nm  f=0.0000  <S**2>=0.000
      10 -> 18         0.70193

 Excited State  26:      Singlet-A1    13.9583 eV   88.83 nm  f=0.0093  <S**2>=0.000
      11 -> 18         0.19695
      12 -> 19         0.67455

 Excited State  27:      Singlet-B2    14.2835 eV   86.80 nm  f=0.0914  <S**2>=0.000
      11 -> 19        -0.27860
      12 -> 21         0.64782

 Excited State  28:      Singlet-A2    14.2890 eV   86.77 nm  f=0.0000  <S**2>=0.000
      11 -> 20        -0.11949
      12 -> 22         0.69582

 Excited State  29:      Singlet-B1    14.3006 eV   86.70 nm  f=0.0131  <S**2>=0.000
      11 -> 22        -0.12072
      12 -> 20         0.69181

 Excited State  30:      Singlet-B2    14.4457 eV   85.83 nm  f=0.0014  <S**2>=0.000
       9 -> 14         0.14917
      10 -> 22        -0.24097
      11 -> 19         0.58140
      12 -> 21         0.24407

 Excited State  31:      Singlet-B1    14.4682 eV   85.69 nm  f=0.0106  <S**2>=0.000
      10 -> 19         0.61759
      11 -> 22        -0.11174
      13 -> 24        -0.29131

 Excited State  32:      Singlet-B2    14.5069 eV   85.47 nm  f=0.0002  <S**2>=0.000
       9 -> 14         0.68606
      11 -> 19        -0.14410

 Excited State  33:      Singlet-B1    14.5664 eV   85.12 nm  f=0.0008  <S**2>=0.000
      10 -> 19         0.32024
      11 -> 22         0.16731
      13 -> 24         0.59906

 Excited State  34:      Singlet-A2    14.6727 eV   84.50 nm  f=0.0000  <S**2>=0.000
      11 -> 20         0.69545
      12 -> 22         0.12024

 Excited State  35:      Singlet-B1    14.6844 eV   84.43 nm  f=0.0085  <S**2>=0.000
      11 -> 22         0.65920
      12 -> 20         0.13304
      13 -> 24        -0.18853

 Excited State  36:      Singlet-A1    14.6928 eV   84.38 nm  f=0.0355  <S**2>=0.000
       8 -> 14         0.63347
      11 -> 21         0.29360

 Excited State  37:      Singlet-B1    14.7001 eV   84.34 nm  f=0.1252  <S**2>=0.000
       7 -> 14         0.69056

 Excited State  38:      Singlet-A1    14.7249 eV   84.20 nm  f=0.0016  <S**2>=0.000
       8 -> 14        -0.22977
      10 -> 20         0.39896
      11 -> 21         0.52522

 Excited State  39:      Singlet-A2    14.8385 eV   83.56 nm  f=0.0000  <S**2>=0.000
      10 -> 21         0.70233

 Excited State  40:      Singlet-A1    15.0261 eV   82.51 nm  f=0.0027  <S**2>=0.000
       8 -> 14         0.13716
      10 -> 20         0.48003
      11 -> 21        -0.32361
      12 -> 23        -0.35923

 Excited State  41:      Singlet-B2    15.1018 eV   82.10 nm  f=0.0105  <S**2>=0.000
       9 -> 16         0.13129
      10 -> 22         0.61844
      11 -> 19         0.16650
      11 -> 23        -0.12640
      12 -> 24        -0.16641

 Excited State  42:      Singlet-A1    15.2488 eV   81.31 nm  f=0.0021  <S**2>=0.000
       7 -> 17        -0.12715
       9 -> 15        -0.20301
      10 -> 20         0.27987
      11 -> 21        -0.12289
      12 -> 23         0.57091

 Excited State  43:      Singlet-B1    15.4593 eV   80.20 nm  f=0.1031  <S**2>=0.000
      13 -> 25         0.68497

 Excited State  44:      Singlet-B2    15.4599 eV   80.20 nm  f=0.0049  <S**2>=0.000
       8 -> 15        -0.22598
      11 -> 23         0.64808
      12 -> 24        -0.12251

 Excited State  45:      Singlet-A2    15.5299 eV   79.84 nm  f=0.0000  <S**2>=0.000
       7 -> 15         0.70092

 Excited State  46:      Singlet-B2    15.5498 eV   79.73 nm  f=0.1626  <S**2>=0.000
       8 -> 15         0.65106
      11 -> 23         0.20115
      13 -> 26         0.11224

 Excited State  47:      Singlet-A1    15.5600 eV   79.68 nm  f=0.0365  <S**2>=0.000
       8 -> 16         0.22785
       9 -> 15         0.61734
      10 -> 20         0.10273
      12 -> 23         0.16667

 Excited State  48:      Singlet-B1    15.6761 eV   79.09 nm  f=0.0006  <S**2>=0.000
      10 -> 23         0.69603

 Excited State  49:      Singlet-B2    15.8124 eV   78.41 nm  f=0.0413  <S**2>=0.000
       8 -> 15         0.10365
       9 -> 16         0.66958
      12 -> 24         0.16889

 Excited State  50:      Singlet-A2    15.9223 eV   77.87 nm  f=0.0000  <S**2>=0.000
       9 -> 17         0.70338

 Excited State  51:      Singlet-B1    15.9770 eV   77.60 nm  f=0.0371  <S**2>=0.000
       7 -> 16        -0.22692
       8 -> 17         0.66713

 Excited State  52:      Singlet-A1    16.0035 eV   77.47 nm  f=0.1305  <S**2>=0.000
       8 -> 16         0.65175
       9 -> 15        -0.17972

 Excited State  53:      Singlet-B1    16.1695 eV   76.68 nm  f=0.0697  <S**2>=0.000
       7 -> 16         0.66011
       8 -> 17         0.22142

 Excited State  54:      Singlet-B2    16.2951 eV   76.09 nm  f=0.1332  <S**2>=0.000
      12 -> 24         0.13555
      13 -> 26         0.68238

 Excited State  55:      Singlet-A1    16.3272 eV   75.94 nm  f=0.0001  <S**2>=0.000
       7 -> 17         0.50977
      11 -> 24         0.45742

 Excited State  56:      Singlet-B2    16.5094 eV   75.10 nm  f=0.0602  <S**2>=0.000
       9 -> 16        -0.11630
       9 -> 18        -0.19537
      10 -> 22         0.11573
      12 -> 24         0.57617
      12 -> 25         0.22779

 Excited State  57:      Singlet-A1    16.5633 eV   74.85 nm  f=0.0466  <S**2>=0.000
       7 -> 17        -0.42153
      11 -> 24         0.48783
      11 -> 25        -0.10572
      13 -> 27         0.17695
      13 -> 30        -0.11303

 Excited State  58:      Singlet-A2    16.6414 eV   74.50 nm  f=0.0000  <S**2>=0.000
      10 -> 24         0.69503

 Excited State  59:      Singlet-A1    16.7228 eV   74.14 nm  f=0.0420  <S**2>=0.000
      11 -> 24        -0.19150
      13 -> 27         0.65150

 Excited State  60:      Singlet-A2    16.7357 eV   74.08 nm  f=0.0000  <S**2>=0.000
      13 -> 28         0.69794

 Excited State  61:      Singlet-B1    16.8455 eV   73.60 nm  f=0.0071  <S**2>=0.000
      13 -> 29         0.70045

 Excited State  62:      Singlet-B2    16.9205 eV   73.27 nm  f=0.0609  <S**2>=0.000
       9 -> 18         0.26103
      12 -> 25         0.63165

 Excited State  63:      Singlet-A1    17.2280 eV   71.97 nm  f=0.0311  <S**2>=0.000
       8 -> 18         0.16284
      11 -> 25         0.66001
      13 -> 30        -0.14918

 Excited State  64:      Singlet-A2    17.3642 eV   71.40 nm  f=0.0000  <S**2>=0.000
      10 -> 25         0.70168

 Excited State  65:      Singlet-A1    17.4337 eV   71.12 nm  f=0.0415  <S**2>=0.000
       8 -> 18         0.65159
       9 -> 19        -0.15657
      11 -> 25        -0.15030

 Excited State  66:      Singlet-B2    17.4462 eV   71.07 nm  f=0.0505  <S**2>=0.000
       8 -> 19        -0.15188
       9 -> 18         0.59755
       9 -> 21         0.10093
      11 -> 28        -0.13108
      12 -> 24         0.14719
      12 -> 25        -0.16493

 Excited State  67:      Singlet-B1    17.5702 eV   70.57 nm  f=0.1089  <S**2>=0.000
       7 -> 18         0.66716
       8 -> 22        -0.12417
      12 -> 26         0.14554

 Excited State  68:      Singlet-A1    17.8275 eV   69.55 nm  f=0.0001  <S**2>=0.000
       7 -> 22        -0.12230
       9 -> 19         0.26150
      11 -> 25         0.10437
      13 -> 30         0.61149

 Excited State  69:      Singlet-B1    17.8335 eV   69.52 nm  f=0.0255  <S**2>=0.000
       7 -> 18        -0.13817
      12 -> 26         0.69054

 Excited State  70:      Singlet-B2    18.0245 eV   68.79 nm  f=0.0005  <S**2>=0.000
       8 -> 19         0.62559
       9 -> 21         0.27144
      11 -> 28        -0.13610

 Excited State  71:      Singlet-A2    18.0643 eV   68.63 nm  f=0.0000  <S**2>=0.000
       7 -> 19         0.69378

 Excited State  72:      Singlet-A2    18.0997 eV   68.50 nm  f=0.0000  <S**2>=0.000
       8 -> 20         0.10632
       9 -> 22        -0.18741
      11 -> 26         0.60810
      12 -> 27        -0.28558

 Excited State  73:      Singlet-A2    18.1301 eV   68.39 nm  f=0.0000  <S**2>=0.000
       8 -> 20         0.21954
       9 -> 22         0.46798
      11 -> 26        -0.11280
      12 -> 27        -0.46624

 Excited State  74:      Singlet-A1    18.1491 eV   68.31 nm  f=0.0276  <S**2>=0.000
       8 -> 21        -0.26113
       9 -> 19         0.43769
      10 -> 26        -0.16139
      12 -> 28         0.39764
      13 -> 30        -0.14175

 Excited State  75:      Singlet-B1    18.1780 eV   68.21 nm  f=0.0005  <S**2>=0.000
       8 -> 22         0.16672
       9 -> 20         0.67694
      11 -> 27        -0.10008

 Excited State  76:      Singlet-A2    18.1980 eV   68.13 nm  f=0.0000  <S**2>=0.000
       8 -> 20         0.15977
       9 -> 22         0.43398
      11 -> 26         0.30613
      12 -> 27         0.43043

 Excited State  77:      Singlet-B2    18.2687 eV   67.87 nm  f=0.0718  <S**2>=0.000
       7 -> 20         0.20080
       8 -> 19        -0.18563
       9 -> 21         0.59673
      11 -> 28         0.15094
      12 -> 29         0.15667

 Excited State  78:      Singlet-B1    18.3104 eV   67.71 nm  f=0.0305  <S**2>=0.000
       8 -> 22         0.65830
       9 -> 20        -0.18261

 Excited State  79:      Singlet-A2    18.3162 eV   67.69 nm  f=0.0000  <S**2>=0.000
       8 -> 20         0.64207
       9 -> 22        -0.23488
      11 -> 26        -0.13760
      12 -> 27         0.10270

 Excited State  80:      Singlet-A1    18.3296 eV   67.64 nm  f=0.0000  <S**2>=0.000
       7 -> 22         0.14312
       9 -> 19        -0.23374
      10 -> 26         0.33783
      12 -> 28         0.52278
      13 -> 30         0.11997

 Excited State  81:      Singlet-B2    18.3598 eV   67.53 nm  f=0.0188  <S**2>=0.000
       7 -> 20         0.19021
       8 -> 19         0.13196
       9 -> 21        -0.16330
      12 -> 29         0.63609

 Excited State  82:      Singlet-A1    18.3773 eV   67.47 nm  f=0.0861  <S**2>=0.000
       7 -> 22        -0.18323
       9 -> 19         0.20632
      10 -> 26         0.57853
      11 -> 29         0.12539
      12 -> 28        -0.15519
      13 -> 30        -0.16078

 Excited State  83:      Singlet-A1    18.3816 eV   67.45 nm  f=0.0001  <S**2>=0.000
       8 -> 21         0.64653
       9 -> 19         0.17051
      12 -> 28         0.13838

 Excited State  84:      Singlet-B2    18.4253 eV   67.29 nm  f=0.0441  <S**2>=0.000
       7 -> 20         0.63098
      11 -> 28        -0.17237
      12 -> 29        -0.22556

 Excited State  85:      Singlet-B1    18.4277 eV   67.28 nm  f=0.0273  <S**2>=0.000
       7 -> 21         0.68170
      11 -> 27        -0.14258

 Excited State  86:      Singlet-A1    18.5294 eV   66.91 nm  f=0.0465  <S**2>=0.000
       7 -> 22         0.63825
       9 -> 19         0.15313
       9 -> 23        -0.11764
      12 -> 28        -0.13654

 Excited State  87:      Singlet-B1    18.5296 eV   66.91 nm  f=0.0138  <S**2>=0.000
       7 -> 21         0.12803
      11 -> 27         0.67555

 Excited State  88:      Singlet-B2    18.6600 eV   66.44 nm  f=0.0485  <S**2>=0.000
      10 -> 27         0.64309
      11 -> 28        -0.27831

 Excited State  89:      Singlet-A1    18.7730 eV   66.04 nm  f=0.0103  <S**2>=0.000
       6 -> 14         0.26775
       9 -> 19        -0.13534
      11 -> 29         0.60103

 Excited State  90:      Singlet-B1    18.8458 eV   65.79 nm  f=0.0440  <S**2>=0.000
      10 -> 28         0.69674

 Excited State  91:      Singlet-A1    18.8478 eV   65.78 nm  f=0.0545  <S**2>=0.000
       6 -> 14         0.56340
       9 -> 23         0.31194
      11 -> 29        -0.27271

 Excited State  92:      Singlet-B2    18.8592 eV   65.74 nm  f=0.0036  <S**2>=0.000
       7 -> 20         0.11272
       8 -> 19         0.11940
       8 -> 23        -0.29236
       9 -> 24        -0.14622
      10 -> 27         0.22617
      11 -> 28         0.52039

 Excited State  93:      Singlet-A2    18.8804 eV   65.67 nm  f=0.0000  <S**2>=0.000
       7 -> 23        -0.10791
      10 -> 29         0.69538

 Excited State  94:      Singlet-A1    19.1127 eV   64.87 nm  f=0.0782  <S**2>=0.000
       9 -> 23        -0.15479
      13 -> 31         0.67549

 Excited State  95:      Singlet-A2    19.1711 eV   64.67 nm  f=0.0000  <S**2>=0.000
       7 -> 23         0.69197
      10 -> 29         0.11233

 Excited State  96:      Singlet-B1    19.2256 eV   64.49 nm  f=0.0045  <S**2>=0.000
      13 -> 32         0.69796

 Excited State  97:      Singlet-B2    19.2444 eV   64.43 nm  f=0.0010  <S**2>=0.000
       6 -> 15        -0.12280
       8 -> 23         0.61088
       9 -> 24        -0.16826
      11 -> 28         0.16648

 Excited State  98:      Singlet-A2    19.2668 eV   64.35 nm  f=0.0000  <S**2>=0.000
      12 -> 30         0.70510

 Excited State  99:      Singlet-A1    19.4394 eV   63.78 nm  f=0.0354  <S**2>=0.000
       6 -> 14        -0.23761
       8 -> 24        -0.32833
       9 -> 23         0.51394
      13 -> 31         0.13224

 Excited State 100:      Singlet-B1    19.5779 eV   63.33 nm  f=0.0035  <S**2>=0.000
      11 -> 30         0.69546

 Excited State 101:      Singlet-A2    19.5893 eV   63.29 nm  f=0.0000  <S**2>=0.000
      13 -> 33         0.70552

 Excited State 102:      Singlet-B2    19.7933 eV   62.64 nm  f=0.0021  <S**2>=0.000
       6 -> 15        -0.15172
       9 -> 24        -0.20974
      10 -> 30         0.65501

 Excited State 103:      Singlet-B2    19.8400 eV   62.49 nm  f=0.0015  <S**2>=0.000
       6 -> 15         0.65935
       9 -> 24        -0.17477

 Excited State 104:      Singlet-B1    19.9006 eV   62.30 nm  f=0.0307  <S**2>=0.000
       7 -> 24        -0.14014
      13 -> 34         0.68689

 Excited State 105:      Singlet-B1    20.0907 eV   61.71 nm  f=0.0021  <S**2>=0.000
       6 -> 17        -0.40803
       7 -> 24         0.55868
      13 -> 34         0.11867

 Excited State 106:      Singlet-A2    20.1302 eV   61.59 nm  f=0.0000  <S**2>=0.000
      13 -> 35         0.70424

 Excited State 107:      Singlet-A1    20.1462 eV   61.54 nm  f=0.0282  <S**2>=0.000
       6 -> 16         0.64569
       8 -> 24        -0.24947

 Excited State 108:      Singlet-B1    20.3462 eV   60.94 nm  f=0.0085  <S**2>=0.000
       6 -> 17         0.56812
       7 -> 24         0.40002

 Excited State 109:      Singlet-B2    20.3883 eV   60.81 nm  f=0.1479  <S**2>=0.000
       9 -> 24         0.54998
       9 -> 25         0.16985
      10 -> 30         0.18032
      10 -> 31         0.18320
      12 -> 32         0.16132
      13 -> 36        -0.12465

 Excited State 110:      Singlet-A2    20.5680 eV   60.28 nm  f=0.0000  <S**2>=0.000
      12 -> 31         0.70450

 Excited State 111:      Singlet-B2    20.7228 eV   59.83 nm  f=0.0854  <S**2>=0.000
       9 -> 25        -0.13607
      10 -> 31        -0.12517
      12 -> 32         0.66640

 Excited State 112:      Singlet-B2    20.7509 eV   59.75 nm  f=0.0023  <S**2>=0.000
       9 -> 25         0.63608
      10 -> 31        -0.25291

 Excited State 113:      Singlet-A1    20.7644 eV   59.71 nm  f=0.0028  <S**2>=0.000
       6 -> 16         0.18791
       7 -> 30        -0.10600
       8 -> 24         0.43270
       8 -> 25         0.34426
       9 -> 23         0.15532
       9 -> 28        -0.16017
      11 -> 32         0.21628

 Excited State 114:      Singlet-A1    20.8647 eV   59.42 nm  f=0.0091  <S**2>=0.000
       8 -> 24        -0.15025
       8 -> 25         0.58670
      11 -> 32        -0.28780

 Excited State 115:      Singlet-B1    20.9296 eV   59.24 nm  f=0.0157  <S**2>=0.000
       7 -> 25         0.50308
      11 -> 31        -0.48522

 Excited State 116:      Singlet-B1    20.9703 eV   59.12 nm  f=0.0286  <S**2>=0.000
       7 -> 25         0.48893
      11 -> 31         0.50338

 Excited State 117:      Singlet-A1    21.1888 eV   58.51 nm  f=0.1384  <S**2>=0.000
       8 -> 24        -0.19709
       8 -> 25         0.14285
       9 -> 23        -0.11076
       9 -> 28         0.18531
      11 -> 32         0.59197

 Excited State 118:      Singlet-B2    21.2234 eV   58.42 nm  f=0.0521  <S**2>=0.000
       9 -> 24        -0.12099
       9 -> 25         0.14989
      10 -> 31         0.57471
      11 -> 33        -0.19272
      12 -> 32         0.10566
      12 -> 34        -0.18471
      13 -> 36         0.13806

 Excited State 119:      Singlet-A1    21.2259 eV   58.41 nm  f=0.0041  <S**2>=0.000
      12 -> 33         0.69618

 Excited State 120:      Singlet-A2    21.3022 eV   58.20 nm  f=0.0000  <S**2>=0.000
      10 -> 32         0.70268

 Excited State 121:      Singlet-B2    21.3392 eV   58.10 nm  f=0.0356  <S**2>=0.000
      11 -> 33        -0.29402
      12 -> 34         0.62116

 Excited State 122:      Singlet-B2    21.5923 eV   57.42 nm  f=0.0396  <S**2>=0.000
       7 -> 26        -0.12246
      10 -> 31         0.17501
      11 -> 33         0.60092
      12 -> 34         0.23102
      13 -> 36         0.12731

 Excited State 123:      Singlet-A1    21.6124 eV   57.37 nm  f=0.0539  <S**2>=0.000
       6 -> 18         0.50186
      12 -> 35        -0.46382

 Excited State 124:      Singlet-A1    21.6331 eV   57.31 nm  f=0.0015  <S**2>=0.000
       6 -> 18         0.44876
      11 -> 34         0.26272
      12 -> 35         0.46370

 Excited State 125:      Singlet-B1    21.6652 eV   57.23 nm  f=0.0010  <S**2>=0.000
       9 -> 26         0.56426
      10 -> 33         0.42095

 Excited State 126:      Singlet-A2    21.7317 eV   57.05 nm  f=0.0000  <S**2>=0.000
       8 -> 26         0.69304

 Excited State 127:      Singlet-B1    21.7859 eV   56.91 nm  f=0.1427  <S**2>=0.000
       8 -> 27         0.15323
       9 -> 26        -0.40619
      10 -> 33         0.53972

 Excited State 128:      Singlet-A1    21.8388 eV   56.77 nm  f=0.0018  <S**2>=0.000
       8 -> 29         0.10067
       9 -> 28        -0.23393
      11 -> 34         0.59973
      12 -> 35        -0.22739

 Excited State 129:      Singlet-B2    21.8576 eV   56.72 nm  f=0.0371  <S**2>=0.000
       6 -> 19         0.13287
       7 -> 26         0.64181
       8 -> 28         0.11941
      11 -> 35         0.10817
      13 -> 36         0.16376

 Excited State 130:      Singlet-A2    21.9164 eV   56.57 nm  f=0.0000  <S**2>=0.000
      10 -> 34         0.70217

 Excited State 131:      Singlet-B2    21.9647 eV   56.45 nm  f=0.0002  <S**2>=0.000
       7 -> 26        -0.13333
      11 -> 35         0.67864

 The electronic state is 1-A1.
 Alpha  occ. eigenvalues --  -24.63162 -24.63161 -10.29487  -1.22240  -1.16376
 Alpha  occ. eigenvalues --   -0.68712  -0.53868  -0.53510  -0.53181  -0.40936
 Alpha  occ. eigenvalues --   -0.40251  -0.38973  -0.33520
 Alpha virt. eigenvalues --    0.02108   0.05715   0.07080   0.07471   0.12333
 Alpha virt. eigenvalues --    0.14639   0.15699   0.15831   0.15947   0.19096
 Alpha virt. eigenvalues --    0.23069   0.25185   0.28657   0.29918   0.30599

 Mulliken charges:
               1
     1  F   -0.422126
     2  C    1.123690
     3  F   -0.422126
     4  H   -0.139719
     5  H   -0.139719
 Sum of Mulliken charges =   0.00000

 Dipole moment (field-independent basis, Debye):
    X=              0.0000    Y=              0.0000    Z=              1.9179  Tot=              1.9179
 Quadrupole moment (field-independent basis, Debye-Ang):
   XX=            -15.4631   YY=            -19.1912   ZZ=            -15.4953
   XY=             -0.0000   XZ=             -0.0000   YZ=             -0.0000

 Normal termination of Gaussian 16 at Mon Mar 21 20:06:03 2022.
