 Gaussian 16, Revision C.01,
 Gaussian 16:  EM64L-G16RevC.01  3-Jul-2019

 ---------------------------------------------------------------------
 #P TD(Nstates=10000) tpssh/Gen SCF(maxcycles=100) Int(Grid=ultrafine)
 ---------------------------------------------------------------------

 ---------------------
 xGDB7_00001_tier4.com
 ---------------------
 Symbolic Z-matrix:
 Charge =  0 Multiplicity = 1

                         Standard orientation:
 ---------------------------------------------------------------------
 Center     Atomic      Atomic             Coordinates (Angstroms)
 Number     Number       Type             X           Y           Z
 ---------------------------------------------------------------------
      1          6           0        0.000000    0.000000   -1.173653
      2          6           0        0.000000    0.000000    0.280989
      3          7           0        0.000000    0.000000    1.427442
      4          1           0        0.000000    1.024088   -1.545371
      5          1           0       -0.886886   -0.512044   -1.545371
      6          1           0        0.886886   -0.512044   -1.545371
 ---------------------------------------------------------------------

 SCF Done:  E(RTPSSh) =  -132.667537520     A.U. after   13 cycles

 Excitation energies and oscillator strengths:

 Excited state symmetry could not be determined.
 Excited State   1:      Singlet-?Sym    8.1899 eV  151.39 nm  f=0.0000  <S**2>=0.000
      10 -> 14        -0.49851
      11 -> 13         0.49851
 This state for optimization and/or second-order correction.
 Total Energy, E(TD-HF/TD-DFT) =  -132.366565113
 Copying the excited state density for this state as the 1-particle RhoCI density.

 Excited state symmetry could not be determined.
 Excited State   2:      Singlet-?Sym    8.3237 eV  148.95 nm  f=0.0021  <S**2>=0.000
      10 -> 14         0.49797
      11 -> 13         0.49797

 Excited state symmetry could not be determined.
 Excited State   3:      Singlet-?Sym    8.3237 eV  148.95 nm  f=0.0021  <S**2>=0.000
      10 -> 13         0.49797
      11 -> 14        -0.49797

 Excited State   4:      Singlet-E      8.4453 eV  146.81 nm  f=0.0006  <S**2>=0.000
      10 -> 12         0.70550

 Excited State   5:      Singlet-E      8.4453 eV  146.81 nm  f=0.0006  <S**2>=0.000
      11 -> 12         0.70550

 Excited State   6:      Singlet-A1     9.0849 eV  136.47 nm  f=0.0137  <S**2>=0.000
       9 -> 12         0.70570

 Excited State   7:      Singlet-E      9.3807 eV  132.17 nm  f=0.0145  <S**2>=0.000
       9 -> 13         0.70301

 Excited State   8:      Singlet-E      9.3807 eV  132.17 nm  f=0.0145  <S**2>=0.000
       9 -> 14         0.70301

 Excited State   9:      Singlet-E     10.2438 eV  121.03 nm  f=0.0557  <S**2>=0.000
      11 -> 15         0.70590

 Excited State  10:      Singlet-E     10.2438 eV  121.03 nm  f=0.0557  <S**2>=0.000
      10 -> 15         0.70590

 Excited state symmetry could not be determined.
 Excited State  11:      Singlet-?Sym   10.5077 eV  117.99 nm  f=0.4153  <S**2>=0.000
       9 -> 15         0.21823
      10 -> 13         0.33776
      10 -> 16        -0.32426
      11 -> 14         0.33776
      11 -> 17        -0.32426

 Excited State  12:      Singlet-A1    10.9325 eV  113.41 nm  f=0.0061  <S**2>=0.000
       9 -> 15         0.66041
      10 -> 16         0.16263
      11 -> 17         0.16263

 Excited state symmetry could not be determined.
 Excited State  13:      Singlet-?Sym   11.0142 eV  112.57 nm  f=0.0000  <S**2>=0.000
      10 -> 17        -0.49511
      11 -> 16         0.49605

 Excited state symmetry could not be determined.
 Excited State  14:      Singlet-?Sym   11.0145 eV  112.56 nm  f=0.0082  <S**2>=0.000
      10 -> 16         0.49838
      11 -> 17        -0.49838

 Excited state symmetry could not be determined.
 Excited State  15:      Singlet-?Sym   11.0145 eV  112.56 nm  f=0.0082  <S**2>=0.000
      10 -> 17         0.49885
      11 -> 16         0.49792

 Excited state symmetry could not be determined.
 Excited State  16:      Singlet-?Sym   11.7097 eV  105.88 nm  f=0.0000  <S**2>=0.000
      10 -> 19        -0.49523
      11 -> 18         0.49525

 Excited State  17:      Singlet-E     11.7205 eV  105.78 nm  f=0.0047  <S**2>=0.000
       9 -> 16         0.65852
      10 -> 18         0.16695
      11 -> 19        -0.16694

 Excited State  18:      Singlet-E     11.7205 eV  105.78 nm  f=0.0047  <S**2>=0.000
       9 -> 17         0.65852
      10 -> 19        -0.16697
      11 -> 18        -0.16693

 Excited state symmetry could not be determined.
 Excited State  19:      Singlet-?Sym   11.7540 eV  105.48 nm  f=0.0034  <S**2>=0.000
      10 -> 16         0.15180
      10 -> 18         0.46628
      11 -> 17         0.15180
      11 -> 19         0.46627

 Excited State  20:      Singlet-E     11.7936 eV  105.13 nm  f=0.0038  <S**2>=0.000
       9 -> 16         0.22723
      10 -> 18        -0.32243
      10 -> 20         0.47075
      11 -> 19         0.32245

 Excited State  21:      Singlet-E     11.7936 eV  105.13 nm  f=0.0038  <S**2>=0.000
       9 -> 17         0.22723
      10 -> 19         0.32245
      11 -> 18         0.32244
      11 -> 20         0.47075

 Excited State  22:      Singlet-E     11.8429 eV  104.69 nm  f=0.0077  <S**2>=0.000
       7 -> 12        -0.14842
       9 -> 16        -0.10308
      10 -> 18         0.32628
      10 -> 20         0.49447
      11 -> 19        -0.32629

 Excited State  23:      Singlet-E     11.8429 eV  104.69 nm  f=0.0077  <S**2>=0.000
       8 -> 12        -0.14842
       9 -> 17        -0.10308
      10 -> 19        -0.32628
      11 -> 18        -0.32628
      11 -> 20         0.49447

 Excited State  24:      Singlet-E     12.0261 eV  103.10 nm  f=0.1481  <S**2>=0.000
       8 -> 12         0.68720
      11 -> 20         0.11926

 Excited State  25:      Singlet-E     12.0261 eV  103.10 nm  f=0.1481  <S**2>=0.000
       7 -> 12         0.68720
      10 -> 20         0.11925

 Excited state symmetry could not be determined.
 Excited State  26:      Singlet-?Sym   12.0518 eV  102.88 nm  f=0.0000  <S**2>=0.000
       7 -> 14        -0.49690
       8 -> 13         0.49690

 Excited state symmetry could not be determined.
 Excited State  27:      Singlet-?Sym   12.0974 eV  102.49 nm  f=0.5257  <S**2>=0.000
       7 -> 13         0.25740
       8 -> 14         0.25740
       9 -> 20         0.21730
       9 -> 23         0.12547
      10 -> 13         0.24139
      10 -> 16         0.24580
      10 -> 18        -0.14962
      11 -> 14         0.24139
      11 -> 17         0.24580
      11 -> 19        -0.14962

 Excited state symmetry could not be determined.
 Excited State  28:      Singlet-?Sym   12.2367 eV  101.32 nm  f=0.0330  <S**2>=0.000
       7 -> 13        -0.48294
       8 -> 14         0.48294

 Excited state symmetry could not be determined.
 Excited State  29:      Singlet-?Sym   12.2367 eV  101.32 nm  f=0.0330  <S**2>=0.000
       7 -> 14         0.48294
       8 -> 13         0.48294

 Excited State  30:      Singlet-E     12.4408 eV   99.66 nm  f=0.0001  <S**2>=0.000
       9 -> 19         0.70493

 Excited State  31:      Singlet-E     12.4408 eV   99.66 nm  f=0.0001  <S**2>=0.000
       9 -> 18         0.70493

 Excited State  32:      Singlet-A1    12.4705 eV   99.42 nm  f=0.3913  <S**2>=0.000
       7 -> 13        -0.10583
       8 -> 14        -0.10583
       9 -> 20         0.66776

 Excited state symmetry could not be determined.
 Excited State  33:      Singlet-?Sym   13.1686 eV   94.15 nm  f=0.0573  <S**2>=0.000
       6 -> 12         0.14200
       6 -> 15         0.11872
       7 -> 13         0.35569
       8 -> 14         0.35569
       9 -> 23        -0.15372
      10 -> 13        -0.15799
      10 -> 16        -0.12228
      10 -> 21        -0.18768
      11 -> 14        -0.15799
      11 -> 17        -0.12228
      11 -> 22         0.18768

 Excited State  34:      Singlet-A1    13.2878 eV   93.31 nm  f=0.1182  <S**2>=0.000
       6 -> 12         0.68572

 Excited State  35:      Singlet-E     13.6756 eV   90.66 nm  f=0.0197  <S**2>=0.000
       6 -> 14         0.56855
       8 -> 15        -0.34642
      11 -> 23        -0.12224

 Excited State  36:      Singlet-E     13.6756 eV   90.66 nm  f=0.0197  <S**2>=0.000
       6 -> 13         0.56855
       7 -> 15        -0.34642
      10 -> 23        -0.12224

 Excited state symmetry could not be determined.
 Excited State  37:      Singlet-?Sym   13.7824 eV   89.96 nm  f=0.0007  <S**2>=0.000
       6 -> 13         0.11254
       7 -> 15         0.35162
      10 -> 21         0.42099
      11 -> 22         0.42099

 Excited state symmetry could not be determined.
 Excited State  38:      Singlet-?Sym   13.7824 eV   89.96 nm  f=0.0007  <S**2>=0.000
       6 -> 14        -0.11256
       8 -> 15        -0.35163
      10 -> 22        -0.42098
      11 -> 21         0.42098

 Excited State  39:      Singlet-E     13.8429 eV   89.57 nm  f=0.0160  <S**2>=0.000
       6 -> 13         0.27687
       7 -> 15         0.49961
      10 -> 21        -0.26128
      10 -> 23        -0.11547
      11 -> 22        -0.26128

 Excited State  40:      Singlet-E     13.8429 eV   89.57 nm  f=0.0160  <S**2>=0.000
       6 -> 14         0.27687
       8 -> 15         0.49960
      10 -> 22        -0.26129
      11 -> 21         0.26130
      11 -> 23        -0.11546

 Excited state symmetry could not be determined.
 Excited State  41:      Singlet-?Sym   13.9244 eV   89.04 nm  f=0.0000  <S**2>=0.000
      10 -> 22         0.49926
      11 -> 21         0.49925

 Excited State  42:      Singlet-E     14.3779 eV   86.23 nm  f=0.0192  <S**2>=0.000
       6 -> 14         0.10414
       9 -> 22         0.40010
      11 -> 23         0.53291
      11 -> 24         0.15466

 Excited State  43:      Singlet-E     14.3779 eV   86.23 nm  f=0.0192  <S**2>=0.000
       6 -> 13         0.10414
       9 -> 21        -0.40010
      10 -> 23         0.53291
      10 -> 24         0.15466

 Excited state symmetry could not be determined.
 Excited State  44:      Singlet-?Sym   14.4658 eV   85.71 nm  f=0.0374  <S**2>=0.000
       7 -> 16         0.47462
       8 -> 17        -0.47462
       9 -> 21        -0.18988

 Excited state symmetry could not be determined.
 Excited State  45:      Singlet-?Sym   14.4658 eV   85.71 nm  f=0.0374  <S**2>=0.000
       7 -> 17         0.47457
       8 -> 16         0.47467
       9 -> 22        -0.18988

 Excited state symmetry could not be determined.
 Excited State  46:      Singlet-?Sym   14.4714 eV   85.68 nm  f=0.0000  <S**2>=0.000
       7 -> 17         0.49732
       8 -> 16        -0.49723

 Excited state symmetry could not be determined.
 Excited State  47:      Singlet-?Sym   14.4744 eV   85.66 nm  f=0.0225  <S**2>=0.000
       6 -> 15        -0.19867
       6 -> 20        -0.12427
       7 -> 13        -0.10856
       8 -> 14        -0.10856
       9 -> 23        -0.17375
       9 -> 24         0.10058
      10 -> 21        -0.40526
      11 -> 22         0.40527

 Excited State  48:      Singlet-E     14.5886 eV   84.99 nm  f=0.0393  <S**2>=0.000
       6 -> 13         0.11910
       9 -> 21         0.53275
      10 -> 23         0.39732

 Excited State  49:      Singlet-E     14.5886 eV   84.99 nm  f=0.0393  <S**2>=0.000
       6 -> 14        -0.11910
       9 -> 22         0.53275
      11 -> 23        -0.39732

 Excited State  50:      Singlet-E     14.7435 eV   84.09 nm  f=0.0001  <S**2>=0.000
      10 -> 23        -0.14367
      10 -> 24         0.67663

 Excited State  51:      Singlet-E     14.7435 eV   84.09 nm  f=0.0001  <S**2>=0.000
      11 -> 23        -0.14367
      11 -> 24         0.67663

 Excited state symmetry could not be determined.
 Excited State  52:      Singlet-?Sym   14.9679 eV   82.83 nm  f=0.0146  <S**2>=0.000
       6 -> 15        -0.36636
       6 -> 20         0.14644
       7 -> 16         0.36966
       7 -> 18        -0.15109
       8 -> 17         0.36966
       8 -> 19        -0.15109

 Excited state symmetry could not be determined.
 Excited State  53:      Singlet-?Sym   15.0511 eV   82.38 nm  f=0.0000  <S**2>=0.000
       7 -> 19        -0.49425
       8 -> 18         0.49425

 Excited State  54:      Singlet-A1    15.1700 eV   81.73 nm  f=0.0089  <S**2>=0.000
       6 -> 15         0.41042
       7 -> 18        -0.39311
       8 -> 19        -0.39311
       9 -> 24         0.11399

 Excited State  55:      Singlet-E     15.2516 eV   81.29 nm  f=0.0057  <S**2>=0.000
       7 -> 19        -0.20989
       8 -> 18        -0.20989
       8 -> 20         0.63299

 Excited State  56:      Singlet-E     15.2516 eV   81.29 nm  f=0.0057  <S**2>=0.000
       7 -> 18         0.21012
       7 -> 20         0.63299
       8 -> 19        -0.20967

 Excited State  57:      Singlet-A1    15.2518 eV   81.29 nm  f=0.2328  <S**2>=0.000
       6 -> 15         0.14292
       7 -> 18         0.15120
       8 -> 19         0.15182
       9 -> 23        -0.33551
       9 -> 24         0.52810

 Excited State  58:      Singlet-A1    15.5332 eV   79.82 nm  f=0.0296  <S**2>=0.000
       6 -> 20        -0.10328
       9 -> 23         0.43245
       9 -> 24         0.31211
      10 -> 21        -0.10225
      10 -> 25         0.25011
      11 -> 22         0.10225
      11 -> 26        -0.25011

 Excited State  59:      Singlet-E     15.6756 eV   79.09 nm  f=0.1687  <S**2>=0.000
       6 -> 17         0.49331
       7 -> 19        -0.28901
       8 -> 18        -0.28901
       8 -> 20        -0.24044

 Excited State  60:      Singlet-E     15.6756 eV   79.09 nm  f=0.1687  <S**2>=0.000
       6 -> 16         0.49331
       7 -> 18         0.28901
       7 -> 20        -0.24044
       8 -> 19        -0.28901

 Excited State  61:      Singlet-E     15.7969 eV   78.49 nm  f=0.0127  <S**2>=0.000
       6 -> 17         0.48027
       7 -> 19         0.25128
       8 -> 18         0.25128
       8 -> 20         0.15332
      10 -> 26        -0.22469
      11 -> 25         0.22466

 Excited State  62:      Singlet-E     15.7969 eV   78.49 nm  f=0.0127  <S**2>=0.000
       6 -> 16         0.48027
       7 -> 18        -0.25128
       7 -> 20         0.15332
       8 -> 19         0.25128
      10 -> 25        -0.22467
      11 -> 26        -0.22467

 Excited state symmetry could not be determined.
 Excited State  63:      Singlet-?Sym   15.8580 eV   78.18 nm  f=0.0000  <S**2>=0.000
      10 -> 26         0.48946
      11 -> 25         0.48947

 Excited State  64:      Singlet-A1    15.9203 eV   77.88 nm  f=0.0007  <S**2>=0.000
       6 -> 15         0.31227
       7 -> 16         0.26452
       7 -> 18         0.16999
       8 -> 17         0.26452
       8 -> 19         0.16998
       9 -> 23         0.11601
       9 -> 24        -0.21139
      10 -> 21        -0.12616
      10 -> 25        -0.16291
      11 -> 22         0.12616
      11 -> 26         0.16291

 Excited state symmetry could not be determined.
 Excited State  65:      Singlet-?Sym   16.0129 eV   77.43 nm  f=0.0009  <S**2>=0.000
       6 -> 15         0.11449
       9 -> 23        -0.17342
       9 -> 24        -0.16477
      10 -> 25         0.35347
      10 -> 28        -0.25907
      11 -> 26        -0.35346
      11 -> 29         0.25907

 Excited state symmetry could not be determined.
 Excited State  66:      Singlet-?Sym   16.4360 eV   75.43 nm  f=0.2605  <S**2>=0.000
       6 -> 17        -0.11248
       6 -> 19        -0.19332
       7 -> 19        -0.13747
       8 -> 18        -0.13747
       9 -> 26         0.17445
      10 -> 26        -0.35085
      10 -> 29        -0.16343
      11 -> 25         0.35086
      11 -> 27        -0.17644
      11 -> 28         0.16344

 Excited state symmetry could not be determined.
 Excited State  67:      Singlet-?Sym   16.4360 eV   75.43 nm  f=0.2605  <S**2>=0.000
       6 -> 16         0.11248
       6 -> 18         0.19334
       7 -> 18        -0.13747
       8 -> 19         0.13747
       9 -> 25         0.17445
      10 -> 25         0.35085
      10 -> 27         0.17644
      10 -> 28         0.16344
      11 -> 26         0.35086
      11 -> 29         0.16343

 Excited State  68:      Singlet-E     16.5022 eV   75.13 nm  f=0.0393  <S**2>=0.000
       6 -> 18         0.66157
       9 -> 25        -0.16356

 Excited State  69:      Singlet-E     16.5022 eV   75.13 nm  f=0.0393  <S**2>=0.000
       6 -> 19         0.66157
       9 -> 26         0.16356

 Excited State  70:      Singlet-E     16.6721 eV   74.37 nm  f=0.0073  <S**2>=0.000
       9 -> 26         0.46746
      11 -> 27         0.51855

 Excited State  71:      Singlet-E     16.6721 eV   74.37 nm  f=0.0073  <S**2>=0.000
       9 -> 25        -0.46746
      10 -> 27         0.51855

 Excited State  72:      Singlet-E     16.6847 eV   74.31 nm  f=0.0570  <S**2>=0.000
       6 -> 19        -0.10401
       9 -> 26         0.46972
      10 -> 26         0.11731
      10 -> 29         0.12643
      11 -> 25        -0.11732
      11 -> 27        -0.42132
      11 -> 28        -0.12644

 Excited State  73:      Singlet-E     16.6847 eV   74.31 nm  f=0.0570  <S**2>=0.000
       6 -> 18         0.10400
       9 -> 25         0.46972
      10 -> 25        -0.11731
      10 -> 27         0.42133
      10 -> 28        -0.12644
      11 -> 26        -0.11732
      11 -> 29        -0.12644

 Excited state symmetry could not be determined.
 Excited State  74:      Singlet-?Sym   16.7895 eV   73.85 nm  f=0.0000  <S**2>=0.000
      10 -> 29         0.49039
      11 -> 28         0.49039

 Excited state symmetry could not be determined.
 Excited State  75:      Singlet-?Sym   16.9354 eV   73.21 nm  f=0.2625  <S**2>=0.000
      10 -> 25        -0.15237
      10 -> 28         0.40849
      10 -> 30        -0.26950
      11 -> 26        -0.15237
      11 -> 29         0.40849

 Excited state symmetry could not be determined.
 Excited State  76:      Singlet-?Sym   16.9354 eV   73.21 nm  f=0.2625  <S**2>=0.000
      10 -> 26        -0.15237
      10 -> 29         0.40850
      11 -> 25         0.15237
      11 -> 28        -0.40849
      11 -> 30        -0.26950

 Excited State  77:      Singlet-E     17.1440 eV   72.32 nm  f=0.0490  <S**2>=0.000
      10 -> 29         0.14434
      11 -> 28        -0.14434
      11 -> 30         0.64506

 Excited State  78:      Singlet-E     17.1440 eV   72.32 nm  f=0.0490  <S**2>=0.000
      10 -> 28         0.14434
      10 -> 30         0.64506
      11 -> 29         0.14434

 Excited State  79:      Singlet-A1    17.2852 eV   71.73 nm  f=0.0473  <S**2>=0.000
       9 -> 27         0.64990
      10 -> 28        -0.11836
      10 -> 32        -0.11828
      11 -> 29         0.11836
      11 -> 33         0.11828

 Excited State  80:      Singlet-E     17.2904 eV   71.71 nm  f=0.0038  <S**2>=0.000
      11 -> 31         0.70396

 Excited State  81:      Singlet-E     17.2904 eV   71.71 nm  f=0.0038  <S**2>=0.000
      10 -> 31         0.70396

 Excited State  82:      Singlet-A1    17.3840 eV   71.32 nm  f=0.2837  <S**2>=0.000
       6 -> 20         0.59641
       9 -> 30         0.14437
      10 -> 32        -0.15305
      11 -> 33         0.15305

 Excited State  83:      Singlet-E     17.4221 eV   71.16 nm  f=0.0047  <S**2>=0.000
       9 -> 28         0.66473
       9 -> 32        -0.12856
      10 -> 32         0.10315
      11 -> 33         0.10315

 Excited State  84:      Singlet-E     17.4221 eV   71.16 nm  f=0.0047  <S**2>=0.000
       9 -> 29         0.66473
       9 -> 33        -0.12856
      10 -> 33        -0.10315
      11 -> 32         0.10315

 Excited state symmetry could not be determined.
 Excited State  85:      Singlet-?Sym   17.4866 eV   70.90 nm  f=0.0049  <S**2>=0.000
       7 -> 22        -0.49171
       8 -> 21         0.49171

 Excited state symmetry could not be determined.
 Excited State  86:      Singlet-?Sym   17.4866 eV   70.90 nm  f=0.0049  <S**2>=0.000
       7 -> 21         0.49171
       8 -> 22         0.49171

 Excited state symmetry could not be determined.
 Excited State  87:      Singlet-?Sym   17.5660 eV   70.58 nm  f=0.0000  <S**2>=0.000
       7 -> 22         0.48115
       8 -> 21         0.48115
      10 -> 33         0.12842
      11 -> 32         0.12842

 Excited state symmetry could not be determined.
 Excited State  88:      Singlet-?Sym   17.6095 eV   70.41 nm  f=0.0661  <S**2>=0.000
       7 -> 21         0.28632
       8 -> 22        -0.28632
       9 -> 27        -0.10510
       9 -> 30         0.23267
      10 -> 28        -0.23495
      10 -> 32        -0.23380
      11 -> 29         0.23495
      11 -> 33         0.23381

 Excited state symmetry could not be determined.
 Excited State  89:      Singlet-?Sym   17.6435 eV   70.27 nm  f=0.0000  <S**2>=0.000
       7 -> 22        -0.13106
       8 -> 21        -0.13106
      10 -> 33         0.48046
      11 -> 32         0.48047

 Excited state symmetry could not be determined.
 Excited State  90:      Singlet-?Sym   17.7146 eV   69.99 nm  f=0.0177  <S**2>=0.000
       6 -> 20         0.14271
       7 -> 21         0.35771
       8 -> 22        -0.35768
       9 -> 27         0.14866
       9 -> 30        -0.32239
      10 -> 28         0.16072
      11 -> 29        -0.16073

 Excited state symmetry could not be determined.
 Excited State  91:      Singlet-?Sym   17.7164 eV   69.98 nm  f=0.0748  <S**2>=0.000
       7 -> 24         0.10832
       9 -> 28        -0.11772
      10 -> 32         0.46936
      11 -> 33         0.46937

 Excited state symmetry could not be determined.
 Excited State  92:      Singlet-?Sym   17.7164 eV   69.98 nm  f=0.0748  <S**2>=0.000
       8 -> 24         0.10832
       9 -> 29         0.11772
      10 -> 33         0.46937
      11 -> 32        -0.46936

 Excited State  93:      Singlet-A1    17.8806 eV   69.34 nm  f=0.0627  <S**2>=0.000
       7 -> 21         0.12661
       8 -> 22        -0.12661
       9 -> 27         0.16057
       9 -> 30         0.53523
      10 -> 28         0.10113
      10 -> 32         0.22463
      11 -> 29        -0.10113
      11 -> 33        -0.22463

 Excited State  94:      Singlet-A2    17.9674 eV   69.01 nm  f=0.0000  <S**2>=0.000
       9 -> 31         0.70695

 Excited State  95:      Singlet-E     18.1855 eV   68.18 nm  f=0.0113  <S**2>=0.000
       7 -> 23         0.60328
       7 -> 24         0.30135
       9 -> 32        -0.18719

 Excited State  96:      Singlet-E     18.1855 eV   68.18 nm  f=0.0113  <S**2>=0.000
       8 -> 23         0.60328
       8 -> 24         0.30135
       9 -> 33         0.18719

 Excited State  97:      Singlet-E     18.2721 eV   67.85 nm  f=0.0292  <S**2>=0.000
       8 -> 23        -0.25621
       8 -> 24         0.11795
       9 -> 29         0.11906
       9 -> 33         0.63089

 Excited State  98:      Singlet-E     18.2721 eV   67.85 nm  f=0.0292  <S**2>=0.000
       7 -> 23         0.25621
       7 -> 24        -0.11795
       9 -> 28         0.11906
       9 -> 32         0.63089

 The electronic state is 1-A1.
 Alpha  occ. eigenvalues --  -14.25807 -10.18413 -10.16437  -0.87938  -0.75668
 Alpha  occ. eigenvalues --   -0.50030  -0.45388  -0.45388  -0.34303  -0.32203
 Alpha  occ. eigenvalues --   -0.32203
 Alpha virt. eigenvalues --    0.00643   0.01621   0.01621   0.07321   0.10302
 Alpha virt. eigenvalues --    0.10302   0.12990   0.12990   0.13261   0.21242
 Alpha virt. eigenvalues --    0.21242   0.23338   0.23889   0.29311   0.29311

 Mulliken charges:
               1
     1  C    0.244569
     2  C   -0.299636
     3  N   -0.088653
     4  H    0.047906
     5  H    0.047906
     6  H    0.047906
 Sum of Mulliken charges =  -0.00000

 Dipole moment (field-independent basis, Debye):
    X=             -0.0000    Y=              0.0000    Z=             -3.9491  Tot=              3.9491
 Quadrupole moment (field-independent basis, Debye-Ang):
   XX=            -17.5080   YY=            -17.5080   ZZ=            -20.8930
   XY=             -0.0000   XZ=              0.0000   YZ=             -0.0000

 Normal termination of Gaussian 16 at Mon Mar 21 19:59:05 2022.
