 Gaussian 16, Revision C.01,
 Gaussian 16:  EM64L-G16RevC.01  3-Jul-2019

 ---------------------------------------------------------------------
 #P TD(Nstates=10000) tpssh/Gen SCF(maxcycles=100) Int(Grid=ultrafine)
 ---------------------------------------------------------------------

 ---------------------
 xGDB7_00001_tier4.com
 ---------------------
 Symbolic Z-matrix:
 Charge =  0 Multiplicity = 1

                         Standard orientation:
 ---------------------------------------------------------------------
 Center     Atomic      Atomic             Coordinates (Angstroms)
 Number     Number       Type             X           Y           Z
 ---------------------------------------------------------------------
      1          9           0       -1.139724   -0.269725    0.000000
      2          6           0        0.000000    0.430281    0.000000
      3          6           0        1.180852   -0.148760    0.000000
      4          1           0       -0.180450    1.498331    0.000000
      5          1           0        1.283634   -1.225170    0.000000
      6          1           0        2.069222    0.465238    0.000000
 ---------------------------------------------------------------------

 SCF Done:  E(RTPSSh) =  -177.705768093     A.U. after   13 cycles

 Excitation energies and oscillator strengths:

 Excited State   1:      Singlet-A"     7.3506 eV  168.67 nm  f=0.0399  <S**2>=0.000
      12 -> 14         0.70600
 This state for optimization and/or second-order correction.
 Total Energy, E(TD-HF/TD-DFT) =  -177.435638602
 Copying the excited state density for this state as the 1-particle RhoCI density.

 Excited State   2:      Singlet-A'     7.7999 eV  158.96 nm  f=0.3140  <S**2>=0.000
      12 -> 13         0.69203

 Excited State   3:      Singlet-A"     7.9402 eV  156.15 nm  f=0.0073  <S**2>=0.000
      12 -> 15         0.70358

 Excited State   4:      Singlet-A"     8.7094 eV  142.36 nm  f=0.0001  <S**2>=0.000
      11 -> 13         0.63731
      12 -> 16         0.30408

 Excited State   5:      Singlet-A"     8.7794 eV  141.22 nm  f=0.0015  <S**2>=0.000
      11 -> 13        -0.30104
      12 -> 16         0.63375

 Excited State   6:      Singlet-A"     9.2010 eV  134.75 nm  f=0.0015  <S**2>=0.000
      12 -> 17         0.69881

 Excited State   7:      Singlet-A"     9.8681 eV  125.64 nm  f=0.0000  <S**2>=0.000
      10 -> 13         0.69730

 Excited State   8:      Singlet-A"    10.0319 eV  123.59 nm  f=0.0075  <S**2>=0.000
      12 -> 18         0.70217

 Excited State   9:      Singlet-A'    10.0989 eV  122.77 nm  f=0.0046  <S**2>=0.000
      11 -> 14         0.67969
      11 -> 15        -0.10945
      12 -> 19        -0.14467

 Excited State  10:      Singlet-A'    10.2989 eV  120.39 nm  f=0.0079  <S**2>=0.000
      11 -> 14         0.14318
      12 -> 19         0.68255

 Excited State  11:      Singlet-A"    10.6198 eV  116.75 nm  f=0.1321  <S**2>=0.000
       8 -> 13         0.11047
      12 -> 20         0.68873

 Excited State  12:      Singlet-A'    10.7060 eV  115.81 nm  f=0.0763  <S**2>=0.000
      11 -> 14         0.10803
      11 -> 15         0.69426

 Excited State  13:      Singlet-A"    11.0918 eV  111.78 nm  f=0.0016  <S**2>=0.000
      12 -> 21         0.70007

 Excited State  14:      Singlet-A'    11.2048 eV  110.65 nm  f=0.0942  <S**2>=0.000
      10 -> 14         0.68265
      11 -> 16        -0.10659

 Excited State  15:      Singlet-A'    11.3758 eV  108.99 nm  f=0.0074  <S**2>=0.000
      11 -> 16        -0.46079
      12 -> 22         0.52807

 Excited State  16:      Singlet-A'    11.5892 eV  106.98 nm  f=0.1059  <S**2>=0.000
       9 -> 13         0.24536
      11 -> 16         0.48773
      12 -> 22         0.39961

 Excited State  17:      Singlet-A"    11.7139 eV  105.84 nm  f=0.0054  <S**2>=0.000
       8 -> 13        -0.29275
      12 -> 23         0.63967

 Excited State  18:      Singlet-A'    11.7161 eV  105.82 nm  f=0.0477  <S**2>=0.000
       9 -> 13         0.59897
      10 -> 14        -0.12058
      10 -> 15         0.18515
      11 -> 16        -0.14236
      11 -> 17        -0.11061
      12 -> 22        -0.15740

 Excited State  19:      Singlet-A'    11.7899 eV  105.16 nm  f=0.1600  <S**2>=0.000
       9 -> 13        -0.17974
      10 -> 15         0.67357

 Excited State  20:      Singlet-A"    11.8313 eV  104.79 nm  f=0.0169  <S**2>=0.000
       8 -> 13         0.62469
      12 -> 23         0.29686

 Excited State  21:      Singlet-A'    12.0523 eV  102.87 nm  f=0.0875  <S**2>=0.000
      11 -> 17         0.68217
      12 -> 22        -0.10843

 Excited State  22:      Singlet-A"    12.4399 eV   99.67 nm  f=0.0497  <S**2>=0.000
       9 -> 14         0.69951

 Excited State  23:      Singlet-A'    12.6573 eV   97.96 nm  f=0.0284  <S**2>=0.000
      10 -> 16         0.62530
      10 -> 17        -0.13634
      12 -> 24        -0.27172

 Excited State  24:      Singlet-A'    12.8103 eV   96.78 nm  f=0.0365  <S**2>=0.000
      10 -> 17         0.12716
      11 -> 18         0.62185
      12 -> 24         0.26433

 Excited State  25:      Singlet-A"    12.8271 eV   96.66 nm  f=0.0141  <S**2>=0.000
      11 -> 19         0.69734

 Excited State  26:      Singlet-A'    12.8414 eV   96.55 nm  f=0.1015  <S**2>=0.000
       8 -> 14         0.15758
      10 -> 16         0.26952
      10 -> 17         0.23362
      11 -> 18        -0.30681
      12 -> 24         0.47430

 Excited State  27:      Singlet-A"    13.0313 eV   95.14 nm  f=0.0009  <S**2>=0.000
       7 -> 13        -0.30382
       9 -> 15         0.61948
      12 -> 25         0.10343

 Excited State  28:      Singlet-A"    13.0433 eV   95.06 nm  f=0.0121  <S**2>=0.000
       7 -> 13         0.61272
       9 -> 15         0.32097

 Excited State  29:      Singlet-A'    13.1864 eV   94.02 nm  f=0.0176  <S**2>=0.000
       8 -> 14         0.65608
      11 -> 20         0.13466
      12 -> 26        -0.12793

 Excited State  30:      Singlet-A"    13.2244 eV   93.75 nm  f=0.0165  <S**2>=0.000
       7 -> 13         0.11835
      12 -> 25         0.68169

 Excited State  31:      Singlet-A'    13.2418 eV   93.63 nm  f=0.0356  <S**2>=0.000
       8 -> 15        -0.12606
      10 -> 17         0.43924
      11 -> 20         0.49800
      12 -> 24        -0.14225

 Excited State  32:      Singlet-A'    13.4240 eV   92.36 nm  f=0.0369  <S**2>=0.000
       8 -> 15         0.23228
      10 -> 17        -0.36189
      10 -> 18        -0.11585
      11 -> 20         0.46827
      12 -> 24         0.20251
      12 -> 26         0.10626

 Excited State  33:      Singlet-A"    13.5430 eV   91.55 nm  f=0.0028  <S**2>=0.000
       9 -> 16         0.12802
      12 -> 27         0.68821

 Excited State  34:      Singlet-A'    13.6775 eV   90.65 nm  f=0.0772  <S**2>=0.000
       8 -> 15        -0.30513
      10 -> 18         0.23111
      11 -> 21        -0.21867
      12 -> 26         0.52638

 Excited State  35:      Singlet-A'    13.7719 eV   90.03 nm  f=0.0362  <S**2>=0.000
       8 -> 15         0.14887
      11 -> 21         0.60607
      12 -> 26         0.28411

 Excited State  36:      Singlet-A"    13.8238 eV   89.69 nm  f=0.0217  <S**2>=0.000
       9 -> 16         0.67085
      11 -> 22        -0.11625
      12 -> 27        -0.12889

 Excited State  37:      Singlet-A'    13.8302 eV   89.65 nm  f=0.1026  <S**2>=0.000
       8 -> 15         0.50905
       8 -> 16        -0.10634
      10 -> 17         0.11698
      10 -> 18         0.35272
      10 -> 20        -0.10887
      11 -> 21        -0.22465
      12 -> 24        -0.10354

 Excited State  38:      Singlet-A"    13.9849 eV   88.66 nm  f=0.0114  <S**2>=0.000
      10 -> 19         0.68060
      11 -> 22        -0.16341

 Excited State  39:      Singlet-A'    14.0755 eV   88.09 nm  f=0.0670  <S**2>=0.000
       8 -> 14        -0.12308
       8 -> 15        -0.17994
      10 -> 17        -0.17517
      10 -> 18         0.50297
      11 -> 21         0.11690
      12 -> 24         0.14748
      12 -> 26        -0.28231

 Excited State  40:      Singlet-A"    14.1191 eV   87.81 nm  f=0.0030  <S**2>=0.000
      10 -> 19         0.17410
      11 -> 22         0.67500

 Excited State  41:      Singlet-A"    14.3248 eV   86.55 nm  f=0.0088  <S**2>=0.000
       9 -> 17         0.70227

 Excited State  42:      Singlet-A'    14.3845 eV   86.19 nm  f=0.0010  <S**2>=0.000
       7 -> 14        -0.28512
       8 -> 16        -0.35092
      10 -> 20         0.41085
      11 -> 23         0.34394

 Excited State  43:      Singlet-A'    14.4893 eV   85.57 nm  f=0.0389  <S**2>=0.000
       7 -> 14         0.40458
      10 -> 20         0.49527
      11 -> 23        -0.27090

 Excited State  44:      Singlet-A'    14.5497 eV   85.21 nm  f=0.0524  <S**2>=0.000
       7 -> 14         0.44216
       7 -> 15         0.10169
       8 -> 17        -0.10301
       9 -> 19         0.15518
      11 -> 23         0.47293

 Excited State  45:      Singlet-A'    14.6383 eV   84.70 nm  f=0.0500  <S**2>=0.000
       7 -> 14        -0.14309
       8 -> 16         0.56757
      10 -> 20         0.20461
      10 -> 21        -0.17586
      11 -> 23         0.19133

 Excited State  46:      Singlet-A'    14.9641 eV   82.85 nm  f=0.0628  <S**2>=0.000
       8 -> 17         0.63435
       9 -> 19         0.13317
      10 -> 21        -0.22751

 Excited State  47:      Singlet-A"    14.9681 eV   82.83 nm  f=0.0120  <S**2>=0.000
       6 -> 13         0.12121
      12 -> 28         0.69038

 Excited State  48:      Singlet-A'    15.0338 eV   82.47 nm  f=0.0041  <S**2>=0.000
       7 -> 15         0.64000
       9 -> 19        -0.26525

 Excited State  49:      Singlet-A"    15.1150 eV   82.03 nm  f=0.0003  <S**2>=0.000
       9 -> 18         0.69828

 Excited State  50:      Singlet-A"    15.1272 eV   81.96 nm  f=0.0207  <S**2>=0.000
       6 -> 13        -0.24121
      10 -> 22         0.65612

 Excited State  51:      Singlet-A'    15.2759 eV   81.16 nm  f=0.1623  <S**2>=0.000
       7 -> 15         0.19055
       8 -> 16         0.11983
       9 -> 19         0.33578
      10 -> 21         0.51191
      12 -> 31        -0.11520

 Excited State  52:      Singlet-A"    15.3706 eV   80.66 nm  f=0.0003  <S**2>=0.000
       6 -> 13        -0.17645
      11 -> 24         0.66875

 Excited State  53:      Singlet-A'    15.4201 eV   80.40 nm  f=0.0010  <S**2>=0.000
       7 -> 15         0.12525
       7 -> 16         0.20644
       8 -> 17        -0.16224
       8 -> 18         0.23569
       9 -> 19         0.45716
      10 -> 21        -0.26788
      11 -> 23        -0.11332
      11 -> 25         0.16482

 Excited State  54:      Singlet-A"    15.4990 eV   79.99 nm  f=0.0073  <S**2>=0.000
       6 -> 13        -0.37938
       9 -> 20         0.51520
      10 -> 22        -0.14431
      11 -> 24        -0.16110
      12 -> 30        -0.10705

 Excited State  55:      Singlet-A"    15.5661 eV   79.65 nm  f=0.0493  <S**2>=0.000
       9 -> 20        -0.12348
      12 -> 29         0.68516

 Excited State  56:      Singlet-A'    15.6406 eV   79.27 nm  f=0.0392  <S**2>=0.000
       7 -> 16         0.25599
      10 -> 23         0.63967

 Excited State  57:      Singlet-A"    15.7239 eV   78.85 nm  f=0.0181  <S**2>=0.000
       6 -> 13         0.18045
       9 -> 20         0.29829
      12 -> 29         0.13702
      12 -> 30         0.57556

 Excited State  58:      Singlet-A'    15.7734 eV   78.60 nm  f=0.2439  <S**2>=0.000
       7 -> 16         0.48146
       8 -> 18        -0.27185
      10 -> 21         0.10313
      10 -> 23        -0.17974
      12 -> 31         0.34372

 Excited State  59:      Singlet-A'    15.8459 eV   78.24 nm  f=0.0142  <S**2>=0.000
       8 -> 18         0.49361
      11 -> 25        -0.36272
      12 -> 31         0.30639

 Excited State  60:      Singlet-A"    15.8993 eV   77.98 nm  f=0.0489  <S**2>=0.000
       6 -> 13         0.21494
       8 -> 19         0.55801
       9 -> 20         0.19235
      11 -> 24         0.11449
      12 -> 30        -0.24720

 Excited State  61:      Singlet-A'    15.9454 eV   77.76 nm  f=0.1074  <S**2>=0.000
       7 -> 16        -0.35642
       8 -> 18        -0.15871
       9 -> 19         0.10565
      10 -> 23         0.14064
      11 -> 25         0.12933
      12 -> 31         0.50619

 Excited State  62:      Singlet-A"    15.9742 eV   77.62 nm  f=0.1284  <S**2>=0.000
       6 -> 13        -0.31687
       8 -> 19         0.41822
       9 -> 20        -0.28323
       9 -> 21        -0.10886
      11 -> 26         0.10555
      12 -> 30         0.25779
      12 -> 33         0.10215

 Excited State  63:      Singlet-A'    16.0457 eV   77.27 nm  f=0.1349  <S**2>=0.000
       8 -> 17         0.10258
       8 -> 18         0.27520
       9 -> 19        -0.14458
      10 -> 21         0.15426
      11 -> 25         0.50719
      11 -> 27        -0.21589

 Excited State  64:      Singlet-A"    16.0746 eV   77.13 nm  f=0.0058  <S**2>=0.000
       9 -> 21         0.69083

 Excited State  65:      Singlet-A"    16.2468 eV   76.31 nm  f=0.0042  <S**2>=0.000
      10 -> 24         0.20258
      11 -> 26        -0.38377
      12 -> 32         0.55100

 Excited State  66:      Singlet-A'    16.2722 eV   76.19 nm  f=0.0270  <S**2>=0.000
       6 -> 14        -0.16696
       7 -> 17         0.10103
       9 -> 22        -0.17049
      11 -> 25         0.19021
      11 -> 27         0.62061

 Excited State  67:      Singlet-A"    16.2849 eV   76.13 nm  f=0.0172  <S**2>=0.000
      10 -> 24         0.36573
      11 -> 26         0.53839
      12 -> 32         0.24206

 Excited State  68:      Singlet-A'    16.3230 eV   75.96 nm  f=0.0520  <S**2>=0.000
       7 -> 17        -0.40066
       8 -> 20         0.53519
       9 -> 22         0.10530

 Excited State  69:      Singlet-A"    16.3307 eV   75.92 nm  f=0.0577  <S**2>=0.000
       6 -> 13        -0.12149
      10 -> 24         0.54118
      11 -> 26        -0.18762
      12 -> 32        -0.34547

 Excited State  70:      Singlet-A'    16.4213 eV   75.50 nm  f=0.0007  <S**2>=0.000
       6 -> 14         0.61106
       7 -> 17        -0.21159
       8 -> 21        -0.11579
      11 -> 27         0.15332

 Excited State  71:      Singlet-A'    16.5118 eV   75.09 nm  f=0.0488  <S**2>=0.000
       6 -> 14        -0.17846
       6 -> 15         0.13442
       7 -> 17        -0.27146
       8 -> 20        -0.33259
       9 -> 22         0.48043

 Excited State  72:      Singlet-A'    16.6968 eV   74.26 nm  f=0.0043  <S**2>=0.000
       6 -> 14         0.11236
       6 -> 15        -0.17630
       7 -> 17         0.36678
       7 -> 18         0.14115
       8 -> 20         0.22307
       9 -> 22         0.43073
      10 -> 25        -0.12088

 Excited State  73:      Singlet-A"    16.7464 eV   74.04 nm  f=0.0076  <S**2>=0.000
       9 -> 23         0.69874

 Excited State  74:      Singlet-A'    16.9596 eV   73.11 nm  f=0.0364  <S**2>=0.000
       7 -> 18         0.38290
       8 -> 21         0.56252

 Excited State  75:      Singlet-A'    16.9832 eV   73.00 nm  f=0.0038  <S**2>=0.000
      10 -> 25         0.67447

 Excited State  76:      Singlet-A"    17.0005 eV   72.93 nm  f=0.0020  <S**2>=0.000
       7 -> 19        -0.14282
       8 -> 22         0.36362
      10 -> 26         0.11685
      12 -> 33         0.56528

 Excited State  77:      Singlet-A'    17.0710 eV   72.63 nm  f=0.0088  <S**2>=0.000
       6 -> 15         0.53895
       7 -> 18         0.32349
       8 -> 21        -0.19781
       8 -> 23         0.11201
      10 -> 27         0.10688

 Excited State  78:      Singlet-A"    17.1215 eV   72.41 nm  f=0.0000  <S**2>=0.000
       7 -> 19         0.55828
       8 -> 22         0.40991
      12 -> 33        -0.11833

 Excited State  79:      Singlet-A'    17.1801 eV   72.17 nm  f=0.0334  <S**2>=0.000
       6 -> 14        -0.12014
       6 -> 15        -0.32493
       7 -> 17        -0.12807
       7 -> 18         0.45597
       8 -> 21        -0.26785
      10 -> 27        -0.14653
      12 -> 34         0.11339

 Excited State  80:      Singlet-A"    17.1871 eV   72.14 nm  f=0.1000  <S**2>=0.000
       7 -> 19        -0.39587
       8 -> 22         0.43215
      10 -> 26        -0.10212
      12 -> 33        -0.33563

 Excited State  81:      Singlet-A"    17.3934 eV   71.28 nm  f=0.1405  <S**2>=0.000
      10 -> 26         0.67626
      12 -> 33        -0.12564

 Excited State  82:      Singlet-A'    17.4200 eV   71.17 nm  f=0.0080  <S**2>=0.000
       6 -> 15        -0.15182
       8 -> 23         0.11106
      10 -> 27         0.63176
      11 -> 28         0.12314

 Excited State  83:      Singlet-A'    17.5306 eV   70.72 nm  f=0.0105  <S**2>=0.000
       7 -> 20        -0.15877
       8 -> 23         0.62472
      11 -> 28        -0.20151
      12 -> 34        -0.13076

 Excited State  84:      Singlet-A'    17.5747 eV   70.55 nm  f=0.0541  <S**2>=0.000
       7 -> 20         0.62068
       8 -> 23         0.14049
       9 -> 24        -0.10842
      11 -> 28        -0.17575
      12 -> 34         0.18958

 Excited State  85:      Singlet-A'    17.7439 eV   69.87 nm  f=0.0174  <S**2>=0.000
       6 -> 16        -0.15748
       7 -> 21         0.12069
       8 -> 23         0.20418
      11 -> 28         0.49968
      12 -> 34         0.36232

 Excited State  86:      Singlet-A'    17.7809 eV   69.73 nm  f=0.0182  <S**2>=0.000
       6 -> 16        -0.25227
       9 -> 24         0.63925

 Excited State  87:      Singlet-A'    17.9187 eV   69.19 nm  f=0.1966  <S**2>=0.000
       6 -> 16         0.28913
       6 -> 17        -0.14941
       7 -> 20        -0.19292
       7 -> 21        -0.27347
       8 -> 21         0.10561
      11 -> 28        -0.17215
      12 -> 34         0.44706

 Excited State  88:      Singlet-A"    17.9889 eV   68.92 nm  f=0.0375  <S**2>=0.000
       7 -> 22         0.11698
      12 -> 35         0.68414

 Excited State  89:      Singlet-A'    18.0181 eV   68.81 nm  f=0.0343  <S**2>=0.000
       6 -> 16         0.50985
       7 -> 20         0.12222
       9 -> 24         0.25494
      11 -> 28         0.23002
      11 -> 29        -0.17642
      11 -> 30        -0.10340
      12 -> 34        -0.12977

 Excited State  90:      Singlet-A"    18.2319 eV   68.00 nm  f=0.0104  <S**2>=0.000
       7 -> 22         0.16136
       8 -> 24         0.32496
       9 -> 25         0.58629

 Excited State  91:      Singlet-A'    18.2484 eV   67.94 nm  f=0.0228  <S**2>=0.000
       6 -> 17        -0.46964
       7 -> 21         0.48349
      11 -> 30        -0.10188

 Excited State  92:      Singlet-A"    18.2687 eV   67.87 nm  f=0.0074  <S**2>=0.000
       7 -> 22        -0.14287
       8 -> 24         0.57048
       9 -> 25        -0.29619
      12 -> 36         0.21758

 Excited State  93:      Singlet-A"    18.3310 eV   67.64 nm  f=0.0006  <S**2>=0.000
       7 -> 22        -0.21685
       8 -> 24        -0.22110
       9 -> 25         0.13069
      12 -> 36         0.60784

 Excited State  94:      Singlet-A'    18.3602 eV   67.53 nm  f=0.0240  <S**2>=0.000
       6 -> 16         0.14165
       7 -> 23        -0.12583
      11 -> 29         0.63779
      11 -> 30         0.10978

 Excited State  95:      Singlet-A'    18.4282 eV   67.28 nm  f=0.0071  <S**2>=0.000
       6 -> 17        -0.26117
      11 -> 30         0.61204

 Excited State  96:      Singlet-A"    18.4595 eV   67.17 nm  f=0.1036  <S**2>=0.000
       7 -> 22         0.54882
       9 -> 25        -0.13681
      11 -> 31        -0.10649
      12 -> 36         0.17847
      12 -> 37         0.33916

 Excited State  97:      Singlet-A'    18.5502 eV   66.84 nm  f=0.0069  <S**2>=0.000
       6 -> 17         0.36494
       7 -> 21         0.27979
       8 -> 27         0.12644
       9 -> 26         0.33036
      11 -> 28        -0.14264
      11 -> 29        -0.16916
      11 -> 30         0.24184
      12 -> 34         0.10009

 Excited State  98:      Singlet-A"    18.5633 eV   66.79 nm  f=0.0467  <S**2>=0.000
       7 -> 22        -0.23092
      11 -> 31         0.19036
      12 -> 36        -0.16702
      12 -> 37         0.59004

 Excited State  99:      Singlet-A"    18.6176 eV   66.60 nm  f=0.0004  <S**2>=0.000
       9 -> 25         0.11632
       9 -> 27         0.66526
      11 -> 31        -0.19367

 Excited State 100:      Singlet-A'    18.6923 eV   66.33 nm  f=0.0010  <S**2>=0.000
       7 -> 23         0.49566
       8 -> 25         0.11387
       9 -> 26         0.33822
      10 -> 28         0.23565
      12 -> 38        -0.20550

 Excited State 101:      Singlet-A'    18.7169 eV   66.24 nm  f=0.0003  <S**2>=0.000
       7 -> 23         0.30259
       9 -> 26        -0.16078
      10 -> 28         0.14978
      12 -> 38         0.57569

 Excited State 102:      Singlet-A"    18.7629 eV   66.08 nm  f=0.0165  <S**2>=0.000
       7 -> 22         0.14581
       9 -> 27         0.17994
      11 -> 31         0.63500
      12 -> 37        -0.12356

 Excited State 103:      Singlet-A'    18.7989 eV   65.95 nm  f=0.0240  <S**2>=0.000
       6 -> 17         0.12402
       7 -> 23        -0.18184
       9 -> 26        -0.20163
      10 -> 28         0.59838
      12 -> 38        -0.13397

 Excited State 104:      Singlet-A'    18.8529 eV   65.76 nm  f=0.0253  <S**2>=0.000
       7 -> 21        -0.14084
       7 -> 23        -0.30060
       8 -> 27        -0.17015
       9 -> 26         0.43043
      10 -> 28         0.18837
      12 -> 38         0.28436

 Excited State 105:      Singlet-A'    19.0295 eV   65.15 nm  f=0.2807  <S**2>=0.000
       6 -> 18        -0.36465
       8 -> 25         0.50416
      11 -> 32         0.27838

 Excited State 106:      Singlet-A'    19.0813 eV   64.98 nm  f=0.0620  <S**2>=0.000
       6 -> 18         0.10530
       8 -> 25        -0.24791
       8 -> 27        -0.17482
      11 -> 32         0.59407

 Excited State 107:      Singlet-A'    19.1365 eV   64.79 nm  f=0.0318  <S**2>=0.000
       6 -> 18         0.58125
       8 -> 25         0.35865

 Excited State 108:      Singlet-A"    19.1620 eV   64.70 nm  f=0.0013  <S**2>=0.000
       6 -> 19         0.69389

 Excited State 109:      Singlet-A"    19.3284 eV   64.15 nm  f=0.0108  <S**2>=0.000
       8 -> 26         0.69213

 Excited State 110:      Singlet-A'    19.4217 eV   63.84 nm  f=0.0440  <S**2>=0.000
       8 -> 27        -0.20620
      10 -> 29         0.66135

 Excited State 111:      Singlet-A"    19.4418 eV   63.77 nm  f=0.0058  <S**2>=0.000
       5 -> 13         0.35255
      12 -> 39         0.59927

 Excited State 112:      Singlet-A'    19.4864 eV   63.63 nm  f=0.0578  <S**2>=0.000
       6 -> 20         0.28988

 The electronic state is 1-A'.
 Alpha  occ. eigenvalues --  -24.62960 -10.21273 -10.13097  -1.18893  -0.74920
 Alpha  occ. eigenvalues --   -0.59028  -0.51637  -0.47013  -0.44546  -0.39906
 Alpha  occ. eigenvalues --   -0.35925  -0.26034
 Alpha virt. eigenvalues --   -0.00875   0.03068   0.05105   0.08341   0.10109
 Alpha virt. eigenvalues --    0.12906   0.13528   0.15097   0.16932   0.18084
 Alpha virt. eigenvalues --    0.19068   0.22724   0.24632   0.26056   0.26178

 Mulliken charges:
               1
     1  F   -0.478608
     2  C    0.609316
     3  C   -0.031898
     4  H   -0.067757
     5  H   -0.055880
     6  H    0.024828
 Sum of Mulliken charges =  -0.00000

 Dipole moment (field-independent basis, Debye):
    X=              1.1391    Y=              0.7513    Z=              0.0000  Tot=              1.3645
 Quadrupole moment (field-independent basis, Debye-Ang):
   XX=            -17.7124   YY=            -15.7132   ZZ=            -18.9212
   XY=             -0.8133   XZ=              0.0000   YZ=              0.0000

 Normal termination of Gaussian 16 at Mon Mar 21 04:05:05 2022.
