 Gaussian 16, Revision C.01,
 Gaussian 16:  EM64L-G16RevC.01  3-Jul-2019

 ---------------------------------------------------------------------
 #P TD(Nstates=10000) tpssh/Gen SCF(maxcycles=100) Int(Grid=ultrafine)
 ---------------------------------------------------------------------

 ---------------------
 xGDB7_00001_tier4.com
 ---------------------
 Symbolic Z-matrix:
 Charge =  0 Multiplicity = 1

                         Standard orientation:
 ---------------------------------------------------------------------
 Center     Atomic      Atomic             Coordinates (Angstroms)
 Number     Number       Type             X           Y           Z
 ---------------------------------------------------------------------
      1          6           0        0.000000    1.267731   -0.259082
      2          6           0       -0.000000   -0.000000    0.585552
      3          6           0       -0.000000   -1.267731   -0.259082
      4          1           0        0.000000    2.164308    0.363087
      5          1           0       -0.881453    1.307675   -0.903652
      6          1           0        0.881453    1.307675   -0.903652
      7          1           0       -0.874532    0.000000    1.242055
      8          1           0        0.874532   -0.000000    1.242055
      9          1           0       -0.881453   -1.307675   -0.903652
     10          1           0       -0.000000   -2.164308    0.363087
     11          1           0        0.881453   -1.307675   -0.903652
 ---------------------------------------------------------------------

 SCF Done:  E(RTPSSh) =  -119.075069647     A.U. after   12 cycles

 Excitation energies and oscillator strengths:

 Excited State   1:      Singlet-B1     8.6556 eV  143.24 nm  f=0.0031  <S**2>=0.000
      13 -> 14         0.70580
 This state for optimization and/or second-order correction.
 Total Energy, E(TD-HF/TD-DFT) =  -118.756981317
 Copying the excited state density for this state as the 1-particle RhoCI density.

 Excited State   2:      Singlet-B2     8.9413 eV  138.67 nm  f=0.0459  <S**2>=0.000
      11 -> 14         0.70594

 Excited State   3:      Singlet-A1     8.9669 eV  138.27 nm  f=0.0062  <S**2>=0.000
      12 -> 14         0.70240

 Excited State   4:      Singlet-A2     9.4703 eV  130.92 nm  f=0.0000  <S**2>=0.000
      13 -> 15         0.70311

 Excited State   5:      Singlet-B1     9.6630 eV  128.31 nm  f=0.1000  <S**2>=0.000
      13 -> 16         0.70572

 Excited State   6:      Singlet-B2     9.7061 eV  127.74 nm  f=0.0199  <S**2>=0.000
      12 -> 15         0.70216

 Excited State   7:      Singlet-A1     9.7774 eV  126.81 nm  f=0.0026  <S**2>=0.000
      11 -> 15         0.70063

 Excited State   8:      Singlet-A1     9.8937 eV  125.32 nm  f=0.1041  <S**2>=0.000
      12 -> 16         0.69152
      13 -> 17        -0.13706

 Excited State   9:      Singlet-B2     9.9387 eV  124.75 nm  f=0.0134  <S**2>=0.000
      11 -> 16         0.70554

 Excited State  10:      Singlet-A2    10.0843 eV  122.95 nm  f=0.0000  <S**2>=0.000
      10 -> 14         0.70241

 Excited State  11:      Singlet-A1    10.2963 eV  120.42 nm  f=0.1881  <S**2>=0.000
      12 -> 16         0.13440
      13 -> 17         0.68818

 Excited State  12:      Singlet-A2    10.4440 eV  118.71 nm  f=0.0000  <S**2>=0.000
      11 -> 17         0.70511

 Excited State  13:      Singlet-B1    10.4501 eV  118.64 nm  f=0.0878  <S**2>=0.000
      12 -> 17         0.69923

 Excited State  14:      Singlet-B2    10.6136 eV  116.82 nm  f=0.0204  <S**2>=0.000
       9 -> 14         0.69948

 Excited State  15:      Singlet-B1    10.6313 eV  116.62 nm  f=0.0005  <S**2>=0.000
      10 -> 15         0.10343
      13 -> 18         0.69394

 Excited State  16:      Singlet-B1    10.9144 eV  113.60 nm  f=0.0862  <S**2>=0.000
      10 -> 15         0.69289

 Excited State  17:      Singlet-B2    10.9330 eV  113.40 nm  f=0.2041  <S**2>=0.000
      11 -> 18         0.69485

 Excited State  18:      Singlet-A1    10.9368 eV  113.36 nm  f=0.0047  <S**2>=0.000
      12 -> 18         0.69697

 Excited State  19:      Singlet-A2    11.0727 eV  111.97 nm  f=0.0000  <S**2>=0.000
      10 -> 16         0.69749
      13 -> 21         0.10304

 Excited State  20:      Singlet-A1    11.2876 eV  109.84 nm  f=0.0002  <S**2>=0.000
       9 -> 15         0.13334
      12 -> 20        -0.10929
      13 -> 19         0.67215

 Excited State  21:      Singlet-B1    11.3533 eV  109.21 nm  f=0.0156  <S**2>=0.000
      12 -> 19         0.64380
      13 -> 20         0.27415

 Excited State  22:      Singlet-A2    11.3870 eV  108.88 nm  f=0.0000  <S**2>=0.000
      11 -> 19         0.67822
      13 -> 21        -0.18236

 Excited State  23:      Singlet-A1    11.3987 eV  108.77 nm  f=0.0966  <S**2>=0.000
       8 -> 14         0.12412
       9 -> 15         0.67715
      13 -> 19        -0.10286

 Excited State  24:      Singlet-B1    11.4311 eV  108.46 nm  f=0.0052  <S**2>=0.000
      12 -> 19        -0.28481
      13 -> 20         0.63923

 Excited State  25:      Singlet-A2    11.4913 eV  107.89 nm  f=0.0000  <S**2>=0.000
      10 -> 16        -0.10011
      11 -> 19         0.18859
      13 -> 21         0.67222

 Excited State  26:      Singlet-B2    11.5369 eV  107.47 nm  f=0.0186  <S**2>=0.000
       9 -> 16         0.58895
      10 -> 17        -0.31821
      12 -> 21         0.19388

 Excited State  27:      Singlet-B2    11.6358 eV  106.55 nm  f=0.0677  <S**2>=0.000
       9 -> 16         0.19233
      10 -> 17         0.10522
      11 -> 20         0.62579
      12 -> 21        -0.23049

 Excited State  28:      Singlet-A1    11.6475 eV  106.45 nm  f=0.0164  <S**2>=0.000
       8 -> 14         0.67077
       9 -> 15        -0.10620
      11 -> 21        -0.14255

 Excited State  29:      Singlet-B2    11.6808 eV  106.14 nm  f=0.0047  <S**2>=0.000
       9 -> 16         0.32073
      10 -> 17         0.43370
      11 -> 20        -0.28586
      12 -> 21        -0.33720

 Excited State  30:      Singlet-A1    11.7363 eV  105.64 nm  f=0.0065  <S**2>=0.000
      11 -> 21         0.10895
      12 -> 20         0.67163
      13 -> 19         0.11776

 Excited State  31:      Singlet-B2    11.7807 eV  105.24 nm  f=0.1236  <S**2>=0.000
      10 -> 17         0.43268
      12 -> 21         0.51819
      13 -> 22         0.14504

 Excited State  32:      Singlet-A1    11.8100 eV  104.98 nm  f=0.0626  <S**2>=0.000
       8 -> 14         0.13668
      11 -> 21         0.67538
      12 -> 20        -0.11738

 Excited State  33:      Singlet-B2    11.9828 eV  103.47 nm  f=0.1325  <S**2>=0.000
      12 -> 21        -0.13837
      13 -> 22         0.67504

 Excited State  34:      Singlet-A2    11.9853 eV  103.45 nm  f=0.0000  <S**2>=0.000
       9 -> 17         0.49785
      10 -> 18         0.28744
      12 -> 22        -0.40172

 Excited State  35:      Singlet-A2    12.0768 eV  102.66 nm  f=0.0000  <S**2>=0.000
       9 -> 17        -0.37584
      10 -> 18         0.56242
      12 -> 23        -0.16739

 Excited State  36:      Singlet-B1    12.1346 eV  102.17 nm  f=0.0008  <S**2>=0.000
       7 -> 14         0.19379
      11 -> 22         0.66996

 Excited State  37:      Singlet-A2    12.1984 eV  101.64 nm  f=0.0000  <S**2>=0.000
       9 -> 17         0.32813
      10 -> 18         0.22691
      12 -> 22         0.57617

 Excited State  38:      Singlet-B1    12.2056 eV  101.58 nm  f=0.1245  <S**2>=0.000
       7 -> 14         0.67403
      11 -> 22        -0.18190

 Excited State  39:      Singlet-B2    12.2462 eV  101.24 nm  f=0.0220  <S**2>=0.000
       8 -> 15         0.11677
      10 -> 19         0.14601
      13 -> 23         0.67179

 Excited State  40:      Singlet-B1    12.3792 eV  100.15 nm  f=0.0263  <S**2>=0.000
      10 -> 21        -0.10258
      11 -> 23         0.55886
      13 -> 24         0.39648

 Excited State  41:      Singlet-B1    12.4131 eV   99.88 nm  f=0.0016  <S**2>=0.000
      11 -> 23        -0.41575
      13 -> 24         0.56343

 Excited State  42:      Singlet-A2    12.4375 eV   99.69 nm  f=0.0000  <S**2>=0.000
      10 -> 18         0.17663
      10 -> 20         0.14047
      12 -> 23         0.65447

 Excited State  43:      Singlet-B2    12.4623 eV   99.49 nm  f=0.1403  <S**2>=0.000
       8 -> 15         0.66687
      10 -> 19         0.13326
      13 -> 23        -0.14545

 Excited State  44:      Singlet-B2    12.5714 eV   98.62 nm  f=0.0495  <S**2>=0.000
       9 -> 18         0.67307
      12 -> 25         0.15539

 Excited State  45:      Singlet-A1    12.5918 eV   98.46 nm  f=0.0230  <S**2>=0.000
       8 -> 16         0.68060
      11 -> 25         0.16062

 Excited State  46:      Singlet-A2    12.6286 eV   98.18 nm  f=0.0000  <S**2>=0.000
      10 -> 20         0.20458
      13 -> 25         0.66037

 Excited State  47:      Singlet-B2    12.6619 eV   97.92 nm  f=0.0112  <S**2>=0.000
       8 -> 15        -0.12942
       9 -> 20        -0.10752
      10 -> 19         0.61990
      11 -> 24         0.23354
      12 -> 25         0.11590

 Excited State  48:      Singlet-A1    12.6778 eV   97.80 nm  f=0.0021  <S**2>=0.000
       8 -> 16        -0.13377
      11 -> 25         0.28742
      12 -> 24         0.62112

 Excited State  49:      Singlet-A2    12.7582 eV   97.18 nm  f=0.0000  <S**2>=0.000
       9 -> 19         0.12483
      10 -> 20         0.64151
      12 -> 23        -0.12879
      13 -> 25        -0.21587

 Excited State  50:      Singlet-B2    12.7690 eV   97.10 nm  f=0.0156  <S**2>=0.000
      10 -> 19        -0.19608
      11 -> 24         0.64930
      12 -> 25        -0.11752

 Excited State  51:      Singlet-B1    12.8917 eV   96.17 nm  f=0.0419  <S**2>=0.000
       7 -> 16        -0.13099
      10 -> 21         0.68010
      13 -> 24         0.11872

 Excited State  52:      Singlet-B2    12.9207 eV   95.96 nm  f=0.0350  <S**2>=0.000
       9 -> 18        -0.15130
       9 -> 20         0.17774
      10 -> 19        -0.10434
      12 -> 25         0.64857

 Excited State  53:      Singlet-A2    12.9752 eV   95.55 nm  f=0.0000  <S**2>=0.000
       7 -> 15         0.69974

 Excited State  54:      Singlet-A1    12.9867 eV   95.47 nm  f=0.0026  <S**2>=0.000
       7 -> 17         0.10739
      10 -> 22         0.21098
      11 -> 25         0.56054
      12 -> 24        -0.25956
      13 -> 26        -0.19298

 Excited State  55:      Singlet-A2    13.0417 eV   95.07 nm  f=0.0000  <S**2>=0.000
       9 -> 19         0.68608
      10 -> 20        -0.13337

 Excited State  56:      Singlet-B1    13.1168 eV   94.52 nm  f=0.0011  <S**2>=0.000
       7 -> 16         0.25008
       8 -> 17         0.65033

 Excited State  57:      Singlet-B1    13.1521 eV   94.27 nm  f=0.0015  <S**2>=0.000
       7 -> 16         0.64467
       8 -> 17        -0.24527
      10 -> 21         0.13749

 Excited State  58:      Singlet-A1    13.2658 eV   93.46 nm  f=0.0068  <S**2>=0.000
       8 -> 18         0.16706
       9 -> 21         0.43888
      10 -> 22         0.25480
      11 -> 25        -0.10549
      13 -> 26        -0.42395

 Excited State  59:      Singlet-A2    13.3227 eV   93.06 nm  f=0.0000  <S**2>=0.000
      13 -> 27         0.68682

 Excited State  60:      Singlet-B2    13.3459 eV   92.90 nm  f=0.0014  <S**2>=0.000
       9 -> 20         0.61072
      11 -> 28        -0.14318
      12 -> 25        -0.12733
      12 -> 27         0.26334

 Excited State  61:      Singlet-B1    13.4043 eV   92.50 nm  f=0.0096  <S**2>=0.000
      12 -> 26         0.58402
      13 -> 28        -0.35948

 Excited State  62:      Singlet-A1    13.4115 eV   92.45 nm  f=0.0498  <S**2>=0.000
       9 -> 21         0.28307
      10 -> 22         0.38635
      10 -> 23        -0.14074
      13 -> 26         0.46503

 Excited State  63:      Singlet-A2    13.4807 eV   91.97 nm  f=0.0000  <S**2>=0.000
      11 -> 26         0.69455

 Excited State  64:      Singlet-A1    13.5163 eV   91.73 nm  f=0.0379  <S**2>=0.000
       8 -> 18         0.51068
       9 -> 21        -0.25481
      10 -> 22         0.21204
      11 -> 27        -0.29833
      13 -> 26         0.11652

 Excited State  65:      Singlet-A1    13.5560 eV   91.46 nm  f=0.0094  <S**2>=0.000
       7 -> 17        -0.37564
       9 -> 21        -0.24265
      10 -> 22         0.29156
      11 -> 27         0.38622
      13 -> 29        -0.17838

 Excited State  66:      Singlet-B1    13.5957 eV   91.19 nm  f=0.0348  <S**2>=0.000
       9 -> 22        -0.27810
       9 -> 23        -0.11867
      12 -> 26         0.32005
      12 -> 29        -0.25692
      13 -> 28         0.47909

 Excited State  67:      Singlet-B2    13.6125 eV   91.08 nm  f=0.0551  <S**2>=0.000
       9 -> 20        -0.17209
      11 -> 28         0.31606
      12 -> 27         0.59562

 Excited State  68:      Singlet-A1    13.6816 eV   90.62 nm  f=0.0165  <S**2>=0.000
       7 -> 17         0.33577
       8 -> 18         0.29016
      10 -> 22        -0.15985
      10 -> 23        -0.22647
      11 -> 27         0.40214
      12 -> 28         0.22884

 Excited State  69:      Singlet-A1    13.7865 eV   89.93 nm  f=0.0083  <S**2>=0.000
       7 -> 17         0.17655
      10 -> 23         0.53703
      12 -> 28         0.25526
      13 -> 29        -0.28873

 Excited State  70:      Singlet-B1    13.8004 eV   89.84 nm  f=0.0477  <S**2>=0.000
       7 -> 18         0.14240
       9 -> 22         0.61853
      10 -> 25        -0.12960
      12 -> 26         0.17988
      13 -> 28         0.18488

 Excited State  71:      Singlet-A1    13.8105 eV   89.78 nm  f=0.0313  <S**2>=0.000
       7 -> 17        -0.18701
       8 -> 18        -0.15017
      10 -> 23        -0.22917
      11 -> 27        -0.19642
      12 -> 28         0.56916

 Excited State  72:      Singlet-A2    13.8208 eV   89.71 nm  f=0.0000  <S**2>=0.000
      10 -> 24         0.69758

 Excited State  73:      Singlet-A1    13.9133 eV   89.11 nm  f=0.0793  <S**2>=0.000
       8 -> 20         0.20630
       9 -> 25        -0.11599
      10 -> 23         0.17939
      11 -> 27         0.13103
      12 -> 28         0.22262
      13 -> 29         0.55932

 Excited State  74:      Singlet-A2    13.9534 eV   88.86 nm  f=0.0000  <S**2>=0.000
      11 -> 29         0.69624

 Excited State  75:      Singlet-B2    13.9987 eV   88.57 nm  f=0.0876  <S**2>=0.000
       8 -> 21        -0.11310
       9 -> 20         0.18831
      11 -> 28         0.57529
      12 -> 27        -0.23292
      12 -> 30         0.14829

 Excited State  76:      Singlet-B1    14.0040 eV   88.53 nm  f=0.0002  <S**2>=0.000
       7 -> 18         0.33207
       8 -> 19        -0.30592
       9 -> 22        -0.10222
       9 -> 23         0.39213
      10 -> 25        -0.33524

 Excited State  77:      Singlet-B1    14.0209 eV   88.43 nm  f=0.0082  <S**2>=0.000
       7 -> 18         0.14786
       9 -> 22        -0.10971
       9 -> 23        -0.19709
      10 -> 25        -0.13766
      12 -> 29         0.60686
      13 -> 28         0.15715

 Excited State  78:      Singlet-B1    14.1196 eV   87.81 nm  f=0.0121  <S**2>=0.000
       8 -> 19         0.56586
       9 -> 23         0.36812
      10 -> 25        -0.17123

 Excited State  79:      Singlet-B1    14.1682 eV   87.51 nm  f=0.0000  <S**2>=0.000
       7 -> 18         0.44498
       8 -> 19         0.13525
       9 -> 23         0.14717
      10 -> 25         0.50572

 Excited State  80:      Singlet-A1    14.3099 eV   86.64 nm  f=0.0371  <S**2>=0.000
       7 -> 17         0.24211
       7 -> 19        -0.10734
       8 -> 18        -0.18104
       8 -> 20         0.46120
       9 -> 21        -0.17541
       9 -> 25         0.17665
      10 -> 22         0.13180
      10 -> 23        -0.11965
      11 -> 25        -0.13024
      11 -> 27        -0.11181
      11 -> 30         0.11629
      13 -> 26        -0.10960

 Excited State  81:      Singlet-B2    14.3727 eV   86.26 nm  f=0.1213  <S**2>=0.000
       9 -> 24         0.68339

 Excited State  82:      Singlet-B1    14.4493 eV   85.81 nm  f=0.1910  <S**2>=0.000
       7 -> 18        -0.32377
       7 -> 20        -0.18711
       8 -> 19        -0.14697
       9 -> 23         0.25277
      10 -> 25         0.20121
      10 -> 27         0.38657
      12 -> 29         0.17321
      13 -> 28         0.19697

 Excited State  83:      Singlet-B2    14.4799 eV   85.63 nm  f=0.0013  <S**2>=0.000
       8 -> 21         0.64826
      10 -> 26         0.21116

 Excited State  84:      Singlet-A1    14.5784 eV   85.05 nm  f=0.0705  <S**2>=0.000
       7 -> 19         0.10940
       8 -> 20        -0.19144
       9 -> 25         0.62524
      11 -> 30        -0.13612
      13 -> 29         0.11291

 Excited State  85:      Singlet-A2    14.6336 eV   84.73 nm  f=0.0000  <S**2>=0.000
      13 -> 30         0.69341

 Excited State  86:      Singlet-A1    14.6676 eV   84.53 nm  f=0.1052  <S**2>=0.000
       7 -> 17        -0.22385
       7 -> 19         0.37210
       8 -> 18         0.13406
       8 -> 20         0.39400
       9 -> 21         0.15032
       9 -> 25         0.12875
      10 -> 22        -0.17039

 Excited State  87:      Singlet-B2    14.7728 eV   83.93 nm  f=0.1043  <S**2>=0.000
       8 -> 21        -0.20821
      10 -> 26         0.64955
      10 -> 29        -0.11553

 Excited State  88:      Singlet-A1    14.7889 eV   83.84 nm  f=0.0587  <S**2>=0.000
       7 -> 17         0.16174
       7 -> 19         0.54954
       8 -> 18        -0.14101
       8 -> 20        -0.12807
       9 -> 21        -0.12333
       9 -> 25        -0.17037
      10 -> 22         0.10326
      12 -> 31         0.12635

 Excited State  89:      Singlet-A2    14.8191 eV   83.66 nm  f=0.0000  <S**2>=0.000
       8 -> 22         0.69472

 Excited State  90:      Singlet-B1    14.8839 eV   83.30 nm  f=0.0273  <S**2>=0.000
       7 -> 20         0.56537
      10 -> 27         0.40139

 Excited State  91:      Singlet-B2    14.9122 eV   83.14 nm  f=0.0179  <S**2>=0.000
      11 -> 31         0.28549
      12 -> 30         0.61621

 Excited State  92:      Singlet-A2    14.9271 eV   83.06 nm  f=0.0000  <S**2>=0.000
       7 -> 21         0.33632
       8 -> 23         0.26294
       9 -> 26        -0.27192
      10 -> 28         0.48507

 Excited State  93:      Singlet-A2    14.9762 eV   82.79 nm  f=0.0000  <S**2>=0.000
       7 -> 21         0.61285
       9 -> 26         0.16508
      10 -> 28        -0.29487

 Excited State  94:      Singlet-B1    14.9772 eV   82.78 nm  f=0.1392  <S**2>=0.000
      10 -> 27         0.14932
      13 -> 31         0.67544

 Excited State  95:      Singlet-A1    15.0591 eV   82.33 nm  f=0.0274  <S**2>=0.000
       6 -> 14        -0.11417
       8 -> 24        -0.10307
       9 -> 27        -0.28456
      11 -> 30         0.59149
      12 -> 31        -0.11480

 Excited State  96:      Singlet-B1    15.1090 eV   82.06 nm  f=0.5018  <S**2>=0.000
       7 -> 18         0.13787
       7 -> 20        -0.35247
       7 -> 24         0.11146
       8 -> 19         0.13757
       9 -> 23        -0.21108
      10 -> 25        -0.11419
      10 -> 27         0.38290
      12 -> 29        -0.12989
      13 -> 28        -0.11610
      13 -> 31        -0.18912

 Excited State  97:      Singlet-A2    15.1582 eV   81.79 nm  f=0.0000  <S**2>=0.000
       8 -> 23         0.63667
       9 -> 26         0.22327
      10 -> 28        -0.16091

 Excited State  98:      Singlet-B2    15.1719 eV   81.72 nm  f=0.0292  <S**2>=0.000
      10 -> 26         0.11799
      10 -> 29         0.64182
      11 -> 31         0.21744

 Excited State  99:      Singlet-A2    15.2403 eV   81.35 nm  f=0.0000  <S**2>=0.000
       9 -> 26         0.57600
       9 -> 29        -0.15454
      10 -> 28         0.34715

 Excited State 100:      Singlet-A1    15.2639 eV   81.23 nm  f=0.0188  <S**2>=0.000
       6 -> 14        -0.16074
       8 -> 24        -0.33738
       9 -> 27         0.49223
      11 -> 30         0.10207
      12 -> 31        -0.29976

 Excited State 101:      Singlet-A1    15.3485 eV   80.78 nm  f=0.0788  <S**2>=0.000
       8 -> 24        -0.37803
      12 -> 31         0.56656

 Excited State 102:      Singlet-B2    15.3992 eV   80.51 nm  f=0.0722  <S**2>=0.000
       7 -> 22         0.42334
       7 -> 23         0.13686
       9 -> 28         0.47739
      11 -> 31         0.23587

 Excited State 103:      Singlet-B2    15.4490 eV   80.25 nm  f=0.0099  <S**2>=0.000
       7 -> 22        -0.43641
       8 -> 25         0.29898
       9 -> 28         0.44411

 Excited State 104:      Singlet-A1    15.4762 eV   80.11 nm  f=0.2261  <S**2>=0.000
       6 -> 14         0.55877
       8 -> 24        -0.33807
       9 -> 27        -0.14129
      12 -> 31        -0.17138

 Excited State 105:      Singlet-A2    15.6303 eV   79.32 nm  f=0.0000  <S**2>=0.000
       9 -> 29         0.67376
      10 -> 28         0.12361

 Excited State 106:      Singlet-B2    15.6509 eV   79.22 nm  f=0.3912  <S**2>=0.000
       7 -> 23         0.20843
       8 -> 25         0.38399
       9 -> 28        -0.25337
      10 -> 29        -0.20745
      11 -> 31         0.37339
      12 -> 30        -0.14994

 Excited State 107:      Singlet-B2    15.7055 eV   78.94 nm  f=0.0486  <S**2>=0.000
       7 -> 22        -0.25158
       7 -> 23         0.47493
       8 -> 25        -0.41795

 Excited State 108:      Singlet-A1    15.8284 eV   78.33 nm  f=0.2705  <S**2>=0.000
       6 -> 14         0.35219
       8 -> 24         0.30517
       9 -> 27         0.32099
      11 -> 30         0.24816
      11 -> 32        -0.11263
      12 -> 31         0.10539
      12 -> 33         0.12887

 Excited State 109:      Singlet-B2    15.8932 eV   78.01 nm  f=0.2025  <S**2>=0.000
       6 -> 15         0.21620
       7 -> 22         0.14813
       7 -> 23         0.42222
       8 -> 25         0.22964
       8 -> 27        -0.14867
      11 -> 31        -0.29199
      12 -> 30         0.17350
      12 -> 32        -0.12516
      13 -> 34        -0.11961

 Excited State 110:      Singlet-B1    15.9318 eV   77.82 nm  f=0.0335  <S**2>=0.000
       7 -> 24         0.68690

 Excited State 111:      Singlet-B1    16.0354 eV   77.32 nm  f=0.0038  <S**2>=0.000
      10 -> 30         0.69926

 Excited State 112:      Singlet-A2    16.1546 eV   76.75 nm  f=0.0000  <S**2>=0.000
       7 -> 25         0.67984
      13 -> 32         0.14629

 Excited State 113:      Singlet-B1    16.1580 eV   76.73 nm  f=0.0484  <S**2>=0.000
       8 -> 26         0.64268
      13 -> 33        -0.25369

 Excited State 114:      Singlet-B2    16.2281 eV   76.40 nm  f=0.0002  <S**2>=0.000
       6 -> 15         0.23688
       8 -> 27         0.61399
      13 -> 34        -0.22879

 Excited State 115:      Singlet-B2    16.2898 eV   76.11 nm  f=0.0886  <S**2>=0.000
       6 -> 15         0.50620
      13 -> 34         0.47835

 Excited State 116:      Singlet-A2    16.3149 eV   75.99 nm  f=0.0000  <S**2>=0.000
       7 -> 25        -0.13573
      10 -> 31        -0.26623
      13 -> 32         0.63235

 Excited State 117:      Singlet-B1    16.3246 eV   75.95 nm  f=0.0543  <S**2>=0.000
       8 -> 26         0.25236

 The electronic state is 1-A1.
 Alpha  occ. eigenvalues --  -10.11912 -10.11302 -10.11300  -0.75430  -0.65520
 Alpha  occ. eigenvalues --   -0.56096  -0.44053  -0.42007  -0.38205  -0.36467
 Alpha  occ. eigenvalues --   -0.32204  -0.32106  -0.31260
 Alpha virt. eigenvalues --    0.02423   0.05243   0.05975   0.08143   0.09820
 Alpha virt. eigenvalues --    0.11740   0.12619   0.12817   0.14367   0.15509
 Alpha virt. eigenvalues --    0.16385   0.17256   0.19298   0.19822   0.20502

 Mulliken charges:
               1
     1  C    0.297291
     2  C   -0.588898
     3  C    0.297291
     4  H   -0.004936
     5  H    0.020989
     6  H    0.020989
     7  H   -0.039884
     8  H   -0.039884
     9  H    0.020989
    10  H   -0.004936
    11  H    0.020989
 Sum of Mulliken charges =  -0.00000

 Dipole moment (field-independent basis, Debye):
    X=             -0.0000    Y=             -0.0000    Z=              0.0908  Tot=              0.0908
 Quadrupole moment (field-independent basis, Debye-Ang):
   XX=            -21.4706   YY=            -22.3407   ZZ=            -21.9569
   XY=             -0.0000   XZ=             -0.0000   YZ=              0.0000

 Normal termination of Gaussian 16 at Mon Mar 21 20:11:24 2022.
