 Gaussian 16, Revision C.01,
 Gaussian 16:  EM64L-G16RevC.01  3-Jul-2019

 ---------------------------------------------------------------------
 #P TD(Nstates=10000) tpssh/Gen SCF(maxcycles=100) Int(Grid=ultrafine)
 ---------------------------------------------------------------------

 ---------------------
 xGDB7_00001_tier4.com
 ---------------------
 Symbolic Z-matrix:
 Charge =  0 Multiplicity = 1

                         Standard orientation:
 ---------------------------------------------------------------------
 Center     Atomic      Atomic             Coordinates (Angstroms)
 Number     Number       Type             X           Y           Z
 ---------------------------------------------------------------------
      1          6           0        0.926251   -0.719055    0.000000
      2          6           0        0.000000    0.459276    0.000000
      3          8           0       -1.196998    0.387136    0.000000
      4          1           0        1.575965   -0.668678    0.877698
      5          1           0        1.575965   -0.668678   -0.877698
      6          1           0        0.366733   -1.652236    0.000000
      7          1           0        0.499813    1.451182    0.000000
 ---------------------------------------------------------------------

 SCF Done:  E(RTPSSh) =  -153.733639599     A.U. after   12 cycles

 Excitation energies and oscillator strengths:

 Excited State   1:      Singlet-A"     4.4479 eV  278.75 nm  f=0.0000  <S**2>=0.000
      12 -> 13         0.70680
 This state for optimization and/or second-order correction.
 Total Energy, E(TD-HF/TD-DFT) =  -153.570181521
 Copying the excited state density for this state as the 1-particle RhoCI density.

 Excited State   2:      Singlet-A'     6.8494 eV  181.02 nm  f=0.0208  <S**2>=0.000
      12 -> 14         0.69997

 Excited State   3:      Singlet-A'     7.5396 eV  164.44 nm  f=0.0692  <S**2>=0.000
      12 -> 15         0.70224

 Excited State   4:      Singlet-A"     8.5036 eV  145.80 nm  f=0.0098  <S**2>=0.000
      10 -> 13        -0.32859
      12 -> 16         0.62437

 Excited State   5:      Singlet-A"     8.5601 eV  144.84 nm  f=0.0077  <S**2>=0.000
      10 -> 13         0.62403
      12 -> 16         0.32673

 Excited State   6:      Singlet-A'     8.5998 eV  144.17 nm  f=0.0670  <S**2>=0.000
      11 -> 13        -0.18864
      12 -> 17         0.67503

 Excited State   7:      Singlet-A'     8.8866 eV  139.52 nm  f=0.1081  <S**2>=0.000
      11 -> 13         0.30006
      12 -> 17         0.14807
      12 -> 18         0.61272

 Excited State   8:      Singlet-A'     9.1255 eV  135.87 nm  f=0.1579  <S**2>=0.000
       8 -> 13        -0.23189
      11 -> 13         0.52943
      12 -> 17         0.12797
      12 -> 18        -0.33802

 Excited State   9:      Singlet-A"     9.3180 eV  133.06 nm  f=0.0003  <S**2>=0.000
       9 -> 13         0.23423
      12 -> 19         0.66591

 Excited State  10:      Singlet-A'     9.4195 eV  131.62 nm  f=0.0666  <S**2>=0.000
      12 -> 20         0.70185

 Excited State  11:      Singlet-A"     9.4667 eV  130.97 nm  f=0.0001  <S**2>=0.000
       9 -> 13         0.66301
      12 -> 19        -0.23359

 Excited State  12:      Singlet-A"     9.8658 eV  125.67 nm  f=0.0050  <S**2>=0.000
      11 -> 14         0.70571

 Excited State  13:      Singlet-A'     9.8692 eV  125.63 nm  f=0.0106  <S**2>=0.000
      12 -> 21         0.69870

 Excited State  14:      Singlet-A"    10.5447 eV  117.58 nm  f=0.0023  <S**2>=0.000
       7 -> 13        -0.15958
      12 -> 22         0.68726

 Excited State  15:      Singlet-A"    10.6057 eV  116.90 nm  f=0.0236  <S**2>=0.000
       7 -> 13        -0.33814
      11 -> 15         0.61444

 Excited State  16:      Singlet-A'    10.6089 eV  116.87 nm  f=0.0200  <S**2>=0.000
       8 -> 13         0.29672
      10 -> 14         0.62678

 Excited State  17:      Singlet-A"    10.6688 eV  116.21 nm  f=0.0000  <S**2>=0.000
       7 -> 13         0.58995
      11 -> 15         0.34547
      12 -> 22         0.14744

 Excited State  18:      Singlet-A'    10.7948 eV  114.86 nm  f=0.0763  <S**2>=0.000
       8 -> 13         0.51728
      10 -> 14        -0.31751
      11 -> 13         0.15788
      12 -> 23        -0.28655

 Excited State  19:      Singlet-A'    11.1894 eV  110.80 nm  f=0.0243  <S**2>=0.000
       8 -> 13         0.17618
      12 -> 23         0.47700
      12 -> 24         0.46754

 Excited State  20:      Singlet-A'    11.3556 eV  109.18 nm  f=0.0249  <S**2>=0.000
       8 -> 13        -0.14887
       9 -> 14        -0.16542
      10 -> 15         0.22315
      11 -> 13        -0.10756
      12 -> 23        -0.37324
      12 -> 24         0.46765

 Excited State  21:      Singlet-A'    11.4417 eV  108.36 nm  f=0.1348  <S**2>=0.000
      10 -> 15         0.65498
      11 -> 16         0.16432
      12 -> 24        -0.17310

 Excited State  22:      Singlet-A'    11.6314 eV  106.59 nm  f=0.0240  <S**2>=0.000
       9 -> 14         0.49922
      11 -> 16        -0.48729

 Excited State  23:      Singlet-A'    11.6776 eV  106.17 nm  f=0.0565  <S**2>=0.000
       9 -> 14        -0.35495
      11 -> 16        -0.37335
      12 -> 25         0.45193

 Excited State  24:      Singlet-A"    11.7024 eV  105.95 nm  f=0.0535  <S**2>=0.000
      11 -> 17         0.70174

 Excited State  25:      Singlet-A'    11.8328 eV  104.78 nm  f=0.0008  <S**2>=0.000
       9 -> 14         0.29665
      11 -> 16         0.27901
      12 -> 24         0.13391
      12 -> 25         0.52274

 Excited State  26:      Singlet-A"    11.9699 eV  103.58 nm  f=0.1161  <S**2>=0.000
       8 -> 14         0.66147
      11 -> 18         0.23472

 Excited State  27:      Singlet-A"    11.9976 eV  103.34 nm  f=0.0074  <S**2>=0.000
       8 -> 14        -0.23465
      11 -> 18         0.65788

 Excited State  28:      Singlet-A"    12.3167 eV  100.66 nm  f=0.0034  <S**2>=0.000
      10 -> 16         0.69008

 Excited State  29:      Singlet-A'    12.3670 eV  100.25 nm  f=0.0286  <S**2>=0.000
       9 -> 15         0.68715
      11 -> 19         0.11902

 Excited State  30:      Singlet-A"    12.5017 eV   99.17 nm  f=0.0069  <S**2>=0.000
       8 -> 15         0.15711
      11 -> 20         0.67479

 Excited State  31:      Singlet-A'    12.5427 eV   98.85 nm  f=0.0264  <S**2>=0.000
      10 -> 17         0.60421
      11 -> 19        -0.33720

 Excited State  32:      Singlet-A'    12.6200 eV   98.24 nm  f=0.0013  <S**2>=0.000
       7 -> 14        -0.15071
       9 -> 15        -0.11382
      10 -> 17         0.32371
      10 -> 18        -0.11553
      11 -> 19         0.56103

 Excited State  33:      Singlet-A"    12.6443 eV   98.06 nm  f=0.0112  <S**2>=0.000
      12 -> 26         0.69564

 Excited State  34:      Singlet-A"    12.7120 eV   97.53 nm  f=0.0058  <S**2>=0.000
       8 -> 15         0.67337
      11 -> 20        -0.15942
      11 -> 21        -0.10182

 Excited State  35:      Singlet-A'    12.8246 eV   96.68 nm  f=0.0543  <S**2>=0.000
       7 -> 14         0.63972
      10 -> 18        -0.25857

 Excited State  36:      Singlet-A'    12.9383 eV   95.83 nm  f=0.0964  <S**2>=0.000
       7 -> 14         0.22196
       8 -> 16         0.10922
       9 -> 17         0.13706
      10 -> 18         0.60694
      11 -> 22         0.10409

 Excited State  37:      Singlet-A"    12.9659 eV   95.62 nm  f=0.0014  <S**2>=0.000
      11 -> 21         0.68990

 Excited State  38:      Singlet-A"    13.1946 eV   93.97 nm  f=0.0065  <S**2>=0.000
      10 -> 19        -0.26014
      12 -> 27         0.65024

 Excited State  39:      Singlet-A"    13.2684 eV   93.44 nm  f=0.0257  <S**2>=0.000
       9 -> 16         0.32713
      10 -> 19         0.54304
      12 -> 27         0.25633

 Excited State  40:      Singlet-A'    13.2830 eV   93.34 nm  f=0.0185  <S**2>=0.000
       8 -> 16         0.15063
      10 -> 20         0.65812
      11 -> 22         0.13499

 Excited State  41:      Singlet-A"    13.3409 eV   92.94 nm  f=0.0067  <S**2>=0.000
       9 -> 16         0.62015
      10 -> 19        -0.31451

 Excited State  42:      Singlet-A'    13.4523 eV   92.17 nm  f=0.0414  <S**2>=0.000
       9 -> 17         0.67207
      10 -> 18        -0.11289

 Excited State  43:      Singlet-A'    13.5177 eV   91.72 nm  f=0.0781  <S**2>=0.000
       7 -> 15         0.65851
      10 -> 20        -0.12796
      11 -> 22         0.10018

 Excited State  44:      Singlet-A'    13.5891 eV   91.24 nm  f=0.0197  <S**2>=0.000
       9 -> 18         0.25719
      12 -> 28         0.64524

 Excited State  45:      Singlet-A"    13.6506 eV   90.83 nm  f=0.0000  <S**2>=0.000
       6 -> 13         0.56690
       8 -> 17        -0.31639
       8 -> 18         0.16808
      11 -> 23        -0.13624

 Excited State  46:      Singlet-A'    13.6920 eV   90.55 nm  f=0.0325  <S**2>=0.000
       7 -> 15         0.19612
       8 -> 16        -0.25377
      10 -> 21         0.54959
      11 -> 22        -0.22357

 Excited State  47:      Singlet-A'    13.7339 eV   90.28 nm  f=0.0063  <S**2>=0.000
       8 -> 16        -0.33901
       9 -> 18         0.21313
      10 -> 21         0.14261
      11 -> 22         0.54651

 Excited State  48:      Singlet-A"    13.8544 eV   89.49 nm  f=0.0032  <S**2>=0.000
       6 -> 13         0.19105
       8 -> 17         0.59321
       8 -> 18         0.25819
      11 -> 23        -0.15800

 Excited State  49:      Singlet-A'    13.8831 eV   89.31 nm  f=0.0862  <S**2>=0.000
       9 -> 18         0.53811
      11 -> 22        -0.23036
      12 -> 28        -0.20871
      12 -> 29         0.26360

 Excited State  50:      Singlet-A'    14.0872 eV   88.01 nm  f=0.0176  <S**2>=0.000
       7 -> 17        -0.12764
       8 -> 16         0.43832
       9 -> 20         0.24352
       9 -> 21        -0.12419
      10 -> 21         0.35420
      11 -> 22         0.15030

 Excited State  51:      Singlet-A"    14.0906 eV   87.99 nm  f=0.0446  <S**2>=0.000
       6 -> 13        -0.19987
       8 -> 17        -0.13741
       8 -> 18         0.55089
       9 -> 19         0.23158
      10 -> 22         0.14369
      11 -> 24         0.12480
      11 -> 25         0.13657

 Excited State  52:      Singlet-A"    14.1340 eV   87.72 nm  f=0.0060  <S**2>=0.000
       6 -> 13         0.15940
       8 -> 20         0.13841
       9 -> 19         0.14357
      11 -> 23         0.63523

 Excited State  53:      Singlet-A"    14.1660 eV   87.52 nm  f=0.0000  <S**2>=0.000
       8 -> 18        -0.24957
       9 -> 19         0.62173
      10 -> 22         0.11006
      11 -> 23        -0.15776

 Excited State  54:      Singlet-A'    14.3045 eV   86.67 nm  f=0.0444  <S**2>=0.000
       7 -> 17         0.10097
       8 -> 16        -0.14051
       9 -> 20         0.64231

 Excited State  55:      Singlet-A"    14.3524 eV   86.39 nm  f=0.0092  <S**2>=0.000
       7 -> 16         0.25756
       9 -> 19        -0.17674
      10 -> 22         0.61817

 Excited State  56:      Singlet-A'    14.3738 eV   86.26 nm  f=0.1842  <S**2>=0.000
       7 -> 17        -0.14756
       9 -> 18        -0.17734
       9 -> 21         0.16698
      12 -> 29         0.59535

 Excited State  57:      Singlet-A"    14.4046 eV   86.07 nm  f=0.0011  <S**2>=0.000
       7 -> 16         0.20085
      11 -> 24         0.66066

 Excited State  58:      Singlet-A"    14.4795 eV   85.63 nm  f=0.0025  <S**2>=0.000
       7 -> 16         0.55780
       8 -> 20        -0.27151
      10 -> 22        -0.20611
      11 -> 24        -0.17435
      11 -> 25         0.16248

 Excited State  59:      Singlet-A'    14.6310 eV   84.74 nm  f=0.0028  <S**2>=0.000
       7 -> 17         0.51861
       7 -> 18        -0.13414
       8 -> 19        -0.36594
       9 -> 21        -0.20024

 Excited State  60:      Singlet-A'    14.6916 eV   84.39 nm  f=0.0801  <S**2>=0.000
       7 -> 17         0.26591
       8 -> 19         0.53356
       9 -> 21        -0.24482
      12 -> 29         0.12329
      12 -> 30         0.15638

 Excited State  61:      Singlet-A"    14.6928 eV   84.38 nm  f=0.0126  <S**2>=0.000
       7 -> 16         0.10744
       8 -> 20         0.54718
       8 -> 21        -0.12866
      11 -> 25         0.38743

 Excited State  62:      Singlet-A'    14.8120 eV   83.71 nm  f=0.0338  <S**2>=0.000
       7 -> 17         0.24443
       7 -> 18        -0.30339
       8 -> 16         0.10467
       8 -> 19         0.13778
       9 -> 21         0.52647

 Excited State  63:      Singlet-A'    14.9429 eV   82.97 nm  f=0.0179  <S**2>=0.000
       7 -> 18         0.44806
       9 -> 21         0.18653
      10 -> 23         0.25665
      12 -> 30         0.38716
      12 -> 32        -0.11204

 Excited State  64:      Singlet-A"    14.9789 eV   82.77 nm  f=0.2354  <S**2>=0.000
       6 -> 13         0.15873
       7 -> 16        -0.18044
       7 -> 19         0.23780
       8 -> 20        -0.19982
       8 -> 21         0.18376
      10 -> 22         0.12484
      11 -> 25         0.48784
      12 -> 31        -0.11270

 Excited State  65:      Singlet-A'    15.0517 eV   82.37 nm  f=0.0485  <S**2>=0.000
       7 -> 17        -0.13950
       7 -> 18        -0.33852
       7 -> 20        -0.12440
       9 -> 21        -0.13773
      10 -> 23         0.37855
      12 -> 30         0.35043
      12 -> 32         0.13863

 Excited State  66:      Singlet-A"    15.0729 eV   82.26 nm  f=0.0153  <S**2>=0.000
       7 -> 19        -0.18215
       8 -> 21         0.62137
      12 -> 31         0.22212

 Excited State  67:      Singlet-A"    15.1355 eV   81.92 nm  f=0.0494  <S**2>=0.000
       8 -> 21        -0.18110
      12 -> 31         0.65838

 Excited State  68:      Singlet-A'    15.1738 eV   81.71 nm  f=0.0822  <S**2>=0.000
       9 -> 23        -0.11884
      10 -> 23         0.48578
      12 -> 30        -0.40802

 Excited State  69:      Singlet-A'    15.2466 eV   81.32 nm  f=0.1267  <S**2>=0.000
       7 -> 18        -0.10986
       7 -> 20        -0.19492
      10 -> 24         0.55117
      10 -> 25         0.11666
      12 -> 32        -0.32681

 Excited State  70:      Singlet-A'    15.3378 eV   80.84 nm  f=0.0884  <S**2>=0.000
       8 -> 22         0.15886
      10 -> 24         0.30506
      12 -> 32         0.57263

 Excited State  71:      Singlet-A"    15.3429 eV   80.81 nm  f=0.0005  <S**2>=0.000
       7 -> 19         0.29218
       9 -> 22         0.63366

 Excited State  72:      Singlet-A'    15.4690 eV   80.15 nm  f=0.0317  <S**2>=0.000
       6 -> 14         0.60023
       7 -> 20        -0.31627

 Excited State  73:      Singlet-A"    15.4979 eV   80.00 nm  f=0.2133  <S**2>=0.000
       7 -> 19         0.54747
       8 -> 20         0.13546
       8 -> 21         0.11275
       9 -> 22        -0.29250
      11 -> 25        -0.15089
      12 -> 33        -0.14126

 Excited State  74:      Singlet-A'    15.5470 eV   79.75 nm  f=0.0205  <S**2>=0.000
       7 -> 20        -0.14774
      10 -> 24        -0.14388
      10 -> 25         0.63402
      12 -> 34        -0.12840

 Excited State  75:      Singlet-A'    15.5608 eV   79.68 nm  f=0.0002  <S**2>=0.000
       6 -> 14         0.30834
       7 -> 20         0.51275
       8 -> 22         0.13543
      10 -> 24         0.13482
      10 -> 25         0.20907

 Excited State  76:      Singlet-A'    15.7515 eV   78.71 nm  f=0.0898  <S**2>=0.000
       8 -> 22         0.47927
       9 -> 23        -0.18644
      10 -> 25        -0.11367
      11 -> 26         0.25542
      12 -> 34        -0.36773

 Excited State  77:      Singlet-A'    15.8339 eV   78.30 nm  f=0.0061  <S**2>=0.000
       6 -> 15        -0.11070
       7 -> 20         0.11830
       7 -> 21         0.44737
       9 -> 23         0.34128
      11 -> 26         0.34102
      12 -> 34        -0.13354

 Excited State  78:      Singlet-A"    15.8349 eV   78.30 nm  f=0.0352  <S**2>=0.000
      12 -> 33         0.67873

 Excited State  79:      Singlet-A'    15.9247 eV   77.86 nm  f=0.0240  <S**2>=0.000
       7 -> 21         0.46655
       8 -> 22         0.11362
       9 -> 23        -0.17786
      11 -> 26        -0.41863
      12 -> 34        -0.13638
      12 -> 35        -0.14135

 Excited State  80:      Singlet-A'    15.9846 eV   77.56 nm  f=0.0464  <S**2>=0.000
       6 -> 15        -0.11661
       7 -> 21         0.14940
       8 -> 22         0.33900
       9 -> 24         0.16977
       9 -> 25         0.11000
      12 -> 34         0.44888
      12 -> 35         0.19142

 Excited State  81:      Singlet-A'    16.0804 eV   77.10 nm  f=0.1722  <S**2>=0.000
       7 -> 21        -0.16607
       8 -> 22         0.21165
       9 -> 23         0.49830
       9 -> 24        -0.17140
      10 -> 23         0.11482
      11 -> 26        -0.26691

 Excited State  82:      Singlet-A'    16.1924 eV   76.57 nm  f=0.0138  <S**2>=0.000
       9 -> 24         0.51120
      11 -> 27        -0.41185
      12 -> 35        -0.11212
      12 -> 36        -0.10837

 Excited State  83:      Singlet-A"    16.2400 eV   76.35 nm  f=0.0012  <S**2>=0.000
       8 -> 23         0.69250

 Excited State  84:      Singlet-A'    16.3605 eV   75.78 nm  f=0.0860  <S**2>=0.000
       9 -> 24         0.21494
       9 -> 25        -0.29613
      11 -> 27         0.26088
      12 -> 34        -0.15753
      12 -> 35         0.46046
      12 -> 36        -0.15284

 Excited State  85:      Singlet-A'    16.4026 eV   75.59 nm  f=0.0829  <S**2>=0.000
       6 -> 15         0.35309
       9 -> 24        -0.15999
       9 -> 25         0.16233
      11 -> 27        -0.36114
      12 -> 35         0.38546

 Excited State  86:      Singlet-A'    16.4705 eV   75.28 nm  f=0.0066  <S**2>=0.000
       6 -> 15         0.48155
       9 -> 24         0.12694
       9 -> 25        -0.32420
      11 -> 26         0.11641
      12 -> 35        -0.17778
      12 -> 36         0.19524

 Excited State  87:      Singlet-A"    16.4801 eV   75.23 nm  f=0.0019  <S**2>=0.000
       8 -> 24         0.68653

 Excited State  88:      Singlet-A"    16.5558 eV   74.89 nm  f=0.0003  <S**2>=0.000
       7 -> 22         0.53693
       8 -> 24         0.10989
      10 -> 26         0.42478
      11 -> 28        -0.10347

 Excited State  89:      Singlet-A'    16.6180 eV   74.61 nm  f=0.0717  <S**2>=0.000
       6 -> 15         0.22197
       9 -> 24         0.19039
       9 -> 25         0.47265
      11 -> 27         0.27970
      12 -> 36        -0.20752

 Excited State  90:      Singlet-A"    16.6282 eV   74.56 nm  f=0.0649  <S**2>=0.000
       7 -> 22        -0.36395
       8 -> 25         0.16871
      10 -> 26         0.52489
      11 -> 28         0.19336

 Excited State  91:      Singlet-A"    16.6604 eV   74.42 nm  f=0.0461  <S**2>=0.000
       7 -> 22         0.19373
      11 -> 28         0.66509

 Excited State  92:      Singlet-A'    16.8340 eV   73.65 nm  f=0.0358  <S**2>=0.000
       7 -> 23        -0.19648
       7 -> 24        -0.10708
       9 -> 25         0.15673
      12 -> 34        -0.11065
      12 -> 36         0.55718
      12 -> 37        -0.18092

 Excited State  93:      Singlet-A"    16.8840 eV   73.43 nm  f=0.0366  <S**2>=0.000
       8 -> 25         0.62380
      10 -> 26        -0.13356
      10 -> 27         0.24458

 Excited State  94:      Singlet-A"    17.0613 eV   72.67 nm  f=0.0049  <S**2>=0.000
       8 -> 25        -0.21623
      10 -> 27         0.65276
      11 -> 29        -0.10808

 Excited State  95:      Singlet-A'    17.1221 eV   72.41 nm  f=0.0201  <S**2>=0.000
       7 -> 23         0.48997
      12 -> 37        -0.46753

 Excited State  96:      Singlet-A"    17.1273 eV   72.39 nm  f=0.0070  <S**2>=0.000
       6 -> 16         0.69396

 Excited State  97:      Singlet-A'    17.2162 eV   72.02 nm  f=0.0469  <S**2>=0.000
       6 -> 17         0.29537
       6 -> 18        -0.11155
       7 -> 23         0.39550
       7 -> 24        -0.14798
      12 -> 36         0.12389
      12 -> 37         0.39135

 Excited State  98:      Singlet-A"    17.2308 eV   71.96 nm  f=0.0007  <S**2>=0.000
      11 -> 29         0.21532
      12 -> 38         0.66623

 Excited State  99:      Singlet-A"    17.2576 eV   71.84 nm  f=0.0522  <S**2>=0.000
       8 -> 25        -0.10675
      11 -> 29         0.63898
      12 -> 38        -0.21110

 Excited State 100:      Singlet-A'    17.3600 eV   71.42 nm  f=0.0251  <S**2>=0.000
       6 -> 17         0.59804
       6 -> 18         0.14832
       7 -> 23        -0.11957
      10 -> 28        -0.14925
      12 -> 37        -0.20958

 Excited State 101:      Singlet-A'    17.4053 eV   71.23 nm  f=0.0953  <S**2>=0.000
       6 -> 18        -0.11041
       7 -> 24         0.57212
      10 -> 28        -0.32118

 Excited State 102:      Singlet-A'    17.5102 eV   70.81 nm  f=0.1179  <S**2>=0.000
       6 -> 17         0.13436
       7 -> 24         0.28483
       7 -> 25        -0.13093
      10 -> 28         0.59126

 Excited State 103:      Singlet-A"    17.5412 eV   70.68 nm  f=0.0056  <S**2>=0.000
       9 -> 26         0.70150

 Excited State 104:      Singlet-A'    17.5975 eV   70.46 nm  f=0.0689  <S**2>=0.000
       6 -> 18         0.58306
       7 -> 25        -0.31390

 Excited State 105:      Singlet-A'    17.7833 eV   69.72 nm  f=0.1336  <S**2>=0.000
       6 -> 18         0.25655
       7 -> 25         0.55199
       8 -> 26        -0.20954
      12 -> 39        -0.17071

 Excited State 106:      Singlet-A'    17.8649 eV   69.40 nm  f=0.1022  <S**2>=0.000
       7 -> 25         0.14557
      12 -> 39         0.65444
      12 -> 41        -0.15784

 Excited State 107:      Singlet-A"    17.8904 eV   69.30 nm  f=0.0416  <S**2>=0.000
       5 -> 13        -0.17634
      12 -> 40         0.66959

 Excited State 108:      Singlet-A'    17.9635 eV   69.02 nm  f=0.0287  <S**2>=0.000
       6 -> 18         0.11042
       7 -> 25         0.12923
       8 -> 26         0.57246
      10 -> 29         0.28796

 Excited State 109:      Singlet-A"    18.0332 eV   68.75 nm  f=0.0012  <S**2>=0.000
       6 -> 19         0.61550
       9 -> 27        -0.32732

 Excited State 110:      Singlet-A"    18.0501 eV   68.69 nm  f=0.0092  <S**2>=0.000
       5 -> 13         0.28379
       6 -> 19         0.25609
       9 -> 27         0.54118
      11 -> 30        -0.16123
      12 -> 40         0.12317

 Excited State 111:      Singlet-A'    18.0546 eV   68.67 nm  f=0.0649  <S**2>=0.000
       6 -> 20        -0.15560
       8 -> 26        -0.27510
      10 -> 29         0.56476
      11 -> 31         0.24759

 Excited State 112:      Singlet-A'    18.0663 eV   68.63 nm  f=0.0177  <S**2>=0.000
       6 -> 20         0.66849
      10 -> 29         0.18873

 Excited State 113:      Singlet-A"    18.1447 eV   68.33 nm  f=0.0698  <S**2>=0.000

 The electronic state is 1-A'.
 Alpha  occ. eigenvalues --  -19.07245 -10.22128 -10.14297  -1.02380  -0.73491
 Alpha  occ. eigenvalues --   -0.56343  -0.46645  -0.43702  -0.42382  -0.38853
 Alpha  occ. eigenvalues --   -0.36039  -0.24620
 Alpha virt. eigenvalues --   -0.04842   0.02103   0.04824   0.08538   0.08950
 Alpha virt. eigenvalues --    0.10126   0.11833   0.11936   0.13510   0.16081
 Alpha virt. eigenvalues --    0.17954   0.19035   0.20285   0.24125   0.26021

 Mulliken charges:
               1
     1  C    0.204374
     2  C    0.092058
     3  O   -0.383115
     4  H    0.095154
     5  H    0.095154
     6  H    0.004048
     7  H   -0.107673
 Sum of Mulliken charges =  -0.00000

 Dipole moment (field-independent basis, Debye):
    X=              2.8066    Y=             -0.3447    Z=             -0.0000  Tot=              2.8277
 Quadrupole moment (field-independent basis, Debye-Ang):
   XX=            -21.2558   YY=            -18.0343   ZZ=            -17.9265
   XY=              0.7751   XZ=             -0.0000   YZ=              0.0000

 Normal termination of Gaussian 16 at Mon Mar 21 04:04:37 2022.
