 Gaussian 16, Revision C.01,
 Gaussian 16:  EM64L-G16RevC.01  3-Jul-2019

 ---------------------------------------------------------------------
 #P TD(Nstates=10000) tpssh/Gen SCF(maxcycles=100) Int(Grid=ultrafine)
 ---------------------------------------------------------------------

 ---------------------
 xGDB7_00001_tier4.com
 ---------------------
 Symbolic Z-matrix:
 Charge =  0 Multiplicity = 1

                         Standard orientation:
 ---------------------------------------------------------------------
 Center     Atomic      Atomic             Coordinates (Angstroms)
 Number     Number       Type             X           Y           Z
 ---------------------------------------------------------------------
      1          6           0        0.000000    0.000000   -0.524273
      2          8           0        0.000000    0.000000    0.670793
      3          1           0        0.000000    0.939221   -1.110351
      4          1           0       -0.000000   -0.939221   -1.110351
 ---------------------------------------------------------------------

 SCF Done:  E(RTPSSh) =  -114.427132544     A.U. after   10 cycles

 Excitation energies and oscillator strengths:

 Excited State   1:      Singlet-A2     4.1821 eV  296.46 nm  f=0.0000  <S**2>=0.000
       8 ->  9         0.70699
 This state for optimization and/or second-order correction.
 Total Energy, E(TD-HF/TD-DFT) =  -114.273442571
 Copying the excited state density for this state as the 1-particle RhoCI density.

 Excited State   2:      Singlet-B2     7.1302 eV  173.89 nm  f=0.0320  <S**2>=0.000
       8 -> 10         0.70640

 Excited State   3:      Singlet-A1     8.7246 eV  142.11 nm  f=0.0942  <S**2>=0.000
       8 -> 11         0.70571

 Excited State   4:      Singlet-B2     8.7607 eV  141.52 nm  f=0.0521  <S**2>=0.000
       8 -> 12         0.70201

 Excited State   5:      Singlet-B1     9.2489 eV  134.05 nm  f=0.0005  <S**2>=0.000
       6 ->  9         0.70510

 Excited State   6:      Singlet-A2     9.3851 eV  132.11 nm  f=0.0000  <S**2>=0.000
       8 -> 13         0.70682

 Excited State   7:      Singlet-A1     9.7533 eV  127.12 nm  f=0.0898  <S**2>=0.000
       7 ->  9         0.61755
       8 -> 16        -0.32231

 Excited State   8:      Singlet-B2     9.9862 eV  124.16 nm  f=0.0359  <S**2>=0.000
       8 -> 14         0.69560

 Excited State   9:      Singlet-A2    10.3643 eV  119.63 nm  f=0.0000  <S**2>=0.000
       5 ->  9         0.70661

 Excited State  10:      Singlet-B2    10.6977 eV  115.90 nm  f=0.0263  <S**2>=0.000
       8 -> 15         0.69890

 Excited State  11:      Singlet-B1    10.8859 eV  113.89 nm  f=0.0341  <S**2>=0.000
       7 -> 10         0.70637

 Excited State  12:      Singlet-A1    11.4708 eV  108.09 nm  f=0.1789  <S**2>=0.000
       6 -> 10        -0.23733
       7 ->  9         0.28065
       8 -> 16         0.58389

 Excited State  13:      Singlet-B1    11.7414 eV  105.60 nm  f=0.0133  <S**2>=0.000
       8 -> 17         0.70233

 Excited State  14:      Singlet-A1    12.2024 eV  101.61 nm  f=0.0850  <S**2>=0.000
       6 -> 10         0.65872
       7 ->  9         0.10295
       7 -> 13        -0.11243
       8 -> 16         0.18585

 Excited State  15:      Singlet-A2    12.4335 eV   99.72 nm  f=0.0000  <S**2>=0.000
       7 -> 11         0.69059
       8 -> 18         0.14962

 Excited State  16:      Singlet-A2    12.5593 eV   98.72 nm  f=0.0000  <S**2>=0.000
       7 -> 11        -0.15001
       8 -> 18         0.69026

 Excited State  17:      Singlet-B1    12.5717 eV   98.62 nm  f=0.0673  <S**2>=0.000
       7 -> 12         0.69914

 Excited State  18:      Singlet-A1    13.3218 eV   93.07 nm  f=0.0000  <S**2>=0.000
       5 -> 11         0.11152
       7 -> 13         0.67676

 Excited State  19:      Singlet-B2    13.3238 eV   93.05 nm  f=0.1335  <S**2>=0.000
       5 -> 10         0.70571

 Excited State  20:      Singlet-B2    13.5868 eV   91.25 nm  f=0.0551  <S**2>=0.000
       6 -> 11         0.70532

 Excited State  21:      Singlet-A1    13.6560 eV   90.79 nm  f=0.1773  <S**2>=0.000
       6 -> 12         0.69971

 Excited State  22:      Singlet-B1    13.6883 eV   90.58 nm  f=0.0037  <S**2>=0.000
       7 -> 14         0.69921

 Excited State  23:      Singlet-B1    14.1988 eV   87.32 nm  f=0.0014  <S**2>=0.000
       4 ->  9         0.22155
       6 -> 13         0.33944
       7 -> 15         0.57519

 Excited State  24:      Singlet-B1    14.2526 eV   86.99 nm  f=0.0307  <S**2>=0.000
       4 ->  9        -0.22050
       6 -> 13         0.61211
       7 -> 15        -0.26950

 Excited State  25:      Singlet-B2    14.2969 eV   86.72 nm  f=0.0034  <S**2>=0.000
       8 -> 19         0.70392

 Excited State  26:      Singlet-A2    14.4223 eV   85.97 nm  f=0.0000  <S**2>=0.000
       7 -> 16         0.70645

 Excited State  27:      Singlet-A1    14.6087 eV   84.87 nm  f=0.1917  <S**2>=0.000
       6 -> 14         0.15986
       8 -> 20         0.67520

 Excited State  28:      Singlet-A1    14.9015 eV   83.20 nm  f=0.0306  <S**2>=0.000
       6 -> 14         0.67339
       8 -> 20        -0.15130

 Excited State  29:      Singlet-B2    14.9889 eV   82.72 nm  f=0.0112  <S**2>=0.000
       5 -> 12         0.70212

 Excited State  30:      Singlet-B2    15.1958 eV   81.59 nm  f=0.0551  <S**2>=0.000
       7 -> 17         0.13989
       8 -> 21         0.68085

 Excited State  31:      Singlet-A1    15.2170 eV   81.48 nm  f=0.0004  <S**2>=0.000
       4 -> 10         0.10073
       5 -> 11         0.62163
       6 -> 15         0.26463

 Excited State  32:      Singlet-B1    15.2665 eV   81.21 nm  f=0.2313  <S**2>=0.000
       4 ->  9         0.59669
       5 -> 17        -0.13518
       7 -> 15        -0.29578
       8 -> 24        -0.10200

 Excited State  33:      Singlet-B2    15.5060 eV   79.96 nm  f=0.0292  <S**2>=0.000
       5 -> 14         0.12158
       6 -> 16         0.39049
       7 -> 17         0.56836

 Excited State  34:      Singlet-A1    15.5399 eV   79.78 nm  f=0.0086  <S**2>=0.000
       5 -> 11        -0.23439
       6 -> 15         0.63869
       8 -> 23         0.11264

 Excited State  35:      Singlet-B2    15.5809 eV   79.57 nm  f=0.0174  <S**2>=0.000
       5 -> 14        -0.16592
       6 -> 16         0.57626
       7 -> 17        -0.33425
       8 -> 21         0.12745

 Excited State  36:      Singlet-A2    15.6006 eV   79.47 nm  f=0.0000  <S**2>=0.000
       5 -> 13         0.70564

 Excited State  37:      Singlet-B2    16.0903 eV   77.06 nm  f=0.0370  <S**2>=0.000
       8 -> 22         0.69767

 Excited State  38:      Singlet-A1    16.3066 eV   76.03 nm  f=0.0727  <S**2>=0.000
       7 -> 18        -0.23519
       8 -> 23         0.63924

 Excited State  39:      Singlet-B2    16.4429 eV   75.40 nm  f=0.2680  <S**2>=0.000
       5 -> 14         0.63738
       5 -> 15         0.22426
       7 -> 17        -0.14769

 Excited State  40:      Singlet-A1    16.5411 eV   74.96 nm  f=0.0395  <S**2>=0.000
       5 -> 16         0.27758
       7 -> 18         0.58060
       8 -> 23         0.23567

 Excited State  41:      Singlet-A2    16.6633 eV   74.41 nm  f=0.0000  <S**2>=0.000
       6 -> 17         0.70614

 Excited State  42:      Singlet-B1    16.6913 eV   74.28 nm  f=0.1056  <S**2>=0.000
       8 -> 24         0.69702

 Excited State  43:      Singlet-A1    16.9603 eV   73.10 nm  f=0.0000  <S**2>=0.000
       4 -> 10         0.47454
       5 -> 16         0.49680
       7 -> 18        -0.13097

 Excited State  44:      Singlet-B2    16.9676 eV   73.07 nm  f=0.1738  <S**2>=0.000
       5 -> 14        -0.18390
       5 -> 15         0.65935
       7 -> 17         0.11438

 Excited State  45:      Singlet-A2    17.3164 eV   71.60 nm  f=0.0000  <S**2>=0.000
       8 -> 25         0.70638

 Excited State  46:      Singlet-B2    17.3326 eV   71.53 nm  f=0.0014  <S**2>=0.000
       8 -> 26         0.70282

 Excited State  47:      Singlet-B1    17.5096 eV   70.81 nm  f=0.0061  <S**2>=0.000
       6 -> 18         0.69848

 Excited State  48:      Singlet-A1    17.6178 eV   70.37 nm  f=0.0419  <S**2>=0.000
       4 -> 10         0.47282
       5 -> 11        -0.12075
       5 -> 16        -0.39271
       7 -> 18         0.23822

 Excited State  49:      Singlet-B1    18.0322 eV   68.76 nm  f=0.2074  <S**2>=0.000
       5 -> 17        -0.45402
       7 -> 19         0.52591

 Excited State  50:      Singlet-B1    18.1453 eV   68.33 nm  f=0.0751  <S**2>=0.000
       5 -> 17         0.49334
       7 -> 19         0.46897

 Excited State  51:      Singlet-A2    18.3242 eV   67.66 nm  f=0.0000  <S**2>=0.000
       7 -> 20         0.70649

 Excited State  52:      Singlet-B2    18.5389 eV   66.88 nm  f=0.0219  <S**2>=0.000
       4 -> 11         0.70305

 Excited State  53:      Singlet-A1    18.6443 eV   66.50 nm  f=0.0740  <S**2>=0.000
       4 -> 12         0.67734
       8 -> 27         0.15664

 Excited State  54:      Singlet-A2    18.6946 eV   66.32 nm  f=0.0000  <S**2>=0.000
       5 -> 18         0.70482

 Excited State  55:      Singlet-B1    18.9010 eV   65.60 nm  f=0.0822  <S**2>=0.000
       4 -> 13         0.13889
       7 -> 21         0.68464

 Excited State  56:      Singlet-A1    19.1683 eV   64.68 nm  f=0.0032  <S**2>=0.000
       6 -> 19         0.59115
       8 -> 27         0.36872

 Excited State  57:      Singlet-B1    19.2468 eV   64.42 nm  f=0.0004  <S**2>=0.000
       4 -> 13         0.68069
       7 -> 21        -0.12597

 Excited State  58:      Singlet-B2    19.4697 eV   63.68 nm  f=0.0200  <S**2>=0.000
       6 -> 20         0.69984

 Excited State  59:      Singlet-A1    19.7496 eV   62.78 nm  f=0.0784  <S**2>=0.000
       4 -> 14         0.54575
       6 -> 19        -0.19049
       6 -> 21         0.27209
       8 -> 27         0.25831

 Excited State  60:      Singlet-A2    19.8874 eV   62.34 nm  f=0.0000  <S**2>=0.000
       7 -> 23         0.70566

 Excited State  61:      Singlet-A1    20.0183 eV   61.94 nm  f=0.0013  <S**2>=0.000
       4 -> 14         0.43454
       4 -> 15         0.11359
       6 -> 19         0.23503
       6 -> 21        -0.34788
       7 -> 25         0.15119
       8 -> 27        -0.27307

 Excited State  62:      Singlet-B1    20.0398 eV   61.87 nm  f=0.1470  <S**2>=0.000
       7 -> 22         0.68283

 Excited State  63:      Singlet-B2    20.3507 eV   60.92 nm  f=0.0128  <S**2>=0.000
       4 -> 16         0.26678
       5 -> 19         0.15806
       7 -> 24        -0.39056
       8 -> 28         0.49324

 Excited State  64:      Singlet-A1    20.3727 eV   60.86 nm  f=0.0473  <S**2>=0.000
       4 -> 15        -0.16975
       5 -> 20         0.11567
       6 -> 19         0.16923
       6 -> 21         0.48364
       6 -> 26        -0.17801
       7 -> 25         0.22450
       8 -> 27        -0.30126

 Excited State  65:      Singlet-B2    20.4215 eV   60.71 nm  f=0.0310  <S**2>=0.000
       4 -> 16        -0.27873
       5 -> 19         0.39549
       7 -> 24         0.38531
       8 -> 28         0.32774

 Excited State  66:      Singlet-A1    20.4534 eV   60.62 nm  f=0.0089  <S**2>=0.000
       4 -> 15         0.66844
       6 -> 21         0.19458

 Excited State  67:      Singlet-B2    20.5019 eV   60.47 nm  f=0.0381  <S**2>=0.000
       4 -> 16         0.41881
       5 -> 19        -0.29313
       6 -> 23        -0.14657
       7 -> 24         0.40173
       8 -> 28         0.19144

 Excited State  68:      Singlet-B2    20.6116 eV   60.15 nm  f=0.1146  <S**2>=0.000
       4 -> 16         0.40022
       5 -> 19         0.47869
       8 -> 28        -0.30732

 Excited State  69:      Singlet-A1    20.7435 eV   59.77 nm  f=0.0164  <S**2>=0.000
       5 -> 20         0.67406

 Excited State  70:      Singlet-A1    21.0086 eV   59.02 nm  f=0.0201  <S**2>=0.000
       6 -> 22         0.69465

 Excited State  71:      Singlet-B2    21.1225 eV   58.70 nm  f=0.0193  <S**2>=0.000
       5 -> 21         0.13769
       6 -> 23         0.63843
       8 -> 30         0.22223

 Excited State  72:      Singlet-B1    21.2042 eV   58.47 nm  f=0.0022  <S**2>=0.000
       7 -> 26         0.70108

 Excited State  73:      Singlet-A1    21.2555 eV   58.33 nm  f=0.0004  <S**2>=0.000
       6 -> 19        -0.10604
       6 -> 26         0.20347
       7 -> 25         0.60650
       8 -> 27         0.13378
       8 -> 29        -0.17061

 Excited State  74:      Singlet-B2    21.3230 eV   58.15 nm  f=0.0027  <S**2>=0.000
       5 -> 21         0.68376
       6 -> 23        -0.13724

 Excited State  75:      Singlet-A2    21.4530 eV   57.79 nm  f=0.0000  <S**2>=0.000
       4 -> 17         0.64892
       6 -> 24        -0.27139

 Excited State  76:      Singlet-A2    21.5909 eV   57.42 nm  f=0.0000  <S**2>=0.000
       4 -> 17         0.27481
       6 -> 24         0.62859
       8 -> 31         0.16689

 Excited State  77:      Singlet-B2    21.6762 eV   57.20 nm  f=0.0764  <S**2>=0.000
       5 -> 22        -0.18616
       6 -> 23        -0.16780
       8 -> 30         0.63265
       8 -> 32        -0.12145

 Excited State  78:      Singlet-A2    21.7528 eV   57.00 nm  f=0.0000  <S**2>=0.000
       6 -> 24        -0.17324
       8 -> 31         0.68386

 Excited State  79:      Singlet-A1    21.8447 eV   56.76 nm  f=0.1176  <S**2>=0.000
       5 -> 20        -0.11440
       7 -> 25         0.15475
       8 -> 29         0.66197

 Excited State  80:      Singlet-B1    22.2592 eV   55.70 nm  f=0.0202  <S**2>=0.000
       4 -> 18        -0.33851
       6 -> 25         0.61856

 Excited State  81:      Singlet-B2    22.3431 eV   55.49 nm  f=0.0616  <S**2>=0.000
       5 -> 22         0.66575
       8 -> 30         0.12924
       8 -> 32        -0.14489

 Excited State  82:      Singlet-B1    22.3752 eV   55.41 nm  f=0.0146  <S**2>=0.000
       4 -> 18         0.61612
       6 -> 25         0.33300

 Excited State  83:      Singlet-A2    22.7660 eV   54.46 nm  f=0.0000  <S**2>=0.000
       7 -> 27         0.70331

 Excited State  84:      Singlet-A1    22.8623 eV   54.23 nm  f=0.0369  <S**2>=0.000
       4 -> 19         0.17438
       5 -> 23         0.65174

 Excited State  85:      Singlet-B1    22.9483 eV   54.03 nm  f=0.0650  <S**2>=0.000
       5 -> 24         0.69661

 Excited State  86:      Singlet-B2    23.0176 eV   53.86 nm  f=0.1916  <S**2>=0.000
       5 -> 26         0.18573
       6 -> 27        -0.14454
       8 -> 32         0.63917

 Excited State  87:      Singlet-A1    23.4746 eV   52.82 nm  f=0.4915  <S**2>=0.000
       4 -> 19         0.21446
       6 -> 26         0.58209
       7 -> 25        -0.10911
       8 -> 27        -0.17820

 Excited State  88:      Singlet-A2    23.4962 eV   52.77 nm  f=0.0000  <S**2>=0.000
       5 -> 25         0.70428

 Excited State  89:      Singlet-B2    23.8815 eV   51.92 nm  f=0.0547  <S**2>=0.000
       5 -> 26         0.52943
       6 -> 27         0.45659

 Excited State  90:      Singlet-B1    24.1119 eV   51.42 nm  f=0.0097  <S**2>=0.000
       3 ->  9        -0.13111
       7 -> 28         0.68511

 Excited State  91:      Singlet-B2    24.2094 eV   51.21 nm  f=0.1773  <S**2>=0.000
       4 -> 20         0.27146
       5 -> 26        -0.38103
       6 -> 27         0.45968
       6 -> 29         0.11566
       8 -> 32         0.16707

 Excited State  92:      Singlet-B2    24.3529 eV   50.91 nm  f=0.0058  <S**2>=0.000
       4 -> 20         0.64671
       5 -> 26         0.11519
       6 -> 27        -0.22043

 Excited State  93:      Singlet-A1    24.3643 eV   50.89 nm  f=0.0089  <S**2>=0.000
       4 -> 19         0.59219
       4 -> 21         0.23789
       5 -> 27        -0.17148
       6 -> 26        -0.14492
       6 -> 28         0.10209

 Excited State  94:      Singlet-B1    24.4233 eV   50.76 nm  f=0.0972  <S**2>=0.000
       3 ->  9        -0.10400
       7 -> 30        -0.14131
       8 -> 33         0.66906

 Excited State  95:      Singlet-A1    25.0891 eV   49.42 nm  f=0.1194  <S**2>=0.000
       4 -> 21        -0.38422
       6 -> 28         0.53311
       7 -> 31        -0.21290

 Excited State  96:      Singlet-A2    25.2630 eV   49.08 nm  f=0.0000  <S**2>=0.000
       7 -> 29         0.69809
       8 -> 34        -0.10466

 Excited State  97:      Singlet-B1    25.2774 eV   49.05 nm  f=0.0980  <S**2>=0.000
       3 ->  9        -0.16032
       6 -> 31         0.15856
       7 -> 30         0.65539

 Excited State  98:      Singlet-A1    25.4319 eV   48.75 nm  f=0.0013  <S**2>=0.000
       4 -> 19        -0.16398
       4 -> 21         0.48084
       4 -> 22         0.10627
       6 -> 28         0.27588
       7 -> 31        -0.32878

 Excited State  99:      Singlet-A2    25.4413 eV   48.73 nm  f=0.0000  <S**2>=0.000
       7 -> 29         0.10569
       8 -> 34         0.69700

 Excited State 100:      Singlet-A1    25.5781 eV   48.47 nm  f=0.0098  <S**2>=0.000
       4 -> 19         0.11872
       5 -> 27         0.61715
       6 -> 28        -0.11032
       6 -> 30         0.15203
       7 -> 31        -0.18063

 Excited State 101:      Singlet-A1    25.7973 eV   48.06 nm  f=0.0284  <S**2>=0.000
       4 -> 22         0.58510
       5 -> 27         0.21157
       6 -> 28         0.17230
       7 -> 31         0.26652

 Excited State 102:      Singlet-B2    25.9802 eV   47.72 nm  f=0.0506  <S**2>=0.000
       4 -> 23         0.68633
       5 -> 28         0.10929
       6 -> 29         0.11236

 Excited State 103:      Singlet-B1    25.9814 eV   47.72 nm  f=0.0089  <S**2>=0.000
       3 ->  9         0.60806
       6 -> 31         0.16408
       7 -> 28         0.11878
       7 -> 32         0.25287

 Excited State 104:      Singlet-A1    26.0218 eV   47.65 nm  f=0.0032  <S**2>=0.000
       4 -> 21         0.15816
       4 -> 22        -0.34568
       5 -> 27         0.16474
       6 -> 28         0.24991
       6 -> 30        -0.31510
       7 -> 31         0.36071

 Excited State 105:      Singlet-B1    26.4080 eV   46.95 nm  f=0.0067  <S**2>=0.000
       3 ->  9        -0.10269
       6 -> 31        -0.43183
       7 -> 32         0.54255

 Excited State 106:      Singlet-A2    26.4248 eV   46.92 nm  f=0.0000  <S**2>=0.000
       4 -> 24         0.70548

 Excited State 107:      Singlet-B2    26.4284 eV   46.91 nm  f=0.1005  <S**2>=0.000
       4 -> 23        -0.14215
       5 -> 28         0.33501
       6 -> 29         0.58931

 Excited State 108:      Singlet-B2    26.8080 eV   46.25 nm  f=0.1656  <S**2>=0.000
       5 -> 28         0.60037
       6 -> 29        -0.32370

 Excited State 109:      Singlet-B1    26.9808 eV   45.95 nm  f=0.3195  <S**2>=0.000
       3 ->  9         0.10028
       4 -> 25         0.49816
       6 -> 31        -0.38377
       7 -> 30         0.12344
       7 -> 32        -0.24816

 Excited State 110:      Singlet-A1    27.0893 eV   45.77 nm  f=0.3411  <S**2>=0.000
       4 -> 21         0.10104
       4 -> 26         0.19714
       5 -> 29        -0.19564
       6 -> 30         0.54488
       7 -> 31         0.21267
       7 -> 34        -0.13715

 Excited State 111:      Singlet-B1    27.3131 eV   45.39 nm  f=0.1888  <S**2>=0.000
       3 ->  9        -0.22028
       4 -> 25         0.48947
       6 -> 31         0.32274
       7 -> 30        -0.12564
       7 -> 32         0.25846
       8 -> 33        -0.11313

 Excited State 112:      Singlet-A1    27.5552 eV   44.99 nm  f=0.0000  <S**2>=0.000
       4 -> 26        -0.26029
       5 -> 29        -0.23437
       6 -> 32         0.60643

 Excited State 113:      Singlet-A1    27.6294 eV   44.87 nm  f=0.0775  <S**2>=0.000
       4 -> 26         0.50874
       5 -> 29         0.32459
       6 -> 32         0.34453

 Excited State 114:      Singlet-B2    27.8971 eV   44.44 nm  f=0.0002  <S**2>=0.000
       5 -> 30         0.69626

 Excited State 115:      Singlet-A2    28.1055 eV   44.11 nm  f=0.0000  <S**2>=0.000
       5 -> 31         0.70424

 Excited State 116:      Singlet-B2    28.1535 eV   44.04 nm  f=0.1297  <S**2>=0.000
       5 -> 32        -0.13889
       7 -> 33         0.67105

 Excited State 117:      Singlet-A1    28.3347 eV   43.76 nm  f=0.0006  <S**2>=0.000
       3 -> 10         0.70116

 Excited State 118:      Singlet-A1    28.4417 eV   43.59 nm  f=0.0015  <S**2>=0.000
       4 -> 26        -0.32226
       4 -> 28         0.11013
       5 -> 29         0.51319
       6 -> 30         0.16934
       7 -> 31         0.14176
       7 -> 34        -0.18483

 Excited State 119:      Singlet-B2    28.9611 eV   42.81 nm  f=0.0214  <S**2>=0.000
       4 -> 27         0.56029
       5 -> 32         0.42031

 Excited State 120:      Singlet-A2    29.1555 eV   42.53 nm  f=0.0000  <S**2>=0.000
       6 -> 33         0.70431

 Excited State 121:      Singlet-B2    29.2453 eV   42.39 nm  f=0.0016  <S**2>=0.000
       4 -> 27        -0.36265
       5 -> 32         0.53163
       7 -> 33         0.14257
       8 -> 35        -0.23950

 Excited State 122:      Singlet-A1    29.5387 eV   41.97 nm  f=0.0010  <S**2>=0.000
       5 -> 29         0.10293
       7 -> 34         0.62449
       8 -> 36        -0.16836

 Excited State 123:      Singlet-B2    29.9624 eV   41.38 nm  f=0.0001  <S**2>=0.000
       3 -> 11         0.68678
       8 -> 35         0.12585

 Excited State 124:      Singlet-B2    30.0571 eV   41.25 nm  f=0.0026  <S**2>=0.000
       3 -> 11        -0.15373
       4 -> 27        -0.18111
       5 -> 32         0.12566
       8 -> 35         0.60557
       8 -> 37         0.20455

 Excited State 125:      Singlet-A1    30.0970 eV   41.19 nm  f=0.0055  <S**2>=0.000
       3 -> 12         0.48792
       4 -> 28         0.49465
       8 -> 36         0.10646

 Excited State 126:      Singlet-B1    30.2661 eV   40.96 nm  f=0.0063  <S**2>=0.000
       6 -> 34         0.70180

 Excited State 127:      Singlet-A1    30.2824 eV   40.94 nm  f=0.0030  <S**2>=0.000
       3 -> 12         0.44622
       4 -> 28        -0.38283
       7 -> 34        -0.10392
       8 -> 36        -0.35197

 Excited State 128:      Singlet-B1    30.6465 eV   40.46 nm  f=0.0011  <S**2>=0.000
       3 -> 13         0.52783
       5 -> 33        -0.46849

 Excited State 129:      Singlet-B1    30.7565 eV   40.31 nm  f=0.0052  <S**2>=0.000
       3 -> 13         0.46674
       5 -> 33         0.52444

 Excited State 130:      Singlet-B2    30.7789 eV   40.28 nm  f=0.0005  <S**2>=0.000
       4 -> 29         0.18694
       8 -> 35        -0.18976
       8 -> 37         0.64821

 Excited State 131:      Singlet-A1    30.9191 eV   40.10 nm  f=0.0012  <S**2>=0.000
       3 -> 12         0.15001
       3 -> 14         0.37437
       4 -> 28        -0.24883
       8 -> 36         0.48578

 Excited State 132:      Singlet-A1    31.3006 eV   39.61 nm  f=0.0006  <S**2>=0.000
       3 -> 14         0.57128
       3 -> 15        -0.18976
       4 -> 28         0.13744
       4 -> 30         0.16225
       8 -> 36        -0.24304

 Excited State 133:      Singlet-A2    31.4045 eV   39.48 nm  f=0.0000  <S**2>=0.000
       5 -> 34         0.70479

 The electronic state is 1-A1.
 Alpha  occ. eigenvalues --  -19.08964 -10.23083  -1.03734  -0.61623  -0.48564
 Alpha  occ. eigenvalues --   -0.43701  -0.39648  -0.25863
 Alpha virt. eigenvalues --   -0.06972   0.02372   0.08346   0.08604   0.10980
 Alpha virt. eigenvalues --    0.12964   0.15342   0.15688   0.19808   0.22925
 Alpha virt. eigenvalues --    0.29015   0.30008   0.32391   0.35797   0.36118

 Mulliken charges:
               1
     1  C    0.491109
     2  O   -0.351589
     3  H   -0.069760
     4  H   -0.069760
 Sum of Mulliken charges =   0.00000

 Dipole moment (field-independent basis, Debye):
    X=              0.0000    Y=              0.0000    Z=             -2.3320  Tot=              2.3320
 Quadrupole moment (field-independent basis, Debye-Ang):
   XX=            -11.6183   YY=            -11.6865   ZZ=            -12.3537
   XY=              0.0000   XZ=             -0.0000   YZ=              0.0000

 Normal termination of Gaussian 16 at Mon Mar 21 20:00:28 2022.
