 Gaussian 16, Revision C.01,
 Gaussian 16:  EM64L-G16RevC.01  3-Jul-2019

 ---------------------------------------------------------------------
 #P TD(Nstates=10000) tpssh/Gen SCF(maxcycles=100) Int(Grid=ultrafine)
 ---------------------------------------------------------------------

 ---------------------
 xGDB7_00001_tier4.com
 ---------------------
 Symbolic Z-matrix:
 Charge =  0 Multiplicity = 1

                         Standard orientation:
 ---------------------------------------------------------------------
 Center     Atomic      Atomic             Coordinates (Angstroms)
 Number     Number       Type             X           Y           Z
 ---------------------------------------------------------------------
      1          6           0        0.000000    1.163894   -0.193136
      2          8           0       -0.000000   -0.000000    0.585449
      3          6           0       -0.000000   -1.163894   -0.193136
      4          1           0        0.000000    2.015478    0.485827
      5          1           0       -0.890390    1.219204   -0.834404
      6          1           0        0.890390    1.219204   -0.834404
      7          1           0       -0.000000   -2.015478    0.485827
      8          1           0        0.890390   -1.219204   -0.834404
      9          1           0       -0.890390   -1.219204   -0.834404
 ---------------------------------------------------------------------

 SCF Done:  E(RTPSSh) =  -154.930453969     A.U. after   12 cycles

 Excitation energies and oscillator strengths:

 Excited State   1:      Singlet-B1     6.7018 eV  185.00 nm  f=0.0274  <S**2>=0.000
      13 -> 14         0.70576
 This state for optimization and/or second-order correction.
 Total Energy, E(TD-HF/TD-DFT) =  -154.684168889
 Copying the excited state density for this state as the 1-particle RhoCI density.

 Excited State   2:      Singlet-A2     7.5171 eV  164.94 nm  f=0.0000  <S**2>=0.000
      13 -> 15         0.70681

 Excited State   3:      Singlet-B1     7.8779 eV  157.38 nm  f=0.0194  <S**2>=0.000
      13 -> 16         0.70433

 Excited State   4:      Singlet-A1     8.3290 eV  148.86 nm  f=0.0175  <S**2>=0.000
      12 -> 14         0.33660
      13 -> 17         0.62054

 Excited State   5:      Singlet-B1     8.3827 eV  147.90 nm  f=0.0245  <S**2>=0.000
      13 -> 18         0.70500

 Excited State   6:      Singlet-A1     8.4673 eV  146.43 nm  f=0.0561  <S**2>=0.000
      12 -> 14         0.61538
      13 -> 17        -0.33222

 Excited State   7:      Singlet-A2     9.0437 eV  137.10 nm  f=0.0000  <S**2>=0.000
      13 -> 19         0.70619

 Excited State   8:      Singlet-B2     9.2054 eV  134.69 nm  f=0.0045  <S**2>=0.000
      12 -> 15         0.70420

 Excited State   9:      Singlet-A1     9.4855 eV  130.71 nm  f=0.0325  <S**2>=0.000
      12 -> 16         0.65257
      13 -> 20         0.26697

 Excited State  10:      Singlet-B1     9.4971 eV  130.55 nm  f=0.0018  <S**2>=0.000
      13 -> 21         0.70565

 Excited State  11:      Singlet-A1     9.7415 eV  127.27 nm  f=0.0632  <S**2>=0.000
      12 -> 16        -0.26089
      13 -> 20         0.64258

 Excited State  12:      Singlet-B2     9.8133 eV  126.34 nm  f=0.0831  <S**2>=0.000
      13 -> 22         0.69857

 Excited State  13:      Singlet-B1    10.0135 eV  123.82 nm  f=0.0546  <S**2>=0.000
      12 -> 17         0.70609

 Excited State  14:      Singlet-B2    10.0340 eV  123.56 nm  f=0.0814  <S**2>=0.000
      11 -> 14         0.69626

 Excited State  15:      Singlet-A1    10.1298 eV  122.40 nm  f=0.0096  <S**2>=0.000
      12 -> 18         0.70418

 Excited State  16:      Singlet-A2    10.4565 eV  118.57 nm  f=0.0000  <S**2>=0.000
      10 -> 14         0.69979

 Excited State  17:      Singlet-B1    10.5689 eV  117.31 nm  f=0.0015  <S**2>=0.000
      13 -> 23         0.70581

 Excited State  18:      Singlet-A2    10.6539 eV  116.37 nm  f=0.0000  <S**2>=0.000
      13 -> 24         0.69905

 Excited State  19:      Singlet-B2    10.7192 eV  115.67 nm  f=0.0730  <S**2>=0.000
      12 -> 19         0.69816

 Excited State  20:      Singlet-A1    10.8630 eV  114.13 nm  f=0.0322  <S**2>=0.000
      11 -> 15         0.70329

 Excited State  21:      Singlet-B2    10.8995 eV  113.75 nm  f=0.0127  <S**2>=0.000
      13 -> 25         0.69678

 Excited State  22:      Singlet-B1    11.1525 eV  111.17 nm  f=0.0077  <S**2>=0.000
      12 -> 20         0.70078

 Excited State  23:      Singlet-B2    11.2162 eV  110.54 nm  f=0.0450  <S**2>=0.000
      11 -> 16         0.68115
      11 -> 18         0.11420

 Excited State  24:      Singlet-A1    11.2880 eV  109.84 nm  f=0.0454  <S**2>=0.000
      12 -> 21         0.70139

 Excited State  25:      Singlet-B1    11.3156 eV  109.57 nm  f=0.0917  <S**2>=0.000
      10 -> 15         0.70162

 Excited State  26:      Singlet-A2    11.4199 eV  108.57 nm  f=0.0000  <S**2>=0.000
      10 -> 16        -0.10281
      11 -> 17        -0.18723
      12 -> 22         0.66348
      13 -> 26         0.10601

 Excited State  27:      Singlet-A2    11.6089 eV  106.80 nm  f=0.0000  <S**2>=0.000
      10 -> 16        -0.30174
      11 -> 17         0.32857
      13 -> 26         0.53796

 Excited State  28:      Singlet-A2    11.6197 eV  106.70 nm  f=0.0000  <S**2>=0.000
      10 -> 16         0.34604
      11 -> 17        -0.41029
      12 -> 22        -0.13093
      13 -> 26         0.43312

 Excited State  29:      Singlet-A2    11.6829 eV  106.12 nm  f=0.0000  <S**2>=0.000
      10 -> 16         0.52211
      11 -> 17         0.43047
      12 -> 22         0.19390

 Excited State  30:      Singlet-B2    11.7462 eV  105.55 nm  f=0.1586  <S**2>=0.000
      10 -> 17         0.13054
      11 -> 16        -0.10248
      11 -> 18         0.68376

 Excited State  31:      Singlet-A1    11.8165 eV  104.92 nm  f=0.0068  <S**2>=0.000
      12 -> 23         0.21663
      13 -> 27         0.66372

 Excited State  32:      Singlet-A2    12.1635 eV  101.93 nm  f=0.0000  <S**2>=0.000
      10 -> 18         0.68966
      12 -> 25         0.10681

 Excited State  33:      Singlet-B2    12.2546 eV  101.17 nm  f=0.0045  <S**2>=0.000
       7 -> 14         0.11794
      10 -> 17         0.64934
      11 -> 18        -0.11216
      12 -> 24         0.18654

 Excited State  34:      Singlet-B2    12.3529 eV  100.37 nm  f=0.0241  <S**2>=0.000
      10 -> 17        -0.16742
      12 -> 24         0.67899

 Excited State  35:      Singlet-A1    12.4780 eV   99.36 nm  f=0.0045  <S**2>=0.000
       8 -> 14         0.31754
      11 -> 19        -0.16823
      12 -> 23         0.57437
      13 -> 27        -0.15091

 Excited State  36:      Singlet-A2    12.4978 eV   99.21 nm  f=0.0000  <S**2>=0.000
      10 -> 21        -0.14261
      12 -> 25         0.65005
      13 -> 28        -0.18325

 Excited State  37:      Singlet-A1    12.5195 eV   99.03 nm  f=0.0176  <S**2>=0.000
       8 -> 14         0.30363
      11 -> 19         0.62432

 Excited State  38:      Singlet-B1    12.5441 eV   98.84 nm  f=0.1055  <S**2>=0.000
       9 -> 14         0.70372

 Excited State  39:      Singlet-A1    12.6337 eV   98.14 nm  f=0.1238  <S**2>=0.000
       8 -> 14         0.54980
      11 -> 19        -0.23855
      12 -> 23        -0.31260
      13 -> 27         0.12071

 Excited State  40:      Singlet-A2    12.6691 eV   97.86 nm  f=0.0000  <S**2>=0.000
      11 -> 20         0.15570
      12 -> 25         0.20913
      13 -> 28         0.64701

 Excited State  41:      Singlet-A2    12.8219 eV   96.70 nm  f=0.0000  <S**2>=0.000
      10 -> 21         0.15203
      11 -> 20         0.65333
      13 -> 28        -0.18909

 Excited State  42:      Singlet-B2    12.8355 eV   96.59 nm  f=0.0036  <S**2>=0.000
       7 -> 14         0.63457
      10 -> 17        -0.10863
      11 -> 21         0.23422

 Excited State  43:      Singlet-B1    12.8464 eV   96.51 nm  f=0.0082  <S**2>=0.000
      10 -> 19         0.70233

 Excited State  44:      Singlet-B2    12.9429 eV   95.79 nm  f=0.0027  <S**2>=0.000
       7 -> 14        -0.24993
      10 -> 20        -0.10640
      11 -> 21         0.64604

 Excited State  45:      Singlet-B1    13.0363 eV   95.11 nm  f=0.0016  <S**2>=0.000
      11 -> 22         0.67873
      13 -> 29         0.15858

 Excited State  46:      Singlet-B1    13.2126 eV   93.84 nm  f=0.0103  <S**2>=0.000
      11 -> 22        -0.14092
      12 -> 27        -0.12575
      13 -> 29         0.67491

 Excited State  47:      Singlet-A2    13.3198 eV   93.08 nm  f=0.0000  <S**2>=0.000
       9 -> 15         0.67326
      10 -> 21        -0.19320

 Excited State  48:      Singlet-B2    13.3373 eV   92.96 nm  f=0.0078  <S**2>=0.000
       8 -> 15         0.31614
      10 -> 20         0.54904
      12 -> 26         0.29186

 Excited State  49:      Singlet-A2    13.3812 eV   92.66 nm  f=0.0000  <S**2>=0.000
       9 -> 15         0.20857
      10 -> 21         0.63773
      11 -> 20        -0.16713

 Excited State  50:      Singlet-B2    13.3856 eV   92.62 nm  f=0.1352  <S**2>=0.000
       8 -> 15        -0.41259
      12 -> 26         0.56130

 Excited State  51:      Singlet-B1    13.4041 eV   92.50 nm  f=0.0054  <S**2>=0.000
      11 -> 22        -0.12101
      12 -> 27         0.68472
      13 -> 29         0.10024

 Excited State  52:      Singlet-B2    13.4358 eV   92.28 nm  f=0.0007  <S**2>=0.000
       7 -> 16         0.14832
       8 -> 15         0.46831
      10 -> 20        -0.39014
      12 -> 26         0.27699

 Excited State  53:      Singlet-A1    13.5815 eV   91.29 nm  f=0.0010  <S**2>=0.000
       7 -> 15         0.62532
      10 -> 22         0.31283

 Excited State  54:      Singlet-B1    13.6992 eV   90.50 nm  f=0.0012  <S**2>=0.000
       9 -> 16         0.67172
      13 -> 30        -0.20097

 Excited State  55:      Singlet-A1    13.7116 eV   90.42 nm  f=0.0189  <S**2>=0.000
       7 -> 15        -0.21165
       8 -> 16         0.21342
       8 -> 18         0.20326
       9 -> 17        -0.10375
      10 -> 22         0.49912
      11 -> 24        -0.31458

 Excited State  56:      Singlet-A1    13.7950 eV   89.88 nm  f=0.0718  <S**2>=0.000
       7 -> 15         0.14343
       8 -> 16         0.64601
      10 -> 22        -0.17474
      13 -> 33        -0.10419

 Excited State  57:      Singlet-B1    13.8137 eV   89.75 nm  f=0.0438  <S**2>=0.000
       9 -> 16         0.18368
      11 -> 25        -0.15780
      13 -> 30         0.64567

 Excited State  58:      Singlet-B2    14.0065 eV   88.52 nm  f=0.0027  <S**2>=0.000
       7 -> 16        -0.39555
      11 -> 23         0.56263

 Excited State  59:      Singlet-B1    14.0487 eV   88.25 nm  f=0.0072  <S**2>=0.000
       8 -> 17         0.17200
       9 -> 18        -0.32606
      10 -> 24         0.17769
      11 -> 25         0.55825

 Excited State  60:      Singlet-A1    14.0646 eV   88.15 nm  f=0.0034  <S**2>=0.000
       9 -> 17        -0.36733
      10 -> 22         0.17360
      11 -> 24         0.54734

 Excited State  61:      Singlet-B2    14.0710 eV   88.11 nm  f=0.3209  <S**2>=0.000
       7 -> 16         0.53866
      11 -> 23         0.40534
      12 -> 28        -0.14807

 Excited State  62:      Singlet-A2    14.1119 eV   87.86 nm  f=0.0000  <S**2>=0.000
      13 -> 31         0.69426

 Excited State  63:      Singlet-B1    14.1762 eV   87.46 nm  f=0.0000  <S**2>=0.000
       8 -> 17         0.67711
      11 -> 25        -0.12845

 Excited State  64:      Singlet-A1    14.2056 eV   87.28 nm  f=0.0151  <S**2>=0.000
       8 -> 18         0.49757
       9 -> 17         0.44647
      11 -> 24         0.21666

 Excited State  65:      Singlet-B1    14.2553 eV   86.97 nm  f=0.0353  <S**2>=0.000
       9 -> 18         0.44513
      11 -> 25         0.16214
      13 -> 32         0.50576

 Excited State  66:      Singlet-A1    14.3164 eV   86.60 nm  f=0.0722  <S**2>=0.000
      10 -> 25        -0.10865
      13 -> 33         0.68145

 Excited State  67:      Singlet-B1    14.3293 eV   86.52 nm  f=0.0149  <S**2>=0.000
       9 -> 18        -0.40017
      10 -> 24        -0.25019
      11 -> 25        -0.18942
      13 -> 32         0.46910

 Excited State  68:      Singlet-A2    14.3532 eV   86.38 nm  f=0.0000  <S**2>=0.000
       7 -> 17         0.69565
      10 -> 23         0.10208

 Excited State  69:      Singlet-A2    14.4050 eV   86.07 nm  f=0.0000  <S**2>=0.000
      10 -> 23         0.68698

 Excited State  70:      Singlet-B2    14.4259 eV   85.95 nm  f=0.0020  <S**2>=0.000
       7 -> 18         0.53325
      12 -> 28        -0.44856

 Excited State  71:      Singlet-B1    14.5777 eV   85.05 nm  f=0.0120  <S**2>=0.000
      10 -> 24         0.15349
      13 -> 34         0.67880

 Excited State  72:      Singlet-A1    14.6140 eV   84.84 nm  f=0.0005  <S**2>=0.000
       7 -> 15         0.12031
       7 -> 19        -0.19808
       8 -> 18         0.38953
       9 -> 17        -0.33462
      10 -> 22        -0.19291
      11 -> 24        -0.13501
      11 -> 26         0.23552

 Excited State  73:      Singlet-B1    14.6669 eV   84.53 nm  f=0.2577  <S**2>=0.000
       8 -> 20         0.11036
       9 -> 21        -0.15171
      10 -> 24         0.57497
      11 -> 25        -0.23151
      13 -> 30        -0.11387
      13 -> 34        -0.18513

 Excited State  74:      Singlet-B2    14.6974 eV   84.36 nm  f=0.3157  <S**2>=0.000
       7 -> 16         0.11368
       7 -> 18         0.40086
       8 -> 19        -0.21022
      12 -> 28         0.48242

 Excited State  75:      Singlet-A1    14.7801 eV   83.89 nm  f=0.0524  <S**2>=0.000
       7 -> 19         0.10445
       8 -> 21        -0.14726
      10 -> 25         0.62060
      11 -> 26         0.12668
      12 -> 29        -0.18068

 Excited State  76:      Singlet-A2    14.8794 eV   83.33 nm  f=0.0000  <S**2>=0.000
       9 -> 19         0.69802
      10 -> 23         0.10280

 Excited State  77:      Singlet-A1    14.8971 eV   83.23 nm  f=0.0638  <S**2>=0.000
      10 -> 25         0.17235
      11 -> 26        -0.21074
      12 -> 29         0.60782
      13 -> 36         0.11586

 Excited State  78:      Singlet-A1    15.0179 eV   82.56 nm  f=0.0159  <S**2>=0.000
       7 -> 19         0.26004
       9 -> 20         0.17443
      10 -> 25        -0.12373
      11 -> 26         0.55607
      12 -> 29         0.20230

 Excited State  79:      Singlet-A2    15.0284 eV   82.50 nm  f=0.0000  <S**2>=0.000
       8 -> 22        -0.11152
      11 -> 27         0.69413

 Excited State  80:      Singlet-B2    15.0353 eV   82.46 nm  f=0.0000  <S**2>=0.000
       7 -> 18         0.12824
       8 -> 19         0.64415
       9 -> 22         0.17311

 Excited State  81:      Singlet-B1    15.2251 eV   81.43 nm  f=0.0084  <S**2>=0.000
       8 -> 20         0.44686
       9 -> 21         0.48338
      10 -> 26        -0.14537
      13 -> 35         0.17231

 Excited State  82:      Singlet-A1    15.2509 eV   81.30 nm  f=0.0381  <S**2>=0.000
       7 -> 19         0.53201
       8 -> 18         0.11033
       9 -> 20         0.15797
      11 -> 26        -0.20296
      13 -> 36         0.26867
      13 -> 38         0.10543

 Excited State  83:      Singlet-B1    15.3495 eV   80.77 nm  f=0.0204  <S**2>=0.000
       8 -> 20        -0.23562
      13 -> 35         0.66124

 Excited State  84:      Singlet-A1    15.3757 eV   80.64 nm  f=0.0063  <S**2>=0.000
       8 -> 21        -0.36402
       9 -> 20         0.48810
      11 -> 26        -0.12167
      13 -> 36        -0.28501

 Excited State  85:      Singlet-A1    15.4501 eV   80.25 nm  f=0.0032  <S**2>=0.000
       7 -> 19         0.12488
       8 -> 21        -0.28275
       9 -> 20        -0.22183
      11 -> 28        -0.10069
      12 -> 30         0.53385
      13 -> 36        -0.19082

 Excited State  86:      Singlet-B1    15.4517 eV   80.24 nm  f=0.0155  <S**2>=0.000
       8 -> 20        -0.17620
       9 -> 21         0.36389
      10 -> 26         0.55782
      13 -> 35        -0.11849

 Excited State  87:      Singlet-A2    15.5050 eV   79.96 nm  f=0.0000  <S**2>=0.000
       7 -> 20         0.68984
       8 -> 22        -0.13854

 Excited State  88:      Singlet-B2    15.5105 eV   79.94 nm  f=0.0112  <S**2>=0.000
       7 -> 21         0.61634
       9 -> 22         0.22229
      13 -> 37         0.24987

 Excited State  89:      Singlet-B2    15.5232 eV   79.87 nm  f=0.2242  <S**2>=0.000
       9 -> 22        -0.14827
      10 -> 27         0.67313

 Excited State  90:      Singlet-A1    15.5334 eV   79.82 nm  f=0.0000  <S**2>=0.000
       7 -> 19        -0.21181
       9 -> 20         0.20295
      12 -> 30         0.30627
      12 -> 32        -0.15112
      13 -> 36         0.49008

 Excited State  91:      Singlet-B1    15.5820 eV   79.57 nm  f=0.1635  <S**2>=0.000
       7 -> 22         0.31645
       8 -> 20         0.39500
       9 -> 21        -0.24637
      10 -> 26         0.35247
      12 -> 33        -0.12378
      13 -> 35         0.10486

 Excited State  92:      Singlet-A1    15.5970 eV   79.49 nm  f=0.0995  <S**2>=0.000
       8 -> 21         0.39892
       9 -> 20         0.26300
      11 -> 28         0.12596
      12 -> 30         0.28418
      13 -> 36        -0.15386
      13 -> 38         0.37255

 Excited State  93:      Singlet-A2    15.6240 eV   79.36 nm  f=0.0000  <S**2>=0.000
       7 -> 20         0.14261
       8 -> 22         0.68276
      11 -> 27         0.10664

 Excited State  94:      Singlet-B2    15.6964 eV   78.99 nm  f=0.1404  <S**2>=0.000
       7 -> 21        -0.23680
      12 -> 31        -0.43105
      13 -> 37         0.48045

 Excited State  95:      Singlet-B2    15.7407 eV   78.77 nm  f=0.0131  <S**2>=0.000
       9 -> 22         0.53368
      10 -> 27         0.15367
      12 -> 31        -0.23351
      13 -> 37        -0.32503

 Excited State  96:      Singlet-A1    15.8210 eV   78.37 nm  f=0.0487  <S**2>=0.000
       8 -> 21        -0.19598
       9 -> 20        -0.13812
      11 -> 28        -0.15395
      12 -> 30        -0.13477
      12 -> 32        -0.26390
      13 -> 38         0.53628

 Excited State  97:      Singlet-B1    15.8621 eV   78.16 nm  f=0.2545  <S**2>=0.000
       7 -> 22         0.59552
       8 -> 20        -0.15974
       9 -> 21         0.11435
      10 -> 26        -0.10254
      12 -> 33         0.27279

 Excited State  98:      Singlet-B2    15.9545 eV   77.71 nm  f=0.0339  <S**2>=0.000
       7 -> 21        -0.19706
       9 -> 22         0.27396
      11 -> 29        -0.18612
      12 -> 31         0.48762
      13 -> 37         0.25827

 Excited State  99:      Singlet-B1    16.0383 eV   77.31 nm  f=0.1839  <S**2>=0.000
       7 -> 22        -0.18024
       9 -> 21        -0.12972
      10 -> 26         0.11348
      12 -> 33         0.62815

 Excited State 100:      Singlet-A2    16.0487 eV   77.26 nm  f=0.0000  <S**2>=0.000
      13 -> 39         0.70096

 Excited State 101:      Singlet-A1    16.1029 eV   76.99 nm  f=0.0803  <S**2>=0.000
      11 -> 28        -0.18829
      12 -> 32         0.60712
      13 -> 38         0.16218

 Excited State 102:      Singlet-A1    16.2548 eV   76.28 nm  f=0.0111  <S**2>=0.000
       8 -> 23         0.10752
      12 -> 34         0.68290

 Excited State 103:      Singlet-B2    16.3527 eV   75.82 nm  f=0.0092  <S**2>=0.000
       9 -> 25         0.10950
      13 -> 40         0.68900

 Excited State 104:      Singlet-A1    16.3659 eV   75.76 nm  f=0.1507  <S**2>=0.000
       8 -> 21        -0.13069
       8 -> 23         0.44930
      11 -> 28         0.47986
      12 -> 34        -0.10893

 Excited State 105:      Singlet-B1    16.4282 eV   75.47 nm  f=0.0148  <S**2>=0.000
       9 -> 23         0.68092
      10 -> 28        -0.13953

 Excited State 106:      Singlet-A2    16.4465 eV   75.39 nm  f=0.0000  <S**2>=0.000
       8 -> 25         0.15038
       9 -> 24         0.60145
      13 -> 41        -0.32265

 Excited State 107:      Singlet-B2    16.5080 eV   75.11 nm  f=0.0691  <S**2>=0.000
       7 -> 23        -0.18546
       8 -> 24         0.65239
      11 -> 29        -0.16469

 Excited State 108:      Singlet-B1    16.5239 eV   75.03 nm  f=0.0041  <S**2>=0.000
       9 -> 23         0.13927
      10 -> 28         0.68821

 Excited State 109:      Singlet-A2    16.5664 eV   74.84 nm  f=0.0000  <S**2>=0.000
       8 -> 25         0.40584
       9 -> 24         0.19123
      13 -> 41         0.53549

 Excited State 110:      Singlet-A1    16.6463 eV   74.48 nm  f=0.2396  <S**2>=0.000
       6 -> 14        -0.16289
       7 -> 26         0.12288
       8 -> 21         0.11370
       8 -> 23         0.49412
       9 -> 27         0.12102
      11 -> 28        -0.35659

 Excited State 111:      Singlet-B2    16.6720 eV   74.37 nm  f=0.0845  <S**2>=0.000
       7 -> 23         0.64273
       8 -> 24         0.14037
       9 -> 25         0.15057
      11 -> 29        -0.17720

 Excited State 112:      Singlet-B2    16.7058 eV   74.22 nm  f=0.0895  <S**2>=0.000
       8 -> 24         0.16981
       9 -> 25         0.25224
      11 -> 29         0.57233

 Excited State 113:      Singlet-A2    16.7577 eV   73.99 nm  f=0.0000  <S**2>=0.000
       8 -> 25         0.52883
       9 -> 24        -0.28740
      10 -> 29        -0.10827
      12 -> 37        -0.10320
      13 -> 41        -0.31191

 Excited State 114:      Singlet-B2    16.7767 eV   73.90 nm  f=0.0557  <S**2>=0.000
       7 -> 23        -0.18919
       9 -> 25         0.62357
      11 -> 29        -0.19340

 Excited State 115:      Singlet-A1    16.8077 eV   73.77 nm  f=0.0002  <S**2>=0.000
       6 -> 14        -0.25479
       7 -> 24         0.63812

 Excited State 116:      Singlet-B1    16.9366 eV   73.20 nm  f=0.0245  <S**2>=0.000
       7 -> 25         0.65428
      12 -> 36         0.21086
      12 -> 38         0.10647

 Excited State 117:      Singlet-A2    16.9579 eV   73.11 nm  f=0.0000  <S**2>=0.000
       8 -> 25         0.11455
      10 -> 29         0.68462

 Excited State 118:      Singlet-A1    17.0285 eV   72.81 nm  f=0.0034  <S**2>=0.000
       6 -> 14         0.37609
       7 -> 24         0.14373
      12 -> 35         0.55582

 Excited State 119:      Singlet-B1    17.1425 eV   72.33 nm  f=0.0884  <S**2>=0.000
       7 -> 25        -0.16473
       8 -> 27        -0.11439
      12 -> 36         0.65562
      12 -> 38        -0.11382

 Excited State 120:      Singlet-A1    17.1458 eV   72.31 nm  f=0.0269  <S**2>=0.000
       6 -> 14         0.47864
       7 -> 24         0.17914
       8 -> 23         0.10281
      12 -> 35        -0.41990

 Excited State 121:      Singlet-B2    17.1513 eV   72.29 nm  f=0.0074  <S**2>=0.000
      11 -> 30         0.48269
      13 -> 42         0.50532

 Excited State 122:      Singlet-B2    17.2210 eV   72.00 nm  f=0.1331  <S**2>=0.000
      11 -> 30         0.48421
      13 -> 42        -0.48149

 Excited State 123:      Singlet-A2    17.2779 eV   71.76 nm  f=0.0000  <S**2>=0.000
      10 -> 30        -0.16793
      12 -> 37        -0.33155
      13 -> 43         0.59017

 Excited State 124:      Singlet-A2    17.3445 eV   71.48 nm  f=0.0000  <S**2>=0.000
       9 -> 26        -0.21153
      12 -> 37         0.55309

 The electronic state is 1-A1.
 Alpha  occ. eigenvalues --  -19.06854 -10.17018 -10.17018  -1.00651  -0.69987
 Alpha  occ. eigenvalues --   -0.61447  -0.46532  -0.45786  -0.45636  -0.38206
 Alpha  occ. eigenvalues --   -0.36467  -0.30475  -0.24343
 Alpha virt. eigenvalues --    0.02157   0.05015   0.06691   0.08225   0.08503
 Alpha virt. eigenvalues --    0.10923   0.12643   0.12792   0.13544   0.16642
 Alpha virt. eigenvalues --    0.16931   0.17482   0.20601   0.20783   0.24794

 Mulliken charges:
               1
     1  C    0.532700
     2  O   -0.834971
     3  C    0.532700
     4  H   -0.161545
     5  H    0.023165
     6  H    0.023165
     7  H   -0.161545
     8  H    0.023165
     9  H    0.023165
 Sum of Mulliken charges =  -0.00000

 Dipole moment (field-independent basis, Debye):
    X=              0.0000    Y=              0.0000    Z=             -1.2618  Tot=              1.2618
 Quadrupole moment (field-independent basis, Debye-Ang):
   XX=            -20.3144   YY=            -17.5707   ZZ=            -21.3998
   XY=             -0.0000   XZ=              0.0000   YZ=             -0.0000

 Normal termination of Gaussian 16 at Mon Mar 21 20:02:07 2022.
