 Gaussian 16, Revision C.01,
 Gaussian 16:  EM64L-G16RevC.01  3-Jul-2019

 ---------------------------------------------------------------------
 #P TD(Nstates=10000) tpssh/Gen SCF(maxcycles=100) Int(Grid=ultrafine)
 ---------------------------------------------------------------------

 ---------------------
 xGDB7_00001_tier4.com
 ---------------------
 Symbolic Z-matrix:
 Charge =  0 Multiplicity = 1

                         Standard orientation:
 ---------------------------------------------------------------------
 Center     Atomic      Atomic             Coordinates (Angstroms)
 Number     Number       Type             X           Y           Z
 ---------------------------------------------------------------------
      1          6           0       -0.026655   -0.220923    1.206915
      2          7           0       -0.026655    0.579675   -0.000000
      3          6           0       -0.026655   -0.220923   -1.206915
      4          1           0        0.028929    0.427196    2.082330
      5          1           0        0.800836   -0.947383    1.258571
      6          1           0       -0.961718   -0.783094    1.269367
      7          1           0        0.770359    1.199905   -0.000000
      8          1           0       -0.961718   -0.783094   -1.269367
      9          1           0        0.800836   -0.947383   -1.258571
     10          1           0        0.028929    0.427196   -2.082330
 ---------------------------------------------------------------------

 SCF Done:  E(RTPSSh) =  -135.085228523     A.U. after   12 cycles

 Excitation energies and oscillator strengths:

 Excited State   1:      Singlet-A'     5.6965 eV  217.65 nm  f=0.0054  <S**2>=0.000
      13 -> 14         0.70442
 This state for optimization and/or second-order correction.
 Total Energy, E(TD-HF/TD-DFT) =  -134.875886352
 Copying the excited state density for this state as the 1-particle RhoCI density.

 Excited State   2:      Singlet-A"     6.5841 eV  188.31 nm  f=0.0048  <S**2>=0.000
      13 -> 15         0.70673

 Excited State   3:      Singlet-A'     6.7704 eV  183.13 nm  f=0.0353  <S**2>=0.000
      13 -> 16         0.70411

 Excited State   4:      Singlet-A'     7.6876 eV  161.28 nm  f=0.0173  <S**2>=0.000
      13 -> 17         0.55016
      13 -> 18        -0.44043

 Excited State   5:      Singlet-A'     7.7630 eV  159.71 nm  f=0.0905  <S**2>=0.000
      13 -> 17         0.43776
      13 -> 18         0.54997

 Excited State   6:      Singlet-A"     8.4788 eV  146.23 nm  f=0.0222  <S**2>=0.000
      13 -> 19         0.70547

 Excited State   7:      Singlet-A'     8.5156 eV  145.60 nm  f=0.0053  <S**2>=0.000
      13 -> 20         0.70287

 Excited State   8:      Singlet-A'     8.9463 eV  138.59 nm  f=0.0063  <S**2>=0.000
      13 -> 22         0.70375

 Excited State   9:      Singlet-A"     8.9466 eV  138.58 nm  f=0.0746  <S**2>=0.000
      13 -> 21         0.70460

 Excited State  10:      Singlet-A"     9.5307 eV  130.09 nm  f=0.0003  <S**2>=0.000
      12 -> 14        -0.15131
      13 -> 23         0.68856

 Excited State  11:      Singlet-A"     9.5610 eV  129.68 nm  f=0.0578  <S**2>=0.000
      12 -> 14         0.68612
      13 -> 23         0.14758

 Excited State  12:      Singlet-A'     9.6323 eV  128.72 nm  f=0.0126  <S**2>=0.000
      11 -> 14         0.68057
      13 -> 24        -0.17475

 Excited State  13:      Singlet-A'     9.8292 eV  126.14 nm  f=0.0059  <S**2>=0.000
      11 -> 14         0.16709
      13 -> 24         0.67913

 Excited State  14:      Singlet-A"    10.0435 eV  123.45 nm  f=0.0154  <S**2>=0.000
      13 -> 25         0.69850

 Excited State  15:      Singlet-A"    10.1720 eV  121.89 nm  f=0.0011  <S**2>=0.000
      10 -> 14         0.69722

 Excited State  16:      Singlet-A'    10.4620 eV  118.51 nm  f=0.0279  <S**2>=0.000
      12 -> 15         0.69590

 Excited State  17:      Singlet-A"    10.4937 eV  118.15 nm  f=0.0017  <S**2>=0.000
      11 -> 15         0.69228

 Excited State  18:      Singlet-A"    10.6155 eV  116.79 nm  f=0.0053  <S**2>=0.000
      12 -> 16         0.34993
      13 -> 26         0.60923

 Excited State  19:      Singlet-A"    10.6497 eV  116.42 nm  f=0.0322  <S**2>=0.000
      12 -> 16         0.60942
      13 -> 26        -0.34218

 Excited State  20:      Singlet-A'    10.7038 eV  115.83 nm  f=0.1369  <S**2>=0.000
      11 -> 16         0.70076

 Excited State  21:      Singlet-A'    11.0765 eV  111.93 nm  f=0.0723  <S**2>=0.000
      10 -> 15         0.70330

 Excited State  22:      Singlet-A'    11.2485 eV  110.22 nm  f=0.0104  <S**2>=0.000
      13 -> 27         0.67517
      13 -> 28        -0.11003

 Excited State  23:      Singlet-A"    11.2566 eV  110.14 nm  f=0.0005  <S**2>=0.000
      10 -> 16         0.70046

 Excited State  24:      Singlet-A"    11.5098 eV  107.72 nm  f=0.0105  <S**2>=0.000
       9 -> 14        -0.25495
      12 -> 17         0.60180
      12 -> 18         0.25818

 Excited State  25:      Singlet-A'    11.5653 eV  107.20 nm  f=0.0235  <S**2>=0.000
      11 -> 17         0.70201

 Excited State  26:      Singlet-A"    11.5685 eV  107.17 nm  f=0.0917  <S**2>=0.000
       9 -> 14         0.45600
      12 -> 17         0.34522
      12 -> 18        -0.38180

 Excited State  27:      Singlet-A"    11.6200 eV  106.70 nm  f=0.1598  <S**2>=0.000
       9 -> 14         0.46007
      12 -> 18         0.52165

 Excited State  28:      Singlet-A'    11.7058 eV  105.92 nm  f=0.0354  <S**2>=0.000
       8 -> 14         0.65260
      11 -> 18        -0.21713
      13 -> 28         0.12908

 Excited State  29:      Singlet-A'    11.7616 eV  105.41 nm  f=0.0798  <S**2>=0.000
       8 -> 14         0.25688
      11 -> 18         0.55134
      13 -> 28        -0.32806

 Excited State  30:      Singlet-A'    11.8532 eV  104.60 nm  f=0.0296  <S**2>=0.000
       9 -> 15        -0.12173
      11 -> 18         0.34686
      13 -> 28         0.58518

 Excited State  31:      Singlet-A"    11.9635 eV  103.64 nm  f=0.0276  <S**2>=0.000
      10 -> 17         0.13652
      13 -> 29         0.68008

 Excited State  32:      Singlet-A"    12.1691 eV  101.88 nm  f=0.0254  <S**2>=0.000
      10 -> 17         0.54544
      10 -> 18        -0.36300
      11 -> 19         0.21788

 Excited State  33:      Singlet-A"    12.2691 eV  101.05 nm  f=0.0196  <S**2>=0.000
       8 -> 15         0.10178
      10 -> 17         0.24145
      10 -> 18         0.53824
      11 -> 19         0.29222
      12 -> 22        -0.10708
      13 -> 29        -0.13156

 Excited State  34:      Singlet-A"    12.3546 eV  100.35 nm  f=0.0031  <S**2>=0.000
      11 -> 19        -0.10036
      12 -> 20         0.67772

 Excited State  35:      Singlet-A'    12.3933 eV  100.04 nm  f=0.0028  <S**2>=0.000
      11 -> 20         0.61310
      12 -> 19        -0.19780
      13 -> 30         0.22969

 Excited State  36:      Singlet-A'    12.4302 eV   99.74 nm  f=0.0962  <S**2>=0.000
       9 -> 15         0.53621
      11 -> 20         0.23811
      12 -> 19         0.34023
      13 -> 30        -0.10138

 Excited State  37:      Singlet-A'    12.4396 eV   99.67 nm  f=0.0092  <S**2>=0.000
       9 -> 15        -0.35679
      12 -> 19         0.54598
      13 -> 30         0.19006

 Excited State  38:      Singlet-A"    12.4551 eV   99.54 nm  f=0.0459  <S**2>=0.000
       8 -> 15        -0.12867
      10 -> 17        -0.30151
      10 -> 18        -0.13164
      11 -> 19         0.58443

 Excited State  39:      Singlet-A'    12.5163 eV   99.06 nm  f=0.1248  <S**2>=0.000
       9 -> 15         0.21449
      11 -> 20        -0.20768
      13 -> 30         0.61263

 Excited State  40:      Singlet-A"    12.5767 eV   98.58 nm  f=0.0000  <S**2>=0.000
       8 -> 15         0.63301
       9 -> 16         0.27306

 Excited State  41:      Singlet-A"    12.5947 eV   98.44 nm  f=0.0749  <S**2>=0.000
       8 -> 15        -0.25439
       9 -> 16         0.63956

 Excited State  42:      Singlet-A'    12.6961 eV   97.66 nm  f=0.0087  <S**2>=0.000
       8 -> 16         0.40921
      10 -> 19         0.10362
      12 -> 21         0.54893

 Excited State  43:      Singlet-A"    12.7469 eV   97.27 nm  f=0.0014  <S**2>=0.000
      10 -> 20         0.15371
      11 -> 21        -0.47569
      12 -> 22         0.48646

 Excited State  44:      Singlet-A'    12.7501 eV   97.24 nm  f=0.0106  <S**2>=0.000
       8 -> 16         0.55102
      12 -> 21        -0.42298

 Excited State  45:      Singlet-A"    12.8242 eV   96.68 nm  f=0.0531  <S**2>=0.000
      10 -> 20         0.45490
      11 -> 21         0.43658
      12 -> 22         0.28412

 Excited State  46:      Singlet-A'    12.8603 eV   96.41 nm  f=0.0247  <S**2>=0.000
      10 -> 19        -0.14281
      10 -> 21        -0.11197
      11 -> 22         0.65651

 Excited State  47:      Singlet-A'    12.9453 eV   95.78 nm  f=0.0208  <S**2>=0.000
       8 -> 16        -0.13916
      10 -> 19         0.66270
      11 -> 22         0.11235
      12 -> 23         0.11263

 Excited State  48:      Singlet-A"    12.9839 eV   95.49 nm  f=0.0048  <S**2>=0.000
      10 -> 18        -0.11507
      10 -> 20         0.49376
      11 -> 21        -0.24467
      12 -> 22        -0.39345

 Excited State  49:      Singlet-A'    13.0168 eV   95.25 nm  f=0.0515  <S**2>=0.000
       7 -> 14         0.62688
      13 -> 31         0.27996

 Excited State  50:      Singlet-A'    13.1447 eV   94.32 nm  f=0.0927  <S**2>=0.000
       7 -> 14        -0.26091
      13 -> 31         0.62760

 Excited State  51:      Singlet-A'    13.3222 eV   93.07 nm  f=0.0311  <S**2>=0.000
       8 -> 17         0.10414
       8 -> 18        -0.12631
      10 -> 19        -0.10868
      10 -> 21        -0.21631
      11 -> 22        -0.11216
      11 -> 24        -0.14804
      12 -> 23         0.58887
      13 -> 33         0.13378

 Excited State  52:      Singlet-A"    13.3586 eV   92.81 nm  f=0.0004  <S**2>=0.000
       9 -> 17         0.22128
      11 -> 23         0.14756
      13 -> 32         0.64153

 Excited State  53:      Singlet-A"    13.3886 eV   92.60 nm  f=0.0084  <S**2>=0.000
      10 -> 22         0.53178
      11 -> 23         0.41729
      13 -> 32        -0.13566

 Excited State  54:      Singlet-A'    13.4630 eV   92.09 nm  f=0.0190  <S**2>=0.000
      12 -> 25        -0.10416
      13 -> 33         0.66788

 Excited State  55:      Singlet-A"    13.4654 eV   92.08 nm  f=0.0026  <S**2>=0.000
       9 -> 17         0.59402
       9 -> 18         0.29845
      10 -> 22         0.10108
      13 -> 32        -0.17104

 Excited State  56:      Singlet-A'    13.5462 eV   91.53 nm  f=0.0558  <S**2>=0.000
       8 -> 17        -0.29411
      10 -> 21         0.53615
      12 -> 23         0.21075
      12 -> 25        -0.10162
      13 -> 34         0.16163

 Excited State  57:      Singlet-A"    13.5643 eV   91.40 nm  f=0.0394  <S**2>=0.000
       9 -> 17         0.20883
       9 -> 18        -0.26706
      10 -> 22        -0.35831
      11 -> 23         0.39882
      12 -> 24         0.22449
      13 -> 32        -0.13673

 Excited State  58:      Singlet-A"    13.6270 eV   90.98 nm  f=0.0949  <S**2>=0.000
       9 -> 17        -0.16056
       9 -> 18         0.52579
      10 -> 22        -0.11383
      11 -> 23         0.20234
      12 -> 24         0.32352

 Excited State  59:      Singlet-A'    13.6475 eV   90.85 nm  f=0.0250  <S**2>=0.000
       8 -> 17         0.20140
      13 -> 34         0.65225

 Excited State  60:      Singlet-A"    13.6873 eV   90.58 nm  f=0.0018  <S**2>=0.000
       9 -> 18        -0.16127
      10 -> 22         0.18773
      11 -> 23        -0.28411
      12 -> 24         0.57040

 Excited State  61:      Singlet-A'    13.7057 eV   90.46 nm  f=0.0208  <S**2>=0.000
       8 -> 17        -0.24442
       8 -> 18         0.39234
      11 -> 24         0.46271
      12 -> 23         0.19950

 Excited State  62:      Singlet-A'    13.7786 eV   89.98 nm  f=0.0279  <S**2>=0.000
       8 -> 17         0.20504
       8 -> 18         0.54413
      11 -> 24        -0.32539
      13 -> 34        -0.10184

 Excited State  63:      Singlet-A'    13.8458 eV   89.55 nm  f=0.0098  <S**2>=0.000
       7 -> 16        -0.17285
       8 -> 17        -0.33317
      10 -> 21        -0.11264
      11 -> 24        -0.19056
      12 -> 25         0.50409
      13 -> 34         0.13432

 Excited State  64:      Singlet-A"    13.8766 eV   89.35 nm  f=0.0887  <S**2>=0.000
       7 -> 15         0.67894

 Excited State  65:      Singlet-A"    13.9528 eV   88.86 nm  f=0.0003  <S**2>=0.000
      11 -> 25         0.68859

 Excited State  66:      Singlet-A'    13.9921 eV   88.61 nm  f=0.0676  <S**2>=0.000
       7 -> 16         0.41587
       8 -> 17         0.18409
       9 -> 19        -0.24792
      10 -> 21         0.15044
      11 -> 24         0.17614
      12 -> 25         0.37435

 Excited State  67:      Singlet-A'    14.0778 eV   88.07 nm  f=0.0097  <S**2>=0.000
       7 -> 16         0.44435
       8 -> 17        -0.15483
       9 -> 19         0.27956
      10 -> 23        -0.37926
      12 -> 25        -0.10637

 Excited State  68:      Singlet-A'    14.1756 eV   87.46 nm  f=0.1165  <S**2>=0.000
       7 -> 16         0.22460
       8 -> 17        -0.11115
       8 -> 20         0.26057
       9 -> 19         0.27287
      10 -> 23         0.50275

 Excited State  69:      Singlet-A"    14.2321 eV   87.12 nm  f=0.0006  <S**2>=0.000
       8 -> 19        -0.18345
       9 -> 20        -0.39421
      10 -> 24         0.52373
      11 -> 26        -0.12988
      13 -> 35        -0.11682

 Excited State  70:      Singlet-A"    14.2990 eV   86.71 nm  f=0.0150  <S**2>=0.000
       8 -> 19        -0.11674
       9 -> 20         0.40935
      10 -> 24         0.37251
      13 -> 35         0.39098

 Excited State  71:      Singlet-A'    14.3422 eV   86.45 nm  f=0.0001  <S**2>=0.000
       8 -> 20        -0.10688
      13 -> 36         0.67693

 Excited State  72:      Singlet-A"    14.3966 eV   86.12 nm  f=0.0864  <S**2>=0.000
       9 -> 20        -0.24879
      10 -> 24        -0.14341
      11 -> 26        -0.36493
      13 -> 35         0.50817

 Excited State  73:      Singlet-A'    14.4537 eV   85.78 nm  f=0.0441  <S**2>=0.000
       9 -> 19         0.23909
      10 -> 23        -0.11553
      10 -> 25        -0.16000
      12 -> 26         0.56745
      13 -> 37         0.15943

 Excited State  74:      Singlet-A"    14.5079 eV   85.46 nm  f=0.1059  <S**2>=0.000
       8 -> 19         0.62977
      10 -> 24         0.22785
      11 -> 26        -0.14790

 Excited State  75:      Singlet-A'    14.5197 eV   85.39 nm  f=0.1054  <S**2>=0.000
       8 -> 20         0.50611
       9 -> 19        -0.20023
       9 -> 21        -0.18752
      10 -> 23        -0.11239
      10 -> 25        -0.27246
      13 -> 37        -0.16398

 Excited State  76:      Singlet-A'    14.5302 eV   85.33 nm  f=0.0384  <S**2>=0.000
       9 -> 19         0.20709
       9 -> 21        -0.11051
      10 -> 25        -0.24023
      12 -> 26        -0.34985
      13 -> 37         0.47095

 Excited State  77:      Singlet-A"    14.6502 eV   84.63 nm  f=0.1307  <S**2>=0.000
       8 -> 19         0.16613
       9 -> 20        -0.23887
       9 -> 22         0.27787
      11 -> 26         0.50846
      13 -> 35         0.19337

 Excited State  78:      Singlet-A'    14.6557 eV   84.60 nm  f=0.0107  <S**2>=0.000
       7 -> 16        -0.10562
       7 -> 18        -0.23125
       8 -> 17         0.10959
       8 -> 20         0.13337
       8 -> 22         0.10909
       9 -> 19         0.24773
       9 -> 21        -0.31821
      10 -> 25         0.34554
      13 -> 37        -0.21734

 Excited State  79:      Singlet-A'    14.6750 eV   84.49 nm  f=0.1351  <S**2>=0.000
       7 -> 17         0.10459
       8 -> 20         0.29328
       9 -> 21         0.45067
      10 -> 23        -0.15292
      10 -> 25         0.27789
      11 -> 27         0.11191
      13 -> 37         0.17974

 Excited State  80:      Singlet-A"    14.7597 eV   84.00 nm  f=0.0085  <S**2>=0.000
       8 -> 21         0.20941
       9 -> 22         0.61903
      11 -> 26        -0.21535
      13 -> 35        -0.10696

 Excited State  81:      Singlet-A'    14.7739 eV   83.92 nm  f=0.0713  <S**2>=0.000
       7 -> 18         0.24315
       8 -> 22         0.22022
       9 -> 19        -0.13876
       9 -> 21        -0.26978
      10 -> 25         0.28115
      10 -> 26        -0.10557
      11 -> 27        -0.21090
      12 -> 25        -0.12774
      13 -> 37         0.29144

 Excited State  82:      Singlet-A"    14.8937 eV   83.25 nm  f=0.1134  <S**2>=0.000
       8 -> 21         0.44143
       9 -> 22        -0.13872
      12 -> 27         0.51101

 Excited State  83:      Singlet-A'    14.9053 eV   83.18 nm  f=0.0182  <S**2>=0.000
       7 -> 17         0.59283
       8 -> 22        -0.26991
      11 -> 27        -0.19909
      13 -> 38         0.13155

 Excited State  84:      Singlet-A'    14.9472 eV   82.95 nm  f=0.0096  <S**2>=0.000
       7 -> 18         0.21031
       8 -> 22         0.25832
      11 -> 27         0.17707
      13 -> 37        -0.11051
      13 -> 38         0.57198

 Excited State  85:      Singlet-A'    14.9804 eV   82.76 nm  f=0.0276  <S**2>=0.000
       7 -> 17         0.28526
       8 -> 20        -0.10255
       8 -> 22         0.13804
       9 -> 21        -0.11455
      10 -> 26        -0.10717
      11 -> 27         0.52256
      13 -> 38        -0.26712

 Excited State  86:      Singlet-A"    15.0262 eV   82.51 nm  f=0.0143  <S**2>=0.000
       8 -> 21         0.45542
       9 -> 22        -0.11012
      11 -> 29         0.10132
      12 -> 27        -0.45528
      13 -> 39         0.10912

 Excited State  87:      Singlet-A'    15.0797 eV   82.22 nm  f=0.0830  <S**2>=0.000
       7 -> 17         0.17269
       8 -> 22         0.35132
      10 -> 25        -0.13607
      10 -> 26         0.44545
      11 -> 27        -0.20953
      13 -> 38        -0.19839

 Excited State  88:      Singlet-A"    15.1112 eV   82.05 nm  f=0.0004  <S**2>=0.000
      13 -> 39         0.69316

 Excited State  89:      Singlet-A'    15.1649 eV   81.76 nm  f=0.1739  <S**2>=0.000
       7 -> 18        -0.10291
       8 -> 22        -0.18658
       9 -> 21        -0.14435
       9 -> 23         0.35629
      10 -> 26         0.44491
      11 -> 27         0.19507
      13 -> 38         0.10140

 Excited State  90:      Singlet-A'    15.2471 eV   81.32 nm  f=0.0004  <S**2>=0.000
       7 -> 18        -0.27089
       8 -> 22         0.11879
      13 -> 40         0.62086

 Excited State  91:      Singlet-A'    15.3433 eV   80.81 nm  f=0.0311  <S**2>=0.000
       7 -> 18         0.42940
       7 -> 20        -0.10002
       8 -> 17         0.10391
       8 -> 22        -0.22742
       9 -> 19         0.15076
       9 -> 25        -0.12192
      10 -> 21         0.11217
      11 -> 28         0.12097
      13 -> 40         0.29495

 Excited State  92:      Singlet-A"    15.4211 eV   80.40 nm  f=0.0026  <S**2>=0.000
       8 -> 23         0.24509
      10 -> 27        -0.14592
      13 -> 41         0.63463

 Excited State  93:      Singlet-A'    15.4734 eV   80.13 nm  f=0.1346  <S**2>=0.000
       7 -> 20        -0.20028
       8 -> 22         0.11894
       9 -> 23         0.54874
      10 -> 26        -0.21426
      11 -> 28        -0.21127

 Excited State  94:      Singlet-A"    15.5090 eV   79.94 nm  f=0.0185  <S**2>=0.000
       7 -> 19        -0.15195
       8 -> 23         0.48360
       9 -> 24        -0.27560
      10 -> 27         0.32956
      12 -> 28         0.11964
      13 -> 41        -0.13548

 Excited State  95:      Singlet-A"    15.5739 eV   79.61 nm  f=0.0018  <S**2>=0.000
       8 -> 23        -0.31938
       8 -> 25        -0.11216
       9 -> 24        -0.14339
      10 -> 27         0.53149
      12 -> 28        -0.11830
      13 -> 41         0.23975

 Excited State  96:      Singlet-A"    15.5964 eV   79.50 nm  f=0.0307  <S**2>=0.000
       7 -> 19        -0.16507
       8 -> 23         0.20896
       9 -> 24         0.55220
      10 -> 27         0.21400
      12 -> 28        -0.24277

 Excited State  97:      Singlet-A"    15.6916 eV   79.01 nm  f=0.0435  <S**2>=0.000
       7 -> 19         0.10664
       9 -> 24         0.23810
      10 -> 27         0.13188
      11 -> 29         0.33278
      12 -> 28         0.49256
      13 -> 42        -0.20288

 Excited State  98:      Singlet-A"    15.7138 eV   78.90 nm  f=0.0121  <S**2>=0.000
       9 -> 24         0.14469
      11 -> 29         0.14560
      12 -> 28         0.10632
      13 -> 42         0.64790

 Excited State  99:      Singlet-A"    15.7615 eV   78.66 nm  f=0.0141  <S**2>=0.000
       7 -> 19         0.60619
       8 -> 23         0.16318
       8 -> 25         0.10123
      13 -> 43         0.21790

 Excited State 100:      Singlet-A'    15.7639 eV   78.65 nm  f=0.0096  <S**2>=0.000
       8 -> 24         0.66028
       9 -> 25        -0.16051
      11 -> 28        -0.11614

 Excited State 101:      Singlet-A'    15.8308 eV   78.32 nm  f=0.0660  <S**2>=0.000
       7 -> 20         0.42819
       8 -> 24        -0.17488
       9 -> 25        -0.21336
      11 -> 28        -0.38321
      12 -> 29         0.24230

 Excited State 102:      Singlet-A"    15.8362 eV   78.29 nm  f=0.0050  <S**2>=0.000
       7 -> 19        -0.19055
       8 -> 25         0.14482
      13 -> 42        -0.10265
      13 -> 43         0.63591

 Excited State 103:      Singlet-A'    15.8870 eV   78.04 nm  f=0.0553  <S**2>=0.000
       7 -> 20         0.40672
       7 -> 22         0.18683
       9 -> 23         0.12786
       9 -> 25         0.37458
      11 -> 28         0.30385

 Excited State 104:      Singlet-A'    16.0419 eV   77.29 nm  f=0.1379  <S**2>=0.000
       7 -> 20        -0.12468
       9 -> 25        -0.19372
       9 -> 26         0.22245
      11 -> 28         0.23626
      12 -> 29         0.52556

 Excited State 105:      Singlet-A"    16.0610 eV   77.20 nm  f=0.2522  <S**2>=0.000
       7 -> 21         0.24086
       8 -> 25        -0.18421
      11 -> 29         0.48484
      12 -> 28        -0.28562
      12 -> 31         0.14897
      13 -> 43         0.10801

 Excited State 106:      Singlet-A'    16.1000 eV   77.01 nm  f=0.2085  <S**2>=0.000
       7 -> 20        -0.17110
       7 -> 22         0.10196
       8 -> 22        -0.12157
       9 -> 23        -0.10375
       9 -> 25         0.42706
      11 -> 28        -0.30692
      11 -> 30         0.10467
      12 -> 29         0.25215

 Excited State 107:      Singlet-A"    16.1441 eV   76.80 nm  f=0.0003  <S**2>=0.000
       7 -> 21         0.48172
       8 -> 25         0.46101
      12 -> 30        -0.12404

 Excited State 108:      Singlet-A"    16.2308 eV   76.39 nm  f=0.0135  <S**2>=0.000

 The electronic state is 1-A'.
 Alpha  occ. eigenvalues --  -14.24502 -10.14170 -10.14170  -0.87044  -0.67516
 Alpha  occ. eigenvalues --   -0.60372  -0.47273  -0.42570  -0.42005  -0.37089
 Alpha  occ. eigenvalues --   -0.34985  -0.34741  -0.20661
 Alpha virt. eigenvalues --    0.02212   0.05239   0.06145   0.09485   0.09804
 Alpha virt. eigenvalues --    0.12420   0.12555   0.13971   0.14298   0.16360
 Alpha virt. eigenvalues --    0.17294   0.18314   0.20501   0.22065   0.24889

 Mulliken charges:
               1
     1  C    0.577441
     2  N   -0.722341
     3  C    0.577441
     4  H   -0.163513
     5  H    0.031779
     6  H   -0.057385
     7  H   -0.054303
     8  H   -0.057385
     9  H    0.031779
    10  H   -0.163513
 Sum of Mulliken charges =  -0.00000

 Dipole moment (field-independent basis, Debye):
    X=              0.8942    Y=             -0.3260    Z=             -0.0000  Tot=              0.9518
 Quadrupole moment (field-independent basis, Debye-Ang):
   XX=            -20.9755   YY=            -21.4929   ZZ=            -19.9898
   XY=              2.0877   XZ=              0.0000   YZ=             -0.0000

 Normal termination of Gaussian 16 at Mon Mar 21 04:07:08 2022.
