 Gaussian 16, Revision C.01,
 Gaussian 16:  EM64L-G16RevC.01  3-Jul-2019

 ---------------------------------------------------------------------
 #P TD(Nstates=10000) tpssh/Gen SCF(maxcycles=100) Int(Grid=ultrafine)
 ---------------------------------------------------------------------

 ---------------------
 xGDB7_00001_tier4.com
 ---------------------
 Symbolic Z-matrix:
 Charge =  0 Multiplicity = 1

                         Standard orientation:
 ---------------------------------------------------------------------
 Center     Atomic      Atomic             Coordinates (Angstroms)
 Number     Number       Type             X           Y           Z
 ---------------------------------------------------------------------
      1          6           0        0.037922   -0.393776    0.738519
      2          6           0        0.037922   -0.393776   -0.738519
      3          7           0        0.037922    0.865964    0.000000
      4          1           0        0.953211   -0.606479    1.276872
      5          1           0       -0.870248   -0.700655    1.244917
      6          1           0       -0.870248   -0.700655   -1.244917
      7          1           0        0.953211   -0.606479   -1.276872
      8          1           0       -0.886454    1.277834    0.000000
 ---------------------------------------------------------------------

 SCF Done:  E(RTPSSh) =  -133.847191043     A.U. after   12 cycles

 Excitation energies and oscillator strengths:

 Excited State   1:      Singlet-A'     6.5781 eV  188.48 nm  f=0.0021  <S**2>=0.000
      12 -> 13         0.70292
 This state for optimization and/or second-order correction.
 Total Energy, E(TD-HF/TD-DFT) =  -133.605448700
 Copying the excited state density for this state as the 1-particle RhoCI density.

 Excited State   2:      Singlet-A"     7.3205 eV  169.37 nm  f=0.0040  <S**2>=0.000
      12 -> 14         0.70660

 Excited State   3:      Singlet-A'     7.3447 eV  168.81 nm  f=0.0297  <S**2>=0.000
      12 -> 15         0.70307

 Excited State   4:      Singlet-A'     8.1268 eV  152.56 nm  f=0.0788  <S**2>=0.000
      12 -> 16         0.70349

 Excited State   5:      Singlet-A"     8.8390 eV  140.27 nm  f=0.0427  <S**2>=0.000
      12 -> 17         0.69497

 Excited State   6:      Singlet-A'     8.8888 eV  139.48 nm  f=0.0093  <S**2>=0.000
      11 -> 13         0.70149

 Excited State   7:      Singlet-A"     9.2064 eV  134.67 nm  f=0.0017  <S**2>=0.000
      10 -> 13         0.70401

 Excited State   8:      Singlet-A'     9.2073 eV  134.66 nm  f=0.0059  <S**2>=0.000
      12 -> 18         0.69876

 Excited State   9:      Singlet-A"     9.6436 eV  128.57 nm  f=0.0471  <S**2>=0.000
      10 -> 15         0.12634
      11 -> 14         0.69091

 Excited State  10:      Singlet-A'     9.6712 eV  128.20 nm  f=0.0424  <S**2>=0.000
      11 -> 15         0.69783

 Excited State  11:      Singlet-A"     9.7586 eV  127.05 nm  f=0.0203  <S**2>=0.000
      12 -> 19         0.70542

 Excited State  12:      Singlet-A"     9.9493 eV  124.62 nm  f=0.0316  <S**2>=0.000
       9 -> 13        -0.39377
      10 -> 15         0.56919
      11 -> 14        -0.12453

 Excited State  13:      Singlet-A'     9.9718 eV  124.34 nm  f=0.0290  <S**2>=0.000
      10 -> 14         0.69530
      12 -> 20        -0.10608

 Excited State  14:      Singlet-A"     9.9896 eV  124.11 nm  f=0.0489  <S**2>=0.000
       9 -> 13         0.58484
      10 -> 15         0.39121

 Excited State  15:      Singlet-A'    10.0876 eV  122.91 nm  f=0.0198  <S**2>=0.000
      10 -> 14         0.10301
      12 -> 20         0.69286

 Excited State  16:      Singlet-A'    10.4201 eV  118.99 nm  f=0.0275  <S**2>=0.000
      11 -> 16         0.69837

 Excited State  17:      Singlet-A"    10.6575 eV  116.33 nm  f=0.0026  <S**2>=0.000
       9 -> 15        -0.37399
      10 -> 16         0.58102
      11 -> 17        -0.13592

 Excited State  18:      Singlet-A'    10.7389 eV  115.45 nm  f=0.0836  <S**2>=0.000
       9 -> 14         0.70310

 Excited State  19:      Singlet-A"    10.7413 eV  115.43 nm  f=0.0065  <S**2>=0.000
       9 -> 15         0.45916
      10 -> 16         0.29937
      11 -> 17        -0.10413
      12 -> 21         0.43214

 Excited State  20:      Singlet-A"    10.8237 eV  114.55 nm  f=0.0134  <S**2>=0.000
       9 -> 15        -0.38119
      10 -> 16        -0.22012
      12 -> 21         0.54728

 Excited State  21:      Singlet-A"    11.0950 eV  111.75 nm  f=0.0055  <S**2>=0.000
      12 -> 22         0.70101

 Excited State  22:      Singlet-A'    11.2161 eV  110.54 nm  f=0.0090  <S**2>=0.000
      10 -> 17        -0.23934
      12 -> 23         0.65454

 Excited State  23:      Singlet-A"    11.3946 eV  108.81 nm  f=0.2131  <S**2>=0.000
       9 -> 16        -0.22778
      10 -> 16         0.14224
      11 -> 17         0.60741

 Excited State  24:      Singlet-A'    11.4142 eV  108.62 nm  f=0.0469  <S**2>=0.000
      10 -> 17        -0.34155
      11 -> 18         0.34595
      12 -> 24         0.49202

 Excited State  25:      Singlet-A'    11.5729 eV  107.13 nm  f=0.0123  <S**2>=0.000
      10 -> 17         0.13224
      11 -> 18         0.60528
      12 -> 24        -0.31260

 Excited State  26:      Singlet-A"    11.6271 eV  106.63 nm  f=0.0521  <S**2>=0.000
       9 -> 16         0.65548
      10 -> 18         0.10666
      11 -> 17         0.19517

 Excited State  27:      Singlet-A"    11.8164 eV  104.93 nm  f=0.0025  <S**2>=0.000
      10 -> 18         0.69589

 Excited State  28:      Singlet-A'    11.9281 eV  103.94 nm  f=0.0139  <S**2>=0.000
       9 -> 17         0.41219
      10 -> 17         0.16459
      12 -> 24         0.16972
      12 -> 25         0.51191

 Excited State  29:      Singlet-A'    11.9739 eV  103.54 nm  f=0.0125  <S**2>=0.000
       9 -> 17        -0.28058
      10 -> 17        -0.28997
      11 -> 20        -0.23581
      12 -> 23        -0.10097
      12 -> 24        -0.21370
      12 -> 25         0.43616
      12 -> 27        -0.13350

 Excited State  30:      Singlet-A'    12.0340 eV  103.03 nm  f=0.0177  <S**2>=0.000
       9 -> 17         0.48804
      10 -> 17        -0.27088
      11 -> 20        -0.24005
      12 -> 23        -0.11899
      12 -> 24        -0.19128
      12 -> 25        -0.19346
      12 -> 27        -0.15044

 Excited State  31:      Singlet-A"    12.0377 eV  103.00 nm  f=0.0084  <S**2>=0.000
      11 -> 19         0.69406

 Excited State  32:      Singlet-A'    12.3601 eV  100.31 nm  f=0.0174  <S**2>=0.000
      10 -> 19         0.69622

 Excited State  33:      Singlet-A'    12.5649 eV   98.67 nm  f=0.0313  <S**2>=0.000
       8 -> 13         0.68453
      11 -> 20         0.15012

 Excited State  34:      Singlet-A"    12.6030 eV   98.38 nm  f=0.0273  <S**2>=0.000
       9 -> 18         0.29613
      10 -> 20         0.10738
      12 -> 26         0.61523

 Excited State  35:      Singlet-A"    12.6187 eV   98.25 nm  f=0.0148  <S**2>=0.000
       9 -> 18         0.61748
      10 -> 20        -0.20650
      12 -> 26        -0.25300

 Excited State  36:      Singlet-A'    12.6461 eV   98.04 nm  f=0.0135  <S**2>=0.000
       9 -> 19        -0.17008
      10 -> 17        -0.11725
      10 -> 21         0.11838
      11 -> 20         0.51877
      12 -> 24        -0.13119
      12 -> 27        -0.30299
      12 -> 28         0.11534

 Excited State  37:      Singlet-A"    12.6576 eV   97.95 nm  f=0.0102  <S**2>=0.000
       9 -> 18         0.14141
      10 -> 20         0.65951
      12 -> 26        -0.16111

 Excited State  38:      Singlet-A'    12.9603 eV   95.66 nm  f=0.0909  <S**2>=0.000
       8 -> 15        -0.19874
      10 -> 17        -0.19001
      10 -> 21        -0.15444
      11 -> 20         0.13954
      12 -> 27         0.53451
      12 -> 28         0.19805

 Excited State  39:      Singlet-A"    13.1277 eV   94.44 nm  f=0.0114  <S**2>=0.000
      11 -> 21         0.67534
      11 -> 22        -0.13332

 Excited State  40:      Singlet-A'    13.2359 eV   93.67 nm  f=0.0062  <S**2>=0.000
       8 -> 15        -0.30580
       9 -> 19         0.56018
      10 -> 21         0.28220

 Excited State  41:      Singlet-A"    13.2744 eV   93.40 nm  f=0.0912  <S**2>=0.000
       8 -> 14         0.68939
       9 -> 20        -0.13105

 Excited State  42:      Singlet-A'    13.3459 eV   92.90 nm  f=0.2203  <S**2>=0.000
       8 -> 15         0.58276
       9 -> 19         0.20245
      10 -> 21         0.17883
      11 -> 25        -0.11395
      12 -> 27         0.12707
      12 -> 28         0.12098

 Excited State  43:      Singlet-A"    13.3911 eV   92.59 nm  f=0.0366  <S**2>=0.000
       9 -> 20         0.27670
      11 -> 22         0.63143

 Excited State  44:      Singlet-A'    13.4416 eV   92.24 nm  f=0.0441  <S**2>=0.000
      10 -> 17         0.10807
      10 -> 21        -0.11312
      11 -> 23        -0.21081
      11 -> 24        -0.12400
      12 -> 27        -0.10854
      12 -> 28         0.61098

 Excited State  45:      Singlet-A"    13.4956 eV   91.87 nm  f=0.0012  <S**2>=0.000
       8 -> 14         0.12074
       9 -> 20         0.61977
      11 -> 21        -0.10151
      11 -> 22        -0.25699

 Excited State  46:      Singlet-A'    13.5123 eV   91.76 nm  f=0.0344  <S**2>=0.000
      10 -> 21         0.10107
      11 -> 23         0.63602
      12 -> 28         0.16700

 Excited State  47:      Singlet-A'    13.6411 eV   90.89 nm  f=0.0031  <S**2>=0.000
       7 -> 13        -0.32817
       8 -> 16        -0.17947
       9 -> 19        -0.22262
      10 -> 21         0.49164
      11 -> 23        -0.15080

 Excited State  48:      Singlet-A'    13.7120 eV   90.42 nm  f=0.0062  <S**2>=0.000
      10 -> 22         0.65110
      11 -> 24        -0.26527

 Excited State  49:      Singlet-A"    13.7470 eV   90.19 nm  f=0.0009  <S**2>=0.000
      10 -> 23         0.21004
      12 -> 29         0.66415

 Excited State  50:      Singlet-A"    13.7831 eV   89.95 nm  f=0.0153  <S**2>=0.000
      10 -> 23         0.66642
      12 -> 29        -0.21386

 Excited State  51:      Singlet-A'    13.8663 eV   89.41 nm  f=0.0104  <S**2>=0.000
       8 -> 16         0.14084
      10 -> 22         0.24519
      11 -> 24         0.59033

 Excited State  52:      Singlet-A'    14.0875 eV   88.01 nm  f=0.0905  <S**2>=0.000
       7 -> 13         0.46255
       8 -> 16        -0.42148
       9 -> 21         0.19128
       9 -> 22        -0.17231
      11 -> 24         0.12237

 Excited State  53:      Singlet-A"    14.1158 eV   87.83 nm  f=0.0346  <S**2>=0.000
      10 -> 24         0.68758

 Excited State  54:      Singlet-A'    14.2530 eV   86.99 nm  f=0.0201  <S**2>=0.000
       8 -> 16         0.24307
       9 -> 21         0.60500
      11 -> 25        -0.20935
      12 -> 30         0.10124

 Excited State  55:      Singlet-A'    14.3714 eV   86.27 nm  f=0.0369  <S**2>=0.000
       9 -> 21        -0.18463
      11 -> 25        -0.16508
      12 -> 30         0.64339

 Excited State  56:      Singlet-A'    14.4542 eV   85.78 nm  f=0.1544  <S**2>=0.000
       7 -> 15        -0.17261
       9 -> 21         0.18921
      11 -> 25         0.54976
      12 -> 30         0.24049

 Excited State  57:      Singlet-A"    14.4792 eV   85.63 nm  f=0.0000  <S**2>=0.000
       8 -> 17         0.28290
       9 -> 23         0.50427
      10 -> 25         0.39089

 Excited State  58:      Singlet-A'    14.4871 eV   85.58 nm  f=0.0122  <S**2>=0.000
       7 -> 13         0.32100
       7 -> 15        -0.32420
       7 -> 16         0.11752
       8 -> 16         0.34817
       9 -> 19        -0.14596
      10 -> 21         0.18491
      11 -> 20        -0.10136
      11 -> 25         0.11400

 Excited State  59:      Singlet-A"    14.5432 eV   85.25 nm  f=0.0067  <S**2>=0.000
       8 -> 17         0.61127
      10 -> 25        -0.31806

 Excited State  60:      Singlet-A'    14.6405 eV   84.69 nm  f=0.1748  <S**2>=0.000
       7 -> 15        -0.22019
       8 -> 16        -0.16763
       9 -> 22         0.56704
      10 -> 26         0.16350
      11 -> 25        -0.17857

 Excited State  61:      Singlet-A"    14.6736 eV   84.49 nm  f=0.0243  <S**2>=0.000
       7 -> 14         0.68069
      12 -> 31         0.12220

 Excited State  62:      Singlet-A"    14.7451 eV   84.08 nm  f=0.0724  <S**2>=0.000
       8 -> 17        -0.13519
       9 -> 23         0.40530
       9 -> 24         0.29965
      10 -> 25        -0.35172
      12 -> 31        -0.28237

 Excited State  63:      Singlet-A"    14.8122 eV   83.70 nm  f=0.0006  <S**2>=0.000
       9 -> 23         0.10363
       9 -> 24         0.25512
      10 -> 25        -0.15621
      12 -> 31         0.60653

 Excited State  64:      Singlet-A'    14.8132 eV   83.70 nm  f=0.2793  <S**2>=0.000
       7 -> 13         0.11497
       7 -> 15         0.52469
       8 -> 18         0.24518
       9 -> 22         0.24649
      10 -> 21         0.10576
      11 -> 25         0.15776
      12 -> 32         0.10623

 Excited State  65:      Singlet-A"    14.9006 eV   83.21 nm  f=0.0002  <S**2>=0.000
       7 -> 14        -0.10004
       9 -> 24        -0.10074
      11 -> 26         0.67352

 Excited State  66:      Singlet-A'    15.0277 eV   82.50 nm  f=0.0487  <S**2>=0.000
      10 -> 26         0.13250
      11 -> 27        -0.32262
      12 -> 32         0.56967

 Excited State  67:      Singlet-A'    15.0800 eV   82.22 nm  f=0.0446  <S**2>=0.000
      10 -> 26         0.33797
      11 -> 27         0.56217
      12 -> 32         0.22360

 Excited State  68:      Singlet-A"    15.1025 eV   82.10 nm  f=0.4119  <S**2>=0.000
       9 -> 23        -0.16969
       9 -> 24         0.53706
       9 -> 25         0.18227
      10 -> 25         0.24948
      10 -> 28         0.11492
      11 -> 26         0.14493

 Excited State  69:      Singlet-A'    15.2134 eV   81.50 nm  f=0.0606  <S**2>=0.000
       7 -> 16        -0.26087
       8 -> 18         0.47627
      10 -> 26        -0.34717
      12 -> 32         0.17635

 Excited State  70:      Singlet-A"    15.3139 eV   80.96 nm  f=0.0001  <S**2>=0.000
       9 -> 25         0.27505
      10 -> 27         0.63240

 Excited State  71:      Singlet-A'    15.4140 eV   80.44 nm  f=0.1911  <S**2>=0.000
       7 -> 16        -0.15512
       8 -> 18         0.28314
       9 -> 22        -0.11485
      10 -> 26         0.35465
      11 -> 27        -0.16982
      12 -> 32        -0.15890
      12 -> 33         0.39605

 Excited State  72:      Singlet-A"    15.5029 eV   79.97 nm  f=0.0598  <S**2>=0.000
       9 -> 24        -0.12845
       9 -> 25         0.60624
      10 -> 27        -0.25720
      11 -> 29         0.11585

 Excited State  73:      Singlet-A'    15.6282 eV   79.33 nm  f=0.3445  <S**2>=0.000
       7 -> 16        -0.36147
       8 -> 18        -0.29529
       9 -> 22         0.12878
      10 -> 26        -0.15750
      11 -> 27         0.13345
      11 -> 28        -0.10487
      12 -> 33         0.39820

 Excited State  74:      Singlet-A'    15.6883 eV   79.03 nm  f=0.0159  <S**2>=0.000
       6 -> 14         0.10465
       7 -> 16         0.46932
       8 -> 16        -0.10691
      10 -> 26        -0.18298
      12 -> 33         0.39685

 Excited State  75:      Singlet-A"    15.7211 eV   78.86 nm  f=0.0142  <S**2>=0.000
       8 -> 19         0.66927
      10 -> 28        -0.12995

 Excited State  76:      Singlet-A'    15.7402 eV   78.77 nm  f=0.0464  <S**2>=0.000
      11 -> 28         0.67152

 Excited State  77:      Singlet-A"    15.8213 eV   78.37 nm  f=0.0013  <S**2>=0.000
       7 -> 17         0.53432
      10 -> 28         0.28294
      11 -> 29         0.34125

 Excited State  78:      Singlet-A"    15.8708 eV   78.12 nm  f=0.0216  <S**2>=0.000
      10 -> 28        -0.19871
      12 -> 34         0.66605

 Excited State  79:      Singlet-A"    16.0206 eV   77.39 nm  f=0.0646  <S**2>=0.000
       6 -> 13         0.12146
       7 -> 17        -0.36252
       9 -> 27        -0.22662
      10 -> 28         0.47011
      11 -> 29         0.11544
      12 -> 34         0.20565

 Excited State  80:      Singlet-A'    16.0285 eV   77.35 nm  f=0.0471  <S**2>=0.000
       8 -> 20        -0.45851
       9 -> 26         0.52843

 Excited State  81:      Singlet-A'    16.0828 eV   77.09 nm  f=0.2116  <S**2>=0.000
       8 -> 20         0.49208
       9 -> 26         0.42373
      10 -> 29         0.18177

 Excited State  82:      Singlet-A"    16.1115 eV   76.95 nm  f=0.0337  <S**2>=0.000
       7 -> 17        -0.24239
       9 -> 27         0.45595
      11 -> 29         0.46336

 Excited State  83:      Singlet-A"    16.2541 eV   76.28 nm  f=0.1860  <S**2>=0.000
       6 -> 13         0.28625
       9 -> 27         0.45515
       9 -> 28        -0.11160
      10 -> 28         0.23735
      11 -> 29        -0.32125

 Excited State  84:      Singlet-A"    16.4215 eV   75.50 nm  f=0.0082  <S**2>=0.000
       6 -> 13         0.54765
       8 -> 21        -0.10290
       9 -> 28         0.10100
      10 -> 28        -0.13419
      11 -> 29         0.10350
      11 -> 31        -0.12885
      12 -> 35        -0.32091

 Excited State  85:      Singlet-A"    16.4966 eV   75.16 nm  f=0.0085  <S**2>=0.000
       6 -> 13         0.22505
      10 -> 28        -0.12277
      10 -> 30         0.10177
      11 -> 31        -0.11029
      12 -> 35         0.59707
      12 -> 36         0.10917

 Excited State  86:      Singlet-A'    16.5975 eV   74.70 nm  f=0.0666  <S**2>=0.000
       7 -> 18         0.44270
      10 -> 29         0.39635
      11 -> 30         0.22290
      12 -> 37         0.21724

 Excited State  87:      Singlet-A'    16.6547 eV   74.44 nm  f=0.1157  <S**2>=0.000
       7 -> 18         0.27276
      10 -> 29        -0.33105
      11 -> 30         0.44181
      12 -> 37        -0.28630

 Excited State  88:      Singlet-A'    16.6842 eV   74.31 nm  f=0.1029  <S**2>=0.000
       7 -> 18        -0.42831
      10 -> 29         0.24434
      11 -> 30         0.45408

 Excited State  89:      Singlet-A"    16.6945 eV   74.27 nm  f=0.0002  <S**2>=0.000
      12 -> 35        -0.12927
      12 -> 36         0.68160

 Excited State  90:      Singlet-A"    16.7966 eV   73.81 nm  f=0.0163  <S**2>=0.000
       8 -> 21         0.59000
       9 -> 28         0.32858
      11 -> 31        -0.12514

 Excited State  91:      Singlet-A'    16.8380 eV   73.63 nm  f=0.0898  <S**2>=0.000
       6 -> 14         0.12152
       8 -> 23        -0.10128
      10 -> 29        -0.25096
      11 -> 30         0.18777
      12 -> 37         0.56865

 Excited State  92:      Singlet-A"    16.8405 eV   73.62 nm  f=0.0359  <S**2>=0.000
       8 -> 21        -0.29150
       9 -> 28         0.58524
      11 -> 31         0.16246

 Excited State  93:      Singlet-A"    16.9950 eV   72.95 nm  f=0.0022  <S**2>=0.000
       6 -> 15         0.31161
       7 -> 19         0.17391
       8 -> 21         0.11208
       8 -> 22        -0.30591
      10 -> 30         0.49446

 Excited State  94:      Singlet-A"    17.0423 eV   72.75 nm  f=0.0028  <S**2>=0.000
       6 -> 15         0.31181
       7 -> 19         0.48227
      10 -> 30        -0.31914
      11 -> 31        -0.25021

 Excited State  95:      Singlet-A"    17.0865 eV   72.56 nm  f=0.0009  <S**2>=0.000
       6 -> 15         0.36479
       8 -> 22         0.42035
      11 -> 31         0.39166

 Excited State  96:      Singlet-A"    17.1032 eV   72.49 nm  f=0.0389  <S**2>=0.000
       6 -> 15        -0.31150
       7 -> 19         0.38932
       8 -> 22         0.38482
      10 -> 30         0.28983

 Excited State  97:      Singlet-A'    17.1206 eV   72.42 nm  f=0.0011  <S**2>=0.000
       6 -> 14         0.13706
       8 -> 23         0.37156
      12 -> 38         0.57184

 Excited State  98:      Singlet-A'    17.1550 eV   72.27 nm  f=0.0353  <S**2>=0.000
       8 -> 23         0.56127
       9 -> 29        -0.13863
      10 -> 31        -0.11058
      12 -> 38        -0.34875

 Excited State  99:      Singlet-A'    17.2027 eV   72.07 nm  f=0.0459  <S**2>=0.000
       6 -> 14        -0.17095
       8 -> 23         0.11169
       9 -> 29         0.63039
      11 -> 32         0.18515

 Excited State 100:      Singlet-A'    17.2075 eV   72.05 nm  f=0.0022  <S**2>=0.000
       6 -> 14         0.53546
       8 -> 24         0.11168
       9 -> 29         0.20479
      11 -> 32        -0.28155
      12 -> 38        -0.18499

 Excited State 101:      Singlet-A'    17.3341 eV   71.53 nm  f=0.0622  <S**2>=0.000
       6 -> 14         0.18604
       9 -> 29        -0.10360
      10 -> 31         0.41146
      11 -> 32         0.46146
      12 -> 40        -0.18014

 Excited State 102:      Singlet-A'    17.3407 eV   71.50 nm  f=0.0162  <S**2>=0.000
       5 -> 13         0.18718
       6 -> 14         0.15953
       7 -> 20         0.43943
      10 -> 31        -0.38952
      11 -> 32         0.25048
      12 -> 40        -0.13429

 Excited State 103:      Singlet-A"    17.3506 eV   71.46 nm  f=0.0190  <S**2>=0.000
      10 -> 32        -0.17965
      12 -> 39         0.67060

 Excited State 104:      Singlet-A'    17.4032 eV   71.24 nm  f=0.0102  <S**2>=0.000
       6 -> 14         0.14934
       8 -> 24         0.15777
      11 -> 32         0.20186
      12 -> 40         0.62403

 Excited State 105:      Singlet-A"    17.4092 eV   71.22 nm  f=0.0223  <S**2>=0.000
       5 -> 14         0.10169
       6 -> 13         0.11376
       6 -> 15        -0.20119
       7 -> 19         0.20854
       7 -> 21        -0.14951
       8 -> 21         0.10239
       8 -> 22        -0.17988
      10 -> 30        -0.12582
      10 -> 32         0.31126
      11 -> 31         0.35007
      12 -> 39         0.15397

 Excited State 106:      Singlet-A'    17.4582 eV   71.02 nm  f=0.0284  <S**2>=0.000
       5 -> 13         0.58938
       7 -> 20        -0.35008

 Excited State 107:      Singlet-A'    17.4876 eV   70.90 nm  f=0.0446  <S**2>=0.000
       8 -> 24         0.63940
      11 -> 32         0.10392
      12 -> 40        -0.16952

 Excited State 108:      Singlet-A"    17.6639 eV   70.19 nm  f=0.0007  <S**2>=0.000
       5 -> 14        -0.12270
       8 -> 22         0.11919
       9 -> 30         0.20091
      10 -> 32         0.56954
      11 -> 31        -0.15826
      12 -> 39         0.11432

 Excited State 109:      Singlet-A"    17.7577 eV   69.82 nm  f=0.0005  <S**2>=0.000
       6 -> 16         0.15487
       9 -> 30         0.63784
      10 -> 32        -0.15396

 Excited State 110:      Singlet-A'    17.8461 eV   69.47 nm  f=0.0012  <S**2>=0.000
       7 -> 20         0.16083
       8 -> 25         0.29628
       9 -> 31        -0.10837
      10 -> 31         0.12223
      11 -> 33         0.56771

 The electronic state is 1-A'.
 Alpha  occ. eigenvalues --  -14.25822 -10.15269 -10.15247  -0.92974  -0.63440
 Alpha  occ. eigenvalues --   -0.59344  -0.50589  -0.45453  -0.36152  -0.33304
 Alpha  occ. eigenvalues --   -0.32170  -0.23643
 Alpha virt. eigenvalues --    0.02521   0.05058   0.05270   0.08246   0.10561
 Alpha virt. eigenvalues --    0.12221   0.14081   0.15504   0.18382   0.19120
 Alpha virt. eigenvalues --    0.19539   0.20704   0.22487   0.24722   0.25493

 Mulliken charges:
               1
     1  C    0.544521
     2  C    0.544521
     3  N   -0.431034
     4  H   -0.195991
     5  H   -0.124966
     6  H   -0.124966
     7  H   -0.195991
     8  H   -0.016093
 Sum of Mulliken charges =  -0.00000

 Dipole moment (field-independent basis, Debye):
    X=             -1.2823    Y=             -1.0321    Z=             -0.0000  Tot=              1.6461
 Quadrupole moment (field-independent basis, Debye-Ang):
   XX=            -17.8248   YY=            -21.1729   ZZ=            -18.6655
   XY=             -2.1078   XZ=              0.0000   YZ=              0.0000

 Normal termination of Gaussian 16 at Mon Mar 21 20:11:23 2022.
