 Gaussian 16, Revision C.01,
 Gaussian 16:  EM64L-G16RevC.01  3-Jul-2019

 ---------------------------------------------------------------------
 #P TD(Nstates=10000) tpssh/Gen SCF(maxcycles=100) Int(Grid=ultrafine)
 ---------------------------------------------------------------------

 ---------------------
 xGDB7_00001_tier4.com
 ---------------------
 Symbolic Z-matrix:
 Charge =  0 Multiplicity = 1

                         Standard orientation:
 ---------------------------------------------------------------------
 Center     Atomic      Atomic             Coordinates (Angstroms)
 Number     Number       Type             X           Y           Z
 ---------------------------------------------------------------------
      1          7           0        1.111035   -0.177046   -0.052467
      2          6           0       -0.122009    0.419593    0.001774
      3          7           0       -1.267607   -0.121443    0.008098
      4          1           0        1.920558    0.367802    0.180104
      5          1           0        1.180700   -1.165617    0.115308
      6          1           0       -0.065701    1.508813    0.004046
      7          1           0       -1.207497   -1.139126    0.000481
 ---------------------------------------------------------------------

 SCF Done:  E(RTPSSh) =  -149.911126035     A.U. after   13 cycles

 Excitation energies and oscillator strengths:

 Excited State   1:      Singlet-A      6.2439 eV  198.57 nm  f=0.0053  <S**2>=0.000
      11 -> 13        -0.21579
      12 -> 13         0.43999
      12 -> 14         0.50180
 This state for optimization and/or second-order correction.
 Total Energy, E(TD-HF/TD-DFT) =  -149.681666197
 Copying the excited state density for this state as the 1-particle RhoCI density.

 Excited State   2:      Singlet-A      6.3703 eV  194.63 nm  f=0.0018  <S**2>=0.000
      11 -> 13         0.60286
      11 -> 14        -0.14241
      12 -> 14         0.33369

 Excited State   3:      Singlet-A      6.7364 eV  184.05 nm  f=0.0087  <S**2>=0.000
      11 -> 14         0.66925
      12 -> 13        -0.18159

 Excited State   4:      Singlet-A      7.0822 eV  175.07 nm  f=0.0124  <S**2>=0.000
      12 -> 13         0.11084
      12 -> 15         0.68327

 Excited State   5:      Singlet-A      7.3281 eV  169.19 nm  f=0.2639  <S**2>=0.000
      11 -> 13         0.25531
      11 -> 14         0.12839
      11 -> 15         0.16072
      11 -> 16        -0.13739
      12 -> 13         0.46126
      12 -> 14        -0.31402
      12 -> 15        -0.17383

 Excited State   6:      Singlet-A      7.5816 eV  163.53 nm  f=0.0955  <S**2>=0.000
      11 -> 15         0.68294
      12 -> 13        -0.10558

 Excited State   7:      Singlet-A      7.7448 eV  160.09 nm  f=0.0336  <S**2>=0.000
      12 -> 16         0.69324

 Excited State   8:      Singlet-A      8.1427 eV  152.26 nm  f=0.0343  <S**2>=0.000
      11 -> 16         0.68534

 Excited State   9:      Singlet-A      8.8368 eV  140.30 nm  f=0.0066  <S**2>=0.000
      12 -> 17         0.70286

 Excited State  10:      Singlet-A      9.2649 eV  133.82 nm  f=0.0106  <S**2>=0.000
      11 -> 17         0.56799
      12 -> 18         0.41611

 Excited State  11:      Singlet-A      9.2764 eV  133.66 nm  f=0.0041  <S**2>=0.000
      11 -> 17        -0.41567
      12 -> 18         0.56613

 Excited State  12:      Singlet-A      9.7246 eV  127.50 nm  f=0.0498  <S**2>=0.000
      10 -> 13         0.38644
      10 -> 14         0.58997

 Excited State  13:      Singlet-A      9.8091 eV  126.40 nm  f=0.0048  <S**2>=0.000
      11 -> 18         0.69535

 Excited State  14:      Singlet-A     10.0725 eV  123.09 nm  f=0.0181  <S**2>=0.000
      12 -> 19         0.64969
      12 -> 20         0.21076

 Excited State  15:      Singlet-A     10.1630 eV  122.00 nm  f=0.0117  <S**2>=0.000
       9 -> 13         0.16680
      10 -> 13        -0.11315
      12 -> 19        -0.17448
      12 -> 20         0.63794

 Excited State  16:      Singlet-A     10.2578 eV  120.87 nm  f=0.0019  <S**2>=0.000
       9 -> 13         0.63361
       9 -> 14        -0.22308
      10 -> 15         0.13476
      12 -> 20        -0.15258

 Excited State  17:      Singlet-A     10.3968 eV  119.25 nm  f=0.0150  <S**2>=0.000
       9 -> 14        -0.10631
      10 -> 13         0.20656
      10 -> 14        -0.14663
      11 -> 19         0.60791
      12 -> 20         0.11841

 Excited State  18:      Singlet-A     10.4693 eV  118.43 nm  f=0.0305  <S**2>=0.000
       9 -> 13        -0.10438
       9 -> 14        -0.20865
      10 -> 13         0.35610
      10 -> 14        -0.23529
      10 -> 15         0.31901
      11 -> 19        -0.33452
      12 -> 19        -0.12175
      12 -> 21         0.11417

 Excited State  19:      Singlet-A     10.5716 eV  117.28 nm  f=0.0089  <S**2>=0.000
       9 -> 14         0.21321
      10 -> 13        -0.16455
      10 -> 14         0.11407
      10 -> 15         0.54391
      11 -> 20        -0.30736

 Excited State  20:      Singlet-A     10.6030 eV  116.93 nm  f=0.0293  <S**2>=0.000
       9 -> 14         0.10000
      10 -> 13        -0.11284
      10 -> 15         0.25496
      11 -> 20         0.61703
      12 -> 21        -0.14963

 Excited State  21:      Singlet-A     10.7959 eV  114.84 nm  f=0.0359  <S**2>=0.000
       9 -> 13         0.21656
       9 -> 14         0.55965
      10 -> 13         0.20250
      10 -> 14        -0.12675
      12 -> 21         0.24613

 Excited State  22:      Singlet-A     10.9737 eV  112.98 nm  f=0.1247  <S**2>=0.000
       9 -> 14        -0.14213
      10 -> 13        -0.20539
      10 -> 14         0.13178
      10 -> 16        -0.12306
      11 -> 21        -0.15115
      12 -> 21         0.57216

 Excited State  23:      Singlet-A     11.1296 eV  111.40 nm  f=0.0114  <S**2>=0.000
      11 -> 21         0.66267
      12 -> 21         0.12397
      12 -> 22         0.16702

 Excited State  24:      Singlet-A     11.1959 eV  110.74 nm  f=0.0124  <S**2>=0.000
      10 -> 16         0.67781
      12 -> 22         0.12015

 Excited State  25:      Singlet-A     11.2521 eV  110.19 nm  f=0.0059  <S**2>=0.000
      10 -> 16        -0.11356
      11 -> 21        -0.13684
      12 -> 22         0.66908

 Excited State  26:      Singlet-A     11.5357 eV  107.48 nm  f=0.0625  <S**2>=0.000
       9 -> 15         0.15873
      11 -> 22        -0.18041
      12 -> 23         0.64995

 Excited State  27:      Singlet-A     11.5496 eV  107.35 nm  f=0.0602  <S**2>=0.000
       9 -> 15         0.46434
      11 -> 22        -0.45374
      12 -> 23        -0.24411

 Excited State  28:      Singlet-A     11.6752 eV  106.19 nm  f=0.1870  <S**2>=0.000
       9 -> 15         0.48831
      11 -> 22         0.46076
      11 -> 23         0.15179
      12 -> 24        -0.11355

 Excited State  29:      Singlet-A     11.8944 eV  104.24 nm  f=0.0780  <S**2>=0.000
      11 -> 22        -0.10646
      11 -> 23         0.63864
      12 -> 24         0.24960

 Excited State  30:      Singlet-A     12.1423 eV  102.11 nm  f=0.0276  <S**2>=0.000
       9 -> 16         0.59900
      12 -> 24         0.36269

 Excited State  31:      Singlet-A     12.2860 eV  100.91 nm  f=0.0038  <S**2>=0.000
      10 -> 17         0.70187

 Excited State  32:      Singlet-A     12.4144 eV   99.87 nm  f=0.0817  <S**2>=0.000
       9 -> 16        -0.30404
      11 -> 22         0.11392
      11 -> 23        -0.19241
      11 -> 24        -0.36065
      12 -> 24         0.44200

 Excited State  33:      Singlet-A     12.4438 eV   99.64 nm  f=0.0155  <S**2>=0.000
       9 -> 16        -0.16673
      11 -> 23        -0.11093
      11 -> 24         0.60167
      12 -> 24         0.27002

 Excited State  34:      Singlet-A     12.7891 eV   96.95 nm  f=0.0522  <S**2>=0.000
       8 -> 13        -0.14023
      10 -> 18         0.67332

 Excited State  35:      Singlet-A     12.8303 eV   96.63 nm  f=0.0342  <S**2>=0.000
      12 -> 25         0.67682
      12 -> 26         0.14631

 Excited State  36:      Singlet-A     12.9505 eV   95.74 nm  f=0.0064  <S**2>=0.000
       8 -> 13         0.63203
       8 -> 14        -0.22816
      10 -> 18         0.15264

 Excited State  37:      Singlet-A     13.1308 eV   94.42 nm  f=0.0706  <S**2>=0.000
       9 -> 17        -0.11148
      12 -> 25        -0.13568
      12 -> 26         0.66347

 Excited State  38:      Singlet-A     13.2743 eV   93.40 nm  f=0.0414  <S**2>=0.000
       9 -> 17         0.60106
      10 -> 19         0.20288
      11 -> 25         0.27964

 Excited State  39:      Singlet-A     13.3354 eV   92.97 nm  f=0.1134  <S**2>=0.000
       8 -> 14         0.28884
       9 -> 17        -0.24840
      11 -> 25         0.55601
      11 -> 26        -0.11730
      12 -> 26        -0.10641

 Excited State  40:      Singlet-A     13.4121 eV   92.44 nm  f=0.0552  <S**2>=0.000
       8 -> 13         0.19926
       8 -> 14         0.51464
       9 -> 17         0.15868
      10 -> 19        -0.21101
      11 -> 25        -0.17621
      11 -> 26         0.27361

 Excited State  41:      Singlet-A     13.5130 eV   91.75 nm  f=0.0313  <S**2>=0.000
       9 -> 17        -0.12471
       9 -> 18        -0.18720
      10 -> 19         0.33846
      10 -> 20         0.14770
      11 -> 25         0.11058
      11 -> 26         0.52601

 Excited State  42:      Singlet-A     13.5968 eV   91.19 nm  f=0.0784  <S**2>=0.000
       7 -> 13        -0.19885
       8 -> 14         0.19598
       9 -> 18        -0.12786
      10 -> 19         0.34880
      10 -> 20         0.30356
      11 -> 25        -0.14774
      11 -> 26        -0.29951
      12 -> 27         0.19189

 Excited State  43:      Singlet-A     13.6420 eV   90.88 nm  f=0.0011  <S**2>=0.000
       9 -> 18         0.27050
      10 -> 20         0.45510
      12 -> 27        -0.44512

 Excited State  44:      Singlet-A     13.6797 eV   90.63 nm  f=0.0703  <S**2>=0.000
       7 -> 13        -0.10187
       7 -> 14         0.13608
       8 -> 14        -0.15200
       9 -> 18         0.25605
      10 -> 19        -0.16355
      10 -> 20         0.30164
      11 -> 25         0.12816
      11 -> 26         0.11399
      11 -> 27         0.16045
      12 -> 27         0.42144

 Excited State  45:      Singlet-A     13.7446 eV   90.21 nm  f=0.0101  <S**2>=0.000
       7 -> 14        -0.10833
       9 -> 18         0.53877
      10 -> 19         0.28843
      10 -> 20        -0.24145

 Excited State  46:      Singlet-A     13.8813 eV   89.32 nm  f=0.0172  <S**2>=0.000
       7 -> 13         0.61947
       7 -> 14        -0.20434
      12 -> 27         0.18306

 Excited State  47:      Singlet-A     14.1367 eV   87.70 nm  f=0.0256  <S**2>=0.000
       7 -> 14        -0.17775
       8 -> 15         0.42093
      10 -> 21         0.38799
      11 -> 27        -0.34019

 Excited State  48:      Singlet-A     14.2404 eV   87.07 nm  f=0.2025  <S**2>=0.000
       7 -> 13         0.20866
       7 -> 14         0.57991
       9 -> 19         0.13081
       9 -> 20         0.10962
      10 -> 21         0.20977
      11 -> 27        -0.13004

 Excited State  49:      Singlet-A     14.2600 eV   86.95 nm  f=0.0123  <S**2>=0.000
       7 -> 14        -0.16513
       8 -> 15        -0.44389
      10 -> 21         0.47500
      11 -> 27         0.10360

 Excited State  50:      Singlet-A     14.3601 eV   86.34 nm  f=0.0515  <S**2>=0.000
       9 -> 19         0.66610
       9 -> 20        -0.10067

 Excited State  51:      Singlet-A     14.4463 eV   85.82 nm  f=0.0216  <S**2>=0.000
       8 -> 15         0.30503
       8 -> 16         0.25900
      10 -> 21         0.18289
      11 -> 27         0.44595
      12 -> 32         0.10455

 Excited State  52:      Singlet-A     14.6306 eV   84.74 nm  f=0.0324  <S**2>=0.000
       7 -> 15        -0.16558
       8 -> 16        -0.10654
       9 -> 20         0.62796
      10 -> 22        -0.17194

 Excited State  53:      Singlet-A     14.6853 eV   84.43 nm  f=0.0217  <S**2>=0.000
      10 -> 22        -0.26038
      10 -> 23        -0.11068
      12 -> 28         0.55670
      12 -> 29         0.29410

 Excited State  54:      Singlet-A     14.7308 eV   84.17 nm  f=0.0019  <S**2>=0.000
       9 -> 20         0.10868
      10 -> 22         0.61600
      12 -> 28         0.22306
      12 -> 29         0.18714

 Excited State  55:      Singlet-A     14.7922 eV   83.82 nm  f=0.0138  <S**2>=0.000
       8 -> 16         0.12445
      12 -> 28        -0.33575
      12 -> 29         0.59733

 Excited State  56:      Singlet-A     14.9623 eV   82.86 nm  f=0.1039  <S**2>=0.000
       8 -> 16        -0.37813
       9 -> 20        -0.10136
       9 -> 21        -0.11660
      10 -> 23         0.51162
      12 -> 31         0.10503

 Excited State  57:      Singlet-A     14.9800 eV   82.77 nm  f=0.1035  <S**2>=0.000
       8 -> 16         0.42703
       9 -> 21        -0.22140
      10 -> 23         0.39567
      11 -> 27        -0.12070
      12 -> 30         0.16263
      12 -> 32        -0.10276

 Excited State  58:      Singlet-A     15.0433 eV   82.42 nm  f=0.0110  <S**2>=0.000
       7 -> 15        -0.15870
       9 -> 21         0.31424
      11 -> 28        -0.22780
      12 -> 30         0.54818

 Excited State  59:      Singlet-A     15.0537 eV   82.36 nm  f=0.0204  <S**2>=0.000
       8 -> 16         0.14199
       9 -> 21         0.56309
      10 -> 23         0.21869
      11 -> 28         0.14920
      12 -> 30        -0.27821

 Excited State  60:      Singlet-A     15.0990 eV   82.11 nm  f=0.0049  <S**2>=0.000
       8 -> 16        -0.12325
      11 -> 28         0.58408
      11 -> 29        -0.16205
      12 -> 30         0.25083
      12 -> 31         0.10040
      12 -> 32         0.13418

 Excited State  61:      Singlet-A     15.1676 eV   81.74 nm  f=0.0428  <S**2>=0.000
       7 -> 15         0.59738
       9 -> 20         0.10925
       9 -> 21         0.11217
      11 -> 29         0.11125
      11 -> 30         0.13892

 Excited State  62:      Singlet-A     15.2519 eV   81.29 nm  f=0.0113  <S**2>=0.000
      11 -> 28         0.13250
      11 -> 29         0.63695
      12 -> 32         0.18312

 Excited State  63:      Singlet-A     15.3595 eV   80.72 nm  f=0.0349  <S**2>=0.000
      12 -> 31         0.65445
      12 -> 32        -0.20423

 Excited State  64:      Singlet-A     15.4305 eV   80.35 nm  f=0.0363  <S**2>=0.000
      11 -> 30         0.54293
      11 -> 31        -0.18034
      11 -> 32        -0.12102
      12 -> 31         0.13912
      12 -> 32         0.28994

 Excited State  65:      Singlet-A     15.5481 eV   79.74 nm  f=0.0240  <S**2>=0.000
       7 -> 16         0.33616
       9 -> 22         0.30052
      10 -> 24        -0.27369
      11 -> 29        -0.10182
      11 -> 30        -0.29415
      12 -> 32         0.27822

 Excited State  66:      Singlet-A     15.6120 eV   79.42 nm  f=0.0178  <S**2>=0.000
       9 -> 22        -0.22660
       9 -> 23        -0.11711
      10 -> 24         0.40071
      11 -> 28        -0.11905
      11 -> 30        -0.22998
      11 -> 31        -0.24426
      11 -> 32        -0.18340
      12 -> 32         0.26541

 Excited State  67:      Singlet-A     15.6575 eV   79.19 nm  f=0.0344  <S**2>=0.000
       7 -> 16         0.50273
       8 -> 17        -0.13530
       9 -> 22        -0.19942
      10 -> 24         0.19365
      11 -> 32         0.33496

 Excited State  68:      Singlet-A     15.6841 eV   79.05 nm  f=0.0364  <S**2>=0.000
       7 -> 16        -0.26968
       9 -> 22         0.27341
      10 -> 24         0.16494
      11 -> 31         0.14778
      11 -> 32         0.45600
      12 -> 32         0.24790

 Excited State  69:      Singlet-A     15.7594 eV   78.67 nm  f=0.0327  <S**2>=0.000
      11 -> 31         0.59750
      11 -> 32        -0.25020
      12 -> 32         0.16452

 Excited State  70:      Singlet-A     15.8595 eV   78.18 nm  f=0.0288  <S**2>=0.000
       7 -> 16         0.15442
       8 -> 18         0.19709
       9 -> 22         0.40751
       9 -> 23        -0.14693
      10 -> 24         0.33551
      11 -> 32        -0.14401
      12 -> 32        -0.13904
      12 -> 33         0.12283
      12 -> 34        -0.10586

 Excited State  71:      Singlet-A     15.9284 eV   77.84 nm  f=0.0085  <S**2>=0.000
       8 -> 17         0.20853
       9 -> 23         0.63707
      10 -> 24         0.11600

 Excited State  72:      Singlet-A     16.0670 eV   77.17 nm  f=0.0249  <S**2>=0.000
       8 -> 17        -0.15313
      12 -> 33         0.64256

 Excited State  73:      Singlet-A     16.1562 eV   76.74 nm  f=0.0563  <S**2>=0.000
       6 -> 13        -0.17106
       6 -> 14        -0.11888
       8 -> 17         0.55962
       9 -> 23        -0.14878
      12 -> 33         0.16480

 Excited State  74:      Singlet-A     16.2195 eV   76.44 nm  f=0.0308  <S**2>=0.000
       6 -> 13         0.32750
       8 -> 17         0.12697
       8 -> 18         0.10702
      10 -> 25         0.32163
      12 -> 34         0.47487

 Excited State  75:      Singlet-A     16.2821 eV   76.15 nm  f=0.0030  <S**2>=0.000
      10 -> 25         0.56021
      12 -> 34        -0.39041

 Excited State  76:      Singlet-A     16.3293 eV   75.93 nm  f=0.0443  <S**2>=0.000
       6 -> 13         0.37685
       6 -> 14         0.12260
       8 -> 17         0.10620
       8 -> 18        -0.12987
       9 -> 24         0.37932
      10 -> 25        -0.22117
      11 -> 33        -0.19213
      12 -> 34        -0.20429

 Excited State  77:      Singlet-A     16.3809 eV   75.69 nm  f=0.0485  <S**2>=0.000
       6 -> 13         0.10364
       6 -> 14         0.47887
       9 -> 24        -0.42803
      10 -> 26        -0.13751
      11 -> 33        -0.13153

 Excited State  78:      Singlet-A     16.4767 eV   75.25 nm  f=0.0482  <S**2>=0.000
       7 -> 17         0.15994
       8 -> 18         0.29971
       9 -> 24         0.10007
      11 -> 33         0.53680
      12 -> 34        -0.13187

 Excited State  79:      Singlet-A     16.5082 eV   75.10 nm  f=0.0702  <S**2>=0.000
       6 -> 13        -0.19800
       7 -> 17        -0.12774
       8 -> 18         0.38501
       9 -> 24         0.24240
      10 -> 26        -0.32178
      10 -> 27         0.10932
      11 -> 33        -0.23332
      12 -> 35         0.11349

 Excited State  80:      Singlet-A     16.5892 eV   74.74 nm  f=0.1500  <S**2>=0.000
       6 -> 13        -0.23892
       6 -> 14         0.40473
       8 -> 18        -0.27504
       9 -> 24         0.25858
      10 -> 27         0.12960
      11 -> 33         0.10660
      11 -> 34        -0.11006
      12 -> 34         0.13155

 Excited State  81:      Singlet-A     16.6171 eV   74.61 nm  f=0.0416  <S**2>=0.000
       8 -> 18         0.25344
      10 -> 26         0.57776
      11 -> 33        -0.16044
      12 -> 35         0.13750

 Excited State  82:      Singlet-A     16.7021 eV   74.23 nm  f=0.0147  <S**2>=0.000
       7 -> 17        -0.22051
      11 -> 33         0.12545
      11 -> 34         0.63679

 Excited State  83:      Singlet-A     16.9120 eV   73.31 nm  f=0.0595  <S**2>=0.000
       6 -> 15         0.28945
       7 -> 17         0.50429
       7 -> 18        -0.14867
       8 -> 20         0.15784
      10 -> 27         0.13670
      11 -> 34         0.20024

 Excited State  84:      Singlet-A     17.0379 eV   72.77 nm  f=0.0058  <S**2>=0.000
       8 -> 19         0.67469
      12 -> 35         0.12909

 Excited State  85:      Singlet-A     17.1523 eV   72.28 nm  f=0.0301  <S**2>=0.000
       6 -> 15         0.19458
       8 -> 18        -0.10472
       8 -> 20        -0.17826
      10 -> 27        -0.19741
      12 -> 35         0.56050

 Excited State  86:      Singlet-A     17.1742 eV   72.19 nm  f=0.0322  <S**2>=0.000
       6 -> 13         0.13857
       7 -> 18         0.17754
       8 -> 19        -0.10114
       8 -> 20        -0.13568
       9 -> 25        -0.13935
      10 -> 27         0.57643
      12 -> 35         0.14415
      12 -> 36         0.12301

 Excited State  87:      Singlet-A     17.2277 eV   71.97 nm  f=0.0064  <S**2>=0.000
       6 -> 15        -0.33436
       7 -> 18         0.20501
       8 -> 20         0.49072
       9 -> 25         0.10177
      12 -> 35         0.25896

 Excited State  88:      Singlet-A     17.2822 eV   71.74 nm  f=0.0386  <S**2>=0.000
       6 -> 15         0.16178
       7 -> 17         0.11931
       7 -> 18         0.53687
       9 -> 25        -0.27415
      10 -> 27        -0.20412

 Excited State  89:      Singlet-A     17.3588 eV   71.42 nm  f=0.1031  <S**2>=0.000
       6 -> 15         0.26890
       7 -> 17        -0.13551
       7 -> 18         0.19488
       8 -> 21         0.12052
       9 -> 25         0.41027
       9 -> 26        -0.33123
      11 -> 35         0.12240

 Excited State  90:      Singlet-A     17.4370 eV   71.10 nm  f=0.0499  <S**2>=0.000
       6 -> 15         0.25661
       7 -> 17        -0.18084
       8 -> 20         0.28637
       9 -> 26         0.46944
      11 -> 35         0.11202
      12 -> 36         0.13624

 Excited State  91:      Singlet-A     17.5049 eV   70.83 nm  f=0.0279  <S**2>=0.000
       6 -> 15        -0.12915
      11 -> 35         0.52172
      12 -> 36         0.37130

 Excited State  92:      Singlet-A     17.6366 eV   70.30 nm  f=0.1349  <S**2>=0.000
       7 -> 18         0.13604
       8 -> 20        -0.20962
       8 -> 21        -0.16034
       8 -> 22        -0.11435
       9 -> 25         0.36903
       9 -> 26         0.29690
      11 -> 36         0.29563
      12 -> 36        -0.11398

 Excited State  93:      Singlet-A     17.6884 eV   70.09 nm  f=0.0231  <S**2>=0.000
       8 -> 21        -0.25163
      11 -> 35        -0.40066
      12 -> 36         0.46579

 Excited State  94:      Singlet-A     17.7210 eV   69.96 nm  f=0.0379  <S**2>=0.000
       7 -> 19         0.32380
       8 -> 21         0.50846
       9 -> 26         0.17846
      11 -> 35        -0.10318
      11 -> 36         0.12368
      12 -> 36         0.19104

 Excited State  95:      Singlet-A     17.7705 eV   69.77 nm  f=0.0188  <S**2>=0.000
       6 -> 16        -0.18603
       7 -> 19         0.56799
       8 -> 21        -0.31982
      12 -> 36        -0.10820

 Excited State  96:      Singlet-A     17.8273 eV   69.55 nm  f=0.0727  <S**2>=0.000

 The electronic state is 1-A.
 Alpha  occ. eigenvalues --  -14.28825 -14.22373 -10.19190  -0.91823  -0.82293
 Alpha  occ. eigenvalues --   -0.60182  -0.52520  -0.49519  -0.39590  -0.36246
 Alpha  occ. eigenvalues --   -0.24869  -0.23556
 Alpha virt. eigenvalues --    0.00976   0.01681   0.04643   0.06831   0.11027
 Alpha virt. eigenvalues --    0.12872   0.15300   0.16052   0.17969   0.20015
 Alpha virt. eigenvalues --    0.20817   0.23067   0.25925   0.26771   0.28903

 Mulliken charges:
               1
     1  N    0.034645
     2  C    0.665230
     3  N   -0.241249
     4  H   -0.059981
     5  H   -0.093055
     6  H   -0.279382
     7  H   -0.026209
 Sum of Mulliken charges =  -0.00000

 Dipole moment (field-independent basis, Debye):
    X=              3.4223    Y=             -0.7459    Z=              0.5531  Tot=              3.5460
 Quadrupole moment (field-independent basis, Debye-Ang):
   XX=            -20.5972   YY=            -14.8130   ZZ=            -20.5562
   XY=              1.2488   XZ=              1.1206   YZ=             -0.1530

 Normal termination of Gaussian 16 at Mon Mar 21 20:15:08 2022.
