 Gaussian 16, Revision C.01,
 Gaussian 16:  EM64L-G16RevC.01  3-Jul-2019

 ---------------------------------------------------------------------
 #P TD(Nstates=10000) tpssh/Gen SCF(maxcycles=100) Int(Grid=ultrafine)
 ---------------------------------------------------------------------

 ---------------------
 xGDB7_00001_tier4.com
 ---------------------
 Symbolic Z-matrix:
 Charge =  0 Multiplicity = 1

                         Standard orientation:
 ---------------------------------------------------------------------
 Center     Atomic      Atomic             Coordinates (Angstroms)
 Number     Number       Type             X           Y           Z
 ---------------------------------------------------------------------
      1          8           0        0.000000   -0.000000    0.116015
      2          1           0        0.000000    0.761895   -0.464058
      3          1           0       -0.000000   -0.761895   -0.464058
 ---------------------------------------------------------------------

 SCF Done:  E(RTPSSh) =  -76.3728334431     A.U. after   10 cycles

 Excitation energies and oscillator strengths:

 Excited State   1:      Singlet-B1     7.4749 eV  165.87 nm  f=0.0564  <S**2>=0.000
       5 ->  6         0.70691
 This state for optimization and/or second-order correction.
 Total Energy, E(TD-HF/TD-DFT) =  -76.0981359850
 Copying the excited state density for this state as the 1-particle RhoCI density.

 Excited State   2:      Singlet-A2     9.2119 eV  134.59 nm  f=0.0000  <S**2>=0.000
       5 ->  7         0.70605

 Excited State   3:      Singlet-A1     9.5693 eV  129.56 nm  f=0.1010  <S**2>=0.000
       4 ->  6         0.69535
       5 ->  8         0.12094

 Excited State   4:      Singlet-B1    10.6551 eV  116.36 nm  f=0.0051  <S**2>=0.000
       5 ->  9         0.70627

 Excited State   5:      Singlet-A1    10.9937 eV  112.78 nm  f=0.0009  <S**2>=0.000
       4 ->  6        -0.10845
       4 ->  9        -0.14684
       5 ->  8         0.67533

 Excited State   6:      Singlet-B2    11.3267 eV  109.46 nm  f=0.0168  <S**2>=0.000
       4 ->  7         0.70587

 Excited State   7:      Singlet-A2    11.7685 eV  105.35 nm  f=0.0000  <S**2>=0.000
       5 -> 10         0.70590

 Excited State   8:      Singlet-B1    12.5127 eV   99.09 nm  f=0.0449  <S**2>=0.000
       4 ->  8         0.31489
       5 -> 11         0.63234

 Excited State   9:      Singlet-B1    12.6550 eV   97.97 nm  f=0.0037  <S**2>=0.000
       4 ->  8         0.63232
       5 -> 11        -0.31485

 Excited State  10:      Singlet-A1    12.9943 eV   95.41 nm  f=0.0351  <S**2>=0.000
       3 ->  7        -0.11937
       4 ->  9         0.67532
       5 ->  8         0.11678

 Excited State  11:      Singlet-B2    13.5566 eV   91.46 nm  f=0.0452  <S**2>=0.000
       3 ->  6         0.64045
       5 -> 12        -0.29663

 Excited State  12:      Singlet-B2    13.6420 eV   90.88 nm  f=0.0579  <S**2>=0.000
       3 ->  6         0.24362
       4 -> 10        -0.34186
       5 -> 12         0.56808

 Excited State  13:      Singlet-B1    14.0654 eV   88.15 nm  f=0.0584  <S**2>=0.000
       5 -> 13         0.70392

 Excited State  14:      Singlet-B2    14.2149 eV   87.22 nm  f=0.3191  <S**2>=0.000
       3 ->  6         0.17143
       4 -> 10         0.61310
       5 -> 12         0.29254

 Excited State  15:      Singlet-A1    14.5579 eV   85.17 nm  f=0.0664  <S**2>=0.000
       4 -> 11         0.68436
       5 -> 14         0.17011

 Excited State  16:      Singlet-A1    14.8754 eV   83.35 nm  f=0.0148  <S**2>=0.000
       3 ->  7         0.25143
       4 -> 11        -0.14667
       4 -> 13         0.12103
       5 -> 14         0.62918

 Excited State  17:      Singlet-A1    15.6841 eV   79.05 nm  f=0.0004  <S**2>=0.000
       3 ->  7         0.52913
       4 -> 13        -0.44265
       5 -> 14        -0.10754

 Excited State  18:      Singlet-A2    15.7068 eV   78.94 nm  f=0.0000  <S**2>=0.000
       4 -> 12         0.70642

 Excited State  19:      Singlet-A2    16.6717 eV   74.37 nm  f=0.0000  <S**2>=0.000
       3 ->  8         0.70614

 Excited State  20:      Singlet-B2    16.7885 eV   73.85 nm  f=0.0331  <S**2>=0.000
       3 ->  9         0.70458

 Excited State  21:      Singlet-B1    16.8292 eV   73.67 nm  f=0.0216  <S**2>=0.000
       4 -> 14         0.34745
       5 -> 15         0.61394

 Excited State  22:      Singlet-A2    17.0119 eV   72.88 nm  f=0.0000  <S**2>=0.000
       5 -> 16         0.69755
       5 -> 17        -0.11161

 Excited State  23:      Singlet-A1    17.0192 eV   72.85 nm  f=0.0470  <S**2>=0.000
       3 ->  7         0.32663
       3 -> 10         0.34059
       4 -> 13         0.46938
       5 -> 14        -0.17387

 Excited State  24:      Singlet-B1    17.0632 eV   72.66 nm  f=0.2103  <S**2>=0.000
       4 -> 14         0.61068
       5 -> 15        -0.34921

 Excited State  25:      Singlet-A2    17.8882 eV   69.31 nm  f=0.0000  <S**2>=0.000
       5 -> 16         0.11212
       5 -> 17         0.69761

 Excited State  26:      Singlet-A1    18.6128 eV   66.61 nm  f=0.2600  <S**2>=0.000
       3 ->  7        -0.13336
       3 -> 10         0.56610
       4 -> 13        -0.21888
       4 -> 15         0.26338
       5 -> 14         0.12608

 Excited State  27:      Singlet-B2    18.7673 eV   66.06 nm  f=0.2120  <S**2>=0.000
       3 -> 11         0.67562
       4 -> 17        -0.15296

 Excited State  28:      Singlet-A1    18.8955 eV   65.62 nm  f=0.0749  <S**2>=0.000
       3 -> 10        -0.22725
       4 -> 15         0.65520

 Excited State  29:      Singlet-B2    19.0948 eV   64.93 nm  f=0.0056  <S**2>=0.000
       4 -> 16         0.69944

 Excited State  30:      Singlet-B1    19.7647 eV   62.73 nm  f=0.0960  <S**2>=0.000
       3 -> 12         0.69898

 Excited State  31:      Singlet-B2    20.1051 eV   61.67 nm  f=0.0000  <S**2>=0.000
       3 -> 13         0.63506
       4 -> 17        -0.30792

 Excited State  32:      Singlet-B2    20.1667 eV   61.48 nm  f=0.0354  <S**2>=0.000
       3 -> 11         0.14679
       3 -> 13         0.30181
       4 -> 17         0.61006

 Excited State  33:      Singlet-A2    20.8568 eV   59.45 nm  f=0.0000  <S**2>=0.000
       3 -> 14         0.70607

 Excited State  34:      Singlet-A2    21.2606 eV   58.32 nm  f=0.0000  <S**2>=0.000
       5 -> 18         0.70608

 Excited State  35:      Singlet-B1    21.9530 eV   56.48 nm  f=0.2161  <S**2>=0.000
       4 -> 20        -0.13304
       5 -> 19         0.68338

 Excited State  36:      Singlet-A1    22.7147 eV   54.58 nm  f=0.0761  <S**2>=0.000
       3 -> 16        -0.12655
       4 -> 19         0.22743
       5 -> 20         0.64278

 Excited State  37:      Singlet-B2    22.9523 eV   54.02 nm  f=0.0303  <S**2>=0.000
       3 -> 15         0.68418
       4 -> 18         0.16252

 Excited State  38:      Singlet-B2    23.3284 eV   53.15 nm  f=0.0098  <S**2>=0.000
       3 -> 15        -0.16614
       4 -> 18         0.54463
       5 -> 22        -0.41752

 Excited State  39:      Singlet-A1    23.3602 eV   53.08 nm  f=0.0019  <S**2>=0.000
       3 -> 16         0.57889
       3 -> 17         0.24716
       4 -> 19         0.30739

 Excited State  40:      Singlet-B1    23.4828 eV   52.80 nm  f=0.0009  <S**2>=0.000
       4 -> 20        -0.13215
       5 -> 21         0.69409

 Excited State  41:      Singlet-A1    23.7618 eV   52.18 nm  f=0.0498  <S**2>=0.000
       3 -> 16        -0.21672
       3 -> 17        -0.16953
       4 -> 19         0.58888
       4 -> 21        -0.11104
       5 -> 20        -0.23927

 Excited State  42:      Singlet-B2    24.2730 eV   51.08 nm  f=0.3502  <S**2>=0.000
       3 -> 19        -0.13504
       4 -> 18         0.39541
       5 -> 22         0.54380

 Excited State  43:      Singlet-A1    24.7066 eV   50.18 nm  f=0.0339  <S**2>=0.000
       2 ->  6        -0.22260
       3 -> 16        -0.24710
       3 -> 17         0.59518

 Excited State  44:      Singlet-B1    24.9049 eV   49.78 nm  f=0.2731  <S**2>=0.000
       4 -> 20         0.67825
       5 -> 19         0.12137
       5 -> 21         0.13245

 Excited State  45:      Singlet-A2    25.6463 eV   48.34 nm  f=0.0000  <S**2>=0.000
       4 -> 22         0.70570

 Excited State  46:      Singlet-A1    25.7546 eV   48.14 nm  f=0.3091  <S**2>=0.000
       2 ->  6        -0.16920
       3 -> 17        -0.12638
       3 -> 18        -0.19080
       4 -> 21         0.63802

 Excited State  47:      Singlet-A1    26.9184 eV   46.06 nm  f=0.0255  <S**2>=0.000
       2 ->  6         0.61003
       3 -> 16        -0.12678
       3 -> 17         0.13165
       3 -> 18        -0.22083
       4 -> 21         0.12149

 Excited State  48:      Singlet-B2    27.9451 eV   44.37 nm  f=0.1429  <S**2>=0.000
       2 ->  7         0.36857
       3 -> 19         0.59068

 Excited State  49:      Singlet-B2    28.2471 eV   43.89 nm  f=0.0041  <S**2>=0.000
       2 ->  7         0.59101
       3 -> 19        -0.32960
       3 -> 21        -0.18050

 Excited State  50:      Singlet-A1    28.2930 eV   43.82 nm  f=0.3113  <S**2>=0.000
       2 ->  6         0.16893
       2 ->  9         0.12099
       3 -> 18         0.62718
       4 -> 21         0.20467
       5 -> 20        -0.10265

 Excited State  51:      Singlet-A2    28.7544 eV   43.12 nm  f=0.0000  <S**2>=0.000
       3 -> 20         0.70614

 Excited State  52:      Singlet-B1    29.3912 eV   42.18 nm  f=0.0378  <S**2>=0.000
       2 ->  8         0.66610
       3 -> 22         0.23257

 Excited State  53:      Singlet-A1    29.5113 eV   42.01 nm  f=0.0096  <S**2>=0.000
       2 ->  9         0.69265
       3 -> 18        -0.10720

 Excited State  54:      Singlet-B1    30.2760 eV   40.95 nm  f=0.2314  <S**2>=0.000
       2 ->  8        -0.22400
       3 -> 22         0.65970

 Excited State  55:      Singlet-B2    30.3729 eV   40.82 nm  f=0.3101  <S**2>=0.000
       2 ->  7         0.10143
       3 -> 19        -0.14211
       3 -> 21         0.66275

 Excited State  56:      Singlet-B2    30.6611 eV   40.44 nm  f=0.0003  <S**2>=0.000
       2 -> 10         0.70067

 Excited State  57:      Singlet-A1    31.3603 eV   39.54 nm  f=0.0032  <S**2>=0.000
       2 -> 11         0.69865

 Excited State  58:      Singlet-B1    31.6948 eV   39.12 nm  f=0.0017  <S**2>=0.000
       5 -> 23         0.70072

 Excited State  59:      Singlet-A2    32.3905 eV   38.28 nm  f=0.0000  <S**2>=0.000
       2 -> 12         0.70696

 Excited State  60:      Singlet-A1    32.9905 eV   37.58 nm  f=0.0097  <S**2>=0.000
       2 -> 13         0.68982
       4 -> 23        -0.10551

 Excited State  61:      Singlet-B1    33.5951 eV   36.91 nm  f=0.0092  <S**2>=0.000
       2 -> 14         0.70509

 Excited State  62:      Singlet-A1    34.0268 eV   36.44 nm  f=0.0222  <S**2>=0.000
       2 -> 15        -0.13839
       4 -> 23         0.67588

 Excited State  63:      Singlet-A2    34.6364 eV   35.80 nm  f=0.0000  <S**2>=0.000
       5 -> 24         0.70663

 Excited State  64:      Singlet-B2    35.9062 eV   34.53 nm  f=0.0119  <S**2>=0.000
       2 -> 16         0.68971
       4 -> 24        -0.12869

 Excited State  65:      Singlet-A1    36.0322 eV   34.41 nm  f=0.0083  <S**2>=0.000
       2 -> 15         0.66874
       5 -> 25         0.17155

 Excited State  66:      Singlet-B2    36.7572 eV   33.73 nm  f=0.0030  <S**2>=0.000
       2 -> 17         0.51754
       3 -> 23        -0.14639
       4 -> 24         0.45622

 Excited State  67:      Singlet-B2    36.8866 eV   33.61 nm  f=0.0043  <S**2>=0.000
       2 -> 16         0.13682
       2 -> 17        -0.46171
       4 -> 24         0.51339

 Excited State  68:      Singlet-B2    38.1897 eV   32.47 nm  f=0.0609  <S**2>=0.000
       2 -> 17         0.11567
       3 -> 23         0.68053

 Excited State  69:      Singlet-B1    39.3922 eV   31.47 nm  f=0.0086  <S**2>=0.000
       5 -> 26         0.70358

 Excited State  70:      Singlet-A1    39.6060 eV   31.30 nm  f=0.0097  <S**2>=0.000
       2 -> 19        -0.18231
       3 -> 24         0.27855
       4 -> 26        -0.30380
       5 -> 25         0.53150

 Excited State  71:      Singlet-B2    40.3505 eV   30.73 nm  f=0.0005  <S**2>=0.000
       2 -> 18         0.69905

 Excited State  72:      Singlet-A1    40.4879 eV   30.62 nm  f=0.0017  <S**2>=0.000
       2 -> 19         0.66490
       3 -> 24         0.21506
       5 -> 25         0.10217

 Excited State  73:      Singlet-B1    40.9259 eV   30.29 nm  f=0.0008  <S**2>=0.000
       4 -> 25         0.70259

 Excited State  74:      Singlet-A1    41.0895 eV   30.17 nm  f=0.0255  <S**2>=0.000
       2 -> 19        -0.14944
       3 -> 24         0.53524
       4 -> 26         0.42352

 Excited State  75:      Singlet-B1    41.5920 eV   29.81 nm  f=0.0001  <S**2>=0.000
       2 -> 20         0.70446

 Excited State  76:      Singlet-A2    42.5672 eV   29.13 nm  f=0.0000  <S**2>=0.000
       2 -> 22         0.70548

 Excited State  77:      Singlet-A1    42.6103 eV   29.10 nm  f=0.0063  <S**2>=0.000
       2 -> 21         0.70394

 Excited State  78:      Singlet-A2    44.8938 eV   27.62 nm  f=0.0000  <S**2>=0.000
       3 -> 25         0.70478

 Excited State  79:      Singlet-B2    45.6870 eV   27.14 nm  f=0.0664  <S**2>=0.000
       3 -> 26         0.70330

 Excited State  80:      Singlet-A1    47.3954 eV   26.16 nm  f=0.0096  <S**2>=0.000
       2 -> 23        -0.28466
       3 -> 24        -0.25310
       3 -> 27         0.15431
       4 -> 26         0.42216
       5 -> 25         0.32855

 Excited State  81:      Singlet-A2    47.8852 eV   25.89 nm  f=0.0000  <S**2>=0.000
       5 -> 27         0.70545

 Excited State  82:      Singlet-B2    50.0796 eV   24.76 nm  f=0.0347  <S**2>=0.000
       4 -> 27         0.68226
       5 -> 29         0.17919

 Excited State  83:      Singlet-B1    51.0023 eV   24.31 nm  f=0.0938  <S**2>=0.000
       5 -> 28         0.70305

 Excited State  84:      Singlet-A1    51.3319 eV   24.15 nm  f=0.0902  <S**2>=0.000
       2 -> 23         0.61752
       3 -> 27         0.25773
       4 -> 26         0.11977
       5 -> 25         0.11816

 Excited State  85:      Singlet-B2    52.4308 eV   23.65 nm  f=0.1154  <S**2>=0.000
       2 -> 24         0.11756
       4 -> 27        -0.16754
       5 -> 29         0.66439

 Excited State  86:      Singlet-A1    52.9096 eV   23.43 nm  f=0.0262  <S**2>=0.000
       3 -> 27         0.12415
       4 -> 28         0.69334

 Excited State  87:      Singlet-B2    53.7343 eV   23.07 nm  f=0.0728  <S**2>=0.000
       2 -> 24         0.69618
       5 -> 29        -0.11434

 Excited State  88:      Singlet-A2    53.9581 eV   22.98 nm  f=0.0000  <S**2>=0.000
       4 -> 29         0.70652

 Excited State  89:      Singlet-A1    55.8451 eV   22.20 nm  f=0.0095  <S**2>=0.000
       2 -> 23        -0.15816
       2 -> 26         0.17507
       3 -> 27         0.48346
       4 -> 26        -0.11281
       4 -> 28        -0.11515
       5 -> 25        -0.12266
       5 -> 30         0.38526

 Excited State  90:      Singlet-A1    56.5855 eV   21.91 nm  f=0.0601  <S**2>=0.000
       3 -> 27        -0.35864
       4 -> 32        -0.12116
       5 -> 30         0.57867

 Excited State  91:      Singlet-B2    57.1749 eV   21.69 nm  f=0.0157  <S**2>=0.000
       3 -> 28         0.69708

 Excited State  92:      Singlet-B1    57.8876 eV   21.42 nm  f=0.1263  <S**2>=0.000
       2 -> 25         0.69205
       3 -> 29        -0.10847

 Excited State  93:      Singlet-B1    58.2063 eV   21.30 nm  f=0.0168  <S**2>=0.000
       2 -> 25        -0.13869
       3 -> 29        -0.44608
       4 -> 30         0.52628

 Excited State  94:      Singlet-B1    58.4234 eV   21.22 nm  f=0.2300  <S**2>=0.000
       3 -> 29         0.48773
       4 -> 30         0.38158
       5 -> 32         0.32877

 Excited State  95:      Singlet-A1    58.7426 eV   21.11 nm  f=0.0973  <S**2>=0.000
       2 -> 26         0.67816
       3 -> 27        -0.13289

 Excited State  96:      Singlet-A2    59.4094 eV   20.87 nm  f=0.0000  <S**2>=0.000
       3 -> 30        -0.10271
       5 -> 31         0.69937

 Excited State  97:      Singlet-B1    59.8790 eV   20.71 nm  f=0.1621  <S**2>=0.000
       3 -> 29        -0.20945
       4 -> 30        -0.25528
       5 -> 32         0.62186

 Excited State  98:      Singlet-B2    61.5188 eV   20.15 nm  f=0.0158  <S**2>=0.000
       4 -> 31         0.70255

 Excited State  99:      Singlet-A2    62.0704 eV   19.97 nm  f=0.0000  <S**2>=0.000
       3 -> 30         0.69838
       5 -> 31         0.10308

 Excited State 100:      Singlet-A1    62.0931 eV   19.97 nm  f=0.2372  <S**2>=0.000
       3 -> 31         0.12886
       4 -> 32         0.68142

 Excited State 101:      Singlet-A1    65.5100 eV   18.93 nm  f=0.0001  <S**2>=0.000
       3 -> 31         0.69023
       4 -> 32        -0.11702

 Excited State 102:      Singlet-B2    65.6905 eV   18.87 nm  f=0.1110  <S**2>=0.000
       2 -> 27         0.10676
       3 -> 32         0.69314

 Excited State 103:      Singlet-B2    67.0929 eV   18.48 nm  f=0.0428  <S**2>=0.000
       2 -> 27         0.69725
       3 -> 32        -0.10501

 Excited State 104:      Singlet-A2    67.6576 eV   18.33 nm  f=0.0000  <S**2>=0.000
       5 -> 33         0.70589

 Excited State 105:      Singlet-B2    70.1959 eV   17.66 nm  f=0.0123  <S**2>=0.000
       4 -> 33         0.70107

 Excited State 106:      Singlet-A2    70.8620 eV   17.50 nm  f=0.0000  <S**2>=0.000
       2 -> 29         0.70651

 Excited State 107:      Singlet-A1    71.2451 eV   17.40 nm  f=0.0027  <S**2>=0.000
       2 -> 28         0.65363
       3 -> 33        -0.18292
       4 -> 34        -0.13518

 Excited State 108:      Singlet-B1    72.3192 eV   17.14 nm  f=0.1475  <S**2>=0.000
       5 -> 34         0.69459

 Excited State 109:      Singlet-A1    73.1559 eV   16.95 nm  f=0.0093  <S**2>=0.000
       3 -> 33        -0.18591
       4 -> 34         0.67597

 Excited State 110:      Singlet-A1    74.8585 eV   16.56 nm  f=0.0288  <S**2>=0.000
       2 -> 28         0.19957
       3 -> 33         0.64761
       4 -> 34         0.14718

 Excited State 111:      Singlet-B1    74.9371 eV   16.55 nm  f=0.0364  <S**2>=0.000
       2 -> 30         0.70308

 Excited State 112:      Singlet-B2    76.9464 eV   16.11 nm  f=0.0114  <S**2>=0.000
       2 -> 31         0.10356
       3 -> 34         0.69456

 Excited State 113:      Singlet-B2    78.0084 eV   15.89 nm  f=0.0000  <S**2>=0.000
       2 -> 31         0.69887
       3 -> 34        -0.10289

 Excited State 114:      Singlet-A1    78.5889 eV   15.78 nm  f=0.0037  <S**2>=0.000
       2 -> 32         0.70511

 Excited State 115:      Singlet-B2    86.7438 eV   14.29 nm  f=0.0185  <S**2>=0.000
       2 -> 33         0.70470

 Excited State 116:      Singlet-A1    89.0110 eV   13.93 nm  f=0.1534  <S**2>=0.000
       4 -> 37        -0.21305
       5 -> 35         0.66767

 Excited State 117:      Singlet-A1    90.4970 eV   13.70 nm  f=0.0217  <S**2>=0.000
       2 -> 34         0.70356

 Excited State 118:      Singlet-B1    90.5502 eV   13.69 nm  f=0.0778  <S**2>=0.000
       3 -> 36        -0.16685
       4 -> 35         0.64058
       5 -> 37         0.23838

 Excited State 119:      Singlet-B2    91.0978 eV   13.61 nm  f=0.2117  <S**2>=0.000
       3 -> 37         0.10844
       5 -> 36         0.68885

 Excited State 120:      Singlet-A2    91.3456 eV   13.57 nm  f=0.0000  <S**2>=0.000
       3 -> 35         0.11891
       4 -> 36         0.69649

 Excited State 121:      Singlet-A2    93.6151 eV   13.24 nm  f=0.0000  <S**2>=0.000
       3 -> 35         0.69681
       4 -> 36        -0.11940

 Excited State 122:      Singlet-B1    93.6305 eV   13.24 nm  f=0.0259  <S**2>=0.000
       3 -> 36         0.20816
       4 -> 35        -0.18410
       5 -> 37         0.64942

 Excited State 123:      Singlet-B1    97.0095 eV   12.78 nm  f=0.1959  <S**2>=0.000
       3 -> 36         0.63430
       4 -> 35         0.19650
       5 -> 37        -0.13813
       5 -> 38         0.18532

 Excited State 124:      Singlet-A1    97.8919 eV   12.67 nm  f=0.3012  <S**2>=0.000
       4 -> 37         0.66959
       5 -> 35         0.20405

 Excited State 125:      Singlet-B2    99.7883 eV   12.42 nm  f=0.0662  <S**2>=0.000
       3 -> 37         0.69443

 Excited State 126:      Singlet-B1   106.9847 eV   11.59 nm  f=0.1178  <S**2>=0.000
       2 -> 35         0.49300
       3 -> 36         0.10020
       5 -> 38        -0.48945

 Excited State 127:      Singlet-A1   107.5894 eV   11.52 nm  f=0.0154  <S**2>=0.000
       4 -> 38         0.70488

 Excited State 128:      Singlet-B1   107.6635 eV   11.52 nm  f=0.2001  <S**2>=0.000
       2 -> 35         0.50625
       3 -> 36        -0.11263
       5 -> 38         0.47136

 Excited State 129:      Singlet-A2   108.8871 eV   11.39 nm  f=0.0000  <S**2>=0.000
       2 -> 36         0.70646

 Excited State 130:      Singlet-B2   111.7886 eV   11.09 nm  f=0.0673  <S**2>=0.000
       3 -> 38         0.69841

 Excited State 131:      Singlet-A1   112.7210 eV   11.00 nm  f=0.0056  <S**2>=0.000
       2 -> 37         0.70588

 Excited State 132:      Singlet-A2   116.4300 eV   10.65 nm  f=0.0000  <S**2>=0.000
       5 -> 39         0.70675

 Excited State 133:      Singlet-B2   119.5167 eV   10.37 nm  f=0.1575  <S**2>=0.000
       4 -> 39         0.69851

 Excited State 134:      Singlet-A1   122.9623 eV   10.08 nm  f=0.0783  <S**2>=0.000
       2 -> 38         0.16317
       3 -> 39         0.68418

 Excited State 135:      Singlet-A1   124.5323 eV    9.96 nm  f=0.0271  <S**2>=0.000
       2 -> 38         0.68765
       3 -> 39        -0.16281

 Excited State 136:      Singlet-B2   135.4143 eV    9.16 nm  f=0.0032  <S**2>=0.000
       2 -> 39         0.70674

 The electronic state is 1-A1.
 Alpha  occ. eigenvalues --  -19.07575  -0.98326  -0.52044  -0.37199  -0.29788
 Alpha virt. eigenvalues --    0.00152   0.06861   0.11739   0.11924   0.16441
 Alpha virt. eigenvalues --    0.19005   0.23296   0.24875   0.27781   0.35138
 Alpha virt. eigenvalues --    0.35892   0.39095   0.52019   0.53149   0.57230

 Mulliken charges:
               1
     1  O   -0.295724
     2  H    0.147862
     3  H    0.147862
 Sum of Mulliken charges =  -0.00000

 Dipole moment (field-independent basis, Debye):
    X=             -0.0000    Y=             -0.0000    Z=             -1.8471  Tot=              1.8471
 Quadrupole moment (field-independent basis, Debye-Ang):
   XX=             -7.7765   YY=             -4.4817   ZZ=             -6.4926
   XY=              0.0000   XZ=              0.0000   YZ=              0.0000

 Normal termination of Gaussian 16 at Mon Mar 21 20:05:20 2022.
