 Gaussian 16, Revision C.01,
 Gaussian 16:  EM64L-G16RevC.01  3-Jul-2019

 ---------------------------------------------------------------------
 #P TD(Nstates=10000) tpssh/Gen SCF(maxcycles=100) Int(Grid=ultrafine)
 ---------------------------------------------------------------------

 ---------------------
 xGDB7_00001_tier4.com
 ---------------------
 Symbolic Z-matrix:
 Charge =  0 Multiplicity = 1

                         Standard orientation:
 ---------------------------------------------------------------------
 Center     Atomic      Atomic             Coordinates (Angstroms)
 Number     Number       Type             X           Y           Z
 ---------------------------------------------------------------------
      1          6           0       -1.208422   -0.239069   -0.021917
      2          6           0        0.083893    0.553452    0.046734
      3          8           0        1.233467   -0.256002   -0.105864
      4          1           0       -2.071999    0.425135    0.051700
      5          1           0       -1.270670   -0.957756    0.799731
      6          1           0       -1.270625   -0.788280   -0.962327
      7          1           0        0.130030    1.119197    0.986112
      8          1           0        0.125951    1.277026   -0.768547
      9          1           0        1.236751   -0.913605    0.591341
 ---------------------------------------------------------------------

 SCF Done:  E(RTPSSh) =  -154.945034837     A.U. after   13 cycles

 Excitation energies and oscillator strengths:

 Excited State   1:      Singlet-A      6.8057 eV  182.18 nm  f=0.0130  <S**2>=0.000
      13 -> 14         0.70143
 This state for optimization and/or second-order correction.
 Total Energy, E(TD-HF/TD-DFT) =  -154.694928135
 Copying the excited state density for this state as the 1-particle RhoCI density.

 Excited State   2:      Singlet-A      7.7429 eV  160.13 nm  f=0.0159  <S**2>=0.000
      13 -> 15         0.69549

 Excited State   3:      Singlet-A      8.0768 eV  153.51 nm  f=0.0274  <S**2>=0.000
      13 -> 16         0.69837

 Excited State   4:      Singlet-A      8.3102 eV  149.20 nm  f=0.0184  <S**2>=0.000
      12 -> 14         0.70198

 Excited State   5:      Singlet-A      8.6003 eV  144.16 nm  f=0.0496  <S**2>=0.000
      13 -> 17         0.70485

 Excited State   6:      Singlet-A      9.1872 eV  134.95 nm  f=0.0181  <S**2>=0.000
      12 -> 15         0.69999

 Excited State   7:      Singlet-A      9.3056 eV  133.24 nm  f=0.0266  <S**2>=0.000
      13 -> 18         0.70339

 Excited State   8:      Singlet-A      9.5125 eV  130.34 nm  f=0.0310  <S**2>=0.000
      12 -> 16        -0.34290
      13 -> 19         0.60838

 Excited State   9:      Singlet-A      9.5369 eV  130.00 nm  f=0.0293  <S**2>=0.000
      12 -> 16         0.61136
      13 -> 19         0.32987

 Excited State  10:      Singlet-A      9.6229 eV  128.84 nm  f=0.0389  <S**2>=0.000
      10 -> 14        -0.10535
      11 -> 14         0.69153

 Excited State  11:      Singlet-A      9.7488 eV  127.18 nm  f=0.0006  <S**2>=0.000
      13 -> 20         0.68625

 Excited State  12:      Singlet-A      9.9259 eV  124.91 nm  f=0.0281  <S**2>=0.000
      10 -> 14         0.68150
      11 -> 14         0.10798

 Excited State  13:      Singlet-A     10.0511 eV  123.35 nm  f=0.0568  <S**2>=0.000
      12 -> 17         0.67173
      13 -> 21         0.18574

 Excited State  14:      Singlet-A     10.0882 eV  122.90 nm  f=0.0014  <S**2>=0.000
      12 -> 17        -0.18240
      13 -> 21         0.67041

 Excited State  15:      Singlet-A     10.3875 eV  119.36 nm  f=0.0162  <S**2>=0.000
      11 -> 15        -0.13800
      13 -> 22         0.68681

 Excited State  16:      Singlet-A     10.4808 eV  118.30 nm  f=0.0079  <S**2>=0.000
      11 -> 15         0.68267
      13 -> 22         0.13223

 Excited State  17:      Singlet-A     10.5927 eV  117.05 nm  f=0.0046  <S**2>=0.000
      10 -> 15        -0.10232
      13 -> 23         0.68718

 Excited State  18:      Singlet-A     10.7288 eV  115.56 nm  f=0.0295  <S**2>=0.000
      10 -> 15         0.57949
      12 -> 18        -0.38647

 Excited State  19:      Singlet-A     10.7568 eV  115.26 nm  f=0.0379  <S**2>=0.000
      10 -> 15         0.37456
      11 -> 16        -0.18651
      12 -> 18         0.55243
      12 -> 19        -0.10611

 Excited State  20:      Singlet-A     10.8138 eV  114.65 nm  f=0.0648  <S**2>=0.000
      11 -> 16         0.67137
      12 -> 18         0.18149

 Excited State  21:      Singlet-A     10.9875 eV  112.84 nm  f=0.0329  <S**2>=0.000
      10 -> 16        -0.21943
      12 -> 19         0.64858

 Excited State  22:      Singlet-A     11.0869 eV  111.83 nm  f=0.1248  <S**2>=0.000
      10 -> 16         0.66093
      12 -> 19         0.21950

 Excited State  23:      Singlet-A     11.1843 eV  110.86 nm  f=0.0140  <S**2>=0.000
      12 -> 20        -0.16450
      13 -> 24         0.66949

 Excited State  24:      Singlet-A     11.2504 eV  110.20 nm  f=0.0214  <S**2>=0.000
       9 -> 14         0.69364

 Excited State  25:      Singlet-A     11.2882 eV  109.83 nm  f=0.0038  <S**2>=0.000
      12 -> 20         0.62484
      13 -> 24         0.14190
      13 -> 25         0.25401

 Excited State  26:      Singlet-A     11.3895 eV  108.86 nm  f=0.1081  <S**2>=0.000
      11 -> 17         0.69384

 Excited State  27:      Singlet-A     11.5002 eV  107.81 nm  f=0.0017  <S**2>=0.000
      10 -> 17        -0.20179
      12 -> 20        -0.19558
      12 -> 21        -0.21895
      13 -> 25         0.58376

 Excited State  28:      Singlet-A     11.6138 eV  106.76 nm  f=0.0201  <S**2>=0.000
      12 -> 20        -0.10953
      12 -> 21         0.64936
      12 -> 22        -0.10075
      13 -> 25         0.17424

 Excited State  29:      Singlet-A     11.6364 eV  106.55 nm  f=0.0290  <S**2>=0.000
      10 -> 17         0.66742
      13 -> 25         0.16709

 Excited State  30:      Singlet-A     11.8112 eV  104.97 nm  f=0.0029  <S**2>=0.000
       8 -> 14         0.37652
      12 -> 22         0.58119

 Excited State  31:      Singlet-A     11.8502 eV  104.63 nm  f=0.0346  <S**2>=0.000
       8 -> 14         0.57357
      12 -> 22        -0.36084
      13 -> 26         0.10476

 Excited State  32:      Singlet-A     12.0089 eV  103.24 nm  f=0.0485  <S**2>=0.000
       9 -> 15        -0.10539
      11 -> 18         0.56701
      12 -> 23        -0.36330

 Excited State  33:      Singlet-A     12.0437 eV  102.95 nm  f=0.0140  <S**2>=0.000
      13 -> 26         0.65738

 Excited State  34:      Singlet-A     12.0993 eV  102.47 nm  f=0.0061  <S**2>=0.000
       9 -> 15         0.56510
      11 -> 18        -0.14235
      12 -> 23        -0.36601

 Excited State  35:      Singlet-A     12.1214 eV  102.29 nm  f=0.0366  <S**2>=0.000
       9 -> 15         0.35423
      10 -> 18        -0.12475
      11 -> 18         0.33027
      12 -> 23         0.45637

 Excited State  36:      Singlet-A     12.1783 eV  101.81 nm  f=0.0141  <S**2>=0.000
      11 -> 19        -0.17297
      13 -> 27         0.66192

 Excited State  37:      Singlet-A     12.2652 eV  101.09 nm  f=0.0241  <S**2>=0.000
      10 -> 18         0.10677
      11 -> 19         0.64987
      13 -> 27         0.16387

 Excited State  38:      Singlet-A     12.3293 eV  100.56 nm  f=0.0300  <S**2>=0.000
      10 -> 18         0.64484
      11 -> 18         0.13535
      11 -> 19        -0.11502

 Excited State  39:      Singlet-A     12.4192 eV   99.83 nm  f=0.0567  <S**2>=0.000
       9 -> 16         0.68239

 Excited State  40:      Singlet-A     12.4891 eV   99.27 nm  f=0.0037  <S**2>=0.000
      10 -> 19        -0.37596
      11 -> 20         0.54166
      12 -> 24        -0.10933

 Excited State  41:      Singlet-A     12.5426 eV   98.85 nm  f=0.0039  <S**2>=0.000
      10 -> 19         0.58016
      10 -> 20         0.12115
      11 -> 20         0.34180

 Excited State  42:      Singlet-A     12.5690 eV   98.64 nm  f=0.0023  <S**2>=0.000
      13 -> 28         0.68291

 Excited State  43:      Singlet-A     12.6788 eV   97.79 nm  f=0.0898  <S**2>=0.000
       8 -> 15         0.65694
      10 -> 20        -0.18775

 Excited State  44:      Singlet-A     12.7136 eV   97.52 nm  f=0.0784  <S**2>=0.000
      10 -> 20         0.23937
      12 -> 24         0.62848

 Excited State  45:      Singlet-A     12.7619 eV   97.15 nm  f=0.0163  <S**2>=0.000
       8 -> 15         0.21251
      10 -> 20         0.51683
      11 -> 20        -0.12979
      11 -> 21         0.28510
      11 -> 23         0.10490
      12 -> 24        -0.21905

 Excited State  46:      Singlet-A     12.8877 eV   96.20 nm  f=0.0072  <S**2>=0.000
       8 -> 16         0.12981
       9 -> 17        -0.26121
      10 -> 20        -0.26216
      10 -> 22         0.14283
      11 -> 21         0.50997
      11 -> 22        -0.19322

 Excited State  47:      Singlet-A     12.9148 eV   96.00 nm  f=0.0138  <S**2>=0.000
       7 -> 14        -0.11111
       9 -> 17         0.36749
      11 -> 22        -0.19292
      12 -> 25         0.51954

 Excited State  48:      Singlet-A     13.0046 eV   95.34 nm  f=0.0231  <S**2>=0.000
       8 -> 16        -0.30255
       9 -> 17        -0.36800
      11 -> 22         0.32995
      12 -> 25         0.37629

 Excited State  49:      Singlet-A     13.0166 eV   95.25 nm  f=0.0299  <S**2>=0.000
       8 -> 16         0.51141
       9 -> 17        -0.28054
      10 -> 21         0.17752
      11 -> 21        -0.25488
      12 -> 25         0.18952

 Excited State  50:      Singlet-A     13.0694 eV   94.87 nm  f=0.0152  <S**2>=0.000
       8 -> 16        -0.28225
      10 -> 21         0.55548
      11 -> 22        -0.29184

 Excited State  51:      Singlet-A     13.1277 eV   94.44 nm  f=0.0182  <S**2>=0.000
       7 -> 14        -0.29024
       8 -> 16         0.13287
       9 -> 17         0.21613
      10 -> 21         0.34138
      10 -> 22         0.12267
      11 -> 21         0.10288
      11 -> 22         0.42113

 Excited State  52:      Singlet-A     13.2194 eV   93.79 nm  f=0.0579  <S**2>=0.000
       7 -> 14         0.58043
       9 -> 17         0.11625
      10 -> 21         0.12421
      10 -> 22         0.25991
      11 -> 22         0.13374

 Excited State  53:      Singlet-A     13.3956 eV   92.56 nm  f=0.0106  <S**2>=0.000
       9 -> 18        -0.17578
      10 -> 22        -0.27639
      10 -> 23        -0.10642
      11 -> 23         0.36419
      12 -> 26        -0.13457
      13 -> 29         0.43690

 Excited State  54:      Singlet-A     13.4008 eV   92.52 nm  f=0.0388  <S**2>=0.000
       8 -> 17         0.25190
       9 -> 18         0.10213
      10 -> 22         0.37958
      11 -> 21        -0.10618
      11 -> 22        -0.11082
      11 -> 23        -0.10691
      13 -> 29         0.46978

 Excited State  55:      Singlet-A     13.4810 eV   91.97 nm  f=0.0382  <S**2>=0.000
       7 -> 14        -0.12606
       8 -> 17         0.11105
       9 -> 18         0.11765
       9 -> 19         0.11195
      10 -> 22         0.24955
      10 -> 23        -0.15925
      11 -> 23         0.49267
      12 -> 26        -0.12665
      12 -> 27         0.13210
      13 -> 29        -0.20454

 Excited State  56:      Singlet-A     13.5625 eV   91.42 nm  f=0.0155  <S**2>=0.000
       8 -> 17        -0.20176
       9 -> 18         0.40197
      11 -> 23         0.15129
      12 -> 26         0.32940
      12 -> 27        -0.33339
      13 -> 30         0.12189

 Excited State  57:      Singlet-A     13.6153 eV   91.06 nm  f=0.0325  <S**2>=0.000
       8 -> 17         0.41695
       9 -> 18        -0.25291
      12 -> 26         0.39205
      13 -> 30         0.22332

 Excited State  58:      Singlet-A     13.6666 eV   90.72 nm  f=0.0277  <S**2>=0.000
       8 -> 17        -0.17904
      10 -> 23         0.20162
      12 -> 26         0.22420
      12 -> 27         0.50383
      13 -> 30         0.25377

 Excited State  59:      Singlet-A     13.7105 eV   90.43 nm  f=0.0224  <S**2>=0.000
       9 -> 18        -0.18363
       9 -> 19         0.14207
      10 -> 23         0.49083
      11 -> 23         0.12847
      12 -> 26        -0.17696
      12 -> 27        -0.26495
      13 -> 30         0.23491

 Excited State  60:      Singlet-A     13.7664 eV   90.06 nm  f=0.0489  <S**2>=0.000
       8 -> 17         0.12905
       9 -> 18         0.20400
       9 -> 19        -0.21539
      10 -> 23        -0.10342
      11 -> 24        -0.18851
      12 -> 26        -0.26844
      13 -> 30         0.47781

 Excited State  61:      Singlet-A     13.8326 eV   89.63 nm  f=0.0073  <S**2>=0.000
       7 -> 15        -0.18630
       8 -> 17         0.27607
       8 -> 18         0.11611
       9 -> 18         0.21996
       9 -> 19        -0.26146
       9 -> 20         0.10255
      10 -> 22        -0.13919
      10 -> 23         0.32285
      12 -> 27         0.10125
      13 -> 30        -0.24358

 Excited State  62:      Singlet-A     13.9778 eV   88.70 nm  f=0.0287  <S**2>=0.000
       7 -> 15         0.47842
       9 -> 19        -0.37642
      10 -> 24         0.11425
      11 -> 24         0.21209

 Excited State  63:      Singlet-A     13.9998 eV   88.56 nm  f=0.0561  <S**2>=0.000
       7 -> 15        -0.15145
       9 -> 18         0.14913
      11 -> 24         0.52044
      11 -> 25        -0.28095
      12 -> 26        -0.10223
      12 -> 28        -0.13034

 Excited State  64:      Singlet-A     14.0376 eV   88.32 nm  f=0.0058  <S**2>=0.000
       7 -> 15         0.34681
       7 -> 16        -0.12430
       8 -> 17         0.10192
       8 -> 18         0.18277
       9 -> 18         0.11472
       9 -> 19         0.29678
       9 -> 20         0.32814
       9 -> 21         0.10920
      12 -> 28         0.18421
      13 -> 31        -0.10269

 Excited State  65:      Singlet-A     14.0824 eV   88.04 nm  f=0.0041  <S**2>=0.000
       7 -> 15         0.10086
       8 -> 18        -0.13108
       9 -> 20        -0.39041
      11 -> 25        -0.21581
      12 -> 28         0.46419

 Excited State  66:      Singlet-A     14.1264 eV   87.77 nm  f=0.0516  <S**2>=0.000
       7 -> 15        -0.18393
       7 -> 16         0.10844
       8 -> 18        -0.29492
       9 -> 20         0.43556
      10 -> 24         0.19337
      12 -> 28         0.29870

 Excited State  67:      Singlet-A     14.2490 eV   87.01 nm  f=0.0309  <S**2>=0.000
       7 -> 16        -0.26050
       8 -> 18        -0.27362
       8 -> 19         0.10202
       9 -> 18         0.12887
       9 -> 23         0.10142
      11 -> 24         0.13119
      11 -> 25         0.50105

 Excited State  68:      Singlet-A     14.2941 eV   86.74 nm  f=0.1295  <S**2>=0.000
       7 -> 16         0.28154
       8 -> 18         0.28773
       9 -> 19        -0.14320
       9 -> 21        -0.19907
      10 -> 24        -0.25474
      11 -> 24         0.20176
      11 -> 25         0.20119
      12 -> 28         0.28092

 Excited State  69:      Singlet-A     14.3663 eV   86.30 nm  f=0.0304  <S**2>=0.000
       7 -> 16         0.30660
       8 -> 18         0.16045
       8 -> 19         0.21132
       9 -> 21         0.19916
      10 -> 24         0.37242
      10 -> 25         0.15985
      13 -> 31        -0.25038

 Excited State  70:      Singlet-A     14.4039 eV   86.08 nm  f=0.0069  <S**2>=0.000
       7 -> 16         0.34456
       8 -> 18        -0.18342
       8 -> 19        -0.15372
       9 -> 21         0.37454
      10 -> 25        -0.24149
      11 -> 25         0.11034
      13 -> 31         0.24805

 Excited State  71:      Singlet-A     14.4481 eV   85.81 nm  f=0.0330  <S**2>=0.000
       7 -> 16         0.19142
       8 -> 18        -0.20108
       8 -> 19         0.34894
       8 -> 20         0.10713
       9 -> 21        -0.22642
      10 -> 24        -0.11690
      10 -> 25        -0.31027
      13 -> 31        -0.24775

 Excited State  72:      Singlet-A     14.5340 eV   85.31 nm  f=0.0404  <S**2>=0.000
       8 -> 18        -0.20068
       9 -> 22         0.17795
      10 -> 24        -0.25585
      10 -> 25         0.45921
      11 -> 27        -0.16133
      12 -> 28        -0.11484
      12 -> 29        -0.10139
      13 -> 31        -0.19764

 Excited State  73:      Singlet-A     14.5414 eV   85.26 nm  f=0.0741  <S**2>=0.000
       7 -> 16        -0.19252
       7 -> 17        -0.17006
       8 -> 19         0.26043
       9 -> 19        -0.15586
       9 -> 21         0.42987
      10 -> 24        -0.17583
      13 -> 31        -0.16449

 Excited State  74:      Singlet-A     14.6145 eV   84.84 nm  f=0.0298  <S**2>=0.000
       7 -> 17         0.14284
       8 -> 19         0.30855
       9 -> 22         0.15722
      10 -> 25         0.13931
      12 -> 29        -0.10803
      13 -> 31         0.32302
      13 -> 32         0.42221

 Excited State  75:      Singlet-A     14.6566 eV   84.59 nm  f=0.0211  <S**2>=0.000
       8 -> 19        -0.22066
       8 -> 20         0.26576
       8 -> 21         0.10037
       9 -> 22        -0.17701
      11 -> 26         0.12692
      11 -> 27        -0.11612
      13 -> 31        -0.22717
      13 -> 32         0.46583

 Excited State  76:      Singlet-A     14.7193 eV   84.23 nm  f=0.0785  <S**2>=0.000
       8 -> 19        -0.13096
       8 -> 20        -0.36145
       9 -> 22         0.43789
       9 -> 23        -0.11716
      10 -> 25        -0.16118
      12 -> 29         0.10690
      13 -> 31        -0.11690
      13 -> 32         0.22926

 Excited State  77:      Singlet-A     14.7652 eV   83.97 nm  f=0.0351  <S**2>=0.000
       7 -> 17         0.14059
       8 -> 19        -0.11967
       8 -> 20         0.44952
       9 -> 22         0.38366
      11 -> 27         0.14219
      12 -> 29         0.17787
      13 -> 32        -0.10329

 Excited State  78:      Singlet-A     14.8492 eV   83.50 nm  f=0.0231  <S**2>=0.000
       7 -> 17        -0.25141
       9 -> 22         0.14124
      11 -> 26         0.56093
      12 -> 29        -0.22772

 Excited State  79:      Singlet-A     14.8715 eV   83.37 nm  f=0.0282  <S**2>=0.000
       7 -> 17         0.14258
       8 -> 19         0.10686
      11 -> 26         0.28109
      11 -> 27        -0.24916
      12 -> 29         0.52919

 Excited State  80:      Singlet-A     14.9665 eV   82.84 nm  f=0.0609  <S**2>=0.000
       7 -> 17         0.43584
       9 -> 23        -0.21523
      10 -> 26         0.18765
      10 -> 27        -0.10561
      11 -> 27        -0.20977
      12 -> 29        -0.25465
      13 -> 33         0.18606

 Excited State  81:      Singlet-A     15.0140 eV   82.58 nm  f=0.0695  <S**2>=0.000
       7 -> 17         0.25007
       9 -> 23        -0.13525
      10 -> 24        -0.11826
      11 -> 26         0.20505
      11 -> 27         0.49748
      13 -> 33        -0.15970

 Excited State  82:      Singlet-A     15.0837 eV   82.20 nm  f=0.0396  <S**2>=0.000
       8 -> 21         0.43213
       9 -> 23        -0.41506
      10 -> 26        -0.15041
      10 -> 27        -0.16371
      12 -> 30         0.13002
      13 -> 33        -0.19123

 Excited State  83:      Singlet-A     15.1272 eV   81.96 nm  f=0.0313  <S**2>=0.000
       8 -> 21         0.42283
       9 -> 23         0.24496
      10 -> 26         0.26137
      10 -> 27         0.28039
      12 -> 30         0.13917
      13 -> 33         0.12927

 Excited State  84:      Singlet-A     15.1568 eV   81.80 nm  f=0.0579  <S**2>=0.000
       8 -> 21         0.12173
       8 -> 22         0.10821
      10 -> 26        -0.27464
      10 -> 27        -0.22535
      12 -> 30        -0.11286
      13 -> 33         0.50042
      13 -> 34         0.13594

 Excited State  85:      Singlet-A     15.2092 eV   81.52 nm  f=0.0855  <S**2>=0.000
       7 -> 17        -0.11512
       8 -> 22         0.20791
       9 -> 23        -0.11027
      10 -> 26         0.46877
      10 -> 27        -0.27897
      11 -> 27         0.15233
      11 -> 28         0.20371

 Excited State  86:      Singlet-A     15.2190 eV   81.47 nm  f=0.0088  <S**2>=0.000
      10 -> 27        -0.16837
      11 -> 28        -0.18467
      12 -> 30         0.56423
      13 -> 34        -0.26495

 Excited State  87:      Singlet-A     15.3090 eV   80.99 nm  f=0.0177  <S**2>=0.000
       8 -> 21        -0.10535
       9 -> 25         0.10105
      11 -> 28        -0.33230
      12 -> 30         0.14525
      13 -> 34         0.54126

 Excited State  88:      Singlet-A     15.3255 eV   80.90 nm  f=0.1080  <S**2>=0.000
       8 -> 22         0.56474
       9 -> 23        -0.13956
      10 -> 27         0.31670

 Excited State  89:      Singlet-A     15.3681 eV   80.68 nm  f=0.2045  <S**2>=0.000
       7 -> 17         0.11971
       8 -> 22         0.27048
       9 -> 23         0.28222
       9 -> 24         0.10662
      10 -> 27        -0.20253
      11 -> 28         0.16326
      13 -> 33        -0.20809
      13 -> 34         0.22194
      13 -> 35         0.24521

 Excited State  90:      Singlet-A     15.4822 eV   80.08 nm  f=0.0251  <S**2>=0.000
       7 -> 18        -0.25051
       9 -> 24        -0.28437
      11 -> 28        -0.32160
      12 -> 30        -0.15450
      13 -> 34        -0.12869
      13 -> 35         0.40552

 Excited State  91:      Singlet-A     15.5318 eV   79.83 nm  f=0.0716  <S**2>=0.000
       7 -> 18         0.41295
       9 -> 24        -0.14948
       9 -> 25        -0.15908
      10 -> 27         0.10164
      11 -> 28         0.19364
      13 -> 33         0.10775
      13 -> 35         0.40722

 Excited State  92:      Singlet-A     15.5645 eV   79.66 nm  f=0.0295  <S**2>=0.000
       9 -> 24         0.51285
      10 -> 28         0.36270
      11 -> 28        -0.10913
      13 -> 35         0.17647

 Excited State  93:      Singlet-A     15.5865 eV   79.55 nm  f=0.0544  <S**2>=0.000
       7 -> 18         0.13520
       8 -> 23         0.21749
       9 -> 24        -0.27027
      10 -> 28         0.50231
      13 -> 35        -0.16610

 Excited State  94:      Singlet-A     15.6424 eV   79.26 nm  f=0.0373  <S**2>=0.000
       7 -> 18        -0.22742
       7 -> 19         0.19332
       8 -> 23         0.55712
       9 -> 23        -0.10545
      13 -> 35         0.14443

 Excited State  95:      Singlet-A     15.6949 eV   79.00 nm  f=0.1176  <S**2>=0.000
       7 -> 18         0.38945
       8 -> 21         0.10290
       8 -> 23         0.27106
      10 -> 27        -0.12596

 The electronic state is 1-A.
 Alpha  occ. eigenvalues --  -19.06563 -10.17240 -10.12266  -0.98961  -0.72458
 Alpha  occ. eigenvalues --   -0.60520  -0.48839  -0.44030  -0.41850  -0.36893
 Alpha  occ. eigenvalues --   -0.35895  -0.31206  -0.25832
 Alpha virt. eigenvalues --    0.01299   0.04361   0.05547   0.07687   0.10194
 Alpha virt. eigenvalues --    0.11168   0.11897   0.13141   0.14082   0.15281
 Alpha virt. eigenvalues --    0.17295   0.18222   0.20704   0.20960   0.22499

 Mulliken charges:
               1
     1  C    0.185065
     2  C    0.232819
     3  O   -0.475138
     4  H    0.048098
     5  H   -0.000426
     6  H    0.025411
     7  H   -0.066074
     8  H   -0.140104
     9  H    0.190348
 Sum of Mulliken charges =  -0.00000

 Dipole moment (field-independent basis, Debye):
    X=             -1.2772    Y=             -0.1553    Z=              1.1175  Tot=              1.7042
 Quadrupole moment (field-independent basis, Debye-Ang):
   XX=            -22.5652   YY=            -18.8161   ZZ=            -19.4281
   XY=             -0.9651   XZ=              1.7021   YZ=             -1.4663

 Normal termination of Gaussian 16 at Mon Mar 21 20:15:27 2022.
