 Gaussian 16, Revision C.01,
 Gaussian 16:  EM64L-G16RevC.01  3-Jul-2019

 ---------------------------------------------------------------------
 #P TD(Nstates=10000) tpssh/Gen SCF(maxcycles=100) Int(Grid=ultrafine)
 ---------------------------------------------------------------------

 ---------------------
 xGDB7_00001_tier4.com
 ---------------------
 Symbolic Z-matrix:
 Charge =  0 Multiplicity = 1

                         Standard orientation:
 ---------------------------------------------------------------------
 Center     Atomic      Atomic             Coordinates (Angstroms)
 Number     Number       Type             X           Y           Z
 ---------------------------------------------------------------------
      1          7           0        1.106441    0.142513   -0.090982
      2          7           0       -0.080753   -0.512520    0.006066
      3          6           0       -1.148696    0.167456    0.008166
      4          1           0        1.854749   -0.409916    0.291533
      5          1           0        1.109676    1.100453    0.242713
      6          1           0       -2.089851   -0.366199    0.035249
      7          1           0       -1.162209    1.260974   -0.024080
 ---------------------------------------------------------------------

 SCF Done:  E(RTPSSh) =  -149.869464246     A.U. after   13 cycles

 Excitation energies and oscillator strengths:

 Excited State   1:      Singlet-A      5.9141 eV  209.64 nm  f=0.0373  <S**2>=0.000
      11 -> 13         0.60778
      12 -> 13         0.34906
 This state for optimization and/or second-order correction.
 Total Energy, E(TD-HF/TD-DFT) =  -149.652124667
 Copying the excited state density for this state as the 1-particle RhoCI density.

 Excited State   2:      Singlet-A      6.0729 eV  204.16 nm  f=0.1175  <S**2>=0.000
      11 -> 13        -0.34411
      12 -> 13         0.52226
      12 -> 14         0.31037

 Excited State   3:      Singlet-A      6.3971 eV  193.81 nm  f=0.0668  <S**2>=0.000
      11 -> 13         0.10364
      12 -> 13        -0.28833
      12 -> 14         0.62990

 Excited State   4:      Singlet-A      7.1787 eV  172.71 nm  f=0.0277  <S**2>=0.000
      12 -> 15         0.70416

 Excited State   5:      Singlet-A      7.3602 eV  168.45 nm  f=0.0436  <S**2>=0.000
      11 -> 14         0.70206

 Excited State   6:      Singlet-A      7.8536 eV  157.87 nm  f=0.0123  <S**2>=0.000
      12 -> 16         0.70182

 Excited State   7:      Singlet-A      8.1147 eV  152.79 nm  f=0.0272  <S**2>=0.000
      11 -> 15         0.70090

 Excited State   8:      Singlet-A      8.6685 eV  143.03 nm  f=0.0115  <S**2>=0.000
      12 -> 17         0.69886

 Excited State   9:      Singlet-A      8.8812 eV  139.60 nm  f=0.1044  <S**2>=0.000
      11 -> 16         0.69259

 Excited State  10:      Singlet-A      8.9973 eV  137.80 nm  f=0.0126  <S**2>=0.000
      12 -> 18         0.69444

 Excited State  11:      Singlet-A      9.4155 eV  131.68 nm  f=0.0063  <S**2>=0.000
       9 -> 13         0.10217
      12 -> 19         0.69052

 Excited State  12:      Singlet-A      9.6527 eV  128.44 nm  f=0.0281  <S**2>=0.000
       9 -> 13         0.31315
      10 -> 13         0.26516
      11 -> 17         0.55498

 Excited State  13:      Singlet-A      9.7065 eV  127.73 nm  f=0.0364  <S**2>=0.000
       9 -> 13         0.51124
      10 -> 13         0.22225
      11 -> 17        -0.38715
      11 -> 18        -0.12281

 Excited State  14:      Singlet-A      9.8916 eV  125.34 nm  f=0.0784  <S**2>=0.000
      11 -> 17        -0.14675
      11 -> 18         0.68564

 Excited State  15:      Singlet-A     10.2157 eV  121.37 nm  f=0.0773  <S**2>=0.000
       9 -> 13        -0.31424
      10 -> 13         0.47526
      10 -> 14         0.24951
      11 -> 19         0.23304
      12 -> 21         0.10526

 Excited State  16:      Singlet-A     10.3416 eV  119.89 nm  f=0.0268  <S**2>=0.000
      10 -> 13        -0.11518
      10 -> 14        -0.14961
      11 -> 19         0.64421
      12 -> 20        -0.18412

 Excited State  17:      Singlet-A     10.5059 eV  118.01 nm  f=0.0396  <S**2>=0.000
       9 -> 13         0.10070
      10 -> 13        -0.18456
      10 -> 14         0.62754
      12 -> 20        -0.13863
      12 -> 21        -0.16985

 Excited State  18:      Singlet-A     10.5768 eV  117.22 nm  f=0.0130  <S**2>=0.000
      12 -> 20        -0.35439
      12 -> 21         0.59436

 Excited State  19:      Singlet-A     10.6746 eV  116.15 nm  f=0.0470  <S**2>=0.000
      10 -> 13        -0.18842
      10 -> 14         0.11067
      11 -> 19         0.13552
      12 -> 20         0.52313
      12 -> 21         0.31459

 Excited State  20:      Singlet-A     10.9547 eV  113.18 nm  f=0.0511  <S**2>=0.000
      12 -> 22         0.69787

 Excited State  21:      Singlet-A     11.2307 eV  110.40 nm  f=0.0254  <S**2>=0.000
      11 -> 20         0.69168

 Excited State  22:      Singlet-A     11.2929 eV  109.79 nm  f=0.0858  <S**2>=0.000
       9 -> 14         0.56558
      10 -> 15         0.36637
      11 -> 21         0.12985

 Excited State  23:      Singlet-A     11.2975 eV  109.75 nm  f=0.0294  <S**2>=0.000
       9 -> 14        -0.36063
      10 -> 15         0.59454

 Excited State  24:      Singlet-A     11.5081 eV  107.74 nm  f=0.0368  <S**2>=0.000
       9 -> 14        -0.12147
      11 -> 21         0.63001
      12 -> 23         0.24674

 Excited State  25:      Singlet-A     11.6349 eV  106.56 nm  f=0.0501  <S**2>=0.000
      11 -> 21        -0.23180
      12 -> 23         0.54927
      12 -> 24        -0.30766

 Excited State  26:      Singlet-A     11.6982 eV  105.99 nm  f=0.0265  <S**2>=0.000
      11 -> 22         0.13297
      12 -> 23         0.29028
      12 -> 24         0.61513

 Excited State  27:      Singlet-A     11.8673 eV  104.48 nm  f=0.0504  <S**2>=0.000
      10 -> 16         0.13106
      11 -> 22         0.66417

 Excited State  28:      Singlet-A     11.9809 eV  103.49 nm  f=0.0233  <S**2>=0.000
      10 -> 16         0.67933
      11 -> 22        -0.12934

 Excited State  29:      Singlet-A     12.0233 eV  103.12 nm  f=0.0015  <S**2>=0.000
       8 -> 13         0.64624
       9 -> 15         0.10556
      12 -> 25         0.19679

 Excited State  30:      Singlet-A     12.1209 eV  102.29 nm  f=0.0665  <S**2>=0.000
       9 -> 15         0.68183

 Excited State  31:      Singlet-A     12.2788 eV  100.97 nm  f=0.0435  <S**2>=0.000
      11 -> 23         0.48233
      12 -> 25         0.48343

 Excited State  32:      Singlet-A     12.3498 eV  100.39 nm  f=0.0745  <S**2>=0.000
       8 -> 13         0.15424
      11 -> 23         0.50507
      12 -> 25        -0.45016

 Excited State  33:      Singlet-A     12.5388 eV   98.88 nm  f=0.0750  <S**2>=0.000
      11 -> 24         0.15096
      12 -> 26         0.65427
      12 -> 27         0.15158

 Excited State  34:      Singlet-A     12.7657 eV   97.12 nm  f=0.0296  <S**2>=0.000
       7 -> 13        -0.13616
      10 -> 17        -0.38107
      11 -> 24         0.53331
      11 -> 25         0.12500

 Excited State  35:      Singlet-A     12.8359 eV   96.59 nm  f=0.0263  <S**2>=0.000
       7 -> 13         0.15340
       9 -> 16        -0.22015
      10 -> 17         0.40827
      11 -> 24         0.29316
      11 -> 25         0.11243
      12 -> 26        -0.16540
      12 -> 27         0.34498

 Excited State  36:      Singlet-A     12.8579 eV   96.43 nm  f=0.0308  <S**2>=0.000
       7 -> 13         0.37585
       9 -> 16         0.38717
      10 -> 17         0.20287
      11 -> 24         0.17492
      12 -> 27        -0.34211

 Excited State  37:      Singlet-A     12.8675 eV   96.35 nm  f=0.0089  <S**2>=0.000
       7 -> 13         0.54317
       9 -> 16        -0.14645
      10 -> 17        -0.35795
      12 -> 27         0.15803

 Excited State  38:      Singlet-A     12.9121 eV   96.02 nm  f=0.0464  <S**2>=0.000
       9 -> 16         0.50850
      12 -> 26        -0.11544
      12 -> 27         0.44400

 Excited State  39:      Singlet-A     13.1482 eV   94.30 nm  f=0.0310  <S**2>=0.000
      10 -> 18         0.69426

 Excited State  40:      Singlet-A     13.3131 eV   93.13 nm  f=0.0129  <S**2>=0.000
       8 -> 14         0.21003
      11 -> 24        -0.12364
      11 -> 25         0.61374
      11 -> 26        -0.14560

 Excited State  41:      Singlet-A     13.4840 eV   91.95 nm  f=0.0151  <S**2>=0.000
      10 -> 19         0.17681
      11 -> 25         0.15115
      11 -> 26         0.65233

 Excited State  42:      Singlet-A     13.5503 eV   91.50 nm  f=0.1027  <S**2>=0.000
       8 -> 14        -0.13811
      10 -> 19         0.64884
      11 -> 26        -0.18430

 Excited State  43:      Singlet-A     13.5833 eV   91.28 nm  f=0.0183  <S**2>=0.000
       8 -> 14         0.58234
       9 -> 17         0.22025
       9 -> 18         0.20084
      10 -> 19         0.13992
      11 -> 25        -0.13507

 Excited State  44:      Singlet-A     13.7401 eV   90.24 nm  f=0.0146  <S**2>=0.000
       8 -> 14        -0.21446
       9 -> 17         0.60256
       9 -> 18         0.16809
      11 -> 25         0.10055

 Excited State  45:      Singlet-A     13.8941 eV   89.23 nm  f=0.0364  <S**2>=0.000
      11 -> 27         0.66682

 Excited State  46:      Singlet-A     13.9685 eV   88.76 nm  f=0.0078  <S**2>=0.000
       8 -> 14        -0.11500
       8 -> 15         0.11387
       9 -> 17        -0.17655
       9 -> 18         0.61754
       9 -> 19         0.14352
      10 -> 20         0.12605

 Excited State  47:      Singlet-A     14.2282 eV   87.14 nm  f=0.0768  <S**2>=0.000
       7 -> 14         0.63015
       9 -> 19        -0.15943
      12 -> 28        -0.22350

 Excited State  48:      Singlet-A     14.2838 eV   86.80 nm  f=0.0558  <S**2>=0.000
       7 -> 14         0.22732
       8 -> 15        -0.30566
      10 -> 20         0.13468
      12 -> 28         0.54517
      12 -> 29        -0.15965

 Excited State  49:      Singlet-A     14.3688 eV   86.29 nm  f=0.0314  <S**2>=0.000
       8 -> 15         0.44451
       9 -> 19        -0.19828
      10 -> 20        -0.17372
      12 -> 28         0.36703
      12 -> 29         0.26759

 Excited State  50:      Singlet-A     14.4407 eV   85.86 nm  f=0.0774  <S**2>=0.000
       7 -> 14         0.12470
       8 -> 15         0.13360
       9 -> 19         0.47974
      10 -> 20        -0.39117
      12 -> 29        -0.20124

 Excited State  51:      Singlet-A     14.4806 eV   85.62 nm  f=0.0957  <S**2>=0.000
       8 -> 15        -0.15094
       9 -> 19         0.33845
      10 -> 20         0.10485
      12 -> 29         0.56914

 Excited State  52:      Singlet-A     14.6191 eV   84.81 nm  f=0.0171  <S**2>=0.000
       7 -> 16        -0.12137
       8 -> 15         0.28477
       9 -> 17         0.12763
       9 -> 18        -0.11861
       9 -> 19         0.16541
      10 -> 20         0.43955
      10 -> 22        -0.12625
      12 -> 29        -0.12714
      12 -> 30         0.29491

 Excited State  53:      Singlet-A     14.6950 eV   84.37 nm  f=0.0218  <S**2>=0.000
       8 -> 15         0.11274
      10 -> 20         0.11250
      10 -> 21         0.56592
      12 -> 30        -0.36697

 Excited State  54:      Singlet-A     14.7341 eV   84.15 nm  f=0.0169  <S**2>=0.000
       8 -> 15        -0.11867
      10 -> 20        -0.12202
      10 -> 21         0.40717
      12 -> 30         0.50679

 Excited State  55:      Singlet-A     15.0044 eV   82.63 nm  f=0.0591  <S**2>=0.000
       7 -> 15         0.30006
       8 -> 16         0.57693
      10 -> 22         0.22533

 Excited State  56:      Singlet-A     15.1081 eV   82.06 nm  f=0.0082  <S**2>=0.000
       7 -> 15         0.57801
       8 -> 16        -0.31352
      10 -> 22         0.12021
      10 -> 23         0.10805

 Excited State  57:      Singlet-A     15.1237 eV   81.98 nm  f=0.0215  <S**2>=0.000
       7 -> 15        -0.17047
       8 -> 16        -0.15233
      10 -> 22         0.47212
      11 -> 28         0.39680
      11 -> 29        -0.13452

 Excited State  58:      Singlet-A     15.1968 eV   81.59 nm  f=0.0259  <S**2>=0.000
       9 -> 20         0.59589
       9 -> 21         0.11131
      10 -> 22         0.24552
      11 -> 28        -0.18176

 Excited State  59:      Singlet-A     15.2009 eV   81.56 nm  f=0.0654  <S**2>=0.000
       6 -> 13         0.14652
       7 -> 15         0.13307
       7 -> 16         0.10282
       9 -> 20         0.27699
      10 -> 22        -0.29517
      11 -> 28         0.47061
      11 -> 29        -0.14106
      11 -> 30        -0.12075

 Excited State  60:      Singlet-A     15.2881 eV   81.10 nm  f=0.0490  <S**2>=0.000
      12 -> 31         0.67975

 Excited State  61:      Singlet-A     15.3361 eV   80.84 nm  f=0.0129  <S**2>=0.000
       6 -> 13         0.44785
       9 -> 20        -0.16116
       9 -> 21         0.16238
       9 -> 22        -0.10669
      10 -> 23         0.10074
      11 -> 29         0.37706
      12 -> 31         0.13735

 Excited State  62:      Singlet-A     15.4137 eV   80.44 nm  f=0.0414  <S**2>=0.000
       6 -> 13        -0.35026
       7 -> 16         0.13614
       9 -> 22         0.12146
      11 -> 28         0.18608
      11 -> 29         0.48017
      11 -> 30         0.12686

 Excited State  63:      Singlet-A     15.5429 eV   79.77 nm  f=0.0353  <S**2>=0.000
       6 -> 13        -0.11791
       9 -> 21         0.61671
      10 -> 23        -0.11100
      11 -> 30        -0.21503

 Excited State  64:      Singlet-A     15.6180 eV   79.39 nm  f=0.0037  <S**2>=0.000
      10 -> 23        -0.36962
      11 -> 30         0.22766
      12 -> 32         0.52218

 Excited State  65:      Singlet-A     15.6590 eV   79.18 nm  f=0.0023  <S**2>=0.000
       8 -> 17         0.23275
      10 -> 23         0.32348
      11 -> 30        -0.33516
      12 -> 32         0.40862
      12 -> 33        -0.14222

 Excited State  66:      Singlet-A     15.6753 eV   79.10 nm  f=0.0684  <S**2>=0.000
       9 -> 21         0.16539
       9 -> 22        -0.14502
      10 -> 23         0.33295
      10 -> 24        -0.17469
      11 -> 29        -0.21623
      11 -> 30         0.44302
      12 -> 33        -0.12475

 Excited State  67:      Singlet-A     15.8270 eV   78.34 nm  f=0.0851  <S**2>=0.000
       6 -> 13        -0.13115
       9 -> 22         0.11084
      10 -> 23         0.20824
      10 -> 24         0.50308
      12 -> 33         0.34240

 Excited State  68:      Singlet-A     15.8358 eV   78.29 nm  f=0.0474  <S**2>=0.000
       8 -> 17        -0.22505
       9 -> 22         0.44568
      10 -> 24        -0.30368
      12 -> 32         0.12983
      12 -> 33         0.30675

 Excited State  69:      Singlet-A     15.9211 eV   77.87 nm  f=0.0305  <S**2>=0.000
       6 -> 14        -0.10941
       7 -> 16         0.27325
       9 -> 22        -0.37331
      10 -> 24        -0.19569
      12 -> 32         0.10220
      12 -> 33         0.41769
      12 -> 34         0.14659

 Excited State  70:      Singlet-A     15.9864 eV   77.56 nm  f=0.0520  <S**2>=0.000
       7 -> 16        -0.34111
       7 -> 17         0.11704
       8 -> 17         0.39454
       8 -> 18        -0.15201
       9 -> 23        -0.16039
      10 -> 23        -0.10887
      10 -> 24        -0.18556
      12 -> 33         0.20809

 Excited State  71:      Singlet-A     16.0816 eV   77.10 nm  f=0.2357  <S**2>=0.000
       6 -> 14        -0.13424
       7 -> 16         0.28793
       8 -> 17         0.37082
       8 -> 18         0.37608
       9 -> 22         0.15392
      11 -> 32         0.10561
      12 -> 36        -0.11043

 Excited State  72:      Singlet-A     16.1958 eV   76.55 nm  f=0.0369  <S**2>=0.000
       7 -> 16        -0.15378
       8 -> 18         0.17296
       9 -> 23         0.53526
      11 -> 31        -0.17115
      12 -> 34         0.28355

 Excited State  73:      Singlet-A     16.2329 eV   76.38 nm  f=0.0524  <S**2>=0.000
       6 -> 14        -0.15340
       8 -> 18        -0.25091
       9 -> 23         0.25785
      11 -> 31         0.55773

 Excited State  74:      Singlet-A     16.2621 eV   76.24 nm  f=0.0691  <S**2>=0.000
       6 -> 14         0.29118
       7 -> 16        -0.16325
       8 -> 18         0.39935
       9 -> 22        -0.13398
       9 -> 23        -0.13646
      11 -> 31         0.37295

 Excited State  75:      Singlet-A     16.2945 eV   76.09 nm  f=0.0726  <S**2>=0.000
       8 -> 18        -0.10172
       9 -> 23        -0.20614
      10 -> 25        -0.22510
      12 -> 34         0.52184
      12 -> 35         0.22377

 Excited State  76:      Singlet-A     16.3721 eV   75.73 nm  f=0.0037  <S**2>=0.000
       9 -> 22         0.11210
      10 -> 25         0.63213
      12 -> 34         0.12283
      12 -> 35         0.21631

 Excited State  77:      Singlet-A     16.4882 eV   75.20 nm  f=0.0478  <S**2>=0.000
       6 -> 14         0.34006
       8 -> 18        -0.11121
       8 -> 19         0.39778
      11 -> 32         0.39042
      12 -> 36         0.12362

 Excited State  78:      Singlet-A     16.5057 eV   75.12 nm  f=0.0410  <S**2>=0.000
       6 -> 14        -0.21158
       8 -> 19         0.55278
       9 -> 24         0.11385
      10 -> 26        -0.10409
      11 -> 32        -0.29275

 Excited State  79:      Singlet-A     16.5533 eV   74.90 nm  f=0.0365  <S**2>=0.000
       6 -> 13        -0.10570
       9 -> 22        -0.10983
       9 -> 24        -0.11224
      10 -> 26        -0.11233
      11 -> 32         0.14404
      12 -> 34        -0.20333
      12 -> 35         0.58787

 Excited State  80:      Singlet-A     16.6216 eV   74.59 nm  f=0.0897  <S**2>=0.000
       7 -> 17         0.27290
       9 -> 24         0.58294
      11 -> 32         0.17691
      12 -> 36         0.11006

 Excited State  81:      Singlet-A     16.6517 eV   74.46 nm  f=0.0281  <S**2>=0.000
       7 -> 17         0.18060
      10 -> 26         0.59143
      11 -> 33        -0.23762
      12 -> 36        -0.10548

 Excited State  82:      Singlet-A     16.6869 eV   74.30 nm  f=0.0416  <S**2>=0.000
       6 -> 14        -0.21423
       7 -> 16        -0.10993
       7 -> 17         0.34331
       8 -> 18         0.14432
       9 -> 24        -0.26479
      11 -> 32         0.20645
      11 -> 33         0.11359
      12 -> 35        -0.10003
      12 -> 36         0.33431

 Excited State  83:      Singlet-A     16.7180 eV   74.16 nm  f=0.0480  <S**2>=0.000
       6 -> 14         0.28159
       7 -> 16         0.14091
       7 -> 17         0.32253
       7 -> 18         0.25865
       9 -> 25         0.14695
      11 -> 32        -0.30529
      11 -> 33         0.21784
      12 -> 36         0.12298

 Excited State  84:      Singlet-A     16.8069 eV   73.77 nm  f=0.0288  <S**2>=0.000
       7 -> 18        -0.10955
       9 -> 24         0.17530
      10 -> 26         0.19824
      11 -> 33         0.59384
      12 -> 36        -0.13712

 Excited State  85:      Singlet-A     16.8826 eV   73.44 nm  f=0.1068  <S**2>=0.000
       7 -> 17        -0.24420
       8 -> 17         0.12492
      10 -> 26         0.20530
      10 -> 27        -0.26998
      11 -> 32        -0.12862
      12 -> 36         0.47808

 Excited State  86:      Singlet-A     16.9787 eV   73.02 nm  f=0.1563  <S**2>=0.000
       7 -> 18         0.45491
      10 -> 27        -0.43319
      11 -> 32         0.13650
      12 -> 36        -0.14759

 Excited State  87:      Singlet-A     17.0899 eV   72.55 nm  f=0.0583  <S**2>=0.000
       6 -> 14        -0.13602
       6 -> 15        -0.32080
       7 -> 16        -0.10534
       7 -> 17        -0.13093
       7 -> 18         0.33826
      10 -> 27         0.38792
      11 -> 35         0.12423

 Excited State  88:      Singlet-A     17.1923 eV   72.12 nm  f=0.1284  <S**2>=0.000
       6 -> 15         0.39659
       7 -> 18         0.10994
       7 -> 19         0.10390
       9 -> 25         0.11089
      10 -> 27         0.13624
      11 -> 34         0.49225

 Excited State  89:      Singlet-A     17.2552 eV   71.85 nm  f=0.0262  <S**2>=0.000
       7 -> 19        -0.20879
       9 -> 25         0.63789
      11 -> 35         0.13064

 Excited State  90:      Singlet-A     17.2827 eV   71.74 nm  f=0.0188  <S**2>=0.000
       6 -> 15        -0.26809
       7 -> 19        -0.36188
       8 -> 20        -0.12093
       9 -> 26         0.15896
      11 -> 34         0.38496
      11 -> 35        -0.26523

 Excited State  91:      Singlet-A     17.3642 eV   71.40 nm  f=0.0278  <S**2>=0.000
       6 -> 15         0.11906
       7 -> 19        -0.33715
       8 -> 20         0.49652
       8 -> 21         0.17066
      11 -> 35         0.23181

 Excited State  92:      Singlet-A     17.4187 eV   71.18 nm  f=0.0144  <S**2>=0.000
       6 -> 15        -0.24516
       6 -> 16         0.11119
       7 -> 18        -0.12473
       7 -> 19         0.37978
       8 -> 20         0.38116
       9 -> 26         0.18746
      11 -> 34         0.16923

 Excited State  93:      Singlet-A     17.4887 eV   70.89 nm  f=0.0532  <S**2>=0.000
       8 -> 20        -0.19402
       9 -> 26         0.44098
      11 -> 35         0.44611
      11 -> 36         0.10820

 Excited State  94:      Singlet-A     17.6090 eV   70.41 nm  f=0.0806  <S**2>=0.000
       6 -> 15         0.15470
       6 -> 16        -0.20517
       8 -> 20         0.14501
       9 -> 26         0.42059
       9 -> 27        -0.19799
      11 -> 34        -0.20278
      11 -> 35        -0.29417

 Excited State  95:      Singlet-A     17.7425 eV   69.88 nm  f=0.0568  <S**2>=0.000
       9 -> 27         0.13981
      11 -> 36         0.66555

 Excited State  96:      Singlet-A     17.8186 eV   69.58 nm  f=0.0402  <S**2>=0.000
       8 -> 21         0.63165
       9 -> 27        -0.20704

 Excited State  97:      Singlet-A     17.8906 eV   69.30 nm  f=0.1008  <S**2>=0.000
       6 -> 16         0.56367
       9 -> 27        -0.37879

 Excited State  98:      Singlet-A     18.0246 eV   68.79 nm  f=0.0429  <S**2>=0.000
       7 -> 20         0.35895
      12 -> 37         0.56544

 Excited State  99:      Singlet-A     18.0541 eV   68.67 nm  f=0.0306  <S**2>=0.000
       6 -> 16        -0.17893
       7 -> 20         0.48916
       9 -> 27        -0.25052
      12 -> 37        -0.29935

 Excited State 100:      Singlet-A     18.0762 eV   68.59 nm  f=0.0382  <S**2>=0.000
       6 -> 16        -0.11436

 The electronic state is 1-A.
 Alpha  occ. eigenvalues --  -14.29391 -14.29153 -10.14630  -0.96764  -0.77954
 Alpha  occ. eigenvalues --   -0.59098  -0.51460  -0.48726  -0.40561  -0.37686
 Alpha  occ. eigenvalues --   -0.25896  -0.22573
 Alpha virt. eigenvalues --   -0.01728   0.02696   0.05638   0.08470   0.11592
 Alpha virt. eigenvalues --    0.12615   0.14000   0.17465   0.18462   0.19843
 Alpha virt. eigenvalues --    0.21518   0.22562   0.24707   0.25740   0.27099

 Mulliken charges:
               1
     1  N    0.144212
     2  N   -0.305625
     3  C    0.537525
     4  H    0.009772
     5  H    0.013453
     6  H   -0.306043
     7  H   -0.093294
 Sum of Mulliken charges =   0.00000

 Dipole moment (field-independent basis, Debye):
    X=              0.5266    Y=              1.5833    Z=              0.9711  Tot=              1.9306
 Quadrupole moment (field-independent basis, Debye-Ang):
   XX=            -14.9232   YY=            -18.6495   ZZ=            -20.4612
   XY=             -0.2632   XZ=              1.7786   YZ=              0.2758

 Normal termination of Gaussian 16 at Mon Mar 21 20:08:53 2022.
