 Gaussian 16, Revision C.01,
 Gaussian 16:  EM64L-G16RevC.01  3-Jul-2019

 ---------------------------------------------------------------------
 #P TD(Nstates=10000) tpssh/Gen SCF(maxcycles=100) Int(Grid=ultrafine)
 ---------------------------------------------------------------------

 ---------------------
 xGDB7_00001_tier4.com
 ---------------------
 Symbolic Z-matrix:
 Charge =  0 Multiplicity = 1

                         Standard orientation:
 ---------------------------------------------------------------------
 Center     Atomic      Atomic             Coordinates (Angstroms)
 Number     Number       Type             X           Y           Z
 ---------------------------------------------------------------------
      1          6           0        0.046419    0.658432    0.000000
      2          8           0        0.046419   -0.751929    0.000000
      3          1           0       -0.438905    1.073261    0.890797
      4          1           0       -0.438905    1.073261   -0.890797
      5          1           0        1.087855    0.977571    0.000000
      6          1           0       -0.859911   -1.059251    0.000000
 ---------------------------------------------------------------------

 SCF Done:  E(RTPSSh) =  -115.648839775     A.U. after   11 cycles

 Excitation energies and oscillator strengths:

 Excited State   1:      Singlet-A"     6.7920 eV  182.54 nm  f=0.0014  <S**2>=0.000
       9 -> 10         0.70578
 This state for optimization and/or second-order correction.
 Total Energy, E(TD-HF/TD-DFT) =  -115.399237842
 Copying the excited state density for this state as the 1-particle RhoCI density.

 Excited State   2:      Singlet-A"     7.7802 eV  159.36 nm  f=0.0310  <S**2>=0.000
       9 -> 11         0.70586

 Excited State   3:      Singlet-A'     8.4946 eV  145.96 nm  f=0.0020  <S**2>=0.000
       8 -> 10         0.70214

 Excited State   4:      Singlet-A"     8.9290 eV  138.86 nm  f=0.0138  <S**2>=0.000
       9 -> 13         0.70546

 Excited State   5:      Singlet-A'     8.9418 eV  138.66 nm  f=0.0613  <S**2>=0.000
       9 -> 12         0.70119

 Excited State   6:      Singlet-A'     9.4674 eV  130.96 nm  f=0.0542  <S**2>=0.000
       8 -> 11         0.70276

 Excited State   7:      Singlet-A"     9.7361 eV  127.34 nm  f=0.0035  <S**2>=0.000
       9 -> 14         0.70509

 Excited State   8:      Singlet-A"    10.0541 eV  123.32 nm  f=0.0060  <S**2>=0.000
       9 -> 15         0.70240

 Excited State   9:      Singlet-A'    10.5339 eV  117.70 nm  f=0.0071  <S**2>=0.000
       9 -> 16         0.68050
       9 -> 18         0.14886

 Excited State  10:      Singlet-A"    10.5858 eV  117.12 nm  f=0.0281  <S**2>=0.000
       8 -> 12         0.70519

 Excited State  11:      Singlet-A'    10.6046 eV  116.92 nm  f=0.0867  <S**2>=0.000
       8 -> 13         0.70047

 Excited State  12:      Singlet-A"    11.0216 eV  112.49 nm  f=0.0001  <S**2>=0.000
       9 -> 17         0.70171

 Excited State  13:      Singlet-A'    11.0266 eV  112.44 nm  f=0.0417  <S**2>=0.000
       7 -> 10         0.70373

 Excited State  14:      Singlet-A'    11.1854 eV  110.84 nm  f=0.0254  <S**2>=0.000
       8 -> 14        -0.20126
       8 -> 15         0.13959
       9 -> 16        -0.11319
       9 -> 18         0.64283

 Excited State  15:      Singlet-A"    11.3632 eV  109.11 nm  f=0.0747  <S**2>=0.000
       6 -> 10         0.70231

 Excited State  16:      Singlet-A'    11.5032 eV  107.78 nm  f=0.0019  <S**2>=0.000
       7 -> 11        -0.12670
       8 -> 14         0.64636
       8 -> 15         0.19601
       9 -> 18         0.13085

 Excited State  17:      Singlet-A"    11.8840 eV  104.33 nm  f=0.0002  <S**2>=0.000
       8 -> 16         0.11250
       9 -> 19         0.69369

 Excited State  18:      Singlet-A'    11.9096 eV  104.10 nm  f=0.0533  <S**2>=0.000
       7 -> 11         0.54400
       8 -> 15         0.44448

 Excited State  19:      Singlet-A'    12.0605 eV  102.80 nm  f=0.0784  <S**2>=0.000
       7 -> 11        -0.41829
       8 -> 14        -0.17539
       8 -> 15         0.47224
       8 -> 17        -0.11966
       9 -> 18        -0.16554

 Excited State  20:      Singlet-A"    12.0669 eV  102.75 nm  f=0.0156  <S**2>=0.000
       8 -> 16         0.68897
       9 -> 19        -0.10932

 Excited State  21:      Singlet-A"    12.2537 eV  101.18 nm  f=0.0367  <S**2>=0.000
       6 -> 11         0.70386

 Excited State  22:      Singlet-A"    12.6860 eV   97.73 nm  f=0.0000  <S**2>=0.000
       7 -> 12        -0.10764
       8 -> 18         0.69208

 Excited State  23:      Singlet-A'    12.7707 eV   97.09 nm  f=0.0085  <S**2>=0.000
       6 -> 12         0.15335
       8 -> 17         0.67243

 Excited State  24:      Singlet-A"    12.8798 eV   96.26 nm  f=0.0421  <S**2>=0.000
       9 -> 20         0.69001

 Excited State  25:      Singlet-A"    13.0632 eV   94.91 nm  f=0.0029  <S**2>=0.000
       7 -> 12         0.69204
       8 -> 18         0.11589

 Excited State  26:      Singlet-A'    13.1960 eV   93.96 nm  f=0.0967  <S**2>=0.000
       6 -> 12         0.26355
       7 -> 13         0.64031

 Excited State  27:      Singlet-A'    13.3096 eV   93.15 nm  f=0.0542  <S**2>=0.000
       5 -> 10         0.62484
       6 -> 12        -0.29367

 Excited State  28:      Singlet-A"    13.4196 eV   92.39 nm  f=0.0010  <S**2>=0.000
       6 -> 13         0.70370

 Excited State  29:      Singlet-A'    13.7693 eV   90.04 nm  f=0.0391  <S**2>=0.000
       5 -> 11        -0.15279
       6 -> 12         0.26607
       7 -> 13        -0.14294
       7 -> 14         0.16570
       7 -> 15         0.17889
       8 -> 19         0.54363

 Excited State  30:      Singlet-A"    13.9138 eV   89.11 nm  f=0.0006  <S**2>=0.000
       9 -> 21         0.70004

 Excited State  31:      Singlet-A'    13.9202 eV   89.07 nm  f=0.0537  <S**2>=0.000
       5 -> 10         0.19736
       6 -> 12         0.36943
       7 -> 13        -0.14878
       7 -> 14         0.33172
       8 -> 19        -0.36138
       9 -> 24        -0.16113

 Excited State  32:      Singlet-A'    14.0518 eV   88.23 nm  f=0.0155  <S**2>=0.000
       5 -> 10         0.10942
       6 -> 12         0.18610
       7 -> 14        -0.43059
       7 -> 15         0.15003
       9 -> 22         0.46459

 Excited State  33:      Singlet-A'    14.1455 eV   87.65 nm  f=0.0535  <S**2>=0.000
       5 -> 11         0.61980
       7 -> 15         0.30774

 Excited State  34:      Singlet-A'    14.2593 eV   86.95 nm  f=0.0508  <S**2>=0.000
       5 -> 10        -0.13978
       5 -> 11        -0.15140
       5 -> 13         0.11811
       6 -> 12        -0.21991
       7 -> 14         0.29568
       7 -> 15         0.33040
       8 -> 20        -0.11932
       9 -> 22         0.35714
       9 -> 24        -0.10520

 Excited State  35:      Singlet-A'    14.3186 eV   86.59 nm  f=0.1136  <S**2>=0.000
       5 -> 11        -0.22486
       6 -> 16        -0.12368
       7 -> 14        -0.23138
       7 -> 15         0.44371
       9 -> 22        -0.34614
       9 -> 24        -0.14651

 Excited State  36:      Singlet-A"    14.3191 eV   86.59 nm  f=0.0037  <S**2>=0.000
       6 -> 14         0.69293

 Excited State  37:      Singlet-A"    14.3395 eV   86.46 nm  f=0.0416  <S**2>=0.000
       9 -> 23         0.68580

 Excited State  38:      Singlet-A"    14.4222 eV   85.97 nm  f=0.0010  <S**2>=0.000
       6 -> 15         0.36678
       7 -> 16         0.59296

 Excited State  39:      Singlet-A'    14.5517 eV   85.20 nm  f=0.0147  <S**2>=0.000
       6 -> 16        -0.11656
       8 -> 20         0.67090
       9 -> 22         0.12087

 Excited State  40:      Singlet-A'    14.6795 eV   84.46 nm  f=0.3571  <S**2>=0.000
       5 -> 11        -0.10770
       7 -> 15         0.13508
       8 -> 19        -0.16100
       9 -> 24         0.64526

 Excited State  41:      Singlet-A"    14.8207 eV   83.66 nm  f=0.1790  <S**2>=0.000
       6 -> 15         0.54916
       6 -> 17         0.10472
       7 -> 16        -0.35232
       7 -> 18         0.18882

 Excited State  42:      Singlet-A'    15.0328 eV   82.48 nm  f=0.0919  <S**2>=0.000
       6 -> 16         0.53079
       7 -> 17         0.42549
       8 -> 20         0.10944

 Excited State  43:      Singlet-A"    15.1819 eV   81.67 nm  f=0.0144  <S**2>=0.000
       5 -> 12         0.18645
       6 -> 15        -0.14539
       6 -> 17        -0.11806
       7 -> 18         0.64112
       9 -> 25        -0.10941

 Excited State  44:      Singlet-A"    15.2935 eV   81.07 nm  f=0.0056  <S**2>=0.000
       5 -> 12         0.32436
       9 -> 25         0.62094

 Excited State  45:      Singlet-A"    15.3159 eV   80.95 nm  f=0.0878  <S**2>=0.000
       5 -> 12         0.58276
       6 -> 17         0.15484
       7 -> 18        -0.17489
       9 -> 25        -0.31082

 Excited State  46:      Singlet-A'    15.3388 eV   80.83 nm  f=0.1667  <S**2>=0.000
       5 -> 13         0.27253
       6 -> 16        -0.37612
       7 -> 17         0.47059
       7 -> 19        -0.11003
       8 -> 21         0.10709

 Excited State  47:      Singlet-A'    15.4416 eV   80.29 nm  f=0.0240  <S**2>=0.000
       5 -> 13         0.49692
       6 -> 18         0.32154
       7 -> 17        -0.23180
       8 -> 21         0.26202

 Excited State  48:      Singlet-A"    15.5154 eV   79.91 nm  f=0.0669  <S**2>=0.000
       5 -> 12        -0.11592
       6 -> 17         0.63216
       7 -> 18         0.11299
       8 -> 22        -0.21187

 Excited State  49:      Singlet-A'    15.6438 eV   79.25 nm  f=0.1528  <S**2>=0.000
       5 -> 13        -0.35011
       6 -> 18         0.47698
       7 -> 17         0.12748
       8 -> 21         0.27697
       9 -> 28         0.10399

 Excited State  50:      Singlet-A'    15.6575 eV   79.19 nm  f=0.0387  <S**2>=0.000
       5 -> 15        -0.11039
       6 -> 18        -0.34837
       7 -> 19        -0.20686
       8 -> 21         0.52761

 Excited State  51:      Singlet-A"    15.9186 eV   77.89 nm  f=0.1546  <S**2>=0.000
       6 -> 17         0.16894
       8 -> 22         0.65371
       8 -> 24        -0.10713

 Excited State  52:      Singlet-A'    16.0377 eV   77.31 nm  f=0.0161  <S**2>=0.000
       8 -> 23         0.55462
       9 -> 26        -0.42402

 Excited State  53:      Singlet-A'    16.1029 eV   76.99 nm  f=0.0032  <S**2>=0.000
       8 -> 23         0.41017
       9 -> 26         0.55314

 Excited State  54:      Singlet-A"    16.1049 eV   76.99 nm  f=0.0257  <S**2>=0.000
       8 -> 24         0.15633
       9 -> 27         0.67909

 Excited State  55:      Singlet-A'    16.2403 eV   76.34 nm  f=0.0156  <S**2>=0.000
       5 -> 14         0.59370
       5 -> 15        -0.18187
       7 -> 19         0.26890
       8 -> 21         0.10893

 Excited State  56:      Singlet-A"    16.2444 eV   76.32 nm  f=0.0012  <S**2>=0.000
       8 -> 24         0.67079
       9 -> 27        -0.15334

 Excited State  57:      Singlet-A'    16.3984 eV   75.61 nm  f=0.0653  <S**2>=0.000
       5 -> 14        -0.31609
       5 -> 15        -0.23987
       6 -> 18        -0.12376
       7 -> 19         0.48237
       9 -> 28         0.23286

 Excited State  58:      Singlet-A"    16.4668 eV   75.29 nm  f=0.0094  <S**2>=0.000
       6 -> 19         0.69345

 Excited State  59:      Singlet-A'    16.5888 eV   74.74 nm  f=0.0229  <S**2>=0.000
       5 -> 15         0.35573
       9 -> 28         0.57759

 Excited State  60:      Singlet-A"    16.6294 eV   74.56 nm  f=0.0112  <S**2>=0.000
       5 -> 16        -0.37414
       9 -> 29         0.58487

 Excited State  61:      Singlet-A'    16.7471 eV   74.03 nm  f=0.1581  <S**2>=0.000
       5 -> 15         0.42985
       7 -> 19         0.29222
       7 -> 20         0.26981
       7 -> 21         0.10102
       8 -> 21         0.10813
       8 -> 25         0.17043
       9 -> 28        -0.25839

 Excited State  62:      Singlet-A"    16.8638 eV   73.52 nm  f=0.1859  <S**2>=0.000
       5 -> 16         0.57902
       9 -> 29         0.34845

 Excited State  63:      Singlet-A'    17.0264 eV   72.82 nm  f=0.0522  <S**2>=0.000
       8 -> 25         0.67399

 Excited State  64:      Singlet-A"    17.1379 eV   72.35 nm  f=0.0002  <S**2>=0.000
       9 -> 30         0.68956

 Excited State  65:      Singlet-A'    17.2530 eV   71.86 nm  f=0.1685  <S**2>=0.000
       4 -> 10        -0.22077
       5 -> 15        -0.16143
       5 -> 17         0.24268
       7 -> 20         0.55176

 Excited State  66:      Singlet-A"    17.3547 eV   71.44 nm  f=0.0000  <S**2>=0.000
       5 -> 18         0.25709
       6 -> 20         0.63771

 Excited State  67:      Singlet-A"    17.4427 eV   71.08 nm  f=0.0038  <S**2>=0.000
       5 -> 18         0.64897
       6 -> 20        -0.24701

 Excited State  68:      Singlet-A'    17.4749 eV   70.95 nm  f=0.0588  <S**2>=0.000
       4 -> 10         0.10765
       5 -> 17         0.64603
       7 -> 20        -0.17524
       8 -> 27         0.11724

 Excited State  69:      Singlet-A"    17.7234 eV   69.96 nm  f=0.0065  <S**2>=0.000
       8 -> 26         0.69870

 Excited State  70:      Singlet-A'    17.8843 eV   69.33 nm  f=0.0286  <S**2>=0.000
       4 -> 10        -0.24217
       8 -> 27         0.63246

 Excited State  71:      Singlet-A'    17.9060 eV   69.24 nm  f=0.0033  <S**2>=0.000
       4 -> 10         0.53821
       5 -> 19         0.11080
       7 -> 20         0.14722
       7 -> 21        -0.30046
       8 -> 27         0.24180

 Excited State  72:      Singlet-A"    17.9729 eV   68.98 nm  f=0.0089  <S**2>=0.000
       9 -> 31         0.69608

 Excited State  73:      Singlet-A'    18.0802 eV   68.57 nm  f=0.0051  <S**2>=0.000
       4 -> 10         0.22164
       5 -> 19         0.17513
       7 -> 21         0.58550
       7 -> 23         0.10969
       9 -> 32         0.16162

 Excited State  74:      Singlet-A"    18.1955 eV   68.14 nm  f=0.0272  <S**2>=0.000
       6 -> 21        -0.16572
       7 -> 22         0.26659
       8 -> 28         0.61219

 Excited State  75:      Singlet-A"    18.3319 eV   67.63 nm  f=0.0172  <S**2>=0.000
       7 -> 22         0.64937
       8 -> 28        -0.25595

 Excited State  76:      Singlet-A'    18.3652 eV   67.51 nm  f=0.0014  <S**2>=0.000
       4 -> 11         0.14805
       5 -> 19         0.10563
       8 -> 29         0.65286
       9 -> 32        -0.16405

 Excited State  77:      Singlet-A"    18.4233 eV   67.30 nm  f=0.0174  <S**2>=0.000
       6 -> 21         0.67345
       8 -> 28         0.13177

 Excited State  78:      Singlet-A'    18.4743 eV   67.11 nm  f=0.0827  <S**2>=0.000
       5 -> 19         0.42039
       6 -> 22        -0.12916
       7 -> 23         0.34218
       8 -> 29        -0.16714
       9 -> 32        -0.36160

 Excited State  79:      Singlet-A'    18.5520 eV   66.83 nm  f=0.0987  <S**2>=0.000
       5 -> 19        -0.38462
       7 -> 23         0.55998

 Excited State  80:      Singlet-A"    18.6973 eV   66.31 nm  f=0.0398  <S**2>=0.000
       7 -> 24         0.68074
       9 -> 33         0.14449

 Excited State  81:      Singlet-A'    18.7146 eV   66.25 nm  f=0.0076  <S**2>=0.000
       4 -> 11         0.13698
       6 -> 22         0.60835
       8 -> 30        -0.30029
       9 -> 32        -0.10201

 Excited State  82:      Singlet-A'    18.7635 eV   66.08 nm  f=0.0342  <S**2>=0.000
       4 -> 11         0.56190
       6 -> 22        -0.25289
       8 -> 30        -0.27292

 Excited State  83:      Singlet-A"    18.8506 eV   65.77 nm  f=0.0172  <S**2>=0.000
       6 -> 23         0.54309
       9 -> 33        -0.42945

 Excited State  84:      Singlet-A'    18.8635 eV   65.73 nm  f=0.0004  <S**2>=0.000
       5 -> 19         0.23233
       5 -> 20         0.15007
       6 -> 24         0.14424
       7 -> 21        -0.15044
       7 -> 23         0.15950
       9 -> 32         0.50872
       9 -> 35         0.18073

 Excited State  85:      Singlet-A"    18.9236 eV   65.52 nm  f=0.0463  <S**2>=0.000
       6 -> 23         0.43108
       9 -> 33         0.53310

 Excited State  86:      Singlet-A'    18.9629 eV   65.38 nm  f=0.0117  <S**2>=0.000
       4 -> 11         0.27810
       5 -> 20        -0.27565
       6 -> 22         0.18023
       8 -> 30         0.52310

 Excited State  87:      Singlet-A'    19.1047 eV   64.90 nm  f=0.0406  <S**2>=0.000
       5 -> 19        -0.12900
       6 -> 24         0.65976

 Excited State  88:      Singlet-A"    19.3564 eV   64.05 nm  f=0.0040  <S**2>=0.000
       9 -> 34         0.69978

 Excited State  89:      Singlet-A'    19.3680 eV   64.01 nm  f=0.0875  <S**2>=0.000
       5 -> 20         0.46547
       7 -> 25        -0.45251
       8 -> 30         0.13160
       8 -> 31         0.10511
       9 -> 35        -0.12281

 Excited State  90:      Singlet-A'    19.5699 eV   63.35 nm  f=0.0085  <S**2>=0.000
       5 -> 20         0.22298
       7 -> 25         0.46362
       7 -> 27         0.13521
       8 -> 30         0.10773
       8 -> 31         0.35683
       9 -> 35        -0.14272

 Excited State  91:      Singlet-A'    19.7177 eV   62.88 nm  f=0.0614  <S**2>=0.000
       4 -> 13        -0.17296
       5 -> 20        -0.23150
       6 -> 28         0.10485
       7 -> 25        -0.19840
       8 -> 31         0.57201

 Excited State  92:      Singlet-A"    19.7666 eV   62.72 nm  f=0.0622  <S**2>=0.000
       6 -> 25         0.70037

 Excited State  93:      Singlet-A"    19.9314 eV   62.21 nm  f=0.0062  <S**2>=0.000
       4 -> 12         0.69296

 Excited State  94:      Singlet-A'    19.9556 eV   62.13 nm  f=0.0196  <S**2>=0.000
       4 -> 13         0.65888

 Excited State  95:      Singlet-A'    20.0719 eV   61.77 nm  f=0.0736  <S**2>=0.000
       5 -> 20         0.10902
       5 -> 21        -0.30416
       5 -> 23         0.17834
       7 -> 29        -0.17243
       9 -> 35         0.51019

 Excited State  96:      Singlet-A"    20.1444 eV   61.55 nm  f=0.0017  <S**2>=0.000
       7 -> 26         0.30833
       8 -> 32        -0.10596
       9 -> 36         0.61663

 Excited State  97:      Singlet-A"    20.1932 eV   61.40 nm  f=0.0040  <S**2>=0.000
       7 -> 26         0.58251
       8 -> 32         0.30782
       9 -> 36        -0.23663

 Excited State  98:      Singlet-A"    20.2528 eV   61.22 nm  f=0.0001  <S**2>=0.000
       5 -> 22         0.11822
       6 -> 27        -0.11566
       7 -> 26        -0.23383
       8 -> 32         0.60812
       9 -> 36         0.20380

 Excited State  99:      Singlet-A'    20.3498 eV   60.93 nm  f=0.0837  <S**2>=0.000
       4 -> 13        -0.10878
       5 -> 21         0.59039
       7 -> 27         0.11648
       7 -> 29        -0.11925
       9 -> 35         0.18723

 Excited State 100:      Singlet-A'    20.4721 eV   60.56 nm  f=0.0006  <S**2>=0.000
       5 -> 21        -0.11325
       5 -> 23        -0.10119
       6 -> 26         0.67227
       8 -> 33         0.13079

 Excited State 101:      Singlet-A"    20.5151 eV   60.44 nm  f=0.0024  <S**2>=0.000
       5 -> 22        -0.23850
       6 -> 27         0.20835
       7 -> 28         0.62450

 Excited State 102:      Singlet-A'    20.5307 eV   60.39 nm  f=0.0368  <S**2>=0.000
       7 -> 27        -0.37471
       8 -> 33         0.55812

 Excited State 103:      Singlet-A"    20.5650 eV   60.29 nm  f=0.0219  <S**2>=0.000
       5 -> 22         0.56600
       6 -> 27         0.40007

 Excited State 104:      Singlet-A'    20.6387 eV   60.07 nm  f=0.0498  <S**2>=0.000
       4 -> 14         0.19227
       5 -> 23        -0.22771
       6 -> 26        -0.13066
       6 -> 28         0.10417
       7 -> 27         0.41246
       7 -> 29        -0.15427
       8 -> 33         0.37346
       8 -> 36         0.10414

 Excited State 105:      Singlet-A"    20.6408 eV   60.07 nm  f=0.0004  <S**2>=0.000
       5 -> 22        -0.30746
       5 -> 24         0.19592
       6 -> 27         0.48758
       7 -> 28        -0.28864
       9 -> 36         0.12411

 Excited State 106:      Singlet-A'    20.8126 eV   59.57 nm  f=0.1324  <S**2>=0.000
       4 -> 14         0.52107
       5 -> 21         0.11631
       5 -> 23        -0.30973
       7 -> 27        -0.22185
       8 -> 33        -0.10233

 Excited State 107:      Singlet-A'    20.8635 eV   59.43 nm  f=0.0161  <S**2>=0.000
       4 -> 14         0.39006
       4 -> 15        -0.19724
       5 -> 23         0.42454
       6 -> 28        -0.13085
       7 -> 27         0.10490
       7 -> 29         0.22860
       7 -> 30        -0.13756

 Excited State 108:      Singlet-A"    20.9575 eV   59.16 nm  f=0.0232  <S**2>=0.000
       5 -> 24         0.64208
       6 -> 27        -0.15447
       6 -> 29         0.22110

 Excited State 109:      Singlet-A'    20.9876 eV   59.07 nm  f=0.0460  <S**2>=0.000
       4 -> 15         0.38152
       7 -> 27         0.13052
       7 -> 29         0.48773
       8 -> 34        -0.25597

 Excited State 110:      Singlet-A'    21.0061 eV   59.02 nm  f=0.0089  <S**2>=0.000
       4 -> 15         0.23307
       6 -> 28         0.34567
       7 -> 30         0.11112
       8 -> 34         0.53748

 Excited State 111:      Singlet-A'    21.2261 eV   58.41 nm  f=0.0002  <S**2>=0.000
       4 -> 15        -0.41430
       5 -> 23        -0.11029
       6 -> 28         0.17112
       7 -> 29         0.25563
       7 -> 30         0.43388

 Excited State 112:      Singlet-A"    21.2836 eV   58.25 nm  f=0.0368  <S**2>=0.000
       4 -> 16         0.20597
       5 -> 24        -0.17086
       6 -> 29         0.62904

 Excited State 113:      Singlet-A'    21.3726 eV   58.01 nm  f=0.0060  <S**2>=0.000
       4 -> 15         0.23677
       5 -> 23         0.21976
       7 -> 29        -0.15915
       7 -> 30         0.43582
       8 -> 34        -0.17538
       8 -> 36         0.28929
       9 -> 35        -0.13810

 Excited State 114:      Singlet-A"    21.3812 eV   57.99 nm  f=0.0071  <S**2>=0.000
       4 -> 16         0.63863
       6 -> 29        -0.14647
       6 -> 30        -0.18915
       8 -> 35         0.11551

 Excited State 115:      Singlet-A"    21.4939 eV   57.68 nm  f=0.0018  <S**2>=0.000
       6 -> 30         0.12133
       8 -> 35         0.68431

 Excited State 116:      Singlet-A'    21.6248 eV   57.33 nm  f=0.0198  <S**2>=0.000
       4 -> 15         0.12084
       5 -> 25         0.51684
       6 -> 28        -0.29317
       7 -> 30         0.18236
       8 -> 34         0.15563
       8 -> 36        -0.18654

 Excited State 117:      Singlet-A"    21.6749 eV   57.20 nm  f=0.0034  <S**2>=0.000
       4 -> 16         0.17339
       4 -> 18         0.11712
       6 -> 30         0.65430

 Excited State 118:      Singlet-A'    21.9656 eV   56.44 nm  f=0.0397  <S**2>=0.000
       4 -> 17         0.66657
       5 -> 25         0.14006

 The electronic state is 1-A'.
 Alpha  occ. eigenvalues --  -19.06861 -10.17173  -0.99101  -0.66122  -0.49529
 Alpha  occ. eigenvalues --   -0.42585  -0.41303  -0.32219  -0.26114
 Alpha virt. eigenvalues --    0.01212   0.04371   0.08829   0.08912   0.12041
 Alpha virt. eigenvalues --    0.13301   0.14291   0.16558   0.16640   0.20233
 Alpha virt. eigenvalues --    0.23654   0.27268   0.28250   0.28788   0.29731

 Mulliken charges:
               1
     1  C    0.526932
     2  O   -0.482972
     3  H   -0.046867
     4  H   -0.046867
     5  H   -0.119842
     6  H    0.169616
 Sum of Mulliken charges =   0.00000

 Dipole moment (field-independent basis, Debye):
    X=             -1.3565    Y=              0.9374    Z=             -0.0000  Tot=              1.6489
 Quadrupole moment (field-independent basis, Debye-Ang):
   XX=            -11.9037   YY=            -13.4911   ZZ=            -13.9339
   XY=              2.0965   XZ=              0.0000   YZ=             -0.0000

 Normal termination of Gaussian 16 at Mon Mar 21 04:03:13 2022.
