 Gaussian 16, Revision C.01,
 Gaussian 16:  EM64L-G16RevC.01  3-Jul-2019

 ---------------------------------------------------------------------
 #P TD(Nstates=10000) tpssh/Gen SCF(maxcycles=100) Int(Grid=ultrafine)
 ---------------------------------------------------------------------

 ---------------------
 xGDB7_00001_tier4.com
 ---------------------
 Symbolic Z-matrix:
 Charge =  0 Multiplicity = 1

                         Standard orientation:
 ---------------------------------------------------------------------
 Center     Atomic      Atomic             Coordinates (Angstroms)
 Number     Number       Type             X           Y           Z
 ---------------------------------------------------------------------
      1          8           0       -1.023805   -0.438791    0.000000
      2          6           0       -0.000000    0.418952    0.000000
      3          8           0        1.152985    0.109982   -0.000000
      4          1           0       -0.656943   -1.333011    0.000000
      5          1           0       -0.376498    1.449770    0.000000
 ---------------------------------------------------------------------

 SCF Done:  E(RTPSSh) =  -189.636327117     A.U. after   13 cycles

 Excitation energies and oscillator strengths:

 Excited State   1:      Singlet-A"     5.9550 eV  208.20 nm  f=0.0007  <S**2>=0.000
      12 -> 13         0.70672
 This state for optimization and/or second-order correction.
 Total Energy, E(TD-HF/TD-DFT) =  -189.417483069
 Copying the excited state density for this state as the 1-particle RhoCI density.

 Excited State   2:      Singlet-A'     7.5042 eV  165.22 nm  f=0.0333  <S**2>=0.000
      11 -> 13        -0.20602
      12 -> 14         0.67505

 Excited State   3:      Singlet-A'     8.2583 eV  150.13 nm  f=0.0527  <S**2>=0.000
      12 -> 15         0.70407

 Excited State   4:      Singlet-A"     8.5730 eV  144.62 nm  f=0.0031  <S**2>=0.000
      11 -> 14         0.70590

 Excited State   5:      Singlet-A'     8.7190 eV  142.20 nm  f=0.2234  <S**2>=0.000
      11 -> 13         0.63620
      12 -> 14         0.19655
      12 -> 16         0.12403

 Excited State   6:      Singlet-A"     9.2098 eV  134.62 nm  f=0.0000  <S**2>=0.000
      10 -> 13         0.70451

 Excited State   7:      Singlet-A"     9.4548 eV  131.13 nm  f=0.0005  <S**2>=0.000
      11 -> 15         0.70360

 Excited State   8:      Singlet-A'     9.5245 eV  130.17 nm  f=0.0752  <S**2>=0.000
      12 -> 16         0.69022

 Excited State   9:      Singlet-A"     9.5425 eV  129.93 nm  f=0.0151  <S**2>=0.000
      12 -> 17         0.70295

 Excited State  10:      Singlet-A'    10.2661 eV  120.77 nm  f=0.0155  <S**2>=0.000
      12 -> 18         0.69675

 Excited State  11:      Singlet-A'    10.5480 eV  117.54 nm  f=0.0539  <S**2>=0.000
      10 -> 14         0.68085
      11 -> 17        -0.13525
      12 -> 19         0.10782

 Excited State  12:      Singlet-A"    10.6604 eV  116.30 nm  f=0.0298  <S**2>=0.000
      11 -> 16         0.70459

 Excited State  13:      Singlet-A'    10.6693 eV  116.21 nm  f=0.0108  <S**2>=0.000
       9 -> 13         0.11160
      10 -> 14        -0.16534
      11 -> 17        -0.33620
      12 -> 19         0.58275

 Excited State  14:      Singlet-A'    10.8260 eV  114.52 nm  f=0.0068  <S**2>=0.000
      11 -> 17         0.57768
      12 -> 19         0.32202
      12 -> 20        -0.17928

 Excited State  15:      Singlet-A'    10.9765 eV  112.95 nm  f=0.0035  <S**2>=0.000
      11 -> 17         0.14506
      12 -> 20         0.67941

 Excited State  16:      Singlet-A"    11.1553 eV  111.14 nm  f=0.0044  <S**2>=0.000
      12 -> 21         0.70323

 Excited State  17:      Singlet-A"    11.3468 eV  109.27 nm  f=0.0001  <S**2>=0.000
       8 -> 13         0.10836
      11 -> 18         0.69171

 Excited State  18:      Singlet-A'    11.3830 eV  108.92 nm  f=0.0778  <S**2>=0.000
       9 -> 13         0.13020
      10 -> 15         0.68031

 Excited State  19:      Singlet-A"    11.5463 eV  107.38 nm  f=0.0047  <S**2>=0.000
       7 -> 13         0.10071
       8 -> 13         0.67766
      11 -> 18        -0.10996

 Excited State  20:      Singlet-A'    11.7593 eV  105.43 nm  f=0.0748  <S**2>=0.000
       9 -> 13         0.62417
      10 -> 15        -0.16280
      11 -> 21         0.15053

 Excited State  21:      Singlet-A"    11.7831 eV  105.22 nm  f=0.0201  <S**2>=0.000
       9 -> 14         0.50911
      11 -> 19        -0.47818

 Excited State  22:      Singlet-A'    11.8592 eV  104.55 nm  f=0.0542  <S**2>=0.000
      12 -> 22         0.69447

 Excited State  23:      Singlet-A"    11.8652 eV  104.49 nm  f=0.0233  <S**2>=0.000
       9 -> 14         0.47828
      11 -> 19         0.50988

 Excited State  24:      Singlet-A"    12.1609 eV  101.95 nm  f=0.0009  <S**2>=0.000
       7 -> 13         0.19440
      11 -> 20         0.66894

 Excited State  25:      Singlet-A"    12.3533 eV  100.37 nm  f=0.0184  <S**2>=0.000
       7 -> 13         0.64372
       8 -> 13        -0.10197
       9 -> 15         0.11125
      11 -> 20        -0.17755
      12 -> 23        -0.12582

 Excited State  26:      Singlet-A"    12.4412 eV   99.66 nm  f=0.0000  <S**2>=0.000
       7 -> 13         0.10911
      12 -> 23         0.68646

 Excited State  27:      Singlet-A'    12.4796 eV   99.35 nm  f=0.0024  <S**2>=0.000
       8 -> 14         0.11500
      10 -> 16         0.40916
      11 -> 21         0.54925

 Excited State  28:      Singlet-A'    12.6120 eV   98.31 nm  f=0.0108  <S**2>=0.000
       8 -> 14         0.50323
      10 -> 16         0.31028
      11 -> 21        -0.30097
      12 -> 24        -0.19068

 Excited State  29:      Singlet-A"    12.6232 eV   98.22 nm  f=0.0046  <S**2>=0.000
      10 -> 17         0.69395

 Excited State  30:      Singlet-A"    12.6569 eV   97.96 nm  f=0.0205  <S**2>=0.000
       9 -> 15         0.69021

 Excited State  31:      Singlet-A'    12.7414 eV   97.31 nm  f=0.0286  <S**2>=0.000
       8 -> 14        -0.45039
      10 -> 16         0.46154
      10 -> 18        -0.11875
      11 -> 21        -0.22716

 Excited State  32:      Singlet-A'    12.9762 eV   95.55 nm  f=0.0511  <S**2>=0.000
       7 -> 14         0.10258
       8 -> 14         0.13720
      12 -> 24         0.65315

 Excited State  33:      Singlet-A"    13.0644 eV   94.90 nm  f=0.0001  <S**2>=0.000
      11 -> 22         0.70362

 Excited State  34:      Singlet-A'    13.4065 eV   92.48 nm  f=0.0573  <S**2>=0.000
       8 -> 15        -0.23174
       9 -> 17        -0.12251
      10 -> 18         0.63389

 Excited State  35:      Singlet-A'    13.5309 eV   91.63 nm  f=0.0179  <S**2>=0.000
       8 -> 15         0.64100
       9 -> 17        -0.12306
      10 -> 18         0.18625
      10 -> 19        -0.10516

 Excited State  36:      Singlet-A'    13.6993 eV   90.50 nm  f=0.0181  <S**2>=0.000
       7 -> 14         0.40776
       8 -> 15        -0.13586
      10 -> 19        -0.39171
      11 -> 23         0.39150

 Excited State  37:      Singlet-A'    13.7769 eV   89.99 nm  f=0.0767  <S**2>=0.000
       7 -> 14         0.35779
      10 -> 19         0.55331
      11 -> 23         0.20073
      12 -> 25         0.10951

 Excited State  38:      Singlet-A'    13.8327 eV   89.63 nm  f=0.0123  <S**2>=0.000
       7 -> 14        -0.34951
       9 -> 17         0.25070
      10 -> 20         0.12714
      11 -> 23         0.45734
      12 -> 25        -0.20873
      12 -> 26        -0.13358

 Excited State  39:      Singlet-A"    13.8945 eV   89.23 nm  f=0.0210  <S**2>=0.000
       9 -> 16         0.69750

 Excited State  40:      Singlet-A'    14.0381 eV   88.32 nm  f=0.0859  <S**2>=0.000
      10 -> 20         0.41016
      12 -> 25         0.54724

 Excited State  41:      Singlet-A'    14.1001 eV   87.93 nm  f=0.0412  <S**2>=0.000
       7 -> 14         0.20082
       7 -> 15        -0.15997
       9 -> 17         0.49321
      10 -> 18         0.12838
      10 -> 20         0.25819
      11 -> 23        -0.16742
      12 -> 25        -0.18141
      12 -> 26         0.14039

 Excited State  42:      Singlet-A"    14.1207 eV   87.80 nm  f=0.0034  <S**2>=0.000
      11 -> 24         0.69194

 Excited State  43:      Singlet-A'    14.1906 eV   87.37 nm  f=0.0000  <S**2>=0.000
       7 -> 15         0.16315
       9 -> 17        -0.33652
      10 -> 20         0.46915
      12 -> 25        -0.29304
      12 -> 26         0.15015

 Excited State  44:      Singlet-A"    14.2592 eV   86.95 nm  f=0.0275  <S**2>=0.000
       8 -> 17         0.13401
      10 -> 21         0.68580

 Excited State  45:      Singlet-A"    14.6442 eV   84.66 nm  f=0.0198  <S**2>=0.000
       9 -> 18         0.67052
      12 -> 27        -0.16162

 Excited State  46:      Singlet-A'    14.6628 eV   84.56 nm  f=0.1308  <S**2>=0.000
       7 -> 15         0.50553
       8 -> 16        -0.40241
       9 -> 17         0.12825
      10 -> 20        -0.11662
      12 -> 26         0.18443

 Excited State  47:      Singlet-A'    14.7409 eV   84.11 nm  f=0.0618  <S**2>=0.000
       7 -> 15         0.41557
       8 -> 16         0.51491
       9 -> 17         0.12230
      12 -> 26        -0.14737

 Excited State  48:      Singlet-A"    14.7862 eV   83.85 nm  f=0.0007  <S**2>=0.000
       8 -> 17         0.48318
      10 -> 21        -0.10817
      12 -> 27         0.49918

 Excited State  49:      Singlet-A"    14.8126 eV   83.70 nm  f=0.0102  <S**2>=0.000
       8 -> 17         0.48655
       9 -> 18        -0.17751
      12 -> 27        -0.46643

 Excited State  50:      Singlet-A'    14.9780 eV   82.78 nm  f=0.0161  <S**2>=0.000
      10 -> 22         0.68517

 Excited State  51:      Singlet-A"    15.0699 eV   82.27 nm  f=0.0227  <S**2>=0.000
       9 -> 19         0.69905

 Excited State  52:      Singlet-A'    15.1107 eV   82.05 nm  f=0.0927  <S**2>=0.000
       8 -> 16         0.19497
       8 -> 18        -0.22002
       9 -> 21        -0.16868
      10 -> 22        -0.10302
      11 -> 23         0.11186
      12 -> 26         0.53393
      12 -> 28        -0.15385

 Excited State  53:      Singlet-A"    15.1261 eV   81.97 nm  f=0.0157  <S**2>=0.000
      11 -> 25         0.69920

 Excited State  54:      Singlet-A"    15.4568 eV   80.21 nm  f=0.0541  <S**2>=0.000
       6 -> 13        -0.13290
       9 -> 20         0.68014
      11 -> 26        -0.10185

 Excited State  55:      Singlet-A"    15.5309 eV   79.83 nm  f=0.0019  <S**2>=0.000
      10 -> 23         0.67379
      11 -> 26         0.16864

 Excited State  56:      Singlet-A'    15.5751 eV   79.60 nm  f=0.0133  <S**2>=0.000
       7 -> 16        -0.13200
       8 -> 18         0.52051
      12 -> 28        -0.41862

 Excited State  57:      Singlet-A'    15.5811 eV   79.57 nm  f=0.0140  <S**2>=0.000
       8 -> 18        -0.26038
       9 -> 21         0.52396
      12 -> 28        -0.38181

 Excited State  58:      Singlet-A"    15.7296 eV   78.82 nm  f=0.0208  <S**2>=0.000
       7 -> 17        -0.25948
      10 -> 23        -0.12925
      11 -> 26         0.62849

 Excited State  59:      Singlet-A'    15.7812 eV   78.56 nm  f=0.0124  <S**2>=0.000
       7 -> 16         0.54629
       8 -> 19         0.10043
       9 -> 21        -0.27118
      12 -> 28        -0.26960

 Excited State  60:      Singlet-A"    15.8081 eV   78.43 nm  f=0.0342  <S**2>=0.000
       7 -> 17         0.64805
      10 -> 23        -0.14724
      11 -> 26         0.21588

 Excited State  61:      Singlet-A'    15.8134 eV   78.40 nm  f=0.0121  <S**2>=0.000
       7 -> 16         0.35628
       8 -> 18         0.22706
       8 -> 19         0.24287
       9 -> 21         0.31215
      10 -> 24         0.13956
      12 -> 26         0.15673
      12 -> 28         0.24554
      12 -> 31         0.10803

 Excited State  62:      Singlet-A'    15.9056 eV   77.95 nm  f=0.0220  <S**2>=0.000
       7 -> 16        -0.19946
       8 -> 19         0.63782
      10 -> 24        -0.16227

 Excited State  63:      Singlet-A'    15.9807 eV   77.58 nm  f=0.0082  <S**2>=0.000
      10 -> 24        -0.30877
      11 -> 27         0.61775

 Excited State  64:      Singlet-A'    16.1318 eV   76.86 nm  f=0.0704  <S**2>=0.000
       7 -> 18        -0.13213
       8 -> 18        -0.12472
       8 -> 20         0.19854
      10 -> 24         0.53075
      11 -> 27         0.31701

 Excited State  65:      Singlet-A'    16.2584 eV   76.26 nm  f=0.0243  <S**2>=0.000
       8 -> 20         0.64462
      10 -> 24        -0.20202
      12 -> 30         0.12127

 Excited State  66:      Singlet-A"    16.2833 eV   76.14 nm  f=0.0000  <S**2>=0.000
       9 -> 22         0.70133

 Excited State  67:      Singlet-A"    16.4051 eV   75.58 nm  f=0.0019  <S**2>=0.000
       8 -> 21         0.70170

 Excited State  68:      Singlet-A'    16.4168 eV   75.52 nm  f=0.0105  <S**2>=0.000
       7 -> 18         0.20667
      12 -> 29         0.65538
      12 -> 30         0.11180

 Excited State  69:      Singlet-A'    16.5178 eV   75.06 nm  f=0.0144  <S**2>=0.000
       7 -> 18         0.53523
      12 -> 29        -0.11477
      12 -> 30        -0.38870
      12 -> 31        -0.13105

 Excited State  70:      Singlet-A'    16.6072 eV   74.66 nm  f=0.0380  <S**2>=0.000
       7 -> 18         0.34409
      12 -> 29        -0.20830
      12 -> 30         0.54747

 Excited State  71:      Singlet-A"    16.7070 eV   74.21 nm  f=0.0535  <S**2>=0.000
       6 -> 13         0.56487
       8 -> 23        -0.10966
       9 -> 20         0.10990
      12 -> 32        -0.34502

 Excited State  72:      Singlet-A"    16.8173 eV   73.72 nm  f=0.0251  <S**2>=0.000
      11 -> 28         0.68452
      12 -> 32         0.14006

 Excited State  73:      Singlet-A'    16.9318 eV   73.23 nm  f=0.0224  <S**2>=0.000
       8 -> 22         0.21457
       9 -> 23         0.55603
      10 -> 25         0.26984
      12 -> 31        -0.18231

 Excited State  74:      Singlet-A'    16.9644 eV   73.09 nm  f=0.0024  <S**2>=0.000
       7 -> 19         0.66742
      10 -> 25        -0.16586

 Excited State  75:      Singlet-A"    17.0534 eV   72.70 nm  f=0.1487  <S**2>=0.000
       6 -> 13         0.24989
       8 -> 23        -0.14525
       9 -> 24         0.20040
      11 -> 28        -0.14827
      12 -> 32         0.57419

 Excited State  76:      Singlet-A'    17.1103 eV   72.46 nm  f=0.0096  <S**2>=0.000
       8 -> 22         0.56793
      10 -> 25        -0.34709
      12 -> 31        -0.18427

 Excited State  77:      Singlet-A'    17.1633 eV   72.24 nm  f=0.1043  <S**2>=0.000
       7 -> 19         0.14298
       7 -> 20        -0.15388
       8 -> 22         0.18396
       9 -> 23        -0.35566
      10 -> 25         0.50458
      12 -> 31        -0.12320

 Excited State  78:      Singlet-A'    17.3215 eV   71.58 nm  f=0.0613  <S**2>=0.000
       7 -> 20         0.64126
       8 -> 22         0.15145
       9 -> 23        -0.10372
      10 -> 25         0.10275
      12 -> 31         0.16472

 Excited State  79:      Singlet-A"    17.3429 eV   71.49 nm  f=0.0190  <S**2>=0.000
       6 -> 13        -0.10065
       8 -> 23         0.15102
       9 -> 24         0.65786
      12 -> 32        -0.12300

 Excited State  80:      Singlet-A'    17.3772 eV   71.35 nm  f=0.0227  <S**2>=0.000
       6 -> 14         0.14699
       7 -> 20        -0.20742
       8 -> 22         0.21834
       8 -> 24         0.11505
      10 -> 26         0.17166
      10 -> 28         0.10564
      12 -> 31         0.51092

 Excited State  81:      Singlet-A"    17.4790 eV   70.93 nm  f=0.0007  <S**2>=0.000
       7 -> 21         0.70514

 Excited State  82:      Singlet-A'    17.6233 eV   70.35 nm  f=0.1064  <S**2>=0.000
       6 -> 14         0.48671
      10 -> 26        -0.48642

 Excited State  83:      Singlet-A"    17.6548 eV   70.23 nm  f=0.0002  <S**2>=0.000
      11 -> 29         0.62689
      11 -> 30        -0.29342
      11 -> 31        -0.10819

 Excited State  84:      Singlet-A"    17.7178 eV   69.98 nm  f=0.0001  <S**2>=0.000
      11 -> 29         0.31253
      11 -> 30         0.62040

 Excited State  85:      Singlet-A"    17.8618 eV   69.41 nm  f=0.0260  <S**2>=0.000
       6 -> 13         0.11327
       8 -> 23         0.61226
      10 -> 27        -0.28162

 Excited State  86:      Singlet-A'    17.8747 eV   69.36 nm  f=0.0430  <S**2>=0.000
       6 -> 14         0.39964
       8 -> 24        -0.19490
      10 -> 26         0.39826
      11 -> 32        -0.29814
      12 -> 31        -0.11812

 Excited State  87:      Singlet-A"    17.9030 eV   69.25 nm  f=0.1323  <S**2>=0.000
       6 -> 13         0.12414
       8 -> 23         0.22927
      10 -> 27         0.63498

 Excited State  88:      Singlet-A"    18.1374 eV   68.36 nm  f=0.0000  <S**2>=0.000
      11 -> 30        -0.11387
      11 -> 31         0.68724

 Excited State  89:      Singlet-A'    18.1475 eV   68.32 nm  f=0.0036  <S**2>=0.000
       7 -> 22         0.46998
       8 -> 24        -0.11582
      11 -> 32         0.40523
      12 -> 33         0.27082

 Excited State  90:      Singlet-A'    18.1729 eV   68.22 nm  f=0.0053  <S**2>=0.000
       7 -> 22        -0.26911
       8 -> 24         0.34951
      12 -> 33         0.52876

 Excited State  91:      Singlet-A'    18.2335 eV   68.00 nm  f=0.0646  <S**2>=0.000
       7 -> 22         0.42562
       8 -> 24         0.45505
      11 -> 32        -0.29500

 Excited State  92:      Singlet-A"    18.3368 eV   67.61 nm  f=0.0188  <S**2>=0.000
       9 -> 25         0.70079

 Excited State  93:      Singlet-A'    18.4505 eV   67.20 nm  f=0.1018  <S**2>=0.000
       6 -> 15         0.30037
       7 -> 22        -0.10579
       7 -> 24         0.16681
       8 -> 24         0.27080
      10 -> 26         0.16356
      10 -> 28        -0.14574
      11 -> 32         0.34359
      12 -> 33        -0.28747

 Excited State  94:      Singlet-A'    18.5879 eV   66.70 nm  f=0.0162  <S**2>=0.000
       6 -> 15         0.59935
       8 -> 24        -0.12088
       9 -> 27        -0.10473
      10 -> 28         0.18646
      12 -> 33         0.14017

 Excited State  95:      Singlet-A"    18.6511 eV   66.48 nm  f=0.0441  <S**2>=0.000
       7 -> 23         0.68836

 Excited State  96:      Singlet-A'    18.8375 eV   65.82 nm  f=0.0750  <S**2>=0.000
      10 -> 28         0.63751
      12 -> 33        -0.11379

 Excited State  97:      Singlet-A"    19.0242 eV   65.17 nm  f=0.0288  <S**2>=0.000
       9 -> 26         0.67572
      11 -> 33         0.12390

 Excited State  98:      Singlet-A"    19.1766 eV   64.65 nm  f=0.0116  <S**2>=0.000
      12 -> 34         0.69963

 Excited State  99:      Singlet-A'    19.1925 eV   64.60 nm  f=0.0088  <S**2>=0.000
       8 -> 25         0.53850
       9 -> 27         0.44471

 Excited State 100:      Singlet-A'    19.2503 eV   64.41 nm  f=0.0105  <S**2>=0.000
       7 -> 24        -0.16052
       8 -> 25        -0.40805
       9 -> 27         0.50905
      10 -> 29        -0.13317

 Excited State 101:      Singlet-A'    19.4111 eV   63.87 nm  f=0.1401  <S**2>=0.000
       6 -> 16        -0.12857
       7 -> 24         0.60845
       8 -> 25        -0.15419
      10 -> 30        -0.17027

 Excited State 102:      Singlet-A"    19.4216 eV   63.84 nm  f=0.0140  <S**2>=0.000
       9 -> 26        -0.11458
      11 -> 33         0.69165

 Excited State 103:      Singlet-A'    19.6015 eV   63.25 nm  f=0.0027  <S**2>=0.000
       6 -> 16        -0.16177
      10 -> 29         0.66151
      10 -> 30         0.10600

 Excited State 104:      Singlet-A'    19.6474 eV   63.10 nm  f=0.0052  <S**2>=0.000
       6 -> 16         0.65065
       8 -> 26         0.10007
      10 -> 29         0.15462

 Excited State 105:      Singlet-A"    19.6643 eV   63.05 nm  f=0.0038  <S**2>=0.000
       6 -> 17         0.69592

 Excited State 106:      Singlet-A'    19.7499 eV   62.78 nm  f=0.0317  <S**2>=0.000
       7 -> 24        -0.11680
       8 -> 26         0.11811
      10 -> 30        -0.44773
      12 -> 35         0.49607

 Excited State 107:      Singlet-A'    19.9097 eV   62.27 nm  f=0.0797  <S**2>=0.000
       7 -> 25         0.14356
       8 -> 26         0.32578
      10 -> 30         0.39690
      10 -> 31        -0.17408
      12 -> 35         0.34908
      12 -> 36         0.14171

 Excited State 108:      Singlet-A'    19.9570 eV   62.13 nm  f=0.0721  <S**2>=0.000
       8 -> 26         0.57560
      10 -> 30        -0.11586
      10 -> 31         0.18777
      12 -> 35        -0.27385

 Excited State 109:      Singlet-A'    20.0354 eV   61.88 nm  f=0.0150  <S**2>=0.000
       6 -> 18         0.10978
       7 -> 25         0.15907
      10 -> 31         0.62755
      12 -> 35         0.15995

 Excited State 110:      Singlet-A"    20.0597 eV   61.81 nm  f=0.0169  <S**2>=0.000
       8 -> 27         0.67386
       9 -> 28         0.17456
      10 -> 32        -0.11613

 Excited State 111:      Singlet-A"    20.0840 eV   61.73 nm  f=0.0074  <S**2>=0.000
       8 -> 27        -0.12283
       9 -> 28         0.63762
      10 -> 32         0.25817

 Excited State 112:      Singlet-A"    20.1109 eV   61.65 nm  f=0.0013  <S**2>=0.000
       8 -> 27         0.16834
       9 -> 28        -0.22456
      10 -> 32         0.64474

 Excited State 113:      Singlet-A'    20.3644 eV   60.88 nm  f=0.0574  <S**2>=0.000
       6 -> 18        -0.27590
       7 -> 26        -0.10190
      11 -> 34         0.54824
      12 -> 36         0.29765

 Excited State 114:      Singlet-A'    20.3967 eV   60.79 nm  f=0.1866  <S**2>=0.000
       6 -> 18         0.21470
       6 -> 19         0.10310
       7 -> 25         0.58321
      10 -> 30        -0.15060
      10 -> 31        -0.11924

 Excited State 115:      Singlet-A'    20.4333 eV   60.68 nm  f=0.0674  <S**2>=0.000
       6 -> 18         0.52368
       7 -> 25        -0.23202
       7 -> 26         0.21572
       8 -> 28         0.10414
      11 -> 34         0.28984

 Excited State 116:      Singlet-A'    20.7816 eV   59.66 nm  f=0.0352  <S**2>=0.000
       6 -> 19         0.43287
       8 -> 28         0.38517
      12 -> 36        -0.34272

 Excited State 117:      Singlet-A'    20.8210 eV   59.55 nm  f=0.0214  <S**2>=0.000
       6 -> 19         0.52591
       7 -> 25        -0.14908
       8 -> 28        -0.34231
      11 -> 34        -0.12539
      12 -> 36         0.20698

 Excited State 118:      Singlet-A"    20.8434 eV   59.48 nm  f=0.0104  <S**2>=0.000
       9 -> 29         0.69305

 Excited State 119:      Singlet-A"    20.9515 eV   59.18 nm  f=0.0127  <S**2>=0.000
       7 -> 27        -0.17811
       9 -> 30         0.64186
       9 -> 31         0.10740
      11 -> 35        -0.17605

 Excited State 120:      Singlet-A'    20.9953 eV   59.05 nm  f=0.0268  <S**2>=0.000
       8 -> 28         0.15483

 The electronic state is 1-A'.
 Alpha  occ. eigenvalues --  -19.13515 -19.07793 -10.27091  -1.09618  -1.00732
 Alpha  occ. eigenvalues --   -0.65679  -0.51486  -0.47679  -0.44706  -0.39833
 Alpha  occ. eigenvalues --   -0.32916  -0.28481
 Alpha virt. eigenvalues --   -0.03101   0.00868   0.03785   0.08249   0.08625
 Alpha virt. eigenvalues --    0.11153   0.12616   0.13972   0.14550   0.17070
 Alpha virt. eigenvalues --    0.19666   0.21322   0.24917   0.27678   0.28053

 Mulliken charges:
               1
     1  O   -0.274107
     2  C    0.681043
     3  O   -0.383240
     4  H    0.183427
     5  H   -0.207124
 Sum of Mulliken charges =  -0.00000

 Dipole moment (field-independent basis, Debye):
    X=             -1.5235    Y=             -0.3246    Z=             -0.0000  Tot=              1.5577
 Quadrupole moment (field-independent basis, Debye-Ang):
   XX=            -22.2329   YY=            -13.0429   ZZ=            -17.1113
   XY=              0.0236   XZ=              0.0000   YZ=             -0.0000

 Normal termination of Gaussian 16 at Mon Mar 21 20:02:05 2022.
