 Gaussian 16, Revision C.01,
 Gaussian 16:  EM64L-G16RevC.01  3-Jul-2019

 ---------------------------------------------------------------------
 #P TD(Nstates=10000) svwn5/Gen SCF(maxcycles=100) Int(Grid=ultrafine)
 ---------------------------------------------------------------------

 ---------------------
 xGDB7_00001_tier4.com
 ---------------------
 Symbolic Z-matrix:
 Charge =  0 Multiplicity = 1

                         Standard orientation:
 ---------------------------------------------------------------------
 Center     Atomic      Atomic             Coordinates (Angstroms)
 Number     Number       Type             X           Y           Z
 ---------------------------------------------------------------------
      1          6           0        0.000000    0.000000    0.761397
      2          6           0       -0.000000   -0.000000   -0.761397
      3          1           0        0.000000    1.017110    1.157248
      4          1           0        0.880843   -0.508555    1.157248
      5          1           0       -0.880843   -0.508555    1.157248
      6          1           0        0.880843    0.508555   -1.157248
      7          1           0       -0.880843    0.508555   -1.157248
      8          1           0       -0.000000   -1.017110   -1.157248
 ---------------------------------------------------------------------

 SCF Done:  E(RS-VWN5) =  -78.9844912848     A.U. after    9 cycles

 Excitation energies and oscillator strengths:

 Excited State   1:      Singlet-EG     8.3903 eV  147.77 nm  f=0.0000  <S**2>=0.000
       9 -> 10         0.70673
 This state for optimization and/or second-order correction.
 Total Energy, E(TD-HF/TD-DFT) =  -78.6761530198
 Copying the excited state density for this state as the 1-particle RhoCI density.

 Excited State   2:      Singlet-EG     8.3903 eV  147.77 nm  f=0.0000  <S**2>=0.000
       8 -> 10         0.70673

 Excited State   3:      Singlet-EU     9.3046 eV  133.25 nm  f=0.0676  <S**2>=0.000
       8 -> 11         0.70550

 Excited State   4:      Singlet-EU     9.3046 eV  133.25 nm  f=0.0676  <S**2>=0.000
       9 -> 11         0.70550

 Excited State   5:      Singlet-A1G    9.4125 eV  131.72 nm  f=0.0000  <S**2>=0.000
       7 -> 10         0.70224

 Excited State   6:      Singlet-A2U   10.2144 eV  121.38 nm  f=0.1470  <S**2>=0.000
       7 -> 11         0.69197

 Excited State   7:      Singlet-EG    10.2484 eV  120.98 nm  f=0.0000  <S**2>=0.000
       8 -> 13        -0.49996
       9 -> 12         0.49996

 Excited State   8:      Singlet-EG    10.2846 eV  120.55 nm  f=0.0390  <S**2>=0.000
       8 -> 13         0.49632
       9 -> 12         0.49632

 Excited State   9:      Singlet-EG    10.2846 eV  120.55 nm  f=0.0390  <S**2>=0.000
       8 -> 12         0.49632
       9 -> 13        -0.49632

 Excited State  10:      Singlet-EG    10.5687 eV  117.31 nm  f=0.3189  <S**2>=0.000
       7 -> 11        -0.13717
       8 -> 12         0.48335
       9 -> 13         0.48335

 Excited State  11:      Singlet-EU    10.6865 eV  116.02 nm  f=0.0000  <S**2>=0.000
       8 -> 15        -0.49986
       9 -> 14         0.49986

 Excited State  12:      Singlet-EU    10.8331 eV  114.45 nm  f=0.0000  <S**2>=0.000
       8 -> 14         0.48802
       9 -> 15         0.48801

 Excited State  13:      Singlet-EU    10.8683 eV  114.08 nm  f=0.0000  <S**2>=0.000
       8 -> 14        -0.49637
       9 -> 15         0.49637

 Excited State  14:      Singlet-EU    10.8683 eV  114.08 nm  f=0.0000  <S**2>=0.000
       8 -> 15         0.49637
       9 -> 14         0.49637

 Excited State  15:      Singlet-EU    10.9200 eV  113.54 nm  f=0.1288  <S**2>=0.000
       6 -> 10         0.69707

 Excited State  16:      Singlet-EU    10.9200 eV  113.54 nm  f=0.1288  <S**2>=0.000
       5 -> 10         0.69707

 Excited State  17:      Singlet-EU    11.2700 eV  110.01 nm  f=0.0652  <S**2>=0.000
       7 -> 13         0.69517

 Excited State  18:      Singlet-EU    11.2700 eV  110.01 nm  f=0.0652  <S**2>=0.000
       7 -> 12         0.69517

 Excited State  19:      Singlet-EG    11.6241 eV  106.66 nm  f=0.0000  <S**2>=0.000
       7 -> 15         0.62460
       9 -> 16        -0.32893

 Excited State  20:      Singlet-EG    11.6241 eV  106.66 nm  f=0.0000  <S**2>=0.000
       7 -> 14         0.62460
       8 -> 16        -0.32893

 Excited State  21:      Singlet-EG    11.6541 eV  106.39 nm  f=0.0000  <S**2>=0.000
       7 -> 15         0.32665
       9 -> 16         0.62232

 Excited State  22:      Singlet-EG    11.6541 eV  106.39 nm  f=0.0000  <S**2>=0.000
       7 -> 14         0.32665
       8 -> 16         0.62232

 Excited State  23:      Singlet-EG    11.7936 eV  105.13 nm  f=0.0000  <S**2>=0.000
       6 -> 11         0.69922

 Excited State  24:      Singlet-EG    11.7936 eV  105.13 nm  f=0.0000  <S**2>=0.000
       5 -> 11         0.69922

 Excited State  25:      Singlet-EU    12.0891 eV  102.56 nm  f=0.0000  <S**2>=0.000
       8 -> 18        -0.49986
       9 -> 17         0.49986

 Excited State  26:      Singlet-EU    12.1094 eV  102.39 nm  f=0.0000  <S**2>=0.000
       8 -> 17         0.49391
       9 -> 18        -0.49391

 Excited State  27:      Singlet-EU    12.1094 eV  102.39 nm  f=0.0000  <S**2>=0.000
       8 -> 18         0.49391
       9 -> 17         0.49391

 Excited State  28:      Singlet-EU    12.2805 eV  100.96 nm  f=0.0000  <S**2>=0.000
       5 -> 12        -0.19522
       6 -> 13        -0.19522
       7 -> 16         0.12412
       8 -> 17         0.44932
       9 -> 18         0.44932

 Excited State  29:      Singlet-EG    12.5862 eV   98.51 nm  f=0.0000  <S**2>=0.000
       8 -> 20        -0.49975
       9 -> 21         0.49975

 Excited State  30:      Singlet-EU    12.6055 eV   98.36 nm  f=0.0116  <S**2>=0.000
       8 -> 20         0.21849
       9 -> 19         0.63132
       9 -> 21         0.21849

 Excited State  31:      Singlet-EU    12.6055 eV   98.36 nm  f=0.0116  <S**2>=0.000
       8 -> 19         0.63132
       8 -> 21        -0.21849
       9 -> 20         0.21849

 Excited State  32:      Singlet-A1G   12.6605 eV   97.93 nm  f=0.0000  <S**2>=0.000
       5 -> 12         0.22747
       6 -> 13         0.22747
       7 -> 16         0.62803

 Excited State  33:      Singlet-EU    12.7379 eV   97.33 nm  f=0.0000  <S**2>=0.000
       5 -> 13        -0.49998
       6 -> 12         0.49998

 Excited State  34:      Singlet-EU    12.7884 eV   96.95 nm  f=0.0000  <S**2>=0.000
       5 -> 13         0.49659
       6 -> 12         0.49659

 Excited State  35:      Singlet-EU    12.7884 eV   96.95 nm  f=0.0000  <S**2>=0.000
       5 -> 12         0.49659
       6 -> 13        -0.49659

 Excited State  36:      Singlet-EG    12.8306 eV   96.63 nm  f=0.0373  <S**2>=0.000
       5 -> 14         0.22037
       6 -> 15        -0.22037
       7 -> 21        -0.14482
       8 -> 19         0.24462
       8 -> 21         0.39541
       9 -> 20        -0.39541

 Excited State  37:      Singlet-EG    12.8306 eV   96.63 nm  f=0.0373  <S**2>=0.000
       5 -> 15         0.22037
       6 -> 14         0.22037
       7 -> 20         0.14482
       8 -> 20         0.39541
       9 -> 19        -0.24462
       9 -> 21         0.39541

 Excited State  38:      Singlet-EG    13.0003 eV   95.37 nm  f=0.0000  <S**2>=0.000
       7 -> 18         0.70453

 Excited State  39:      Singlet-EG    13.0003 eV   95.37 nm  f=0.0000  <S**2>=0.000
       7 -> 17         0.70453

 Excited State  40:      Singlet-EG    13.0158 eV   95.26 nm  f=0.1078  <S**2>=0.000
       7 -> 19         0.23531
       8 -> 21         0.45341
       9 -> 20         0.45341

 Excited State  41:      Singlet-EG    13.1666 eV   94.17 nm  f=0.0000  <S**2>=0.000
       5 -> 15        -0.49983
       6 -> 14         0.49983

 Excited State  42:      Singlet-EG    13.2633 eV   93.48 nm  f=0.0444  <S**2>=0.000
       5 -> 14         0.46800
       6 -> 15         0.46801
       7 -> 19         0.14107
       8 -> 21        -0.11530
       9 -> 20        -0.11530

 Excited State  43:      Singlet-EU    13.4496 eV   92.18 nm  f=0.1540  <S**2>=0.000
       5 -> 15        -0.33793
       6 -> 14        -0.33793
       7 -> 20         0.49590

 Excited State  44:      Singlet-EU    13.4496 eV   92.18 nm  f=0.1540  <S**2>=0.000
       5 -> 14         0.33794
       6 -> 15        -0.33793
       7 -> 21         0.49590

 Excited State  45:      Singlet-EU    13.7916 eV   89.90 nm  f=0.1223  <S**2>=0.000
       5 -> 15         0.22356
       6 -> 14         0.22356
       6 -> 16         0.26169
       7 -> 20         0.43896
       8 -> 20        -0.13016
       8 -> 23         0.17680
       9 -> 19         0.10996
       9 -> 21        -0.13016
       9 -> 22         0.17680

 Excited State  46:      Singlet-EU    13.7916 eV   89.90 nm  f=0.1223  <S**2>=0.000
       5 -> 14        -0.22356
       5 -> 16         0.26169
       6 -> 15         0.22356
       7 -> 21         0.43896
       8 -> 19         0.10996
       8 -> 21         0.13016
       8 -> 22        -0.17680
       9 -> 20        -0.13016
       9 -> 23         0.17680

 Excited State  47:      Singlet-A2U   13.8572 eV   89.47 nm  f=0.0387  <S**2>=0.000
       4 -> 10        -0.10719
       5 -> 14        -0.10477
       6 -> 15        -0.10477
       7 -> 19         0.50921
       8 -> 22        -0.29696
       9 -> 23        -0.29696

 Excited State  48:      Singlet-EU    14.0215 eV   88.42 nm  f=0.0000  <S**2>=0.000
       4 -> 11         0.17585
       5 -> 12         0.36568
       6 -> 13         0.36568
       7 -> 16        -0.27713
       8 -> 17         0.18337
       9 -> 18         0.18337

 Excited State  49:      Singlet-EG    14.1182 eV   87.82 nm  f=0.0000  <S**2>=0.000
       8 -> 23         0.49970
       9 -> 22        -0.49968

 Excited State  50:      Singlet-EU    14.1193 eV   87.81 nm  f=0.0291  <S**2>=0.000
       6 -> 16         0.45832
       8 -> 23        -0.37923
       9 -> 22        -0.37924

 Excited State  51:      Singlet-EU    14.1193 eV   87.81 nm  f=0.0291  <S**2>=0.000
       5 -> 16         0.45832
       8 -> 22         0.37923
       9 -> 23        -0.37923

 Excited State  52:      Singlet-EU    14.3702 eV   86.28 nm  f=0.2852  <S**2>=0.000
       5 -> 14         0.12500
       5 -> 16         0.41711
       5 -> 17         0.22367
       6 -> 15        -0.12500
       6 -> 18        -0.22367
       7 -> 21        -0.12023
       7 -> 22        -0.13819
       8 -> 22        -0.25204
       9 -> 23         0.25204

 Excited State  53:      Singlet-EU    14.3702 eV   86.28 nm  f=0.2852  <S**2>=0.000
       5 -> 15        -0.12500
       5 -> 18        -0.22367
       6 -> 14        -0.12500
       6 -> 16         0.41711
       6 -> 17        -0.22367
       7 -> 20        -0.12023
       7 -> 23        -0.13819
       8 -> 23         0.25203
       9 -> 22         0.25204

 Excited State  54:      Singlet-EG    14.4619 eV   85.73 nm  f=0.7677  <S**2>=0.000
       4 -> 10        -0.23125
       5 -> 17         0.10544
       6 -> 18         0.10544
       7 -> 19         0.29652
       7 -> 24        -0.12601
       8 -> 21        -0.10988
       8 -> 22         0.37689
       9 -> 20        -0.10988
       9 -> 23         0.37689

 Excited State  55:      Singlet-EG    14.5857 eV   85.00 nm  f=0.0000  <S**2>=0.000
       5 -> 18        -0.49982
       6 -> 17         0.49982

 Excited State  56:      Singlet-EG    14.7205 eV   84.23 nm  f=0.1383  <S**2>=0.000
       5 -> 18         0.42809
       6 -> 16         0.15387
       6 -> 17         0.42809
       7 -> 20        -0.11272
       7 -> 23        -0.22521

 Excited State  57:      Singlet-EG    14.7205 eV   84.23 nm  f=0.1383  <S**2>=0.000
       5 -> 16         0.15387
       5 -> 17        -0.42809
       6 -> 18         0.42809
       7 -> 21        -0.11272
       7 -> 22        -0.22521

 Excited State  58:      Singlet-EG    14.7967 eV   83.79 nm  f=0.0592  <S**2>=0.000
       4 -> 10         0.28775
       5 -> 17         0.44768
       6 -> 18         0.44768

 Excited State  59:      Singlet-EU    15.0823 eV   82.21 nm  f=0.0000  <S**2>=0.000
       5 -> 20         0.49971
       6 -> 21        -0.49967

 Excited State  60:      Singlet-EG    15.0829 eV   82.20 nm  f=0.0000  <S**2>=0.000
       5 -> 19         0.65338
       5 -> 21        -0.18489
       6 -> 20         0.18489

 Excited State  61:      Singlet-EG    15.0829 eV   82.20 nm  f=0.0000  <S**2>=0.000
       5 -> 20         0.18488
       6 -> 19         0.65338
       6 -> 21         0.18490

 Excited State  62:      Singlet-EU    15.1659 eV   81.75 nm  f=0.2469  <S**2>=0.000
       6 -> 16         0.10449
       7 -> 23         0.64086
       9 -> 24        -0.11609

 Excited State  63:      Singlet-EU    15.1659 eV   81.75 nm  f=0.2469  <S**2>=0.000
       5 -> 16         0.10449
       7 -> 22         0.64086
       8 -> 24        -0.11609

 Excited State  64:      Singlet-EU    15.3346 eV   80.85 nm  f=0.0000  <S**2>=0.000
       5 -> 21         0.48824
       6 -> 20         0.48829

 Excited State  65:      Singlet-EU    15.3528 eV   80.76 nm  f=0.0000  <S**2>=0.000
       5 -> 20         0.44672
       6 -> 19        -0.23643
       6 -> 21         0.44675
       9 -> 25        -0.14573

 Excited State  66:      Singlet-EU    15.3528 eV   80.76 nm  f=0.0000  <S**2>=0.000
       5 -> 19         0.23643
       5 -> 21         0.44676
       6 -> 20        -0.44671
       8 -> 25         0.14573

 Excited State  67:      Singlet-EU    15.4530 eV   80.23 nm  f=0.0870  <S**2>=0.000
       8 -> 24         0.69054

 Excited State  68:      Singlet-EU    15.4530 eV   80.23 nm  f=0.0870  <S**2>=0.000
       9 -> 24         0.69054

 Excited State  69:      Singlet-A2U   15.4849 eV   80.07 nm  f=0.0025  <S**2>=0.000
       4 -> 10         0.57288
       5 -> 17        -0.14089
       6 -> 18        -0.14089
       7 -> 19         0.17558
       7 -> 24        -0.22429
       7 -> 33        -0.10939

 Excited State  70:      Singlet-EG    15.9775 eV   77.60 nm  f=0.0000  <S**2>=0.000
       9 -> 25         0.67813

 Excited State  71:      Singlet-EG    15.9775 eV   77.60 nm  f=0.0000  <S**2>=0.000
       8 -> 25         0.67813

 Excited State  72:      Singlet-A1G   16.1623 eV   76.71 nm  f=0.0000  <S**2>=0.000
       4 -> 11         0.65169
       7 -> 25         0.17837

 Excited State  73:      Singlet-EU    16.2624 eV   76.24 nm  f=0.0222  <S**2>=0.000
       8 -> 26         0.70553

 Excited State  74:      Singlet-EU    16.2624 eV   76.24 nm  f=0.0222  <S**2>=0.000
       9 -> 26         0.70553

 Excited State  75:      Singlet-EU    16.6126 eV   74.63 nm  f=0.0000  <S**2>=0.000
       5 -> 22         0.49192
       6 -> 23        -0.49191

 Excited State  76:      Singlet-EU    16.6126 eV   74.63 nm  f=0.0000  <S**2>=0.000
       5 -> 23         0.49178
       6 -> 22         0.49206

 Excited State  77:      Singlet-EU    16.6134 eV   74.63 nm  f=0.0000  <S**2>=0.000
       5 -> 23         0.49876
       6 -> 22        -0.49849

 Excited State  78:      Singlet-A2U   16.6854 eV   74.31 nm  f=0.2850  <S**2>=0.000
       7 -> 19         0.12546
       7 -> 24         0.62917
       7 -> 33        -0.18759

 Excited State  79:      Singlet-EU    16.7229 eV   74.14 nm  f=0.0000  <S**2>=0.000
       5 -> 22         0.47570
       6 -> 23         0.47571
       7 -> 25         0.16573

 Excited State  80:      Singlet-A1G   16.9348 eV   73.21 nm  f=0.0000  <S**2>=0.000
       5 -> 22        -0.12568
       6 -> 23        -0.12569
       7 -> 25         0.61695
       8 -> 27         0.17585
       9 -> 28         0.17585

 Excited State  81:      Singlet-EG    17.0326 eV   72.79 nm  f=0.0000  <S**2>=0.000
       4 -> 13         0.69204
       6 -> 24        -0.11813

 Excited State  82:      Singlet-EG    17.0326 eV   72.79 nm  f=0.0000  <S**2>=0.000
       4 -> 12         0.69204
       5 -> 24        -0.11813

 Excited State  83:      Singlet-A1U   17.1994 eV   72.09 nm  f=0.0000  <S**2>=0.000
       7 -> 26         0.70265

 Excited State  84:      Singlet-EU    17.2264 eV   71.97 nm  f=0.0000  <S**2>=0.000
       8 -> 28        -0.49859
       9 -> 27         0.49859

 Excited State  85:      Singlet-EU    17.2802 eV   71.75 nm  f=0.0312  <S**2>=0.000
       4 -> 15        -0.18222
       8 -> 31        -0.13832
       9 -> 29         0.65122
       9 -> 30        -0.13832

 Excited State  86:      Singlet-EU    17.2802 eV   71.75 nm  f=0.0312  <S**2>=0.000
       4 -> 14        -0.18222
       8 -> 29         0.65122
       8 -> 30         0.13832
       9 -> 31        -0.13832

 Excited State  87:      Singlet-EG    17.3710 eV   71.37 nm  f=0.0000  <S**2>=0.000
       8 -> 31        -0.49693
       9 -> 30         0.49693

 Excited State  88:      Singlet-EG    17.4519 eV   71.04 nm  f=0.0000  <S**2>=0.000
       8 -> 27        -0.36900
       8 -> 32         0.45566
       9 -> 28         0.36901

 Excited State  89:      Singlet-EG    17.4519 eV   71.04 nm  f=0.0000  <S**2>=0.000
       8 -> 28         0.36901
       9 -> 27         0.36901
       9 -> 32         0.45566

 Excited State  90:      Singlet-EU    17.5280 eV   70.74 nm  f=0.0029  <S**2>=0.000
       4 -> 14         0.66364
       5 -> 25        -0.10079
       8 -> 29         0.19806

 Excited State  91:      Singlet-EU    17.5280 eV   70.74 nm  f=0.0029  <S**2>=0.000
       4 -> 15         0.66364
       6 -> 25        -0.10079
       9 -> 29         0.19806

 Excited State  92:      Singlet-EU    17.5660 eV   70.58 nm  f=0.0000  <S**2>=0.000
       3 -> 10        -0.14734
       4 -> 11         0.12160
       5 -> 30        -0.10196
       6 -> 31        -0.10196
       7 -> 25        -0.18449
       8 -> 27         0.42315
       9 -> 28         0.42315

 Excited State  93:      Singlet-EG    17.5984 eV   70.45 nm  f=0.0713  <S**2>=0.000
       4 -> 14         0.12549
       5 -> 25         0.12222
       7 -> 30        -0.12039
       8 -> 29        -0.14040
       8 -> 30         0.45074
       9 -> 31        -0.45073

 Excited State  94:      Singlet-EG    17.5984 eV   70.45 nm  f=0.0713  <S**2>=0.000
       4 -> 15        -0.12549
       6 -> 25        -0.12222
       7 -> 31         0.12039
       8 -> 31         0.45074
       9 -> 29         0.14040
       9 -> 30         0.45073

 Excited State  95:      Singlet-EG    17.7310 eV   69.93 nm  f=0.0000  <S**2>=0.000
       7 -> 27        -0.17053
       8 -> 27         0.29005
       8 -> 32         0.52086
       9 -> 28        -0.29005

 Excited State  96:      Singlet-EG    17.7310 eV   69.93 nm  f=0.0000  <S**2>=0.000
       7 -> 28        -0.17053
       8 -> 28        -0.29005
       9 -> 27        -0.29005
       9 -> 32         0.52086

 Excited State  97:      Singlet-EG    17.8858 eV   69.32 nm  f=0.2418  <S**2>=0.000
       8 -> 30         0.47253
       9 -> 31         0.47253

 Excited State  98:      Singlet-EG    17.9443 eV   69.09 nm  f=0.0000  <S**2>=0.000
       4 -> 13         0.10755
       6 -> 24         0.68328

 Excited State  99:      Singlet-EG    17.9443 eV   69.09 nm  f=0.0000  <S**2>=0.000
       4 -> 12         0.10754
       5 -> 24         0.68328

 Excited State 100:      Singlet-EU    18.1245 eV   68.41 nm  f=0.0004  <S**2>=0.000
       7 -> 31        -0.26660
       9 -> 33         0.65265

 Excited State 101:      Singlet-EU    18.1245 eV   68.41 nm  f=0.0004  <S**2>=0.000
       7 -> 30        -0.26660
       8 -> 33         0.65265

 Excited State 102:      Singlet-EG    18.1696 eV   68.24 nm  f=0.0000  <S**2>=0.000
       7 -> 28         0.67613
       9 -> 32         0.10737

 Excited State 103:      Singlet-EG    18.1696 eV   68.24 nm  f=0.0000  <S**2>=0.000
       7 -> 27         0.67613
       8 -> 32         0.10737

 Excited State 104:      Singlet-A2U   18.2885 eV   67.79 nm  f=0.0162  <S**2>=0.000
       4 -> 16         0.11080
       7 -> 29         0.67905
       7 -> 33         0.11918

 Excited State 105:      Singlet-EU    18.3451 eV   67.58 nm  f=0.0000  <S**2>=0.000
       8 -> 35         0.49908
       9 -> 34        -0.49905

 Excited State 106:      Singlet-EU    18.3465 eV   67.58 nm  f=0.0000  <S**2>=0.000
       3 -> 10         0.23419
       7 -> 32         0.20471
       8 -> 34         0.44417
       9 -> 35         0.44433

 Excited State 107:      Singlet-EU    18.3498 eV   67.57 nm  f=0.0000  <S**2>=0.000
       8 -> 35         0.49563
       9 -> 34         0.49566

 Excited State 108:      Singlet-EU    18.3498 eV   67.57 nm  f=0.0000  <S**2>=0.000
       8 -> 34         0.49573
       9 -> 35        -0.49556

 Excited State 109:      Singlet-A2U   18.3750 eV   67.47 nm  f=0.1444  <S**2>=0.000
       4 -> 16         0.69530
       7 -> 29        -0.10951

 Excited State 110:      Singlet-EU    18.3818 eV   67.45 nm  f=0.0101  <S**2>=0.000
       4 -> 18        -0.12905
       6 -> 25         0.53548
       7 -> 31         0.40113
       9 -> 33         0.15636

 Excited State 111:      Singlet-EU    18.3818 eV   67.45 nm  f=0.0101  <S**2>=0.000
       4 -> 17        -0.12905
       5 -> 25         0.53548
       7 -> 30         0.40113
       8 -> 33         0.15636

 Excited State 112:      Singlet-A1G   18.5490 eV   66.84 nm  f=0.0000  <S**2>=0.000
       3 -> 10        -0.17857
       7 -> 32         0.66582
       8 -> 34        -0.10475
       9 -> 35        -0.10478

 Excited State 113:      Singlet-EU    18.6593 eV   66.45 nm  f=0.1719  <S**2>=0.000
       5 -> 28         0.14731
       6 -> 25        -0.41189
       6 -> 27         0.14731
       7 -> 31         0.46415
       9 -> 33         0.18122

 Excited State 114:      Singlet-EU    18.6593 eV   66.45 nm  f=0.1719  <S**2>=0.000
       5 -> 25        -0.41189
       5 -> 27        -0.14731
       6 -> 28         0.14731
       7 -> 30         0.46415
       8 -> 33         0.18122

 Excited State 115:      Singlet-EG    18.7453 eV   66.14 nm  f=0.0000  <S**2>=0.000
       5 -> 26         0.68464
       8 -> 36         0.13966

 Excited State 116:      Singlet-EG    18.7453 eV   66.14 nm  f=0.0000  <S**2>=0.000
       6 -> 26         0.68464
       9 -> 36         0.13966

 Excited State 117:      Singlet-A1G   18.7963 eV   65.96 nm  f=0.0000  <S**2>=0.000
       3 -> 10         0.58618
       4 -> 19        -0.20887
       5 -> 30        -0.10418
       6 -> 31        -0.10418
       8 -> 34        -0.14925
       9 -> 35        -0.14929

 Excited State 118:      Singlet-EU    18.8950 eV   65.62 nm  f=0.0605  <S**2>=0.000
       4 -> 17         0.68752

 Excited State 119:      Singlet-EU    18.8950 eV   65.62 nm  f=0.0605  <S**2>=0.000
       4 -> 18         0.68752

 Excited State 120:      Singlet-EG    18.9006 eV   65.60 nm  f=0.0000  <S**2>=0.000
       6 -> 26        -0.14846
       9 -> 36         0.68773

 Excited State 121:      Singlet-EG    18.9006 eV   65.60 nm  f=0.0000  <S**2>=0.000
       5 -> 26        -0.14846
       8 -> 36         0.68773

 The electronic state is 1-A1G.
 Alpha  occ. eigenvalues --   -9.77343  -9.77329  -0.67348  -0.54367  -0.38959
 Alpha  occ. eigenvalues --   -0.38959  -0.33157  -0.29825  -0.29825
 Alpha virt. eigenvalues --    0.00858   0.04153   0.07848   0.07848   0.09502
 Alpha virt. eigenvalues --    0.09502   0.13019   0.14695   0.14695   0.16076
 Alpha virt. eigenvalues --    0.16497   0.16497   0.22216   0.22216   0.26490

 Mulliken charges:
               1
     1  C    0.058168
     2  C    0.058168
     3  H   -0.019389
     4  H   -0.019389
     5  H   -0.019389
     6  H   -0.019389
     7  H   -0.019389
     8  H   -0.019389
 Sum of Mulliken charges =   0.00000

 Dipole moment (field-independent basis, Debye):
    X=              0.0000    Y=             -0.0000    Z=              0.0000  Tot=              0.0000
 Quadrupole moment (field-independent basis, Debye-Ang):
   XX=            -15.0896   YY=            -15.0896   ZZ=            -15.8127
   XY=              0.0000   XZ=              0.0000   YZ=             -0.0000

 Normal termination of Gaussian 16 at Mon Mar 21 19:58:05 2022.
