 Gaussian 16, Revision C.01,
 Gaussian 16:  EM64L-G16RevC.01  3-Jul-2019

 ---------------------------------------------------------------------
 #P TD(Nstates=10000) svwn5/Gen SCF(maxcycles=100) Int(Grid=ultrafine)
 ---------------------------------------------------------------------

 ---------------------
 xGDB7_00001_tier4.com
 ---------------------
 Symbolic Z-matrix:
 Charge =  0 Multiplicity = 1

                         Standard orientation:
 ---------------------------------------------------------------------
 Center     Atomic      Atomic             Coordinates (Angstroms)
 Number     Number       Type             X           Y           Z
 ---------------------------------------------------------------------
      1          6           0       -1.122844   -0.452320    0.000000
      2          6           0        0.000000    0.553997    0.000000
      3          9           0        1.225284   -0.098236    0.000000
      4          1           0       -2.083314    0.066805    0.000000
      5          1           0       -1.072796   -1.085651    0.886148
      6          1           0       -1.072796   -1.085651   -0.886148
      7          1           0       -0.030794    1.189278    0.888716
      8          1           0       -0.030794    1.189278   -0.888716
 ---------------------------------------------------------------------

 SCF Done:  E(RS-VWN5) =  -177.544541303     A.U. after   12 cycles

 Excitation energies and oscillator strengths:

 Excited State   1:      Singlet-A"     7.9485 eV  155.98 nm  f=0.0016  <S**2>=0.000
      13 -> 14         0.70668
 This state for optimization and/or second-order correction.
 Total Energy, E(TD-HF/TD-DFT) =  -177.252438222
 Copying the excited state density for this state as the 1-particle RhoCI density.

 Excited State   2:      Singlet-A'     8.2966 eV  149.44 nm  f=0.0157  <S**2>=0.000
      12 -> 14         0.70482

 Excited State   3:      Singlet-A"     8.7761 eV  141.27 nm  f=0.0228  <S**2>=0.000
      13 -> 15         0.69569
      13 -> 16        -0.11931

 Excited State   4:      Singlet-A'     9.0650 eV  136.77 nm  f=0.0386  <S**2>=0.000
      12 -> 15         0.68933
      12 -> 16        -0.14532

 Excited State   5:      Singlet-A"     9.2593 eV  133.90 nm  f=0.0226  <S**2>=0.000
      13 -> 15         0.11620
      13 -> 16         0.69250

 Excited State   6:      Singlet-A'     9.5046 eV  130.45 nm  f=0.0080  <S**2>=0.000
      12 -> 15         0.10755
      12 -> 16         0.43096
      13 -> 17         0.54406

 Excited State   7:      Singlet-A'     9.5719 eV  129.53 nm  f=0.1204  <S**2>=0.000
      12 -> 16         0.53502
      13 -> 17        -0.44171

 Excited State   8:      Singlet-A"     9.7458 eV  127.22 nm  f=0.0060  <S**2>=0.000
      11 -> 14         0.36256
      12 -> 17         0.60458

 Excited State   9:      Singlet-A"     9.7568 eV  127.07 nm  f=0.0381  <S**2>=0.000
      11 -> 14         0.60497
      12 -> 17        -0.36117

 Excited State  10:      Singlet-A'     9.8451 eV  125.94 nm  f=0.0584  <S**2>=0.000
      10 -> 14         0.70261

 Excited State  11:      Singlet-A"     9.9426 eV  124.70 nm  f=0.0011  <S**2>=0.000
      13 -> 18         0.70258

 Excited State  12:      Singlet-A'    10.2673 eV  120.76 nm  f=0.0304  <S**2>=0.000
      12 -> 18         0.69498

 Excited State  13:      Singlet-A"    10.5553 eV  117.46 nm  f=0.0291  <S**2>=0.000
      11 -> 15         0.66161
      13 -> 20         0.23485

 Excited State  14:      Singlet-A'    10.6341 eV  116.59 nm  f=0.0109  <S**2>=0.000
      10 -> 15        -0.25438
      13 -> 19         0.64570

 Excited State  15:      Singlet-A"    10.6383 eV  116.54 nm  f=0.0509  <S**2>=0.000
      11 -> 15        -0.23068
      13 -> 20         0.66070

 Excited State  16:      Singlet-A'    10.6817 eV  116.07 nm  f=0.0954  <S**2>=0.000
      10 -> 15         0.62354
      10 -> 16        -0.20628
      13 -> 19         0.22786

 Excited State  17:      Singlet-A"    10.7639 eV  115.19 nm  f=0.0007  <S**2>=0.000
      12 -> 19         0.70340

 Excited State  18:      Singlet-A'    10.8709 eV  114.05 nm  f=0.0129  <S**2>=0.000
      12 -> 20         0.70258

 Excited State  19:      Singlet-A"    10.9734 eV  112.99 nm  f=0.0013  <S**2>=0.000
      11 -> 16         0.65777
      13 -> 21        -0.24546

 Excited State  20:      Singlet-A"    11.0182 eV  112.53 nm  f=0.0002  <S**2>=0.000
      11 -> 16         0.24064
      13 -> 21         0.65961

 Excited State  21:      Singlet-A'    11.1059 eV  111.64 nm  f=0.0606  <S**2>=0.000
       9 -> 14         0.16684
      10 -> 15         0.15236
      10 -> 16         0.64276
      13 -> 19         0.10764

 Excited State  22:      Singlet-A"    11.2621 eV  110.09 nm  f=0.0298  <S**2>=0.000
      10 -> 17         0.70255

 Excited State  23:      Singlet-A'    11.2720 eV  109.99 nm  f=0.0297  <S**2>=0.000
       9 -> 14        -0.14021
      11 -> 17         0.64897
      12 -> 21         0.20304

 Excited State  24:      Singlet-A'    11.3397 eV  109.34 nm  f=0.0092  <S**2>=0.000
       9 -> 14         0.45810
      11 -> 17         0.22073
      12 -> 21        -0.43748
      13 -> 22         0.16455

 Excited State  25:      Singlet-A'    11.4077 eV  108.68 nm  f=0.0230  <S**2>=0.000
       9 -> 14         0.46677
      10 -> 16        -0.11548
      12 -> 21         0.49958

 Excited State  26:      Singlet-A'    11.5252 eV  107.58 nm  f=0.0057  <S**2>=0.000
       9 -> 14        -0.10552
      13 -> 22         0.67307

 Excited State  27:      Singlet-A"    11.7403 eV  105.61 nm  f=0.0000  <S**2>=0.000
      11 -> 18         0.21465
      12 -> 22         0.67244

 Excited State  28:      Singlet-A"    11.7947 eV  105.12 nm  f=0.0120  <S**2>=0.000
      10 -> 19         0.11973
      11 -> 18         0.65499
      12 -> 22        -0.21520

 Excited State  29:      Singlet-A"    11.9737 eV  103.55 nm  f=0.0001  <S**2>=0.000
      13 -> 23         0.70317

 Excited State  30:      Singlet-A'    12.0612 eV  102.80 nm  f=0.0909  <S**2>=0.000
       9 -> 15        -0.24365
       9 -> 16         0.12965
      10 -> 18         0.57870
      10 -> 21        -0.10385
      12 -> 23         0.20814

 Excited State  31:      Singlet-A'    12.1444 eV  102.09 nm  f=0.0655  <S**2>=0.000
       9 -> 15         0.59130
       9 -> 16        -0.10192
      10 -> 18         0.19761
      11 -> 19         0.14446
      12 -> 23         0.11606
      13 -> 24        -0.21641

 Excited State  32:      Singlet-A'    12.2354 eV  101.33 nm  f=0.0199  <S**2>=0.000
      10 -> 18        -0.16859
      11 -> 19        -0.28865
      12 -> 23         0.48948
      13 -> 24        -0.35591

 Excited State  33:      Singlet-A"    12.3293 eV  100.56 nm  f=0.0002  <S**2>=0.000
      10 -> 19        -0.35363
      11 -> 20         0.51570
      12 -> 24         0.11925
      13 -> 25        -0.29325

 Excited State  34:      Singlet-A"    12.3501 eV  100.39 nm  f=0.0020  <S**2>=0.000
       8 -> 14        -0.30828
      11 -> 20         0.33078
      12 -> 24        -0.32568
      13 -> 25         0.43084

 Excited State  35:      Singlet-A'    12.3765 eV  100.18 nm  f=0.0451  <S**2>=0.000
      10 -> 18        -0.11013
      10 -> 20         0.30898
      11 -> 19         0.33957
      12 -> 23         0.38980
      12 -> 25         0.10818
      13 -> 24         0.27393

 Excited State  36:      Singlet-A'    12.4224 eV   99.81 nm  f=0.1184  <S**2>=0.000
       9 -> 16        -0.22851
      10 -> 20        -0.40087
      11 -> 19        -0.22115
      12 -> 23         0.17208
      13 -> 24         0.42901

 Excited State  37:      Singlet-A"    12.4232 eV   99.80 nm  f=0.0542  <S**2>=0.000
       8 -> 14        -0.26041
      10 -> 19         0.35480
      11 -> 20         0.21577
      12 -> 24         0.49580

 Excited State  38:      Singlet-A"    12.4331 eV   99.72 nm  f=0.0188  <S**2>=0.000
       8 -> 14         0.51927
      10 -> 19         0.35144
      11 -> 20         0.26217
      12 -> 24        -0.12166
      13 -> 25         0.12472

 Excited State  39:      Singlet-A'    12.5787 eV   98.57 nm  f=0.0684  <S**2>=0.000
       9 -> 16         0.47580
      10 -> 20        -0.39210
      11 -> 19         0.25918

 Excited State  40:      Singlet-A'    12.5994 eV   98.41 nm  f=0.0516  <S**2>=0.000
       7 -> 14         0.60964
       9 -> 16        -0.19338
      10 -> 21        -0.14001
      12 -> 25         0.20652

 Excited State  41:      Singlet-A"    12.6080 eV   98.34 nm  f=0.1220  <S**2>=0.000
       8 -> 14         0.20849
       9 -> 17        -0.23470
      10 -> 19        -0.27610
      11 -> 21         0.21298
      12 -> 24         0.30313
      13 -> 25         0.39004

 Excited State  42:      Singlet-A'    12.7252 eV   97.43 nm  f=0.0462  <S**2>=0.000
       7 -> 14        -0.29008
       9 -> 15        -0.19064
       9 -> 16        -0.32566
      10 -> 20        -0.19523
      11 -> 19         0.24211
      12 -> 25         0.32993
      13 -> 24        -0.14661

 Excited State  43:      Singlet-A"    12.7967 eV   96.89 nm  f=0.0055  <S**2>=0.000
       9 -> 17         0.55269
      11 -> 21         0.43304

 Excited State  44:      Singlet-A'    12.8910 eV   96.18 nm  f=0.0051  <S**2>=0.000
      10 -> 21         0.52128
      11 -> 19        -0.15213
      11 -> 22        -0.12543
      12 -> 25         0.37395

 Excited State  45:      Singlet-A"    12.9039 eV   96.08 nm  f=0.0838  <S**2>=0.000
       9 -> 17        -0.36495
      10 -> 19         0.12958
      11 -> 21         0.50640
      12 -> 24        -0.11933
      13 -> 25        -0.17837

 Excited State  46:      Singlet-A'    12.9848 eV   95.48 nm  f=0.0498  <S**2>=0.000
       9 -> 15        -0.10532
       9 -> 16        -0.14864
       9 -> 18         0.17458
      10 -> 20        -0.13340
      10 -> 21         0.37122
      10 -> 23         0.14888
      11 -> 19         0.20344
      11 -> 22        -0.11134
      12 -> 25        -0.36737
      13 -> 24        -0.10677
      13 -> 27         0.11484

 Excited State  47:      Singlet-A"    13.2165 eV   93.81 nm  f=0.0077  <S**2>=0.000
       8 -> 15         0.68114
       8 -> 16        -0.14363

 Excited State  48:      Singlet-A'    13.3060 eV   93.18 nm  f=0.0216  <S**2>=0.000
       9 -> 18         0.54891
      11 -> 22         0.41213

 Excited State  49:      Singlet-A"    13.3160 eV   93.11 nm  f=0.0193  <S**2>=0.000
      10 -> 22         0.67497
      13 -> 26        -0.13459

 Excited State  50:      Singlet-A"    13.3436 eV   92.92 nm  f=0.0168  <S**2>=0.000
      10 -> 22         0.11768
      13 -> 26         0.68662

 Excited State  51:      Singlet-A'    13.4650 eV   92.08 nm  f=0.0609  <S**2>=0.000
       7 -> 15         0.50064
       7 -> 16        -0.26575
       9 -> 18        -0.26980
      11 -> 22         0.24422
      12 -> 26         0.11633

 Excited State  52:      Singlet-A'    13.5116 eV   91.76 nm  f=0.0041  <S**2>=0.000
       7 -> 15        -0.33696
       7 -> 16         0.10197
       8 -> 17        -0.20484
       9 -> 18        -0.21159
      11 -> 22         0.35418
      12 -> 26         0.16107
      13 -> 27         0.32143

 Excited State  53:      Singlet-A'    13.5950 eV   91.20 nm  f=0.0330  <S**2>=0.000
       7 -> 15         0.11678
       8 -> 17         0.12067
      10 -> 23        -0.12149
      11 -> 22        -0.15296
      12 -> 26        -0.27828
      13 -> 27         0.57458

 Excited State  54:      Singlet-A'    13.6767 eV   90.65 nm  f=0.0047  <S**2>=0.000
       7 -> 16         0.16298
       8 -> 17         0.22465
      10 -> 23        -0.11363
      11 -> 22        -0.14001
      12 -> 26         0.58563
      13 -> 27         0.12471

 Excited State  55:      Singlet-A"    13.7507 eV   90.17 nm  f=0.0084  <S**2>=0.000
       8 -> 16        -0.43979
      11 -> 23         0.52086
      13 -> 28         0.11210

 Excited State  56:      Singlet-A"    13.7676 eV   90.05 nm  f=0.0002  <S**2>=0.000
       8 -> 16         0.48945
      11 -> 23         0.46230
      12 -> 27        -0.15483

 Excited State  57:      Singlet-A"    13.8266 eV   89.67 nm  f=0.0001  <S**2>=0.000
       8 -> 16         0.15250
       9 -> 19         0.38971
      12 -> 27         0.55928

 Excited State  58:      Singlet-A"    13.8500 eV   89.52 nm  f=0.0000  <S**2>=0.000
       9 -> 19         0.58421
      12 -> 27        -0.38522

 Excited State  59:      Singlet-A'    13.9218 eV   89.06 nm  f=0.0134  <S**2>=0.000
       7 -> 16         0.11865
       9 -> 20         0.64238
      10 -> 23        -0.13356
      11 -> 24        -0.20280

 Excited State  60:      Singlet-A'    13.9345 eV   88.98 nm  f=0.0222  <S**2>=0.000
       7 -> 15         0.16682
       7 -> 16         0.39416
      10 -> 23         0.50437
      11 -> 24        -0.10839

 Excited State  61:      Singlet-A"    14.0197 eV   88.44 nm  f=0.0003  <S**2>=0.000
       7 -> 17         0.10703
      10 -> 24         0.59521
      11 -> 25        -0.31718
      13 -> 28         0.10969

 Excited State  62:      Singlet-A"    14.0288 eV   88.38 nm  f=0.0093  <S**2>=0.000
       7 -> 17         0.58639
      10 -> 24        -0.11368
      13 -> 28         0.35763

 Excited State  63:      Singlet-A"    14.1192 eV   87.81 nm  f=0.0137  <S**2>=0.000
       7 -> 17        -0.36514
      13 -> 28         0.57965

 Excited State  64:      Singlet-A'    14.1426 eV   87.67 nm  f=0.1467  <S**2>=0.000
       7 -> 16         0.23785
       9 -> 21         0.21316
      10 -> 23        -0.10063
      10 -> 25        -0.18102
      11 -> 24         0.53113

 Excited State  65:      Singlet-A'    14.1612 eV   87.55 nm  f=0.0564  <S**2>=0.000
       7 -> 15        -0.11412
       7 -> 18         0.21091
       8 -> 17         0.41799
       9 -> 21        -0.20244
      10 -> 23         0.25855
      10 -> 25        -0.31744

 Excited State  66:      Singlet-A'    14.2317 eV   87.12 nm  f=0.0927  <S**2>=0.000
       7 -> 16         0.23819
       8 -> 17         0.27294
       9 -> 20        -0.10711
       9 -> 21        -0.26927
      10 -> 23        -0.12114
      10 -> 25         0.40791
      11 -> 22         0.12224
      12 -> 28         0.13039

 Excited State  67:      Singlet-A"    14.2769 eV   86.84 nm  f=0.0083  <S**2>=0.000
       8 -> 18         0.46109
      10 -> 24         0.19175
      11 -> 25         0.47896

 Excited State  68:      Singlet-A'    14.2889 eV   86.77 nm  f=0.0733  <S**2>=0.000
       7 -> 16        -0.18884
       7 -> 18         0.17527
       9 -> 20         0.12065
       9 -> 21         0.17637
      10 -> 23         0.19052
      10 -> 25         0.43140
      11 -> 24         0.22985
      12 -> 28        -0.22250
      12 -> 29         0.10791

 Excited State  69:      Singlet-A'    14.3795 eV   86.22 nm  f=0.0070  <S**2>=0.000
       9 -> 21         0.24717
      12 -> 28         0.62832

 Excited State  70:      Singlet-A"    14.4937 eV   85.54 nm  f=0.1322  <S**2>=0.000
       7 -> 19        -0.10265
       8 -> 18         0.51132
      10 -> 24        -0.20198
      11 -> 25        -0.34338
      13 -> 29        -0.11196

 Excited State  71:      Singlet-A'    14.6292 eV   84.75 nm  f=0.0330  <S**2>=0.000
       7 -> 16         0.11366
       7 -> 18         0.49208
       7 -> 20        -0.11119
       9 -> 20        -0.10853
       9 -> 21         0.25931
      10 -> 26         0.10991
      11 -> 24        -0.16535
      12 -> 28        -0.11864
      12 -> 29        -0.23202

 Excited State  72:      Singlet-A"    14.7537 eV   84.04 nm  f=0.0510  <S**2>=0.000
       9 -> 22        -0.17929
      13 -> 29         0.66637

 Excited State  73:      Singlet-A"    14.8140 eV   83.69 nm  f=0.0303  <S**2>=0.000
       9 -> 22         0.68181
      13 -> 29         0.17150

 Excited State  74:      Singlet-A'    14.8712 eV   83.37 nm  f=0.0224  <S**2>=0.000
       7 -> 18        -0.33932
       8 -> 17         0.26489
       8 -> 19        -0.12815
       9 -> 21         0.37158
      11 -> 22         0.10963
      11 -> 24        -0.12479
      12 -> 28        -0.11417

 Excited State  75:      Singlet-A'    15.0101 eV   82.60 nm  f=0.0354  <S**2>=0.000
       8 -> 19         0.59083
      10 -> 26        -0.26000
      12 -> 29        -0.21313

 Excited State  76:      Singlet-A"    15.0553 eV   82.35 nm  f=0.0015  <S**2>=0.000
       7 -> 19         0.33618
       8 -> 20         0.59982

 Excited State  77:      Singlet-A"    15.1178 eV   82.01 nm  f=0.0207  <S**2>=0.000
       7 -> 19         0.51222
       8 -> 20        -0.23479
      11 -> 26        -0.39075
      13 -> 31         0.12173

 Excited State  78:      Singlet-A'    15.1770 eV   81.69 nm  f=0.0462  <S**2>=0.000
       7 -> 20        -0.38778
       8 -> 19         0.20007
       9 -> 23         0.16773
      11 -> 27        -0.12424
      12 -> 29         0.46238

 Excited State  79:      Singlet-A"    15.1858 eV   81.65 nm  f=0.0711  <S**2>=0.000
       7 -> 19         0.28187
       8 -> 20        -0.13509
       8 -> 21         0.12768
       9 -> 24         0.13654
      10 -> 27         0.12455
      11 -> 26         0.56154
      13 -> 31         0.14091

 Excited State  80:      Singlet-A'    15.2179 eV   81.47 nm  f=0.0238  <S**2>=0.000
       7 -> 20         0.22373
      10 -> 26         0.20278
      11 -> 27        -0.10193
      12 -> 29         0.14940
      13 -> 30         0.59675

 Excited State  81:      Singlet-A'    15.2699 eV   81.20 nm  f=0.0905  <S**2>=0.000
       7 -> 20         0.10545
       8 -> 19         0.15943
       9 -> 23        -0.35149
      10 -> 26         0.45433
      11 -> 27        -0.24225
      13 -> 30        -0.23630

 Excited State  82:      Singlet-A'    15.3600 eV   80.72 nm  f=0.0025  <S**2>=0.000
       6 -> 14         0.10186
       7 -> 20        -0.28659
       7 -> 21         0.13700
       9 -> 23        -0.10289
       9 -> 25        -0.10143
      10 -> 26         0.24920
      10 -> 28         0.11841
      11 -> 27         0.46478
      12 -> 29        -0.12380
      13 -> 30         0.12234

 Excited State  83:      Singlet-A"    15.3935 eV   80.54 nm  f=0.0168  <S**2>=0.000
       8 -> 21        -0.10990
       9 -> 24        -0.12502
      10 -> 27         0.67500

 Excited State  84:      Singlet-A'    15.4199 eV   80.41 nm  f=0.1207  <S**2>=0.000
       6 -> 14        -0.33903
       7 -> 20         0.10741
       9 -> 23         0.45754
      10 -> 26         0.23873
      11 -> 27         0.10589
      12 -> 31        -0.19674

 Excited State  85:      Singlet-A"    15.4239 eV   80.38 nm  f=0.0068  <S**2>=0.000
       8 -> 21        -0.32437
      12 -> 30         0.20067
      13 -> 31         0.56877

 Excited State  86:      Singlet-A'    15.4571 eV   80.21 nm  f=0.2360  <S**2>=0.000
       6 -> 14         0.17935
       7 -> 20         0.32380
       9 -> 25        -0.12925
      10 -> 28        -0.14626
      11 -> 27         0.38189
      12 -> 29         0.25844
      12 -> 31        -0.14097
      13 -> 30        -0.13900

 Excited State  87:      Singlet-A"    15.4618 eV   80.19 nm  f=0.0024  <S**2>=0.000
       8 -> 21         0.43030
       9 -> 24        -0.35607
      12 -> 30         0.40771
      13 -> 31         0.13761

 Excited State  88:      Singlet-A"    15.4951 eV   80.02 nm  f=0.0024  <S**2>=0.000
       8 -> 21        -0.12490
       9 -> 24         0.34612
      12 -> 30         0.52534
      13 -> 31        -0.25992

 Excited State  89:      Singlet-A'    15.6139 eV   79.41 nm  f=0.0004  <S**2>=0.000
       6 -> 14         0.44682
       7 -> 21         0.23988
       8 -> 22        -0.10411
       9 -> 23         0.15887
       9 -> 25         0.42355

 Excited State  90:      Singlet-A'    15.6532 eV   79.21 nm  f=0.0014  <S**2>=0.000
       6 -> 14        -0.12777
       7 -> 21         0.59571
       8 -> 22         0.13908
      10 -> 28        -0.15159
      12 -> 31         0.20239

 Excited State  91:      Singlet-A"    15.6882 eV   79.03 nm  f=0.2579  <S**2>=0.000
       7 -> 19        -0.11671
       8 -> 20         0.16150
       8 -> 21         0.37790
       9 -> 24         0.42711
      11 -> 26        -0.10926
      13 -> 31         0.15442

 Excited State  92:      Singlet-A'    15.7003 eV   78.97 nm  f=0.1387  <S**2>=0.000
       7 -> 21        -0.19784
       9 -> 23         0.10092
       9 -> 25         0.14823
      10 -> 26         0.10552
      10 -> 28        -0.15497
      12 -> 31         0.57680

 Excited State  93:      Singlet-A"    15.8282 eV   78.33 nm  f=0.0155  <S**2>=0.000
      11 -> 28         0.69672

 Excited State  94:      Singlet-A'    15.8698 eV   78.13 nm  f=0.0887  <S**2>=0.000
       6 -> 15         0.13504
       8 -> 22         0.27147
       9 -> 25         0.19969
      10 -> 28         0.54342

 Excited State  95:      Singlet-A'    15.9660 eV   77.66 nm  f=0.1460  <S**2>=0.000
       7 -> 23        -0.11458
       8 -> 22         0.47498
       9 -> 25         0.28937
      10 -> 28        -0.29464
      12 -> 31        -0.10082
      13 -> 34        -0.11926

 Excited State  96:      Singlet-A"    16.0853 eV   77.08 nm  f=0.0016  <S**2>=0.000
       7 -> 22         0.70149

 Excited State  97:      Singlet-A'    16.1206 eV   76.91 nm  f=0.0554  <S**2>=0.000
       6 -> 14         0.26001
       6 -> 15        -0.15052
       8 -> 22         0.38187
       9 -> 23         0.18962
       9 -> 25        -0.30040
      12 -> 29        -0.10623
      12 -> 33         0.10318
      12 -> 39         0.10763

 Excited State  98:      Singlet-A"    16.2355 eV   76.37 nm  f=0.0084  <S**2>=0.000
      13 -> 32         0.68217

 Excited State  99:      Singlet-A"    16.3081 eV   76.03 nm  f=0.0024  <S**2>=0.000
      13 -> 33         0.69627

 Excited State 100:      Singlet-A'    16.3923 eV   75.64 nm  f=0.0183  <S**2>=0.000
       6 -> 15         0.54448
      12 -> 32        -0.39194
      13 -> 34         0.10620

 Excited State 101:      Singlet-A"    16.4192 eV   75.51 nm  f=0.0040  <S**2>=0.000
       8 -> 23         0.69408

 Excited State 102:      Singlet-A'    16.5607 eV   74.87 nm  f=0.0016  <S**2>=0.000
       6 -> 15         0.13822
       7 -> 23         0.19381
       8 -> 24         0.46501
      10 -> 29        -0.16805
      12 -> 32         0.16417
      12 -> 33         0.19793
      13 -> 34        -0.32878

 Excited State 103:      Singlet-A"    16.5633 eV   74.85 nm  f=0.0006  <S**2>=0.000
      11 -> 29         0.67582
      13 -> 35         0.11562

 Excited State 104:      Singlet-A'    16.6044 eV   74.67 nm  f=0.0328  <S**2>=0.000

 The electronic state is 1-A'.
 Alpha  occ. eigenvalues --  -24.08651  -9.85971  -9.78806  -1.06776  -0.68765
 Alpha  occ. eigenvalues --   -0.56319  -0.45576  -0.44967  -0.40939  -0.35407
 Alpha  occ. eigenvalues --   -0.35276  -0.29707  -0.28701
 Alpha virt. eigenvalues --    0.00449   0.03256   0.04784   0.05921   0.07729
 Alpha virt. eigenvalues --    0.09804   0.10143   0.11787   0.13516   0.15234
 Alpha virt. eigenvalues --    0.15825   0.16618   0.20359   0.21183   0.22779

 Mulliken charges:
               1
     1  C    0.175263
     2  C    0.381099
     3  F   -0.402689
     4  H    0.017736
     5  H    0.015429
     6  H    0.015429
     7  H   -0.101133
     8  H   -0.101133
 Sum of Mulliken charges =  -0.00000

 Dipole moment (field-independent basis, Debye):
    X=             -1.8183    Y=              0.6913    Z=              0.0000  Tot=              1.9452
 Quadrupole moment (field-independent basis, Debye-Ang):
   XX=            -21.0918   YY=            -18.5537   ZZ=            -18.5544
   XY=              0.3162   XZ=             -0.0000   YZ=             -0.0000

 Normal termination of Gaussian 16 at Mon Mar 21 19:58:04 2022.
