 Gaussian 16, Revision C.01,
 Gaussian 16:  EM64L-G16RevC.01  3-Jul-2019

 ---------------------------------------------------------------------
 #P TD(Nstates=10000) svwn5/Gen SCF(maxcycles=100) Int(Grid=ultrafine)
 ---------------------------------------------------------------------

 ---------------------
 xGDB7_00001_tier4.com
 ---------------------
 Symbolic Z-matrix:
 Charge =  0 Multiplicity = 1

                         Standard orientation:
 ---------------------------------------------------------------------
 Center     Atomic      Atomic             Coordinates (Angstroms)
 Number     Number       Type             X           Y           Z
 ---------------------------------------------------------------------
      1          7           0       -0.000002   -0.000000   -0.110463
      2          1           0       -0.147185    0.930214    0.257758
      3          1           0       -0.731998   -0.592574    0.257757
      4          1           0        0.879196   -0.337638    0.257728
 ---------------------------------------------------------------------

 SCF Done:  E(RS-VWN5) =  -56.0410295610     A.U. after   10 cycles

 Excitation energies and oscillator strengths:

 Excited State   1:      Singlet-A      6.5020 eV  190.68 nm  f=0.0830  <S**2>=0.000
       5 ->  6         0.70640
 This state for optimization and/or second-order correction.
 Total Energy, E(TD-HF/TD-DFT) =  -55.8020838858
 Copying the excited state density for this state as the 1-particle RhoCI density.

 Excited State   2:      Singlet-A      8.7146 eV  142.27 nm  f=0.0168  <S**2>=0.000
       5 ->  7         0.70239

 Excited State   3:      Singlet-A      8.7146 eV  142.27 nm  f=0.0168  <S**2>=0.000
       5 ->  8         0.70239

 Excited State   4:      Singlet-A     10.2226 eV  121.28 nm  f=0.0002  <S**2>=0.000
       5 ->  9         0.70555

 Excited State   5:      Singlet-A     10.2226 eV  121.28 nm  f=0.0002  <S**2>=0.000
       5 -> 10         0.70555

 Excited State   6:      Singlet-A     11.1492 eV  111.20 nm  f=0.0458  <S**2>=0.000
       5 -> 11         0.66922
       5 -> 14         0.16391

 Excited State   7:      Singlet-A     11.7980 eV  105.09 nm  f=0.0422  <S**2>=0.000
       4 ->  6         0.64706
       5 -> 13        -0.28161

 Excited State   8:      Singlet-A     11.7980 eV  105.09 nm  f=0.0422  <S**2>=0.000
       3 ->  6         0.64699
       5 -> 12        -0.28175

 Excited State   9:      Singlet-A     11.9657 eV  103.62 nm  f=0.2265  <S**2>=0.000
       3 ->  6         0.27505
       5 -> 12         0.63761

 Excited State  10:      Singlet-A     11.9657 eV  103.62 nm  f=0.2265  <S**2>=0.000
       4 ->  6         0.27491
       5 -> 13         0.63767

 Excited State  11:      Singlet-A     12.1657 eV  101.91 nm  f=0.1863  <S**2>=0.000
       3 ->  7         0.11122
       4 ->  8         0.11122
       5 -> 11        -0.12843
       5 -> 14         0.67133

 Excited State  12:      Singlet-A     13.8092 eV   89.78 nm  f=0.0000  <S**2>=0.000
       3 ->  7         0.17855
       3 ->  8        -0.46688
       4 ->  7         0.46712
       4 ->  8         0.17862

 Excited State  13:      Singlet-A     13.9678 eV   88.76 nm  f=0.0739  <S**2>=0.000
       3 ->  7         0.27965
       3 ->  8         0.40260
       4 ->  7         0.40245
       4 ->  8        -0.27971

 Excited State  14:      Singlet-A     13.9678 eV   88.76 nm  f=0.0739  <S**2>=0.000
       3 ->  7         0.40256
       3 ->  8        -0.27977
       4 ->  7        -0.27959
       4 ->  8        -0.40249

 Excited State  15:      Singlet-A     15.2762 eV   81.16 nm  f=0.0024  <S**2>=0.000
       3 ->  7         0.30924
       3 ->  8         0.11826
       3 -> 10         0.10088
       4 ->  7        -0.11826
       4 ->  8         0.30924
       4 ->  9         0.10091
       5 -> 11         0.12073
       5 -> 15         0.46416

 Excited State  16:      Singlet-A     15.4142 eV   80.44 nm  f=0.0000  <S**2>=0.000
       3 ->  9        -0.49361
       4 -> 10         0.49366
       5 -> 16        -0.10778

 Excited State  17:      Singlet-A     15.5411 eV   79.78 nm  f=0.0142  <S**2>=0.000
       3 -> 10         0.42376
       4 ->  9         0.42387
       5 -> 15        -0.33796

 Excited State  18:      Singlet-A     15.5854 eV   79.55 nm  f=0.0000  <S**2>=0.000
       5 -> 16         0.69880

 Excited State  19:      Singlet-A     15.6497 eV   79.22 nm  f=0.0512  <S**2>=0.000
       3 ->  7        -0.27668
       3 ->  8        -0.10581
       3 -> 10         0.23940
       4 ->  7         0.10580
       4 ->  8        -0.27666
       4 ->  9         0.23948
       5 -> 11        -0.10459
       5 -> 15         0.40940

 Excited State  20:      Singlet-A     15.7297 eV   78.82 nm  f=0.0215  <S**2>=0.000
       3 -> 10        -0.26113
       4 ->  9         0.26105
       4 -> 11         0.56753
       5 -> 17        -0.16806

 Excited State  21:      Singlet-A     15.7298 eV   78.82 nm  f=0.0215  <S**2>=0.000
       3 ->  9        -0.26111
       3 -> 11         0.56752
       4 -> 10        -0.26108
       5 -> 18         0.16809

 Excited State  22:      Singlet-A     15.9860 eV   77.56 nm  f=0.2514  <S**2>=0.000
       3 -> 10         0.32798
       4 ->  9        -0.32789
       4 -> 11         0.41271
       5 -> 17         0.29717

 Excited State  23:      Singlet-A     15.9860 eV   77.56 nm  f=0.2514  <S**2>=0.000
       3 ->  9         0.32795
       3 -> 11         0.41274
       4 -> 10         0.32791
       5 -> 18        -0.29715

 Excited State  24:      Singlet-A     16.4294 eV   75.46 nm  f=0.0823  <S**2>=0.000
       3 -> 10        -0.20663
       4 ->  9         0.20657
       4 -> 14         0.17171
       5 -> 17         0.58814

 Excited State  25:      Singlet-A     16.4295 eV   75.46 nm  f=0.0823  <S**2>=0.000
       3 ->  9         0.20661
       3 -> 14        -0.17166
       4 -> 10         0.20659
       5 -> 18         0.58815

 Excited State  26:      Singlet-A     17.0531 eV   72.70 nm  f=0.0043  <S**2>=0.000
       3 -> 12        -0.45956
       3 -> 13        -0.13789
       4 -> 12        -0.13816
       4 -> 13         0.45966
       4 -> 14         0.19173

 Excited State  27:      Singlet-A     17.0531 eV   72.70 nm  f=0.0043  <S**2>=0.000
       3 -> 12        -0.13792
       3 -> 13         0.45909
       3 -> 14        -0.19209
       4 -> 12         0.46000
       4 -> 13         0.13805

 Excited State  28:      Singlet-A     17.1049 eV   72.48 nm  f=0.0000  <S**2>=0.000
       3 -> 13         0.49817
       4 -> 12        -0.49735

 Excited State  29:      Singlet-A     17.3264 eV   71.56 nm  f=0.1037  <S**2>=0.000
       3 -> 12         0.11667
       4 -> 13        -0.11646
       4 -> 14         0.64372
       5 -> 17        -0.10303
       5 -> 20        -0.10918

 Excited State  30:      Singlet-A     17.3264 eV   71.56 nm  f=0.1037  <S**2>=0.000
       3 -> 13         0.11692
       3 -> 14         0.64363
       4 -> 12         0.11663
       5 -> 18         0.10302
       5 -> 19        -0.10918

 Excited State  31:      Singlet-A     17.4309 eV   71.13 nm  f=0.2856  <S**2>=0.000
       3 -> 12         0.48593
       4 -> 13         0.48587
       5 -> 21         0.10608

 Excited State  32:      Singlet-A     18.7130 eV   66.26 nm  f=0.0974  <S**2>=0.000
       5 -> 19        -0.10127
       5 -> 20         0.67942

 Excited State  33:      Singlet-A     18.7130 eV   66.26 nm  f=0.0974  <S**2>=0.000
       5 -> 19         0.67942
       5 -> 20         0.10127

 Excited State  34:      Singlet-A     20.7256 eV   59.82 nm  f=0.0173  <S**2>=0.000
       3 -> 16        -0.27913
       4 -> 15         0.63682

 Excited State  35:      Singlet-A     20.7257 eV   59.82 nm  f=0.0172  <S**2>=0.000
       3 -> 15         0.63651
       4 -> 16         0.27986

 Excited State  36:      Singlet-A     20.7711 eV   59.69 nm  f=0.0144  <S**2>=0.000
       3 -> 15        -0.26864
       4 -> 16         0.64731

 Excited State  37:      Singlet-A     20.7711 eV   59.69 nm  f=0.0143  <S**2>=0.000
       3 -> 16         0.64762
       4 -> 15         0.26793

 Excited State  38:      Singlet-A     20.9622 eV   59.15 nm  f=0.1657  <S**2>=0.000
       2 ->  6         0.31728
       3 -> 18        -0.20533
       4 -> 17         0.20571
       5 -> 21         0.54821

 Excited State  39:      Singlet-A     20.9754 eV   59.11 nm  f=0.0658  <S**2>=0.000
       3 -> 17         0.14563
       4 -> 18        -0.14561
       5 -> 22         0.66297

 Excited State  40:      Singlet-A     20.9755 eV   59.11 nm  f=0.0658  <S**2>=0.000
       3 -> 18        -0.14587
       4 -> 17        -0.14537
       5 -> 23         0.66297

 Excited State  41:      Singlet-A     21.3994 eV   57.94 nm  f=0.0000  <S**2>=0.000
       3 -> 17         0.48046
       3 -> 18        -0.13812
       4 -> 17         0.13813
       4 -> 18         0.48049

 Excited State  42:      Singlet-A     21.4327 eV   57.85 nm  f=0.0990  <S**2>=0.000
       2 ->  6         0.53145
       3 -> 18        -0.12645
       4 -> 17         0.12648
       5 -> 21        -0.38484

 Excited State  43:      Singlet-A     21.9613 eV   56.46 nm  f=0.1873  <S**2>=0.000
       3 -> 17         0.45673
       4 -> 18        -0.45669
       5 -> 22        -0.16351

 Excited State  44:      Singlet-A     21.9613 eV   56.46 nm  f=0.1873  <S**2>=0.000
       3 -> 18         0.45672
       4 -> 17         0.45670
       5 -> 23         0.16351

 Excited State  45:      Singlet-A     23.6047 eV   52.53 nm  f=0.0516  <S**2>=0.000
       2 ->  7         0.66536
       3 -> 20        -0.12399
       4 -> 19        -0.12404

 Excited State  46:      Singlet-A     23.6047 eV   52.53 nm  f=0.0516  <S**2>=0.000
       2 ->  8         0.66536
       3 -> 19        -0.12401
       4 -> 20         0.12403

 Excited State  47:      Singlet-A     23.7014 eV   52.31 nm  f=0.1329  <S**2>=0.000
       2 ->  6         0.27130
       2 -> 11         0.11520
       2 -> 15         0.10908
       3 -> 17         0.10503
       3 -> 18         0.36544
       3 -> 22         0.13441
       4 -> 17        -0.36543
       4 -> 18         0.10504
       4 -> 23         0.13440
       5 -> 21         0.12843
       5 -> 27         0.10082

 Excited State  48:      Singlet-A     23.8151 eV   52.06 nm  f=0.0000  <S**2>=0.000
       3 -> 20        -0.49812
       4 -> 19         0.49820

 Excited State  49:      Singlet-A     24.0709 eV   51.51 nm  f=0.0259  <S**2>=0.000
       2 ->  7         0.17936
       3 -> 19        -0.19091
       3 -> 20         0.41667
       4 -> 19         0.41657
       4 -> 20         0.19092

 Excited State  50:      Singlet-A     24.0709 eV   51.51 nm  f=0.0259  <S**2>=0.000
       2 ->  8        -0.17936
       3 -> 19        -0.41658
       3 -> 20        -0.19093
       4 -> 19        -0.19090
       4 -> 20         0.41665

 Excited State  51:      Singlet-A     24.3807 eV   50.85 nm  f=0.0763  <S**2>=0.000
       2 ->  6        -0.11502
       3 -> 19         0.47229
       4 -> 20         0.47222

 Excited State  52:      Singlet-A     25.0937 eV   49.41 nm  f=0.0030  <S**2>=0.000
       2 ->  9         0.70229

 Excited State  53:      Singlet-A     25.0937 eV   49.41 nm  f=0.0030  <S**2>=0.000
       2 -> 10         0.70229

 Excited State  54:      Singlet-A     25.4261 eV   48.76 nm  f=0.0144  <S**2>=0.000
       2 -> 11         0.67615
       3 -> 22        -0.10849
       4 -> 23        -0.10850

 Excited State  55:      Singlet-A     25.7104 eV   48.22 nm  f=0.0001  <S**2>=0.000
       3 -> 22        -0.15736
       4 -> 21         0.66766
       4 -> 23         0.15738

 Excited State  56:      Singlet-A     25.7105 eV   48.22 nm  f=0.0001  <S**2>=0.000
       3 -> 21         0.66767
       3 -> 23        -0.15734
       4 -> 22        -0.15738

 Excited State  57:      Singlet-A     26.0806 eV   47.54 nm  f=0.0000  <S**2>=0.000
       3 -> 23        -0.49977
       4 -> 22         0.49979

 Excited State  58:      Singlet-A     26.5989 eV   46.61 nm  f=0.0196  <S**2>=0.000
       2 -> 14         0.55548
       5 -> 24        -0.40823

 Excited State  59:      Singlet-A     26.6133 eV   46.59 nm  f=0.0125  <S**2>=0.000
       2 -> 12         0.69373

 Excited State  60:      Singlet-A     26.6133 eV   46.59 nm  f=0.0125  <S**2>=0.000
       2 -> 13         0.69373

 Excited State  61:      Singlet-A     26.7347 eV   46.38 nm  f=0.2488  <S**2>=0.000
       3 -> 22         0.39621
       4 -> 23         0.39622
       5 -> 24         0.35207

 Excited State  62:      Singlet-A     27.1413 eV   45.68 nm  f=0.3953  <S**2>=0.000
       2 -> 13        -0.12635
       3 -> 22         0.43129
       4 -> 21         0.19578
       4 -> 23        -0.43124

 Excited State  63:      Singlet-A     27.1414 eV   45.68 nm  f=0.3953  <S**2>=0.000
       2 -> 12        -0.12634
       3 -> 21         0.19577
       3 -> 23         0.43128
       4 -> 22         0.43125

 Excited State  64:      Singlet-A     27.4341 eV   45.19 nm  f=0.1022  <S**2>=0.000
       2 -> 11        -0.11029
       2 -> 14         0.40919
       3 -> 22        -0.22184
       4 -> 23        -0.22189
       5 -> 24         0.44643

 Excited State  65:      Singlet-A     30.2843 eV   40.94 nm  f=0.0000  <S**2>=0.000
       2 -> 16         0.70701

 Excited State  66:      Singlet-A     30.7185 eV   40.36 nm  f=0.0407  <S**2>=0.000
       2 -> 15         0.66757
       5 -> 27        -0.16187

 Excited State  67:      Singlet-A     30.9463 eV   40.06 nm  f=0.0026  <S**2>=0.000
       2 -> 17         0.21240
       4 -> 24         0.10199
       5 -> 25         0.66521

 Excited State  68:      Singlet-A     30.9463 eV   40.06 nm  f=0.0026  <S**2>=0.000
       2 -> 18         0.21241
       3 -> 24        -0.10199
       5 -> 26         0.66521

 Excited State  69:      Singlet-A     31.2838 eV   39.63 nm  f=0.0044  <S**2>=0.000
       2 -> 17         0.63923
       4 -> 24         0.16188
       5 -> 25        -0.23107

 Excited State  70:      Singlet-A     31.2838 eV   39.63 nm  f=0.0044  <S**2>=0.000
       2 -> 18         0.63923
       3 -> 24        -0.16188
       5 -> 26        -0.23108

 Excited State  71:      Singlet-A     32.8843 eV   37.70 nm  f=0.1135  <S**2>=0.000
       2 -> 17        -0.16672
       2 -> 20        -0.29797
       4 -> 24         0.60323

 Excited State  72:      Singlet-A     32.8844 eV   37.70 nm  f=0.1135  <S**2>=0.000
       2 -> 18         0.16671
       2 -> 19        -0.29800
       3 -> 24         0.60322

 Excited State  73:      Singlet-A     33.5530 eV   36.95 nm  f=0.0092  <S**2>=0.000
       2 -> 20         0.63623
       4 -> 24         0.26580

 Excited State  74:      Singlet-A     33.5530 eV   36.95 nm  f=0.0092  <S**2>=0.000
       2 -> 19         0.63622
       3 -> 24         0.26582

 Excited State  75:      Singlet-A     34.9577 eV   35.47 nm  f=0.0289  <S**2>=0.000
       2 -> 21        -0.24250
       3 -> 26        -0.23592
       4 -> 25         0.23592
       5 -> 27         0.55342

 Excited State  76:      Singlet-A     35.4614 eV   34.96 nm  f=0.0155  <S**2>=0.000
       2 -> 21         0.66015
       3 -> 26        -0.12372
       4 -> 25         0.12373
       5 -> 27         0.16506

 Excited State  77:      Singlet-A     35.8441 eV   34.59 nm  f=0.0161  <S**2>=0.000
       2 -> 22         0.70225

 Excited State  78:      Singlet-A     35.8441 eV   34.59 nm  f=0.0161  <S**2>=0.000
       2 -> 23         0.70225

 Excited State  79:      Singlet-A     36.1173 eV   34.33 nm  f=0.0000  <S**2>=0.000
       3 -> 25         0.48115
       3 -> 26        -0.13585
       4 -> 25         0.13586
       4 -> 26         0.48117

 Excited State  80:      Singlet-A     36.8558 eV   33.64 nm  f=0.0433  <S**2>=0.000
       3 -> 24         0.10014
       3 -> 25         0.47744
       4 -> 26        -0.47742
       5 -> 29        -0.11209

 Excited State  81:      Singlet-A     36.8558 eV   33.64 nm  f=0.0433  <S**2>=0.000
       3 -> 26         0.47743
       4 -> 24        -0.10014
       4 -> 25         0.47743
       5 -> 28         0.11210

 Excited State  82:      Singlet-A     38.5643 eV   32.15 nm  f=0.0062  <S**2>=0.000
       4 -> 27         0.70590

 Excited State  83:      Singlet-A     38.5644 eV   32.15 nm  f=0.0062  <S**2>=0.000
       3 -> 27         0.70590

 Excited State  84:      Singlet-A     39.0219 eV   31.77 nm  f=0.0115  <S**2>=0.000
       2 -> 24         0.34636
       3 -> 26         0.34020
       3 -> 29         0.10871
       4 -> 25        -0.34023
       4 -> 28         0.10870
       5 -> 27         0.27342

 Excited State  85:      Singlet-A     39.0354 eV   31.76 nm  f=0.0624  <S**2>=0.000
       5 -> 28         0.69276

 Excited State  86:      Singlet-A     39.0354 eV   31.76 nm  f=0.0624  <S**2>=0.000
       5 -> 29         0.69276

 Excited State  87:      Singlet-A     42.7742 eV   28.99 nm  f=0.0001  <S**2>=0.000
       2 -> 24         0.31283
       3 -> 29        -0.16246
       4 -> 28        -0.16247
       5 -> 30         0.57956

 Excited State  88:      Singlet-A     43.0778 eV   28.78 nm  f=0.0922  <S**2>=0.000
       2 -> 24         0.46584
       3 -> 26        -0.11513
       3 -> 29        -0.19270
       4 -> 25         0.11514
       4 -> 28        -0.19272
       5 -> 30        -0.39975

 Excited State  89:      Singlet-A     43.9912 eV   28.18 nm  f=0.0000  <S**2>=0.000
       3 -> 28        -0.49613
       4 -> 29         0.49613

 Excited State  90:      Singlet-A     44.5502 eV   27.83 nm  f=0.0279  <S**2>=0.000
       3 -> 28         0.39067
       3 -> 29        -0.30328
       4 -> 28         0.30327
       4 -> 29         0.39067

 Excited State  91:      Singlet-A     44.5502 eV   27.83 nm  f=0.0279  <S**2>=0.000
       3 -> 28         0.30327
       3 -> 29         0.39068
       4 -> 28        -0.39066
       4 -> 29         0.30328

 Excited State  92:      Singlet-A     46.1542 eV   26.86 nm  f=0.0553  <S**2>=0.000
       2 -> 25         0.70134

 Excited State  93:      Singlet-A     46.1542 eV   26.86 nm  f=0.0553  <S**2>=0.000
       2 -> 26         0.70134

 Excited State  94:      Singlet-A     47.5562 eV   26.07 nm  f=0.0082  <S**2>=0.000
       2 -> 24         0.22401
       2 -> 27         0.28388
       2 -> 30        -0.12141
       3 -> 26        -0.11464
       3 -> 29         0.37085
       4 -> 25         0.11464
       4 -> 28         0.37086
       5 -> 27        -0.15150

 Excited State  95:      Singlet-A     48.2167 eV   25.71 nm  f=0.0002  <S**2>=0.000
       4 -> 30         0.70245

 Excited State  96:      Singlet-A     48.2168 eV   25.71 nm  f=0.0002  <S**2>=0.000
       3 -> 30         0.70245

 Excited State  97:      Singlet-A     48.4934 eV   25.57 nm  f=0.1552  <S**2>=0.000
       2 -> 27         0.64559
       3 -> 29        -0.15543
       4 -> 28        -0.15543

 Excited State  98:      Singlet-A     51.0866 eV   24.27 nm  f=0.0000  <S**2>=0.000
       5 -> 31         0.70707

 Excited State  99:      Singlet-A     51.7750 eV   23.95 nm  f=0.0483  <S**2>=0.000
       5 -> 32         0.69437

 Excited State 100:      Singlet-A     51.7750 eV   23.95 nm  f=0.0483  <S**2>=0.000
       5 -> 33         0.69437

 Excited State 101:      Singlet-A     53.9835 eV   22.97 nm  f=0.0385  <S**2>=0.000
       2 -> 28         0.69225

 Excited State 102:      Singlet-A     53.9835 eV   22.97 nm  f=0.0385  <S**2>=0.000
       2 -> 29         0.69225

 Excited State 103:      Singlet-A     56.6910 eV   21.87 nm  f=0.0000  <S**2>=0.000
       3 -> 33        -0.49789
       4 -> 32         0.49801

 Excited State 104:      Singlet-A     56.7806 eV   21.84 nm  f=0.0051  <S**2>=0.000
       3 -> 32        -0.19572
       4 -> 33        -0.19566
       5 -> 34         0.63967

 Excited State 105:      Singlet-A     56.8679 eV   21.80 nm  f=0.0052  <S**2>=0.000
       3 -> 31         0.49981
       3 -> 32        -0.10348
       3 -> 33        -0.14393
       4 -> 31        -0.42074
       4 -> 32        -0.14406
       4 -> 33         0.10359

 Excited State 106:      Singlet-A     56.8679 eV   21.80 nm  f=0.0052  <S**2>=0.000
       3 -> 31         0.42074
       3 -> 32        -0.14391
       3 -> 33         0.10347
       4 -> 31         0.49981
       4 -> 32         0.10361
       4 -> 33         0.14409

 Excited State 107:      Singlet-A     57.2199 eV   21.67 nm  f=0.1031  <S**2>=0.000
       3 -> 32        -0.14165
       3 -> 33         0.43423
       4 -> 31        -0.24486
       4 -> 32         0.43403
       4 -> 33         0.14163
       5 -> 35         0.11166

 Excited State 108:      Singlet-A     57.2200 eV   21.67 nm  f=0.1031  <S**2>=0.000
       3 -> 31         0.24486
       3 -> 32         0.43414
       3 -> 33         0.14166
       4 -> 32         0.14162
       4 -> 33        -0.43412
       5 -> 36         0.11166

 Excited State 109:      Singlet-A     57.8188 eV   21.44 nm  f=0.2177  <S**2>=0.000
       2 -> 30        -0.31619
       3 -> 32         0.38984
       4 -> 33         0.38982
       5 -> 34         0.28270

 Excited State 110:      Singlet-A     59.0712 eV   20.99 nm  f=0.0412  <S**2>=0.000
       5 -> 35         0.69098

 Excited State 111:      Singlet-A     59.0713 eV   20.99 nm  f=0.0412  <S**2>=0.000
       5 -> 36         0.69097

 Excited State 112:      Singlet-A     59.3477 eV   20.89 nm  f=0.1515  <S**2>=0.000
       2 -> 30         0.60113
       3 -> 32         0.23139
       4 -> 33         0.23138

 Excited State 113:      Singlet-A     61.8162 eV   20.06 nm  f=0.0234  <S**2>=0.000
       4 -> 34         0.69292

 Excited State 114:      Singlet-A     61.8163 eV   20.06 nm  f=0.0234  <S**2>=0.000
       3 -> 34         0.69292

 Excited State 115:      Singlet-A     63.1572 eV   19.63 nm  f=0.0078  <S**2>=0.000
       3 -> 35        -0.16094
       4 -> 36         0.16093
       5 -> 37         0.66369

 Excited State 116:      Singlet-A     63.1572 eV   19.63 nm  f=0.0078  <S**2>=0.000
       3 -> 36         0.16093
       4 -> 35         0.16095
       5 -> 38         0.66368

 Excited State 117:      Singlet-A     64.4527 eV   19.24 nm  f=0.0000  <S**2>=0.000
       2 -> 31         0.15042
       3 -> 36        -0.48256
       4 -> 35         0.48331

 Excited State 118:      Singlet-A     64.5506 eV   19.21 nm  f=0.0671  <S**2>=0.000
       3 -> 35         0.43662
       3 -> 36         0.15576
       4 -> 35         0.15541
       4 -> 36        -0.43616
       5 -> 37         0.19186

 Excited State 119:      Singlet-A     64.5507 eV   19.21 nm  f=0.0671  <S**2>=0.000
       3 -> 35        -0.15588
       3 -> 36         0.43672
       4 -> 35         0.43606

 The electronic state is 1-A.
 Alpha  occ. eigenvalues --  -13.84340  -0.76342  -0.41782  -0.41782  -0.22607
 Alpha virt. eigenvalues --    0.00772   0.08935   0.08935   0.15213   0.15213
 Alpha virt. eigenvalues --    0.16252   0.21097   0.21097   0.21116   0.33961
 Alpha virt. eigenvalues --    0.35043   0.36798   0.36798   0.45942   0.45942

 Mulliken charges:
               1
     1  N    0.033840
     2  H   -0.011280
     3  H   -0.011281
     4  H   -0.011279
 Sum of Mulliken charges =   0.00000

 Dipole moment (field-independent basis, Debye):
    X=              0.0000    Y=             -0.0000    Z=              1.5263  Tot=              1.5263
 Quadrupole moment (field-independent basis, Debye-Ang):
   XX=             -6.4514   YY=             -6.4514   ZZ=             -9.4184
   XY=              0.0000   XZ=             -0.0001   YZ=              0.0000

 Normal termination of Gaussian 16 at Mon Mar 21 20:05:45 2022.
