 Gaussian 16, Revision C.01,
 Gaussian 16:  EM64L-G16RevC.01  3-Jul-2019

 ---------------------------------------------------------------------
 #P TD(Nstates=10000) svwn5/Gen SCF(maxcycles=100) Int(Grid=ultrafine)
 ---------------------------------------------------------------------

 ---------------------
 xGDB7_00001_tier4.com
 ---------------------
 Symbolic Z-matrix:
 Charge =  0 Multiplicity = 1

                         Standard orientation:
 ---------------------------------------------------------------------
 Center     Atomic      Atomic             Coordinates (Angstroms)
 Number     Number       Type             X           Y           Z
 ---------------------------------------------------------------------
      1          6           0        0.000000    0.000000   -1.173653
      2          6           0        0.000000    0.000000    0.280989
      3          7           0        0.000000    0.000000    1.427442
      4          1           0        0.000000    1.024088   -1.545371
      5          1           0       -0.886886   -0.512044   -1.545371
      6          1           0        0.886886   -0.512044   -1.545371
 ---------------------------------------------------------------------

 SCF Done:  E(RS-VWN5) =  -131.481191388     A.U. after   13 cycles

 Excitation energies and oscillator strengths:

 Excited state symmetry could not be determined.
 Excited State   1:      Singlet-?Sym    7.9480 eV  155.99 nm  f=0.0000  <S**2>=0.000
      10 -> 13        -0.50000
      11 -> 12         0.50000
 This state for optimization and/or second-order correction.
 Total Energy, E(TD-HF/TD-DFT) =  -131.189107100
 Copying the excited state density for this state as the 1-particle RhoCI density.

 Excited State   2:      Singlet-E      8.1024 eV  153.02 nm  f=0.0002  <S**2>=0.000
      10 -> 14         0.70613

 Excited State   3:      Singlet-E      8.1024 eV  153.02 nm  f=0.0002  <S**2>=0.000
      11 -> 14         0.70613

 Excited State   4:      Singlet-A1     8.2110 eV  151.00 nm  f=0.0101  <S**2>=0.000
       9 -> 14         0.70681

 Excited state symmetry could not be determined.
 Excited State   5:      Singlet-?Sym    8.3273 eV  148.89 nm  f=0.0032  <S**2>=0.000
      10 -> 12         0.49809
      11 -> 13        -0.49809

 Excited state symmetry could not be determined.
 Excited State   6:      Singlet-?Sym    8.3273 eV  148.89 nm  f=0.0032  <S**2>=0.000
      10 -> 13         0.49809
      11 -> 12         0.49809

 Excited State   7:      Singlet-E      8.8274 eV  140.45 nm  f=0.0137  <S**2>=0.000
       9 -> 13         0.69505
       9 -> 16        -0.10215

 Excited State   8:      Singlet-E      8.8274 eV  140.45 nm  f=0.0137  <S**2>=0.000
       9 -> 12         0.69505
       9 -> 17        -0.10215

 Excited State   9:      Singlet-E      9.9481 eV  124.63 nm  f=0.0461  <S**2>=0.000
      10 -> 15         0.70643

 Excited State  10:      Singlet-E      9.9481 eV  124.63 nm  f=0.0461  <S**2>=0.000
      11 -> 15         0.70643

 Excited State  11:      Singlet-A1     9.9826 eV  124.20 nm  f=0.2588  <S**2>=0.000
       9 -> 15         0.45278
      10 -> 12         0.26764
      10 -> 17        -0.26874
      11 -> 13         0.26764
      11 -> 16        -0.26874

 Excited State  12:      Singlet-A1    10.2097 eV  121.44 nm  f=0.1068  <S**2>=0.000
       9 -> 15         0.53365
      10 -> 12        -0.16813
      10 -> 17         0.27674
      11 -> 13        -0.16813
      11 -> 16         0.27674

 Excited state symmetry could not be determined.
 Excited State  13:      Singlet-?Sym   10.5108 eV  117.96 nm  f=0.0000  <S**2>=0.000
      10 -> 16         0.49996
      11 -> 17        -0.49996

 Excited state symmetry could not be determined.
 Excited State  14:      Singlet-?Sym   10.5599 eV  117.41 nm  f=0.0048  <S**2>=0.000
      10 -> 17        -0.49370
      11 -> 16         0.49371

 Excited state symmetry could not be determined.
 Excited State  15:      Singlet-?Sym   10.5599 eV  117.41 nm  f=0.0048  <S**2>=0.000
      10 -> 16         0.49371
      11 -> 17         0.49370

 Excited State  16:      Singlet-E     10.7656 eV  115.17 nm  f=0.0041  <S**2>=0.000
       9 -> 16         0.69250

 Excited State  17:      Singlet-E     10.7656 eV  115.17 nm  f=0.0041  <S**2>=0.000
       9 -> 17         0.69250

 Excited state symmetry could not be determined.
 Excited State  18:      Singlet-?Sym   11.2129 eV  110.57 nm  f=0.0000  <S**2>=0.000
       7 -> 13        -0.49800
       8 -> 12         0.49800

 Excited state symmetry could not be determined.
 Excited State  19:      Singlet-?Sym   11.2547 eV  110.16 nm  f=0.0000  <S**2>=0.000
      10 -> 20        -0.49790
      11 -> 19         0.49801

 Excited state symmetry could not be determined.
 Excited State  20:      Singlet-?Sym   11.2602 eV  110.11 nm  f=0.0002  <S**2>=0.000
       7 -> 12        -0.22049
       8 -> 13         0.22049
      10 -> 18        -0.34765
      10 -> 19         0.37280
      11 -> 20        -0.37278

 Excited state symmetry could not be determined.
 Excited State  21:      Singlet-?Sym   11.2602 eV  110.11 nm  f=0.0002  <S**2>=0.000
       7 -> 13        -0.22048
       8 -> 12        -0.22049
      10 -> 20         0.37284
      11 -> 18         0.34766
      11 -> 19         0.37273

 Excited state symmetry could not be determined.
 Excited State  22:      Singlet-?Sym   11.2813 eV  109.90 nm  f=0.0134  <S**2>=0.000
       9 -> 18         0.21804
      10 -> 19         0.46812
      11 -> 20         0.46814

 Excited State  23:      Singlet-E     11.3029 eV  109.69 nm  f=0.0004  <S**2>=0.000
       7 -> 14        -0.30038
      10 -> 18         0.53952
      10 -> 19         0.21797
      11 -> 20        -0.21797

 Excited State  24:      Singlet-E     11.3029 eV  109.69 nm  f=0.0004  <S**2>=0.000
       8 -> 14        -0.30038
      10 -> 20        -0.21800
      11 -> 18         0.53952
      11 -> 19        -0.21795

 Excited State  25:      Singlet-A1    11.3191 eV  109.54 nm  f=0.0061  <S**2>=0.000
       7 -> 12         0.12513
       8 -> 13         0.12514
       9 -> 18         0.61358
      10 -> 19        -0.16255
      11 -> 20        -0.16255

 Excited State  26:      Singlet-E     11.4094 eV  108.67 nm  f=0.0006  <S**2>=0.000
       9 -> 20         0.69546

 Excited State  27:      Singlet-E     11.4094 eV  108.67 nm  f=0.0006  <S**2>=0.000
       9 -> 19         0.69546

 Excited State  28:      Singlet-E     11.4989 eV  107.82 nm  f=0.0808  <S**2>=0.000
       7 -> 13        -0.21009
       8 -> 12        -0.21009
       8 -> 14         0.52739
       9 -> 20         0.11738
      10 -> 20        -0.19319
      11 -> 18         0.19432
      11 -> 19        -0.19317

 Excited State  29:      Singlet-E     11.4989 eV  107.82 nm  f=0.0808  <S**2>=0.000
       7 -> 12         0.21009
       7 -> 14         0.52739
       8 -> 13        -0.21009
       9 -> 19         0.11738
      10 -> 18         0.19432
      10 -> 19         0.19318
      11 -> 20        -0.19318

 Excited state symmetry could not be determined.
 Excited State  30:      Singlet-?Sym   11.5283 eV  107.55 nm  f=0.1040  <S**2>=0.000
       6 -> 13        -0.11114
       7 -> 13         0.37220
       8 -> 12         0.37220
       8 -> 14         0.34724
      10 -> 20         0.14893
      11 -> 18         0.18183
      11 -> 19         0.14895

 Excited state symmetry could not be determined.
 Excited State  31:      Singlet-?Sym   11.5283 eV  107.55 nm  f=0.1040  <S**2>=0.000
       6 -> 12        -0.11114
       7 -> 12        -0.37220
       7 -> 14         0.34725
       8 -> 13         0.37220
      10 -> 18         0.18183
      10 -> 19        -0.14894
      11 -> 20         0.14894

 Excited state symmetry could not be determined.
 Excited State  32:      Singlet-?Sym   11.5540 eV  107.31 nm  f=0.7241  <S**2>=0.000
       7 -> 12         0.32203
       8 -> 13         0.32203
       9 -> 18        -0.26790
       9 -> 23        -0.11935
      10 -> 12         0.22203
      10 -> 17         0.21312
      11 -> 13         0.22203
      11 -> 16         0.21312

 Excited State  33:      Singlet-A1    12.6627 eV   97.91 nm  f=0.1026  <S**2>=0.000
       6 -> 14         0.69669

 Excited state symmetry could not be determined.
 Excited State  34:      Singlet-?Sym   12.7067 eV   97.57 nm  f=0.2164  <S**2>=0.000
       6 -> 15         0.11444
       7 -> 12         0.29713
       8 -> 13         0.29713
       9 -> 23         0.23858
      10 -> 12        -0.20903
      10 -> 17        -0.16096
      10 -> 22        -0.19856
      11 -> 13        -0.20903
      11 -> 16        -0.16096
      11 -> 21         0.19856

 Excited State  35:      Singlet-E     12.9740 eV   95.56 nm  f=0.0296  <S**2>=0.000
       6 -> 12         0.63898
       7 -> 15        -0.15477
      10 -> 23         0.11541

 Excited State  36:      Singlet-E     12.9740 eV   95.56 nm  f=0.0296  <S**2>=0.000
       6 -> 13         0.63898
       8 -> 15        -0.15477
      11 -> 23         0.11541

 Excited State  37:      Singlet-E     13.2252 eV   93.75 nm  f=0.0035  <S**2>=0.000
       6 -> 13         0.11701
       8 -> 15         0.68479

 Excited State  38:      Singlet-E     13.2252 eV   93.75 nm  f=0.0035  <S**2>=0.000
       6 -> 12         0.11701
       7 -> 15         0.68479

 Excited state symmetry could not be determined.
 Excited State  39:      Singlet-?Sym   13.4129 eV   92.44 nm  f=0.0018  <S**2>=0.000
      10 -> 22         0.49583
      11 -> 21         0.49583

 Excited state symmetry could not be determined.
 Excited State  40:      Singlet-?Sym   13.4129 eV   92.44 nm  f=0.0018  <S**2>=0.000
      10 -> 21         0.49583
      11 -> 22        -0.49583

 Excited state symmetry could not be determined.
 Excited State  41:      Singlet-?Sym   13.4479 eV   92.20 nm  f=0.0000  <S**2>=0.000
      10 -> 21         0.49998
      11 -> 22         0.49999

 Excited State  42:      Singlet-E     13.6019 eV   91.15 nm  f=0.0394  <S**2>=0.000
       9 -> 22         0.68710
      10 -> 23         0.11711

 Excited State  43:      Singlet-E     13.6019 eV   91.15 nm  f=0.0394  <S**2>=0.000
       9 -> 21         0.68710
      11 -> 23        -0.11711

 Excited state symmetry could not be determined.
 Excited State  44:      Singlet-?Sym   13.7822 eV   89.96 nm  f=0.0000  <S**2>=0.000
       7 -> 16        -0.49997
       8 -> 17         0.49997

 Excited state symmetry could not be determined.
 Excited State  45:      Singlet-?Sym   13.9183 eV   89.08 nm  f=0.0733  <S**2>=0.000
       7 -> 16         0.47343
       7 -> 20         0.12492
       8 -> 17         0.47343
       8 -> 19         0.12492
      11 -> 23        -0.10367

 Excited state symmetry could not be determined.
 Excited State  46:      Singlet-?Sym   13.9183 eV   89.08 nm  f=0.0733  <S**2>=0.000
       7 -> 17        -0.47343
       7 -> 19        -0.12492
       8 -> 16         0.47343
       8 -> 20         0.12492
      10 -> 23        -0.10367

 Excited state symmetry could not be determined.
 Excited State  47:      Singlet-?Sym   14.0364 eV   88.33 nm  f=0.0161  <S**2>=0.000
       6 -> 15        -0.27568
       6 -> 18        -0.10313
       7 -> 19        -0.11317
       8 -> 20        -0.11317
       9 -> 24         0.23104
      10 -> 22        -0.37503
      11 -> 21         0.37503

 Excited State  48:      Singlet-E     14.1114 eV   87.86 nm  f=0.0002  <S**2>=0.000
      11 -> 23         0.65933
      11 -> 24         0.11493

 Excited State  49:      Singlet-E     14.1114 eV   87.86 nm  f=0.0002  <S**2>=0.000
      10 -> 23         0.65933
      10 -> 24         0.11493

 Excited state symmetry could not be determined.
 Excited State  50:      Singlet-?Sym   14.3372 eV   86.48 nm  f=0.0010  <S**2>=0.000
       6 -> 15        -0.34598
       6 -> 18         0.17581
       7 -> 17         0.35714
       7 -> 19        -0.11647
       8 -> 16         0.35714
       8 -> 20        -0.11647
       9 -> 24        -0.14216

 Excited State  51:      Singlet-E     14.3969 eV   86.12 nm  f=0.0019  <S**2>=0.000
       7 -> 18         0.24331
      10 -> 24         0.64869

 Excited State  52:      Singlet-E     14.3969 eV   86.12 nm  f=0.0019  <S**2>=0.000
       8 -> 18         0.24332
      11 -> 24         0.64869

 Excited State  53:      Singlet-A1    14.4784 eV   85.63 nm  f=0.0771  <S**2>=0.000
       6 -> 15         0.40935
       7 -> 17         0.12889
       7 -> 19        -0.33300
       8 -> 16         0.12889
       8 -> 20        -0.33300
       9 -> 24         0.25134

 Excited state symmetry could not be determined.
 Excited State  54:      Singlet-?Sym   14.4958 eV   85.53 nm  f=0.0000  <S**2>=0.000
       7 -> 20         0.49970
       8 -> 19        -0.49970

 Excited State  55:      Singlet-A1    14.5118 eV   85.44 nm  f=0.2243  <S**2>=0.000
       7 -> 17         0.10810
       7 -> 19         0.23927
       8 -> 16         0.10810
       8 -> 20         0.23927
       9 -> 24         0.56498

 Excited State  56:      Singlet-E     14.5645 eV   85.13 nm  f=0.0065  <S**2>=0.000
       6 -> 17         0.13655
       7 -> 18         0.56084
       7 -> 19         0.21659
       8 -> 20        -0.21659
      10 -> 24        -0.23640

 Excited State  57:      Singlet-E     14.5645 eV   85.13 nm  f=0.0065  <S**2>=0.000
       6 -> 16         0.13655
       7 -> 20        -0.21659
       8 -> 18         0.56084
       8 -> 19        -0.21659
      11 -> 24        -0.23640

 Excited State  58:      Singlet-A1    14.9046 eV   83.18 nm  f=0.0021  <S**2>=0.000
       6 -> 18         0.11698
       9 -> 23         0.55155
       9 -> 24         0.10249
      10 -> 26        -0.18836
      10 -> 29        -0.14822
      11 -> 25         0.18836
      11 -> 28         0.14822

 Excited State  59:      Singlet-E     15.0292 eV   82.50 nm  f=0.1569  <S**2>=0.000
       6 -> 16         0.52563
       7 -> 20        -0.22831
       8 -> 18        -0.28794
       8 -> 19        -0.22831

 Excited State  60:      Singlet-E     15.0292 eV   82.50 nm  f=0.1569  <S**2>=0.000
       6 -> 17         0.52563
       7 -> 18        -0.28794
       7 -> 19         0.22831
       8 -> 20        -0.22831

 Excited State  61:      Singlet-E     15.1122 eV   82.04 nm  f=0.0490  <S**2>=0.000
       6 -> 16         0.43599
       7 -> 20         0.29182
       8 -> 18         0.16986
       8 -> 19         0.29182
      10 -> 25        -0.19305
      11 -> 26         0.19304

 Excited State  62:      Singlet-E     15.1122 eV   82.04 nm  f=0.0490  <S**2>=0.000
       6 -> 17         0.43599
       7 -> 18         0.16986
       7 -> 19        -0.29182
       8 -> 20         0.29182
      10 -> 26        -0.19305
      11 -> 25        -0.19305

 Excited State  63:      Singlet-A1    15.3579 eV   80.73 nm  f=0.0071  <S**2>=0.000
       6 -> 15         0.31561
       7 -> 17         0.24092
       7 -> 19         0.22180
       8 -> 16         0.24092
       8 -> 20         0.22180
       9 -> 24        -0.16199
       9 -> 27        -0.17621
      10 -> 22        -0.13908
      11 -> 21         0.13908

 Excited state symmetry could not be determined.
 Excited State  64:      Singlet-?Sym   15.4746 eV   80.12 nm  f=0.0000  <S**2>=0.000
      10 -> 25         0.49930
      11 -> 26         0.49931

 Excited state symmetry could not be determined.
 Excited State  65:      Singlet-?Sym   15.6022 eV   79.47 nm  f=0.0000  <S**2>=0.000
       9 -> 23         0.13831
      10 -> 26         0.43783
      10 -> 29        -0.20041
      11 -> 25        -0.43783
      11 -> 28         0.20041

 Excited State  66:      Singlet-E     15.6772 eV   79.09 nm  f=0.0204  <S**2>=0.000
       9 -> 25         0.69501

 Excited State  67:      Singlet-E     15.6772 eV   79.09 nm  f=0.0204  <S**2>=0.000
       9 -> 26         0.69501

 Excited State  68:      Singlet-E     15.7494 eV   78.72 nm  f=0.0051  <S**2>=0.000
       6 -> 19         0.69897

 Excited State  69:      Singlet-E     15.7494 eV   78.72 nm  f=0.0051  <S**2>=0.000
       6 -> 20         0.69897

 Excited state symmetry could not be determined.
 Excited State  70:      Singlet-?Sym   16.0051 eV   77.47 nm  f=0.2969  <S**2>=0.000
       7 -> 19        -0.10474
       8 -> 20         0.10474
       9 -> 26        -0.11093
      10 -> 26         0.36854
      10 -> 27         0.31356
      10 -> 29         0.12855
      11 -> 25         0.36855
      11 -> 28         0.12855

 Excited state symmetry could not be determined.
 Excited State  71:      Singlet-?Sym   16.0051 eV   77.47 nm  f=0.2969  <S**2>=0.000
       7 -> 20         0.10475
       8 -> 19         0.10474
       9 -> 25         0.11093
      10 -> 25         0.36855
      10 -> 28         0.12855
      11 -> 26        -0.36854
      11 -> 27         0.31356
      11 -> 29        -0.12855

 Excited State  72:      Singlet-E     16.1773 eV   76.64 nm  f=0.1159  <S**2>=0.000
      10 -> 25        -0.15492
      10 -> 28        -0.10173
      11 -> 26         0.15492
      11 -> 27         0.61994
      11 -> 29         0.10172

 Excited State  73:      Singlet-E     16.1773 eV   76.64 nm  f=0.1159  <S**2>=0.000
      10 -> 26        -0.15492
      10 -> 27         0.61994
      10 -> 29        -0.10172
      11 -> 25        -0.15492
      11 -> 28        -0.10172

 Excited State  74:      Singlet-A1    16.3043 eV   76.04 nm  f=0.0757  <S**2>=0.000
       9 -> 27         0.66475

 Excited state symmetry could not be determined.
 Excited State  75:      Singlet-?Sym   16.3501 eV   75.83 nm  f=0.0000  <S**2>=0.000
      10 -> 28         0.49939
      11 -> 29         0.49939

 Excited state symmetry could not be determined.
 Excited State  76:      Singlet-?Sym   16.4506 eV   75.37 nm  f=0.1315  <S**2>=0.000
       9 -> 28         0.35344
      10 -> 28         0.40323
      11 -> 29        -0.40323
      11 -> 30        -0.13642

 Excited state symmetry could not be determined.
 Excited State  77:      Singlet-?Sym   16.4506 eV   75.37 nm  f=0.1315  <S**2>=0.000
       9 -> 29        -0.35344
      10 -> 29         0.40323
      10 -> 30        -0.13642
      11 -> 28         0.40323

 Excited State  78:      Singlet-E     16.5739 eV   74.81 nm  f=0.0096  <S**2>=0.000
       9 -> 28         0.56675
      10 -> 28        -0.17348
      11 -> 29         0.17348
      11 -> 30         0.30622

 Excited State  79:      Singlet-E     16.5739 eV   74.81 nm  f=0.0096  <S**2>=0.000
       9 -> 29         0.56675
      10 -> 29         0.17348
      10 -> 30        -0.30622
      11 -> 28         0.17348

 Excited State  80:      Singlet-A1    16.6063 eV   74.66 nm  f=0.2003  <S**2>=0.000
       6 -> 18         0.50122
       6 -> 23         0.14019
       7 -> 22        -0.15818
       8 -> 21         0.15818
       9 -> 30         0.34676

 Excited State  81:      Singlet-E     16.6402 eV   74.51 nm  f=0.0144  <S**2>=0.000
       9 -> 28        -0.19460
      10 -> 28         0.15144
      11 -> 29        -0.15144
      11 -> 30         0.60751

 Excited State  82:      Singlet-E     16.6402 eV   74.51 nm  f=0.0144  <S**2>=0.000
       9 -> 29         0.19460
      10 -> 29         0.15144
      10 -> 30         0.60752
      11 -> 28         0.15144

 Excited state symmetry could not be determined.
 Excited State  83:      Singlet-?Sym   16.6640 eV   74.40 nm  f=0.0124  <S**2>=0.000
       7 -> 22         0.48828
       8 -> 21         0.48829

 Excited state symmetry could not be determined.
 Excited State  84:      Singlet-?Sym   16.6640 eV   74.40 nm  f=0.0124  <S**2>=0.000
       7 -> 21        -0.48828
       8 -> 22         0.48829

 Excited state symmetry could not be determined.
 Excited State  85:      Singlet-?Sym   16.7107 eV   74.19 nm  f=0.0000  <S**2>=0.000
       7 -> 21         0.49999
       8 -> 22         0.49999

 Excited State  86:      Singlet-A1    16.8059 eV   73.77 nm  f=0.1648  <S**2>=0.000
       6 -> 18        -0.26982
       6 -> 23        -0.10189
       7 -> 22         0.12252
       8 -> 21        -0.12252
       9 -> 30         0.59275

 Excited State  87:      Singlet-E     16.8389 eV   73.63 nm  f=0.0031  <S**2>=0.000
      11 -> 31         0.70267

 Excited State  88:      Singlet-E     16.8389 eV   73.63 nm  f=0.0031  <S**2>=0.000
      10 -> 31         0.70267

 Excited state symmetry could not be determined.
 Excited State  89:      Singlet-?Sym   16.9147 eV   73.30 nm  f=0.0365  <S**2>=0.000
       6 -> 18        -0.17398
       7 -> 22        -0.42786
       8 -> 21         0.42786
      10 -> 33         0.17040
      11 -> 32        -0.17040

 Excited State  90:      Singlet-A2    16.9869 eV   72.99 nm  f=0.0000  <S**2>=0.000
       9 -> 31         0.70674

 Excited state symmetry could not be determined.
 Excited State  91:      Singlet-?Sym   17.1253 eV   72.40 nm  f=0.0000  <S**2>=0.000
      10 -> 32         0.49960
      11 -> 33         0.49960

 Excited state symmetry could not be determined.
 Excited State  92:      Singlet-?Sym   17.1911 eV   72.12 nm  f=0.0165  <S**2>=0.000
       7 -> 24         0.10893
       9 -> 33         0.31696
      10 -> 33         0.43259
      11 -> 32         0.43255

 Excited state symmetry could not be determined.
 Excited State  93:      Singlet-?Sym   17.1911 eV   72.12 nm  f=0.0165  <S**2>=0.000
       8 -> 24         0.10893
       9 -> 32        -0.31696
      10 -> 32         0.43257
      11 -> 33        -0.43257

 Excited state symmetry could not be determined.
 Excited State  94:      Singlet-?Sym   17.1957 eV   72.10 nm  f=0.0050  <S**2>=0.000
      10 -> 29        -0.27568
      10 -> 33        -0.31833
      11 -> 28         0.27567
      11 -> 32         0.31839

 Excited State  95:      Singlet-E     17.2726 eV   71.78 nm  f=0.0984  <S**2>=0.000
       7 -> 23         0.10400
       9 -> 33         0.62020
      10 -> 33        -0.19638
      11 -> 32        -0.19636

 Excited State  96:      Singlet-E     17.2726 eV   71.78 nm  f=0.0984  <S**2>=0.000
       8 -> 23        -0.10400
       9 -> 32         0.62020
      10 -> 32         0.19637
      11 -> 33        -0.19637

 Excited State  97:      Singlet-E     17.3638 eV   71.40 nm  f=0.0119  <S**2>=0.000
       8 -> 23         0.66808
       8 -> 24         0.19987

 Excited State  98:      Singlet-E     17.3638 eV   71.40 nm  f=0.0119  <S**2>=0.000
       7 -> 23         0.66808
       7 -> 24         0.19987

 Excited State  99:      Singlet-E     17.8518 eV   69.45 nm  f=0.1844  <S**2>=0.000
       8 -> 23        -0.17494
       8 -> 24         0.63922

 Excited State 100:      Singlet-E     17.8518 eV   69.45 nm  f=0.1844  <S**2>=0.000
       7 -> 23        -0.17494
       7 -> 24         0.63922

 Excited state symmetry could not be determined.
 Excited State 101:      Singlet-?Sym   17.8757 eV   69.36 nm  f=0.0002  <S**2>=0.000
       6 -> 24         0.14101
       9 -> 23         0.18224
       9 -> 34         0.15634
      10 -> 12         0.10248
      10 -> 29         0.25663
      10 -> 33        -0.28800
      11 -> 13         0.10248
      11 -> 28        -0.25663
      11 -> 32         0.28800

 Excited State 102:      Singlet-E     17.9060 eV   69.24 nm  f=0.0230  <S**2>=0.000

 The electronic state is 1-A1.
 Alpha  occ. eigenvalues --  -13.86503  -9.84185  -9.83612  -0.82092  -0.70629
 Alpha  occ. eigenvalues --   -0.47025  -0.42700  -0.42700  -0.31153  -0.30716
 Alpha  occ. eigenvalues --   -0.30716
 Alpha virt. eigenvalues --   -0.01509  -0.01509  -0.01046   0.05867   0.07921
 Alpha virt. eigenvalues --    0.07921   0.10257   0.10767   0.10767   0.18714
 Alpha virt. eigenvalues --    0.18714   0.20762   0.21943   0.26467   0.26467

 Mulliken charges:
               1
     1  C    0.206340
     2  C   -0.313422
     3  N   -0.003449
     4  H    0.036844
     5  H    0.036844
     6  H    0.036844
 Sum of Mulliken charges =  -0.00000

 Dipole moment (field-independent basis, Debye):
    X=             -0.0000    Y=              0.0000    Z=             -4.0647  Tot=              4.0647
 Quadrupole moment (field-independent basis, Debye-Ang):
   XX=            -17.6968   YY=            -17.6968   ZZ=            -21.0730
   XY=             -0.0000   XZ=              0.0000   YZ=             -0.0000

 Normal termination of Gaussian 16 at Mon Mar 21 20:02:50 2022.
