 Gaussian 16, Revision C.01,
 Gaussian 16:  EM64L-G16RevC.01  3-Jul-2019

 ---------------------------------------------------------------------
 #P TD(Nstates=10000) svwn5/Gen SCF(maxcycles=100) Int(Grid=ultrafine)
 ---------------------------------------------------------------------

 ---------------------
 xGDB7_00001_tier4.com
 ---------------------
 Symbolic Z-matrix:
 Charge =  0 Multiplicity = 1

                         Standard orientation:
 ---------------------------------------------------------------------
 Center     Atomic      Atomic             Coordinates (Angstroms)
 Number     Number       Type             X           Y           Z
 ---------------------------------------------------------------------
      1          9           0       -1.139724   -0.269725    0.000000
      2          6           0        0.000000    0.430281    0.000000
      3          6           0        1.180852   -0.148760    0.000000
      4          1           0       -0.180450    1.498331    0.000000
      5          1           0        1.283634   -1.225170    0.000000
      6          1           0        2.069222    0.465238    0.000000
 ---------------------------------------------------------------------

 SCF Done:  E(RS-VWN5) =  -176.336729732     A.U. after   13 cycles

 Excitation energies and oscillator strengths:

 Excited State   1:      Singlet-A"     7.1829 eV  172.61 nm  f=0.0394  <S**2>=0.000
      12 -> 14         0.70599
 This state for optimization and/or second-order correction.
 Total Energy, E(TD-HF/TD-DFT) =  -176.072761479
 Copying the excited state density for this state as the 1-particle RhoCI density.

 Excited State   2:      Singlet-A'     7.5836 eV  163.49 nm  f=0.2765  <S**2>=0.000
      12 -> 13         0.68547

 Excited State   3:      Singlet-A"     7.7764 eV  159.44 nm  f=0.0084  <S**2>=0.000
      12 -> 15         0.70302

 Excited State   4:      Singlet-A"     8.0619 eV  153.79 nm  f=0.0001  <S**2>=0.000
      11 -> 13         0.69989

 Excited State   5:      Singlet-A"     8.4942 eV  145.96 nm  f=0.0020  <S**2>=0.000
      12 -> 16         0.69808

 Excited State   6:      Singlet-A"     8.9861 eV  137.97 nm  f=0.0008  <S**2>=0.000
      10 -> 13         0.23844
      12 -> 17         0.66231

 Excited State   7:      Singlet-A"     9.2066 eV  134.67 nm  f=0.0012  <S**2>=0.000
      10 -> 13         0.66148
      12 -> 17        -0.23954

 Excited State   8:      Singlet-A'     9.5019 eV  130.48 nm  f=0.0061  <S**2>=0.000
      11 -> 14         0.70334

 Excited State   9:      Singlet-A"     9.7897 eV  126.65 nm  f=0.0066  <S**2>=0.000
      12 -> 18         0.70434

 Excited State  10:      Singlet-A'    10.0648 eV  123.19 nm  f=0.0580  <S**2>=0.000
      11 -> 15         0.66698
      12 -> 19         0.20598

 Excited State  11:      Singlet-A'    10.1371 eV  122.31 nm  f=0.0261  <S**2>=0.000
       9 -> 13        -0.11107
      11 -> 15        -0.20767
      12 -> 19         0.65528

 Excited State  12:      Singlet-A"    10.3943 eV  119.28 nm  f=0.1041  <S**2>=0.000
       8 -> 13        -0.15996
      12 -> 20         0.68295

 Excited State  13:      Singlet-A'    10.5738 eV  117.26 nm  f=0.1183  <S**2>=0.000
      10 -> 14         0.69223

 Excited State  14:      Singlet-A'    10.8487 eV  114.28 nm  f=0.0291  <S**2>=0.000
      11 -> 16         0.66558
      12 -> 22         0.18952

 Excited State  15:      Singlet-A"    10.9229 eV  113.51 nm  f=0.0050  <S**2>=0.000
      12 -> 21         0.70526

 Excited State  16:      Singlet-A'    11.0839 eV  111.86 nm  f=0.0221  <S**2>=0.000
       9 -> 13         0.49708
      10 -> 15         0.28053
      11 -> 16         0.11855
      12 -> 19         0.10803
      12 -> 22        -0.34733

 Excited State  17:      Singlet-A'    11.1914 eV  110.79 nm  f=0.1287  <S**2>=0.000
       9 -> 13        -0.26859
      10 -> 15         0.60772
      10 -> 16        -0.11219
      11 -> 17         0.13748

 Excited State  18:      Singlet-A'    11.2078 eV  110.62 nm  f=0.0476  <S**2>=0.000
       9 -> 13         0.28842
      10 -> 15         0.14298
      11 -> 16        -0.15309
      11 -> 17        -0.34112
      12 -> 22         0.47561

 Excited State  19:      Singlet-A"    11.2618 eV  110.09 nm  f=0.0305  <S**2>=0.000
       8 -> 13         0.67075
      12 -> 20         0.14290
      12 -> 23         0.11408

 Excited State  20:      Singlet-A'    11.3750 eV  109.00 nm  f=0.1559  <S**2>=0.000
       9 -> 13         0.19963
      11 -> 17         0.58768
      12 -> 22         0.29313

 Excited State  21:      Singlet-A"    11.5707 eV  107.15 nm  f=0.0003  <S**2>=0.000
       8 -> 13        -0.10692
      12 -> 23         0.69601

 Excited State  22:      Singlet-A'    11.8507 eV  104.62 nm  f=0.0821  <S**2>=0.000
      10 -> 16         0.64948
      10 -> 17        -0.14463
      11 -> 18         0.10365
      12 -> 24         0.10432

 Excited State  23:      Singlet-A"    11.8919 eV  104.26 nm  f=0.0453  <S**2>=0.000
       9 -> 14         0.70322

 Excited State  24:      Singlet-A'    12.1090 eV  102.39 nm  f=0.0056  <S**2>=0.000
      10 -> 16        -0.10447
      11 -> 18         0.68776

 Excited State  25:      Singlet-A"    12.2596 eV  101.13 nm  f=0.0197  <S**2>=0.000
      11 -> 19         0.69824

 Excited State  26:      Singlet-A"    12.4365 eV   99.69 nm  f=0.0132  <S**2>=0.000
       7 -> 13         0.62234
       9 -> 15         0.29748

 Excited State  27:      Singlet-A"    12.4484 eV   99.60 nm  f=0.0001  <S**2>=0.000
       7 -> 13        -0.29711
       9 -> 15         0.63588

 Excited State  28:      Singlet-A'    12.4575 eV   99.53 nm  f=0.1282  <S**2>=0.000
       8 -> 14        -0.15280
      10 -> 16         0.11563
      10 -> 17         0.50377
      12 -> 24        -0.40964

 Excited State  29:      Singlet-A'    12.5445 eV   98.84 nm  f=0.0239  <S**2>=0.000
       8 -> 14         0.51220
      10 -> 17         0.22530
      11 -> 20         0.38180
      12 -> 24         0.14679

 Excited State  30:      Singlet-A'    12.5638 eV   98.68 nm  f=0.0150  <S**2>=0.000
       8 -> 14        -0.39846
      11 -> 20         0.55746

 Excited State  31:      Singlet-A'    12.8183 eV   96.72 nm  f=0.0018  <S**2>=0.000
       8 -> 14        -0.13474
       8 -> 15         0.31819
      10 -> 17         0.29658
      10 -> 18         0.17983
      11 -> 20        -0.16803
      12 -> 24         0.43677
      12 -> 27        -0.11739

 Excited State  32:      Singlet-A"    12.9329 eV   95.87 nm  f=0.0162  <S**2>=0.000
      12 -> 25         0.68835

 Excited State  33:      Singlet-A'    13.1735 eV   94.12 nm  f=0.0400  <S**2>=0.000
       8 -> 15        -0.26966
       8 -> 16         0.11987
      10 -> 18         0.44235
      10 -> 20        -0.15933
      11 -> 21        -0.41339

 Excited State  34:      Singlet-A'    13.2052 eV   93.89 nm  f=0.1622  <S**2>=0.000
       8 -> 15        -0.44962
       8 -> 16         0.12406
      10 -> 17         0.12699
      10 -> 20        -0.11437
      11 -> 21         0.45963

 Excited State  35:      Singlet-A"    13.2462 eV   93.60 nm  f=0.0045  <S**2>=0.000
       9 -> 16         0.41963
      10 -> 19        -0.19686
      11 -> 22         0.42654
      12 -> 26         0.30933

 Excited State  36:      Singlet-A"    13.2614 eV   93.49 nm  f=0.0092  <S**2>=0.000
       9 -> 16        -0.28681
      10 -> 19        -0.19618
      11 -> 22        -0.20218
      12 -> 26         0.56114

 Excited State  37:      Singlet-A'    13.2921 eV   93.28 nm  f=0.0271  <S**2>=0.000
       7 -> 14        -0.12237
       8 -> 15         0.22304
      10 -> 17        -0.12834
      10 -> 18         0.35118
      11 -> 21         0.30027
      11 -> 23        -0.11234
      12 -> 27         0.40022

 Excited State  38:      Singlet-A"    13.2951 eV   93.26 nm  f=0.0077  <S**2>=0.000
      10 -> 19         0.64652
      11 -> 22         0.11669
      12 -> 26         0.25193

 Excited State  39:      Singlet-A"    13.3260 eV   93.04 nm  f=0.0109  <S**2>=0.000
       9 -> 16        -0.45237
      11 -> 22         0.51117

 Excited State  40:      Singlet-A'    13.5713 eV   91.36 nm  f=0.0285  <S**2>=0.000
       8 -> 14        -0.10062
       8 -> 15        -0.13594
      10 -> 17         0.13033
      10 -> 18        -0.28969
      12 -> 24         0.19076
      12 -> 27         0.52899

 Excited State  41:      Singlet-A'    13.6573 eV   90.78 nm  f=0.0014  <S**2>=0.000
       8 -> 16         0.46191
      10 -> 20         0.47897
      11 -> 23         0.18597

 Excited State  42:      Singlet-A"    13.6884 eV   90.58 nm  f=0.0186  <S**2>=0.000
       9 -> 17         0.70253

 Excited State  43:      Singlet-A'    13.8088 eV   89.79 nm  f=0.0568  <S**2>=0.000
       7 -> 14         0.22958
       8 -> 16        -0.30831
      10 -> 20         0.41708
      10 -> 21        -0.18213
      11 -> 23        -0.32170

 Excited State  44:      Singlet-A'    13.9122 eV   89.12 nm  f=0.0215  <S**2>=0.000
       7 -> 14         0.59683
       7 -> 15         0.23883
       8 -> 16         0.16068
      11 -> 23         0.13705

 Excited State  45:      Singlet-A'    13.9865 eV   88.65 nm  f=0.0594  <S**2>=0.000
       8 -> 15        -0.11129
       8 -> 16        -0.30791
       8 -> 17         0.21249
      10 -> 21        -0.15551
      11 -> 23         0.52459

 Excited State  46:      Singlet-A"    14.3064 eV   86.66 nm  f=0.0040  <S**2>=0.000
       6 -> 13         0.35147
      10 -> 22         0.59393

 Excited State  47:      Singlet-A'    14.3251 eV   86.55 nm  f=0.0561  <S**2>=0.000
       7 -> 15        -0.16684
       8 -> 17         0.57491
      10 -> 21         0.31608
      10 -> 23        -0.10022

 Excited State  48:      Singlet-A'    14.4673 eV   85.70 nm  f=0.0118  <S**2>=0.000
       7 -> 14        -0.16011
       7 -> 15         0.56102
       8 -> 17         0.17268
       9 -> 19        -0.29082
      10 -> 21        -0.11108

 Excited State  49:      Singlet-A"    14.4831 eV   85.61 nm  f=0.0019  <S**2>=0.000
       6 -> 13        -0.10666
       9 -> 18         0.68193

 Excited State  50:      Singlet-A"    14.5453 eV   85.24 nm  f=0.0188  <S**2>=0.000
       6 -> 13         0.25300
       9 -> 18         0.17024
      10 -> 22        -0.26045
      11 -> 24         0.53871
      12 -> 28         0.18230

 Excited State  51:      Singlet-A"    14.6169 eV   84.82 nm  f=0.0434  <S**2>=0.000
       6 -> 13         0.20107
       9 -> 20        -0.11720
      10 -> 22        -0.15963
      11 -> 24        -0.39393
      12 -> 28         0.50279

 Excited State  52:      Singlet-A'    14.6250 eV   84.78 nm  f=0.1431  <S**2>=0.000
       7 -> 15         0.20794
       7 -> 16        -0.14738
       7 -> 17        -0.10502
       8 -> 16        -0.13371
       8 -> 17        -0.19241
       9 -> 19         0.11046
      10 -> 20         0.15220
      10 -> 21         0.49719
      11 -> 25         0.14183

 Excited State  53:      Singlet-A"    14.7930 eV   83.81 nm  f=0.0183  <S**2>=0.000
       6 -> 13        -0.32092
       9 -> 20         0.38506
      10 -> 22         0.14486
      11 -> 24         0.16974
      12 -> 28         0.42141

 Excited State  54:      Singlet-A'    14.8635 eV   83.42 nm  f=0.0264  <S**2>=0.000
       7 -> 15         0.14625
       7 -> 16         0.15983
       8 -> 18        -0.28073
       9 -> 19         0.54821
      11 -> 25        -0.11961

 Excited State  55:      Singlet-A'    14.9535 eV   82.91 nm  f=0.0107  <S**2>=0.000
       7 -> 16         0.33218
       8 -> 18         0.13524
      10 -> 23         0.58506

 Excited State  56:      Singlet-A"    15.0940 eV   82.14 nm  f=0.0867  <S**2>=0.000
       6 -> 13         0.28278
       8 -> 19        -0.13349
       9 -> 20         0.55357
      10 -> 22        -0.11063
      12 -> 28        -0.13933
      12 -> 30         0.13626

 Excited State  57:      Singlet-A'    15.1378 eV   81.90 nm  f=0.0445  <S**2>=0.000
       7 -> 17        -0.11704
       8 -> 18         0.50346
       9 -> 19         0.10004
      11 -> 25        -0.43016

 Excited State  58:      Singlet-A'    15.2334 eV   81.39 nm  f=0.2302  <S**2>=0.000
       7 -> 16         0.47461
       7 -> 17        -0.10825
      10 -> 23        -0.29320
      11 -> 25         0.25639
      12 -> 31         0.20946

 Excited State  59:      Singlet-A"    15.2811 eV   81.14 nm  f=0.0019  <S**2>=0.000
       8 -> 19         0.66510
      12 -> 29        -0.19661

 Excited State  60:      Singlet-A"    15.3364 eV   80.84 nm  f=0.0619  <S**2>=0.000
       8 -> 19         0.16996
      12 -> 29         0.66433
      12 -> 30         0.11228

 Excited State  61:      Singlet-A'    15.3405 eV   80.82 nm  f=0.1022  <S**2>=0.000
       6 -> 14         0.21359
       7 -> 16        -0.17269
       8 -> 18         0.31799
       8 -> 20         0.19330
       9 -> 19         0.18527
      10 -> 21        -0.11223
      11 -> 25         0.41783

 Excited State  62:      Singlet-A'    15.4643 eV   80.17 nm  f=0.0523  <S**2>=0.000
       6 -> 14        -0.24224
       7 -> 16        -0.15306
       7 -> 17         0.15832
      12 -> 31         0.58778

 Excited State  63:      Singlet-A"    15.4850 eV   80.07 nm  f=0.0158  <S**2>=0.000
      10 -> 24         0.13744
      11 -> 27         0.24011
      12 -> 30         0.63144

 Excited State  64:      Singlet-A'    15.5313 eV   79.83 nm  f=0.0251  <S**2>=0.000
       6 -> 14         0.50711
      11 -> 25        -0.10753
      11 -> 26        -0.39266
      12 -> 31         0.18686

 Excited State  65:      Singlet-A"    15.5691 eV   79.63 nm  f=0.0439  <S**2>=0.000
       9 -> 21         0.17342
      10 -> 24        -0.18859
      11 -> 27         0.62774
      12 -> 30        -0.15744

 Excited State  66:      Singlet-A'    15.5942 eV   79.51 nm  f=0.0309  <S**2>=0.000
       6 -> 14         0.31085
       7 -> 17        -0.12627
       8 -> 20        -0.12408
       8 -> 21         0.10250
       9 -> 22         0.14103
      11 -> 26         0.50308
      12 -> 31         0.20902

 Excited State  67:      Singlet-A"    15.6120 eV   79.42 nm  f=0.0128  <S**2>=0.000
       9 -> 21         0.36568
      10 -> 24         0.58556

 Excited State  68:      Singlet-A"    15.6228 eV   79.36 nm  f=0.0456  <S**2>=0.000
       9 -> 21         0.56976
      10 -> 24        -0.29142
      11 -> 27        -0.17544
      12 -> 30         0.13393

 Excited State  69:      Singlet-A'    15.6290 eV   79.33 nm  f=0.0734  <S**2>=0.000
       7 -> 17         0.38142
       8 -> 20         0.46285
       9 -> 22         0.21198
      11 -> 26         0.15447

 Excited State  70:      Singlet-A'    15.7968 eV   78.49 nm  f=0.0389  <S**2>=0.000
       6 -> 15         0.24067
       7 -> 17        -0.33002
       8 -> 20         0.36080
       9 -> 22        -0.35671
      11 -> 26         0.14362

 Excited State  71:      Singlet-A'    15.9433 eV   77.77 nm  f=0.0112  <S**2>=0.000
       6 -> 15         0.16359
       7 -> 17        -0.28652
       7 -> 18        -0.10445
       8 -> 20         0.14250
       9 -> 22         0.49042
      10 -> 25        -0.20132
      11 -> 26        -0.12950

 Excited State  72:      Singlet-A"    15.9928 eV   77.52 nm  f=0.0078  <S**2>=0.000
      12 -> 32         0.70271

 Excited State  73:      Singlet-A'    16.1911 eV   76.58 nm  f=0.0109  <S**2>=0.000
       6 -> 15         0.38823
       7 -> 18        -0.11327
       8 -> 21         0.22965
       8 -> 23        -0.10735
       9 -> 22         0.10318
      10 -> 25         0.46942

 Excited State  74:      Singlet-A"    16.2303 eV   76.39 nm  f=0.0092  <S**2>=0.000
       9 -> 23         0.69654

 Excited State  75:      Singlet-A'    16.2465 eV   76.31 nm  f=0.0002  <S**2>=0.000
       6 -> 15         0.44615
       7 -> 17         0.15273
       7 -> 18         0.26029
       8 -> 20        -0.10684
      10 -> 25        -0.33742
      10 -> 26         0.18624

 Excited State  76:      Singlet-A"    16.3094 eV   76.02 nm  f=0.0204  <S**2>=0.000
       8 -> 22         0.69085

 Excited State  77:      Singlet-A'    16.3144 eV   76.00 nm  f=0.0436  <S**2>=0.000
       7 -> 18        -0.36467
       8 -> 21         0.48105
      10 -> 25        -0.29451

 Excited State  78:      Singlet-A'    16.4885 eV   75.19 nm  f=0.0596  <S**2>=0.000
       7 -> 18         0.48586
       8 -> 20         0.10538
       8 -> 21         0.37162
      10 -> 26        -0.22709
      12 -> 34         0.10305

 Excited State  79:      Singlet-A"    16.5472 eV   74.93 nm  f=0.0174  <S**2>=0.000
       7 -> 19         0.69098
      12 -> 33        -0.12063

 Excited State  80:      Singlet-A'    16.6109 eV   74.64 nm  f=0.0034  <S**2>=0.000
       6 -> 15        -0.13949
       7 -> 17        -0.11221
       7 -> 18         0.14624
      10 -> 26         0.60667

 Excited State  81:      Singlet-A"    16.6266 eV   74.57 nm  f=0.0469  <S**2>=0.000
      10 -> 27         0.64373
      12 -> 33         0.28353

 Excited State  82:      Singlet-A"    16.7701 eV   73.93 nm  f=0.1308  <S**2>=0.000
       7 -> 19         0.12939
      10 -> 27        -0.25497
      12 -> 33         0.61090

 Excited State  83:      Singlet-A'    16.8533 eV   73.57 nm  f=0.0476  <S**2>=0.000
       6 -> 16        -0.28209
       7 -> 20        -0.21936
       8 -> 23         0.49414
       9 -> 24        -0.11204
      11 -> 28         0.27742

 Excited State  84:      Singlet-A'    16.8823 eV   73.44 nm  f=0.0356  <S**2>=0.000
       6 -> 16        -0.18782
       7 -> 20         0.62991
       8 -> 23         0.15886

 Excited State  85:      Singlet-A'    16.9784 eV   73.02 nm  f=0.0023  <S**2>=0.000
       6 -> 16         0.41475
       6 -> 17        -0.15207
       8 -> 23         0.35351
       9 -> 24         0.38597

 Excited State  86:      Singlet-A'    17.0643 eV   72.66 nm  f=0.0705  <S**2>=0.000
       6 -> 17         0.17725
       7 -> 21         0.12655
       8 -> 23        -0.24546
       9 -> 24         0.37226
      11 -> 28         0.47215

 Excited State  87:      Singlet-A'    17.2217 eV   71.99 nm  f=0.0136  <S**2>=0.000
       6 -> 16        -0.35129
       7 -> 20        -0.13651
       9 -> 24         0.41481
      11 -> 28        -0.32341
      11 -> 30         0.12659

 Excited State  88:      Singlet-A'    17.3803 eV   71.34 nm  f=0.0330  <S**2>=0.000
       6 -> 16         0.13796
       6 -> 17         0.58911
       7 -> 21        -0.13121
      12 -> 34        -0.29473

 Excited State  89:      Singlet-A'    17.4943 eV   70.87 nm  f=0.0811  <S**2>=0.000
       6 -> 17         0.14086
       7 -> 21        -0.42314
      11 -> 30         0.14268
      12 -> 34         0.49346

 Excited State  90:      Singlet-A"    17.5508 eV   70.64 nm  f=0.0070  <S**2>=0.000
       7 -> 22        -0.24391
       8 -> 24         0.50024
       9 -> 25        -0.40347

 Excited State  91:      Singlet-A"    17.5712 eV   70.56 nm  f=0.0210  <S**2>=0.000
       7 -> 22         0.23587
       8 -> 24         0.47900
       9 -> 25         0.43214
       9 -> 26        -0.10567

 Excited State  92:      Singlet-A'    17.5977 eV   70.45 nm  f=0.0099  <S**2>=0.000
      11 -> 29         0.67396

 Excited State  93:      Singlet-A"    17.6360 eV   70.30 nm  f=0.0479  <S**2>=0.000
       7 -> 22         0.50098
       9 -> 25        -0.24291
      11 -> 31         0.19825
      12 -> 35        -0.35026

 Excited State  94:      Singlet-A"    17.7091 eV   70.01 nm  f=0.0111  <S**2>=0.000
      11 -> 31         0.57530
      12 -> 35         0.40014

 Excited State  95:      Singlet-A'    17.7096 eV   70.01 nm  f=0.0303  <S**2>=0.000
       6 -> 17        -0.11329
       7 -> 21        -0.12898
       7 -> 23        -0.11262
      11 -> 28         0.12682
      11 -> 30         0.58590
      12 -> 34        -0.22664

 Excited State  96:      Singlet-A"    17.7729 eV   69.76 nm  f=0.0622  <S**2>=0.000
       7 -> 22         0.26991
       8 -> 24        -0.10249
       9 -> 25        -0.14147
      11 -> 31        -0.30977
      12 -> 35         0.41998
      12 -> 36         0.30362

 Excited State  97:      Singlet-A'    17.8279 eV   69.55 nm  f=0.0287  <S**2>=0.000
       6 -> 17         0.13086
       7 -> 21         0.40434
       7 -> 23        -0.14647
       8 -> 25        -0.13492
       8 -> 26        -0.13841
       9 -> 27         0.28447
      10 -> 28        -0.13645
      11 -> 30         0.25678
      12 -> 34         0.19781

 Excited State  98:      Singlet-A"    17.9388 eV   69.12 nm  f=0.0476  <S**2>=0.000
       7 -> 22        -0.14472
       9 -> 26        -0.41180
      12 -> 35        -0.10950
      12 -> 36         0.51197
      12 -> 37         0.12005

 Excited State  99:      Singlet-A'    17.9761 eV   68.97 nm  f=0.0083  <S**2>=0.000
       7 -> 23         0.23525
       8 -> 25         0.13799
       9 -> 27         0.17935
      10 -> 28         0.60273

 Excited State 100:      Singlet-A"    18.0577 eV   68.66 nm  f=0.0167  <S**2>=0.000
       7 -> 22        -0.12212
       9 -> 25         0.20026
       9 -> 26         0.54357
      11 -> 31         0.11008
      12 -> 36         0.31727
      12 -> 37         0.11975

 Excited State 101:      Singlet-A'    18.0818 eV   68.57 nm  f=0.0075  <S**2>=0.000
       6 -> 18         0.26909
       7 -> 21        -0.10972
       7 -> 23         0.31195
       9 -> 27         0.47450
      10 -> 28        -0.21668

 Excited State 102:      Singlet-A'    18.1464 eV   68.32 nm  f=0.0158  <S**2>=0.000
       6 -> 18         0.52844
       7 -> 21         0.12825
       7 -> 23         0.18479
       8 -> 25        -0.12538
       8 -> 26        -0.10891
       9 -> 27        -0.32481

 Excited State 103:      Singlet-A"    18.1988 eV   68.13 nm  f=0.0157  <S**2>=0.000
       5 -> 13         0.33021
       6 -> 19         0.20524
      12 -> 36        -0.14686
      12 -> 37         0.54928

 Excited State 104:      Singlet-A'    18.2320 eV   68.00 nm  f=0.0162  <S**2>=0.000
       6 -> 18        -0.34048
       7 -> 23         0.48085
       8 -> 25        -0.12721
       8 -> 26        -0.12829
       9 -> 27        -0.14656
      10 -> 28        -0.13393
      11 -> 30         0.11957
      12 -> 38         0.11951

 Excited State 105:      Singlet-A"    18.2828 eV   67.81 nm  f=0.0002  <S**2>=0.000
       6 -> 19         0.65969
      12 -> 37        -0.23936

 Excited State 106:      Singlet-A'    18.2925 eV   67.78 nm  f=0.2031  <S**2>=0.000
       6 -> 20        -0.17072

 The electronic state is 1-A'.
 Alpha  occ. eigenvalues --  -24.12317  -9.87473  -9.79246  -1.11257  -0.69487
 Alpha  occ. eigenvalues --   -0.55212  -0.48865  -0.44116  -0.42075  -0.36943
 Alpha  occ. eigenvalues --   -0.33124  -0.24850
 Alpha virt. eigenvalues --   -0.04057   0.01466   0.03605   0.05828   0.08134
 Alpha virt. eigenvalues --    0.11154   0.11977   0.12922   0.15203   0.15727
 Alpha virt. eigenvalues --    0.17571   0.20535   0.22265   0.23801   0.24209

 Mulliken charges:
               1
     1  F   -0.353329
     2  C    0.553959
     3  C    0.081357
     4  H   -0.136506
     5  H   -0.133756
     6  H   -0.011726
 Sum of Mulliken charges =  -0.00000

 Dipole moment (field-independent basis, Debye):
    X=              1.1162    Y=              0.7316    Z=              0.0000  Tot=              1.3346
 Quadrupole moment (field-independent basis, Debye-Ang):
   XX=            -17.8035   YY=            -15.8621   ZZ=            -19.2040
   XY=             -0.7977   XZ=              0.0000   YZ=              0.0000

 Normal termination of Gaussian 16 at Mon Mar 21 20:06:14 2022.
