 Gaussian 16, Revision C.01,
 Gaussian 16:  EM64L-G16RevC.01  3-Jul-2019

 ---------------------------------------------------------------------
 #P TD(Nstates=10000) svwn5/Gen SCF(maxcycles=100) Int(Grid=ultrafine)
 ---------------------------------------------------------------------

 ---------------------
 xGDB7_00001_tier4.com
 ---------------------
 Symbolic Z-matrix:
 Charge =  0 Multiplicity = 1

                         Standard orientation:
 ---------------------------------------------------------------------
 Center     Atomic      Atomic             Coordinates (Angstroms)
 Number     Number       Type             X           Y           Z
 ---------------------------------------------------------------------
      1          6           0        0.000000    0.000000    0.597322
      2          6           0        0.000000    0.000000   -0.597322
      3          1           0        0.000000    0.000000    1.661338
      4          1           0        0.000000    0.000000   -1.661338
 ---------------------------------------------------------------------

 SCF Done:  E(RS-VWN5) =  -76.5364675498     A.U. after    9 cycles

 Excitation energies and oscillator strengths:

 Excited state symmetry could not be determined.
 Excited State   1:      Singlet-?Sym    6.9624 eV  178.08 nm  f=0.0000  <S**2>=0.000
       6 ->  8        -0.50000
       7 ->  9         0.50000
 This state for optimization and/or second-order correction.
 Total Energy, E(TD-HF/TD-DFT) =  -76.2806025000
 Copying the excited state density for this state as the 1-particle RhoCI density.

 Excited state symmetry could not be determined.
 Excited State   2:      Singlet-?Sym    7.2676 eV  170.60 nm  f=0.0000  <S**2>=0.000
       6 ->  8         0.49983
       7 ->  9         0.49983

 Excited state symmetry could not be determined.
 Excited State   3:      Singlet-?Sym    7.2676 eV  170.60 nm  f=0.0000  <S**2>=0.000
       6 ->  9        -0.49983
       7 ->  8         0.49983

 Excited state symmetry could not be determined.
 Excited State   4:      Singlet-?Sym    8.2079 eV  151.06 nm  f=0.0949  <S**2>=0.000
       6 -> 10         0.69999

 Excited state symmetry could not be determined.
 Excited State   5:      Singlet-?Sym    8.2079 eV  151.06 nm  f=0.0949  <S**2>=0.000
       7 -> 10         0.69999

 Excited state symmetry could not be determined.
 Excited State   6:      Singlet-?Sym    8.4427 eV  146.85 nm  f=0.0000  <S**2>=0.000
       6 -> 11         0.70391

 Excited state symmetry could not be determined.
 Excited State   7:      Singlet-?Sym    8.4427 eV  146.85 nm  f=0.0000  <S**2>=0.000
       7 -> 11         0.70391

 Excited state symmetry could not be determined.
 Excited State   8:      Singlet-?Sym    9.7266 eV  127.47 nm  f=0.0395  <S**2>=0.000
       6 -> 12         0.66575
       7 -> 12         0.22767

 Excited state symmetry could not be determined.
 Excited State   9:      Singlet-?Sym    9.7266 eV  127.47 nm  f=0.0395  <S**2>=0.000
       6 -> 12        -0.22767
       7 -> 12         0.66575

 Excited state symmetry could not be determined.
 Excited State  10:      Singlet-?Sym   10.1594 eV  122.04 nm  f=0.8082  <S**2>=0.000
       6 ->  9         0.46227
       6 -> 19        -0.18759
       7 ->  8         0.46227
       7 -> 18        -0.18759

 Excited state symmetry could not be determined.
 Excited State  11:      Singlet-?Sym   11.4340 eV  108.43 nm  f=0.0000  <S**2>=0.000
       5 ->  9        -0.14751
       6 -> 13         0.67878
       7 -> 13         0.11682

 Excited state symmetry could not be determined.
 Excited State  12:      Singlet-?Sym   11.4340 eV  108.43 nm  f=0.0000  <S**2>=0.000
       5 ->  8        -0.14751
       6 -> 13        -0.11682
       7 -> 13         0.67878

 Excited state symmetry could not be determined.
 Excited State  13:      Singlet-?Sym   11.5440 eV  107.40 nm  f=0.0000  <S**2>=0.000
       6 -> 15         0.49996
       7 -> 14         0.49996

 Excited state symmetry could not be determined.
 Excited State  14:      Singlet-?Sym   11.5440 eV  107.40 nm  f=0.0000  <S**2>=0.000
       6 -> 14         0.49996
       7 -> 15        -0.49996

 Excited state symmetry could not be determined.
 Excited State  15:      Singlet-?Sym   11.5895 eV  106.98 nm  f=0.0000  <S**2>=0.000
       6 -> 15        -0.50000
       7 -> 14         0.50000

 Excited state symmetry could not be determined.
 Excited State  16:      Singlet-?Sym   12.2054 eV  101.58 nm  f=0.0000  <S**2>=0.000
       5 ->  8        -0.43956
       5 ->  9         0.52962
       6 -> 13         0.11101

 Excited state symmetry could not be determined.
 Excited State  17:      Singlet-?Sym   12.2054 eV  101.58 nm  f=0.0000  <S**2>=0.000
       5 ->  8         0.52962
       5 ->  9         0.43956
       7 -> 13         0.11101

 Excited state symmetry could not be determined.
 Excited State  18:      Singlet-?Sym   12.3055 eV  100.76 nm  f=0.0000  <S**2>=0.000
       5 -> 12        -0.16217
       6 -> 14         0.47666
       7 -> 15         0.47666

 Excited state symmetry could not be determined.
 Excited State  19:      Singlet-?Sym   13.0595 eV   94.94 nm  f=0.0000  <S**2>=0.000
       6 -> 16         0.29720
       6 -> 17        -0.40209
       7 -> 16         0.40209
       7 -> 17         0.29720

 Excited state symmetry could not be determined.
 Excited State  20:      Singlet-?Sym   13.0595 eV   94.94 nm  f=0.0000  <S**2>=0.000
       6 -> 16         0.40209
       6 -> 17         0.29720
       7 -> 16        -0.29720
       7 -> 17         0.40209

 Excited State  21:      Singlet-SGG   13.2098 eV   93.86 nm  f=0.0000  <S**2>=0.000
       5 -> 10         0.69727

 Excited State  22:      Singlet-SGU   13.3608 eV   92.80 nm  f=0.2794  <S**2>=0.000
       5 -> 11         0.70101

 Excited state symmetry could not be determined.
 Excited State  23:      Singlet-?Sym   13.4265 eV   92.34 nm  f=0.1127  <S**2>=0.000
       4 ->  8        -0.25973
       4 ->  9        -0.28968
       6 -> 16         0.27812
       6 -> 17         0.31020
       7 -> 16         0.31020
       7 -> 17        -0.27812

 Excited state symmetry could not be determined.
 Excited State  24:      Singlet-?Sym   13.4265 eV   92.34 nm  f=0.1127  <S**2>=0.000
       4 ->  8        -0.28968
       4 ->  9         0.25973
       6 -> 16         0.31020
       6 -> 17        -0.27812
       7 -> 16        -0.27812
       7 -> 17        -0.31020

 Excited state symmetry could not be determined.
 Excited State  25:      Singlet-?Sym   13.8772 eV   89.34 nm  f=0.0000  <S**2>=0.000
       6 -> 18         0.50000
       7 -> 19        -0.50000

 Excited state symmetry could not be determined.
 Excited State  26:      Singlet-?Sym   13.9074 eV   89.15 nm  f=0.0000  <S**2>=0.000
       6 -> 19        -0.49964
       7 -> 18         0.49964

 Excited state symmetry could not be determined.
 Excited State  27:      Singlet-?Sym   13.9074 eV   89.15 nm  f=0.0000  <S**2>=0.000
       6 -> 18         0.49964
       7 -> 19         0.49964

 Excited State  28:      Singlet-SGU   14.6776 eV   84.47 nm  f=0.0584  <S**2>=0.000
       4 -> 10         0.61688
       6 -> 19        -0.23712
       7 -> 18        -0.23712

 Excited State  29:      Singlet-SGG   14.7417 eV   84.10 nm  f=0.0000  <S**2>=0.000
       4 -> 11        -0.47887
       5 -> 12         0.51466

 Excited state symmetry could not be determined.
 Excited State  30:      Singlet-?Sym   14.9175 eV   83.11 nm  f=0.5213  <S**2>=0.000
       4 ->  8        -0.19785
       4 ->  9         0.52255
       5 -> 14        -0.11858
       6 -> 17         0.23531
       6 -> 20        -0.13403
       6 -> 22        -0.11802
       7 -> 16         0.23531

 Excited state symmetry could not be determined.
 Excited State  31:      Singlet-?Sym   14.9175 eV   83.11 nm  f=0.5213  <S**2>=0.000
       4 ->  8         0.52255
       4 ->  9         0.19785
       5 -> 15        -0.11858
       6 -> 16         0.23531
       7 -> 17        -0.23531
       7 -> 20        -0.13403
       7 -> 22        -0.11802

 Excited state symmetry could not be determined.
 Excited State  32:      Singlet-?Sym   15.4790 eV   80.10 nm  f=0.0257  <S**2>=0.000
       4 -> 10         0.29480
       4 -> 12         0.29019
       5 -> 13         0.24173
       6 ->  9         0.12719
       6 -> 19         0.32741
       7 ->  8         0.12719
       7 -> 18         0.32741

 Excited State  33:      Singlet-SGG   15.7235 eV   78.85 nm  f=0.0000  <S**2>=0.000
       4 -> 11         0.48419
       4 -> 13         0.16137
       5 -> 12         0.42245
       6 -> 14         0.10656
       7 -> 15         0.10656

 Excited state symmetry could not be determined.
 Excited State  34:      Singlet-?Sym   16.0114 eV   77.44 nm  f=0.1531  <S**2>=0.000
       5 -> 14        -0.13886
       5 -> 15         0.10169
       6 -> 20         0.54382
       7 -> 20        -0.39822

 Excited state symmetry could not be determined.
 Excited State  35:      Singlet-?Sym   16.0114 eV   77.44 nm  f=0.1531  <S**2>=0.000
       5 -> 14        -0.10169
       5 -> 15        -0.13886
       6 -> 20         0.39822
       7 -> 20         0.54382

 Excited state symmetry could not be determined.
 Excited State  36:      Singlet-?Sym   16.0661 eV   77.17 nm  f=0.0000  <S**2>=0.000
       6 -> 21         0.65142
       7 -> 21        -0.24071

 Excited state symmetry could not be determined.
 Excited State  37:      Singlet-?Sym   16.0661 eV   77.17 nm  f=0.0000  <S**2>=0.000
       6 -> 21         0.24071
       7 -> 21         0.65142

 Excited State  38:      Singlet-SGU   16.4417 eV   75.41 nm  f=0.0370  <S**2>=0.000
       4 -> 10        -0.12675
       4 -> 12         0.58055
       5 -> 13         0.15751
       6 -> 19        -0.17391
       6 -> 28        -0.11587
       7 -> 18        -0.17391
       7 -> 29        -0.11587

 Excited state symmetry could not be determined.
 Excited State  39:      Singlet-?Sym   16.4777 eV   75.24 nm  f=0.2919  <S**2>=0.000
       5 -> 14         0.64687
       6 -> 20         0.12542
       6 -> 22        -0.20823

 Excited state symmetry could not be determined.
 Excited State  40:      Singlet-?Sym   16.4777 eV   75.24 nm  f=0.2919  <S**2>=0.000
       5 -> 15         0.64687
       7 -> 20         0.12542
       7 -> 22        -0.20823

 Excited state symmetry could not be determined.
 Excited State  41:      Singlet-?Sym   16.7866 eV   73.86 nm  f=0.0000  <S**2>=0.000
       6 -> 23         0.38181
       6 -> 24        -0.32285
       7 -> 23         0.32285
       7 -> 24         0.38181

 Excited state symmetry could not be determined.
 Excited State  42:      Singlet-?Sym   16.7866 eV   73.86 nm  f=0.0000  <S**2>=0.000
       6 -> 23        -0.32285
       6 -> 24        -0.38181
       7 -> 23         0.38181
       7 -> 24        -0.32285

 Excited state symmetry could not be determined.
 Excited State  43:      Singlet-?Sym   16.9825 eV   73.01 nm  f=0.0000  <S**2>=0.000
       6 -> 23        -0.35060
       6 -> 24        -0.33673
       7 -> 23        -0.33672
       7 -> 24         0.35060

 Excited state symmetry could not be determined.
 Excited State  44:      Singlet-?Sym   16.9825 eV   73.01 nm  f=0.0000  <S**2>=0.000
       6 -> 23        -0.33672
       6 -> 24         0.35060
       7 -> 23         0.35060
       7 -> 24         0.33673

 Excited state symmetry could not be determined.
 Excited State  45:      Singlet-?Sym   16.9846 eV   73.00 nm  f=0.1767  <S**2>=0.000
       4 ->  9         0.12441
       5 -> 14         0.15376
       6 -> 22         0.62273
       7 -> 22        -0.21254

 Excited state symmetry could not be determined.
 Excited State  46:      Singlet-?Sym   16.9846 eV   73.00 nm  f=0.1767  <S**2>=0.000
       4 ->  8         0.12441
       5 -> 15         0.15376
       6 -> 22         0.21254
       7 -> 22         0.62273

 Excited State  47:      Singlet-SGU   17.0189 eV   72.85 nm  f=0.6789  <S**2>=0.000
       4 -> 12        -0.25207
       5 -> 13         0.62758

 Excited state symmetry could not be determined.
 Excited State  48:      Singlet-?Sym   17.3355 eV   71.52 nm  f=0.0000  <S**2>=0.000
       6 -> 25         0.49984
       7 -> 26        -0.49984

 Excited state symmetry could not be determined.
 Excited State  49:      Singlet-?Sym   17.3355 eV   71.52 nm  f=0.0000  <S**2>=0.000
       6 -> 26         0.49984
       7 -> 25         0.49984

 Excited state symmetry could not be determined.
 Excited State  50:      Singlet-?Sym   17.4838 eV   70.91 nm  f=0.0000  <S**2>=0.000
       6 -> 26        -0.50000
       7 -> 25         0.50000

 Excited state symmetry could not be determined.
 Excited State  51:      Singlet-?Sym   17.8554 eV   69.44 nm  f=0.0000  <S**2>=0.000
       3 -> 10        -0.12221
       4 -> 13         0.16664
       6 -> 25         0.45855
       7 -> 26         0.45855

 Excited state symmetry could not be determined.
 Excited State  52:      Singlet-?Sym   18.0083 eV   68.85 nm  f=0.0000  <S**2>=0.000
       4 -> 14         0.69614

 Excited state symmetry could not be determined.
 Excited State  53:      Singlet-?Sym   18.0083 eV   68.85 nm  f=0.0000  <S**2>=0.000
       4 -> 15         0.69614

 Excited state symmetry could not be determined.
 Excited State  54:      Singlet-?Sym   18.0435 eV   68.71 nm  f=0.0000  <S**2>=0.000
       5 -> 16         0.70691

 Excited state symmetry could not be determined.
 Excited State  55:      Singlet-?Sym   18.0435 eV   68.71 nm  f=0.0000  <S**2>=0.000
       5 -> 17         0.70691

 Excited state symmetry could not be determined.
 Excited State  56:      Singlet-?Sym   18.1647 eV   68.26 nm  f=0.0000  <S**2>=0.000
       3 ->  8        -0.20579
       3 ->  9         0.25715
       6 -> 27         0.48534
       7 -> 27        -0.38841

 Excited state symmetry could not be determined.
 Excited State  57:      Singlet-?Sym   18.1647 eV   68.26 nm  f=0.0000  <S**2>=0.000
       3 ->  8         0.25715
       3 ->  9         0.20579
       6 -> 27         0.38841
       7 -> 27         0.48534

 Excited State  58:      Singlet-SGG   18.4597 eV   67.16 nm  f=0.0000  <S**2>=0.000
       4 -> 13         0.65298
       6 -> 25        -0.13947
       7 -> 26        -0.13947

 Excited state symmetry could not be determined.
 Excited State  59:      Singlet-?Sym   18.6237 eV   66.57 nm  f=0.0000  <S**2>=0.000
       5 -> 18        -0.26552
       5 -> 19         0.63237

 Excited state symmetry could not be determined.
 Excited State  60:      Singlet-?Sym   18.6237 eV   66.57 nm  f=0.0000  <S**2>=0.000
       5 -> 18         0.63237
       5 -> 19         0.26552

 Excited state symmetry could not be determined.
 Excited State  61:      Singlet-?Sym   18.6424 eV   66.51 nm  f=0.0000  <S**2>=0.000
       6 -> 29         0.49869
       7 -> 28         0.49869

 Excited state symmetry could not be determined.
 Excited State  62:      Singlet-?Sym   18.6424 eV   66.51 nm  f=0.0000  <S**2>=0.000
       6 -> 28         0.49869
       7 -> 29        -0.49869

 Excited state symmetry could not be determined.
 Excited State  63:      Singlet-?Sym   18.7842 eV   66.00 nm  f=0.0000  <S**2>=0.000
       6 -> 29        -0.50000
       7 -> 28         0.50000

 Excited state symmetry could not be determined.
 Excited State  64:      Singlet-?Sym   18.8248 eV   65.86 nm  f=0.0140  <S**2>=0.000
       3 -> 11        -0.34168
       6 -> 28         0.42600
       7 -> 29         0.42600

 Excited state symmetry could not be determined.
 Excited State  65:      Singlet-?Sym   18.8805 eV   65.67 nm  f=0.0000  <S**2>=0.000
       3 ->  8         0.56636
       3 ->  9        -0.16216
       5 -> 18         0.12651
       7 -> 27        -0.30396

 Excited state symmetry could not be determined.
 Excited State  66:      Singlet-?Sym   18.8805 eV   65.67 nm  f=0.0000  <S**2>=0.000
       3 ->  8         0.16216
       3 ->  9         0.56636
       5 -> 19         0.12651
       6 -> 27        -0.30396

 Excited State  67:      Singlet-SGG   19.2633 eV   64.36 nm  f=0.0000  <S**2>=0.000
       3 -> 10         0.68903

 Excited state symmetry could not be determined.
 Excited State  68:      Singlet-?Sym   19.6979 eV   62.94 nm  f=0.0000  <S**2>=0.000
       4 -> 16         0.70528

 Excited state symmetry could not be determined.
 Excited State  69:      Singlet-?Sym   19.6979 eV   62.94 nm  f=0.0000  <S**2>=0.000
       4 -> 17         0.70528

 Excited State  70:      Singlet-SGU   19.7849 eV   62.67 nm  f=0.0121  <S**2>=0.000
       3 -> 11         0.59191
       3 -> 13         0.12703
       5 -> 27         0.10471
       6 -> 28         0.19494
       7 -> 29         0.19494

 Excited state symmetry could not be determined.
 Excited State  71:      Singlet-?Sym   20.4276 eV   60.69 nm  f=0.0051  <S**2>=0.000
       4 -> 18         0.25254
       4 -> 19         0.65154

 Excited state symmetry could not be determined.
 Excited State  72:      Singlet-?Sym   20.4276 eV   60.69 nm  f=0.0051  <S**2>=0.000
       4 -> 18         0.65154
       4 -> 19        -0.25254

 Excited State  73:      Singlet-SGG   20.8168 eV   59.56 nm  f=0.0000  <S**2>=0.000
       3 -> 12         0.55058
       5 -> 20        -0.42344

 Excited State  74:      Singlet-SGU   21.0382 eV   58.93 nm  f=0.2235  <S**2>=0.000
       5 -> 21         0.69668

 Excited State  75:      Singlet-SGG   21.0901 eV   58.79 nm  f=0.0000  <S**2>=0.000
       3 -> 12         0.42536
       5 -> 20         0.55365

 Excited state symmetry could not be determined.
 Excited State  76:      Singlet-?Sym   21.7802 eV   56.93 nm  f=0.0000  <S**2>=0.000
       5 -> 23         0.70694

 Excited state symmetry could not be determined.
 Excited State  77:      Singlet-?Sym   21.7802 eV   56.93 nm  f=0.0000  <S**2>=0.000
       5 -> 24         0.70694

 Excited State  78:      Singlet-SGG   22.0291 eV   56.28 nm  f=0.0000  <S**2>=0.000
       4 -> 21         0.32049
       5 -> 22         0.61236

 Excited State  79:      Singlet-SGU   22.4730 eV   55.17 nm  f=0.0286  <S**2>=0.000
       3 -> 13         0.46597
       4 -> 20         0.51583
       5 -> 27         0.10788

 Excited state symmetry could not be determined.
 Excited State  80:      Singlet-?Sym   22.5575 eV   54.96 nm  f=0.1524  <S**2>=0.000
       3 -> 14         0.14573
       3 -> 15         0.13147
       5 -> 25         0.50131
       5 -> 26         0.45225

 Excited state symmetry could not be determined.
 Excited State  81:      Singlet-?Sym   22.5575 eV   54.96 nm  f=0.1524  <S**2>=0.000
       3 -> 14        -0.13147
       3 -> 15         0.14573
       5 -> 25        -0.45225
       5 -> 26         0.50131

 Excited State  82:      Singlet-SGU   22.6155 eV   54.82 nm  f=0.0074  <S**2>=0.000
       3 -> 13         0.46839
       4 -> 20        -0.40056
       4 -> 22        -0.20874
       5 -> 27        -0.25185

 Excited state symmetry could not be determined.
 Excited State  83:      Singlet-?Sym   22.7847 eV   54.42 nm  f=0.0022  <S**2>=0.000
       3 -> 14         0.67490
       5 -> 25        -0.18626

 Excited state symmetry could not be determined.
 Excited State  84:      Singlet-?Sym   22.7847 eV   54.42 nm  f=0.0022  <S**2>=0.000
       3 -> 15         0.67490
       5 -> 26        -0.18626

 Excited State  85:      Singlet-SGG   23.0928 eV   53.69 nm  f=0.0000  <S**2>=0.000
       4 -> 21         0.60615
       5 -> 22        -0.27149
       6 -> 32        -0.11631
       7 -> 33        -0.11631

 Excited state symmetry could not be determined.
 Excited State  86:      Singlet-?Sym   23.4360 eV   52.90 nm  f=0.0000  <S**2>=0.000
       4 -> 23         0.70535

 Excited state symmetry could not be determined.
 Excited State  87:      Singlet-?Sym   23.4360 eV   52.90 nm  f=0.0000  <S**2>=0.000
       4 -> 24         0.70535

 Excited state symmetry could not be determined.
 Excited State  88:      Singlet-?Sym   23.5323 eV   52.69 nm  f=0.0000  <S**2>=0.000
       5 -> 28         0.70186

 Excited state symmetry could not be determined.
 Excited State  89:      Singlet-?Sym   23.5323 eV   52.69 nm  f=0.0000  <S**2>=0.000
       5 -> 29         0.70186

 Excited State  90:      Singlet-SGU   23.6473 eV   52.43 nm  f=0.2543  <S**2>=0.000
       3 -> 13         0.12306
       4 -> 22         0.63192
       5 -> 27        -0.25872

 Excited state symmetry could not be determined.
 Excited State  91:      Singlet-?Sym   24.1944 eV   51.25 nm  f=0.0000  <S**2>=0.000
       3 -> 19        -0.12192
       4 -> 25         0.62109
       4 -> 26         0.23617
       6 -> 30        -0.16980

 Excited state symmetry could not be determined.
 Excited State  92:      Singlet-?Sym   24.1944 eV   51.25 nm  f=0.0000  <S**2>=0.000
       3 -> 18        -0.12192
       4 -> 25        -0.23617
       4 -> 26         0.62109
       7 -> 30        -0.16980

 Excited state symmetry could not be determined.
 Excited State  93:      Singlet-?Sym   24.2639 eV   51.10 nm  f=0.0000  <S**2>=0.000
       3 -> 16         0.70535

 Excited state symmetry could not be determined.
 Excited State  94:      Singlet-?Sym   24.2639 eV   51.10 nm  f=0.0000  <S**2>=0.000
       3 -> 17         0.70535

 Excited State  95:      Singlet-SGU   24.3390 eV   50.94 nm  f=0.0476  <S**2>=0.000
       3 -> 13         0.13226
       3 -> 21         0.13370
       4 -> 20        -0.23429
       4 -> 22         0.19444
       5 -> 27         0.56335

 Excited state symmetry could not be determined.
 Excited State  96:      Singlet-?Sym   24.3426 eV   50.93 nm  f=0.0000  <S**2>=0.000
       3 -> 19        -0.24378
       4 -> 25         0.12739
       6 -> 30         0.64470

 Excited state symmetry could not be determined.
 Excited State  97:      Singlet-?Sym   24.3426 eV   50.93 nm  f=0.0000  <S**2>=0.000
       3 -> 18        -0.24378
       4 -> 26         0.12739
       7 -> 30         0.64470

 Excited state symmetry could not be determined.
 Excited State  98:      Singlet-?Sym   25.1898 eV   49.22 nm  f=0.0027  <S**2>=0.000
       4 -> 28         0.66542
       6 -> 31        -0.22246

 Excited state symmetry could not be determined.
 Excited State  99:      Singlet-?Sym   25.1898 eV   49.22 nm  f=0.0027  <S**2>=0.000
       4 -> 29         0.66542
       7 -> 31        -0.22246

 Excited state symmetry could not be determined.
 Excited State 100:      Singlet-?Sym   25.2155 eV   49.17 nm  f=0.0000  <S**2>=0.000
       3 -> 18         0.49487
       3 -> 19         0.41624
       4 -> 25         0.11246
       4 -> 26         0.13370
       6 -> 30         0.13158
       7 -> 30         0.15644

 Excited state symmetry could not be determined.
 Excited State 101:      Singlet-?Sym   25.2155 eV   49.17 nm  f=0.0000  <S**2>=0.000
       3 -> 18        -0.41624
       3 -> 19         0.49487
       4 -> 25         0.13370
       4 -> 26        -0.11246
       6 -> 30         0.15644
       7 -> 30        -0.13158

 Excited State 102:      Singlet-SGG   25.2800 eV   49.04 nm  f=0.0000  <S**2>=0.000
       4 -> 27         0.69185

 Excited state symmetry could not be determined.
 Excited State 103:      Singlet-?Sym   25.5049 eV   48.61 nm  f=0.0181  <S**2>=0.000
       4 -> 29         0.20998
       6 -> 31         0.19941
       7 -> 31         0.63605

 Excited state symmetry could not be determined.
 Excited State 104:      Singlet-?Sym   25.5049 eV   48.61 nm  f=0.0181  <S**2>=0.000
       4 -> 28         0.20998
       6 -> 31         0.63605
       7 -> 31        -0.19941

 Excited state symmetry could not be determined.
 Excited State 105:      Singlet-?Sym   26.3710 eV   47.02 nm  f=0.0000  <S**2>=0.000
       6 -> 32         0.49998
       7 -> 33        -0.49998

 Excited state symmetry could not be determined.
 Excited State 106:      Singlet-?Sym   26.3710 eV   47.02 nm  f=0.0000  <S**2>=0.000
       6 -> 33         0.49998
       7 -> 32         0.49998

 Excited state symmetry could not be determined.
 Excited State 107:      Singlet-?Sym   26.4290 eV   46.91 nm  f=0.0000  <S**2>=0.000
       6 -> 33        -0.50000

 The electronic state is 1-SGG.
 Alpha  occ. eigenvalues --   -9.80116  -9.79885  -0.67068  -0.50757  -0.44730
 Alpha  occ. eigenvalues --   -0.26986  -0.26986
 Alpha virt. eigenvalues --   -0.01399  -0.01399   0.03225   0.03750   0.08327
 Alpha virt. eigenvalues --    0.14621   0.15605   0.15605   0.21626   0.21626
 Alpha virt. eigenvalues --    0.24012   0.24012   0.31522   0.31960   0.34819

 Mulliken charges:
               1
     1  C    0.201904
     2  C    0.201904
     3  H   -0.201904
     4  H   -0.201904
 Sum of Mulliken charges =   0.00000

 Dipole moment (field-independent basis, Debye):
    X=             -0.0000    Y=             -0.0000    Z=              0.0000  Tot=              0.0000
 Quadrupole moment (field-independent basis, Debye-Ang):
   XX=            -13.5197   YY=            -13.5197   ZZ=             -7.3572
   XY=             -0.0000   XZ=              0.0000   YZ=              0.0000

 Normal termination of Gaussian 16 at Mon Mar 21 04:00:00 2022.
