 Gaussian 16, Revision C.01,
 Gaussian 16:  EM64L-G16RevC.01  3-Jul-2019

 ---------------------------------------------------------------------
 #P TD(Nstates=10000) svwn5/Gen SCF(maxcycles=100) Int(Grid=ultrafine)
 ---------------------------------------------------------------------

 ---------------------
 xGDB7_00001_tier4.com
 ---------------------
 Symbolic Z-matrix:
 Charge =  0 Multiplicity = 1

                         Standard orientation:
 ---------------------------------------------------------------------
 Center     Atomic      Atomic             Coordinates (Angstroms)
 Number     Number       Type             X           Y           Z
 ---------------------------------------------------------------------
      1          8           0       -1.023805   -0.438791    0.000000
      2          6           0       -0.000000    0.418952    0.000000
      3          8           0        1.152985    0.109982   -0.000000
      4          1           0       -0.656943   -1.333011    0.000000
      5          1           0       -0.376498    1.449770    0.000000
 ---------------------------------------------------------------------

 SCF Done:  E(RS-VWN5) =  -188.218305466     A.U. after   13 cycles

 Excitation energies and oscillator strengths:

 Excited State   1:      Singlet-A"     5.6544 eV  219.27 nm  f=0.0008  <S**2>=0.000
      12 -> 13         0.70679
 This state for optimization and/or second-order correction.
 Total Energy, E(TD-HF/TD-DFT) =  -188.010509868
 Copying the excited state density for this state as the 1-particle RhoCI density.

 Excited State   2:      Singlet-A'     7.0364 eV  176.20 nm  f=0.0432  <S**2>=0.000
      11 -> 13        -0.17956
      12 -> 14         0.68271

 Excited State   3:      Singlet-A'     7.8664 eV  157.61 nm  f=0.0539  <S**2>=0.000
      12 -> 15         0.70039

 Excited State   4:      Singlet-A"     8.3526 eV  148.44 nm  f=0.0038  <S**2>=0.000
      11 -> 14         0.70360

 Excited State   5:      Singlet-A'     8.4462 eV  146.79 nm  f=0.2151  <S**2>=0.000
      11 -> 13         0.63554
      12 -> 14         0.16673
      12 -> 16         0.12858

 Excited State   6:      Singlet-A"     8.6438 eV  143.44 nm  f=0.0003  <S**2>=0.000
      10 -> 13         0.70194

 Excited State   7:      Singlet-A"     9.1831 eV  135.01 nm  f=0.0166  <S**2>=0.000
      11 -> 15        -0.18460
      12 -> 17         0.68192

 Excited State   8:      Singlet-A'     9.1860 eV  134.97 nm  f=0.0780  <S**2>=0.000
      12 -> 16         0.68090
      12 -> 18         0.11466

 Excited State   9:      Singlet-A"     9.2190 eV  134.49 nm  f=0.0035  <S**2>=0.000
      11 -> 15         0.68229
      12 -> 17         0.18514

 Excited State  10:      Singlet-A'     9.7539 eV  127.11 nm  f=0.0118  <S**2>=0.000
      10 -> 14        -0.10037
      12 -> 16        -0.10299
      12 -> 18         0.68846

 Excited State  11:      Singlet-A'    10.0007 eV  123.98 nm  f=0.0594  <S**2>=0.000
      10 -> 14         0.69337

 Excited State  12:      Singlet-A'    10.3154 eV  120.19 nm  f=0.0028  <S**2>=0.000
       9 -> 13         0.10351
      11 -> 17        -0.17262
      12 -> 19         0.66715

 Excited State  13:      Singlet-A"    10.4623 eV  118.51 nm  f=0.0257  <S**2>=0.000
       8 -> 13         0.12016
      11 -> 16         0.69341

 Excited State  14:      Singlet-A'    10.6172 eV  116.78 nm  f=0.0015  <S**2>=0.000
      11 -> 17        -0.39960
      12 -> 20         0.56673

 Excited State  15:      Singlet-A'    10.6754 eV  116.14 nm  f=0.0094  <S**2>=0.000
      11 -> 17         0.53669
      12 -> 19         0.14344
      12 -> 20         0.41376

 Excited State  16:      Singlet-A"    10.8554 eV  114.21 nm  f=0.0035  <S**2>=0.000
       8 -> 13         0.65319
      11 -> 16        -0.12517
      11 -> 18         0.14538
      12 -> 21         0.13651

 Excited State  17:      Singlet-A'    10.8564 eV  114.20 nm  f=0.0625  <S**2>=0.000
      10 -> 15         0.68657

 Excited State  18:      Singlet-A"    10.9102 eV  113.64 nm  f=0.0072  <S**2>=0.000
       8 -> 13        -0.11041
      12 -> 21         0.68994

 Excited State  19:      Singlet-A"    11.1120 eV  111.58 nm  f=0.0002  <S**2>=0.000
       8 -> 13        -0.14846
      11 -> 18         0.68120

 Excited State  20:      Singlet-A'    11.4730 eV  108.07 nm  f=0.0810  <S**2>=0.000
       9 -> 13         0.32643
      12 -> 22         0.59869

 Excited State  21:      Singlet-A"    11.4743 eV  108.05 nm  f=0.0392  <S**2>=0.000
       9 -> 14         0.69799

 Excited State  22:      Singlet-A'    11.5151 eV  107.67 nm  f=0.0417  <S**2>=0.000
       9 -> 13         0.52694
      11 -> 21         0.17345
      12 -> 22        -0.35921
      12 -> 24        -0.10561

 Excited State  23:      Singlet-A"    11.6283 eV  106.62 nm  f=0.0002  <S**2>=0.000
      11 -> 19         0.70602

 Excited State  24:      Singlet-A"    11.8166 eV  104.92 nm  f=0.0092  <S**2>=0.000
       7 -> 13         0.45860
      11 -> 20         0.16111
      12 -> 23         0.49289

 Excited State  25:      Singlet-A"    11.8612 eV  104.53 nm  f=0.0129  <S**2>=0.000
       7 -> 13        -0.47604
      12 -> 23         0.49736

 Excited State  26:      Singlet-A'    11.8987 eV  104.20 nm  f=0.0218  <S**2>=0.000
       8 -> 14         0.68400
      12 -> 24        -0.12284

 Excited State  27:      Singlet-A"    12.0361 eV  103.01 nm  f=0.0002  <S**2>=0.000
       7 -> 13        -0.15214
      11 -> 20         0.67904

 Excited State  28:      Singlet-A'    12.0952 eV  102.51 nm  f=0.0257  <S**2>=0.000
      10 -> 16         0.67957
      11 -> 21         0.17031

 Excited State  29:      Singlet-A"    12.1368 eV  102.16 nm  f=0.0092  <S**2>=0.000
      10 -> 17         0.70322

 Excited State  30:      Singlet-A"    12.3681 eV  100.25 nm  f=0.0226  <S**2>=0.000
       9 -> 15         0.69726

 Excited State  31:      Singlet-A'    12.4187 eV   99.84 nm  f=0.0302  <S**2>=0.000
      10 -> 16        -0.10581
      10 -> 18         0.11715
      11 -> 21         0.52059
      12 -> 24         0.42608

 Excited State  32:      Singlet-A'    12.5032 eV   99.16 nm  f=0.0409  <S**2>=0.000
       8 -> 15        -0.16022
       9 -> 13         0.15567
      10 -> 18        -0.17940
      11 -> 21        -0.34616
      12 -> 24         0.49737

 Excited State  33:      Singlet-A'    12.7643 eV   97.13 nm  f=0.0069  <S**2>=0.000
       8 -> 15         0.62863
      10 -> 18        -0.30547

 Excited State  34:      Singlet-A"    12.8995 eV   96.12 nm  f=0.0001  <S**2>=0.000
      11 -> 22         0.70360

 Excited State  35:      Singlet-A'    12.9207 eV   95.96 nm  f=0.0410  <S**2>=0.000
       8 -> 15         0.26321
       9 -> 17        -0.13305
      10 -> 18         0.56410
      11 -> 21        -0.18118
      12 -> 25        -0.10701

 Excited State  36:      Singlet-A'    13.1101 eV   94.57 nm  f=0.0247  <S**2>=0.000
       7 -> 14         0.63144
      10 -> 19        -0.23361
      11 -> 23         0.13367
      12 -> 25         0.12424

 Excited State  37:      Singlet-A'    13.2207 eV   93.78 nm  f=0.0659  <S**2>=0.000
       7 -> 14         0.19768
      10 -> 19         0.64507
      12 -> 25         0.17341

 Excited State  38:      Singlet-A'    13.3907 eV   92.59 nm  f=0.0124  <S**2>=0.000
       9 -> 17         0.13307
      11 -> 23         0.61090
      12 -> 25        -0.23310
      12 -> 26         0.11788

 Excited State  39:      Singlet-A'    13.5402 eV   91.57 nm  f=0.0887  <S**2>=0.000
      10 -> 20         0.54351
      12 -> 25         0.41719

 Excited State  40:      Singlet-A"    13.6139 eV   91.07 nm  f=0.0226  <S**2>=0.000
       9 -> 16         0.69712

 Excited State  41:      Singlet-A'    13.6554 eV   90.79 nm  f=0.0158  <S**2>=0.000
       7 -> 14         0.13552
      10 -> 20         0.41155
      11 -> 23        -0.16776
      12 -> 25        -0.39333
      12 -> 26        -0.31468

 Excited State  42:      Singlet-A"    13.7483 eV   90.18 nm  f=0.0017  <S**2>=0.000
      10 -> 21         0.14559
      11 -> 24         0.68686

 Excited State  43:      Singlet-A'    13.8165 eV   89.74 nm  f=0.0148  <S**2>=0.000
       7 -> 15        -0.28377
       9 -> 17         0.61231

 Excited State  44:      Singlet-A"    13.8526 eV   89.50 nm  f=0.0278  <S**2>=0.000
      10 -> 21         0.69011
      11 -> 24        -0.14395

 Excited State  45:      Singlet-A'    14.0073 eV   88.51 nm  f=0.1089  <S**2>=0.000
       7 -> 15        -0.15765
       8 -> 16         0.65535
      12 -> 26         0.18074

 Excited State  46:      Singlet-A"    14.0922 eV   87.98 nm  f=0.0012  <S**2>=0.000
       8 -> 17         0.69692
       9 -> 18         0.10451

 Excited State  47:      Singlet-A"    14.2551 eV   86.98 nm  f=0.0003  <S**2>=0.000
       9 -> 18        -0.32825
      12 -> 27         0.62210

 Excited State  48:      Singlet-A'    14.2564 eV   86.97 nm  f=0.0537  <S**2>=0.000
       7 -> 15         0.59325
       8 -> 16         0.16359
       8 -> 18         0.16078
       9 -> 17         0.23043

 Excited State  49:      Singlet-A"    14.3390 eV   86.47 nm  f=0.0365  <S**2>=0.000
       6 -> 13         0.13731
       8 -> 17        -0.10460
       9 -> 18         0.58693
      12 -> 27         0.32967

 Excited State  50:      Singlet-A'    14.4537 eV   85.78 nm  f=0.0302  <S**2>=0.000
       8 -> 18        -0.16978
      10 -> 22         0.63324
      12 -> 26        -0.20260

 Excited State  51:      Singlet-A'    14.5817 eV   85.03 nm  f=0.0658  <S**2>=0.000
       8 -> 16        -0.13902
       8 -> 18         0.36074
      10 -> 22         0.29180
      12 -> 25        -0.12777
      12 -> 26         0.39729
      12 -> 28         0.11485
      12 -> 32        -0.10762

 Excited State  52:      Singlet-A"    14.7589 eV   84.01 nm  f=0.0066  <S**2>=0.000
       9 -> 19         0.63387
      10 -> 23        -0.12859
      11 -> 25         0.27189

 Excited State  53:      Singlet-A"    14.8078 eV   83.73 nm  f=0.0232  <S**2>=0.000
       9 -> 19        -0.29050
      10 -> 23        -0.30207
      11 -> 25         0.55766

 Excited State  54:      Singlet-A"    14.8402 eV   83.55 nm  f=0.0029  <S**2>=0.000
      10 -> 23         0.62134
      11 -> 25         0.32953

 Excited State  55:      Singlet-A'    14.9121 eV   83.14 nm  f=0.0442  <S**2>=0.000
       7 -> 16        -0.14460
       8 -> 18         0.49069
       9 -> 21        -0.13282
      10 -> 24         0.18465
      11 -> 23         0.11095
      12 -> 26        -0.24239
      12 -> 28        -0.19798
      12 -> 32         0.13218

 Excited State  56:      Singlet-A'    15.1415 eV   81.88 nm  f=0.0082  <S**2>=0.000
       7 -> 16        -0.13428
       8 -> 19         0.12335
       9 -> 21        -0.16874
      12 -> 26        -0.10811
      12 -> 28         0.63320

 Excited State  57:      Singlet-A"    15.1519 eV   81.83 nm  f=0.0269  <S**2>=0.000
       6 -> 13        -0.18200
       9 -> 20         0.67978

 Excited State  58:      Singlet-A'    15.1633 eV   81.77 nm  f=0.0008  <S**2>=0.000
       7 -> 16         0.19983
       8 -> 19         0.67041

 Excited State  59:      Singlet-A'    15.2599 eV   81.25 nm  f=0.0284  <S**2>=0.000
       7 -> 16         0.62489
       8 -> 19        -0.16740
       9 -> 21        -0.12498
      12 -> 28         0.10881

 Excited State  60:      Singlet-A"    15.2664 eV   81.21 nm  f=0.0110  <S**2>=0.000
       7 -> 17         0.69914
      11 -> 26         0.10096

 Excited State  61:      Singlet-A"    15.3835 eV   80.60 nm  f=0.0283  <S**2>=0.000
       6 -> 13         0.17664
      11 -> 26         0.66707

 Excited State  62:      Singlet-A'    15.4141 eV   80.44 nm  f=0.0706  <S**2>=0.000
       8 -> 20         0.16118
       9 -> 21         0.26673
      10 -> 24         0.60281
      11 -> 27        -0.10384

 Excited State  63:      Singlet-A'    15.5101 eV   79.94 nm  f=0.0125  <S**2>=0.000
       8 -> 18         0.10716
       8 -> 20         0.27620
       9 -> 21         0.50547
      10 -> 24        -0.25257
      11 -> 27         0.16350
      12 -> 32         0.12654

 Excited State  64:      Singlet-A'    15.6119 eV   79.42 nm  f=0.0165  <S**2>=0.000
       8 -> 20         0.60177
       9 -> 21        -0.27277
      12 -> 32        -0.11895

 Excited State  65:      Singlet-A'    15.7090 eV   78.93 nm  f=0.0359  <S**2>=0.000
      10 -> 24         0.13807
      11 -> 27         0.67190

 Excited State  66:      Singlet-A'    15.7816 eV   78.56 nm  f=0.0054  <S**2>=0.000
       7 -> 18         0.47996
      12 -> 29         0.51336

 Excited State  67:      Singlet-A"    15.8071 eV   78.44 nm  f=0.0019  <S**2>=0.000
       8 -> 21         0.70239

 Excited State  68:      Singlet-A'    15.9372 eV   77.80 nm  f=0.0242  <S**2>=0.000
       7 -> 18         0.40966
      10 -> 25         0.10942
      12 -> 29        -0.34461
      12 -> 30        -0.38899
      12 -> 32        -0.14924

 Excited State  69:      Singlet-A"    15.9653 eV   77.66 nm  f=0.1085  <S**2>=0.000
       6 -> 13         0.55944
       8 -> 23        -0.14896
       9 -> 18        -0.11968
       9 -> 20         0.14388
       9 -> 22         0.10042
      11 -> 26        -0.16174
      12 -> 31        -0.23268

 Excited State  70:      Singlet-A"    16.0161 eV   77.41 nm  f=0.0000  <S**2>=0.000
       9 -> 22         0.69279

 Excited State  71:      Singlet-A'    16.0414 eV   77.29 nm  f=0.0282  <S**2>=0.000
       6 -> 14         0.10642
       7 -> 18         0.22269
      12 -> 29        -0.25664
      12 -> 30         0.57391

 Excited State  72:      Singlet-A"    16.3491 eV   75.84 nm  f=0.0598  <S**2>=0.000
       6 -> 13         0.14762
       8 -> 23        -0.16224
      11 -> 28         0.17950
      12 -> 31         0.63504

 Excited State  73:      Singlet-A'    16.3681 eV   75.75 nm  f=0.0061  <S**2>=0.000
       6 -> 14        -0.12779
       7 -> 19         0.59291
       8 -> 22        -0.32745
      10 -> 25        -0.12047

 Excited State  74:      Singlet-A'    16.3799 eV   75.69 nm  f=0.0141  <S**2>=0.000
       7 -> 19         0.27132
       8 -> 22         0.54697
       9 -> 23         0.20660
      10 -> 25        -0.16361
      12 -> 32        -0.21367

 Excited State  75:      Singlet-A'    16.4333 eV   75.45 nm  f=0.0294  <S**2>=0.000
       6 -> 14        -0.10848
       8 -> 22        -0.11148
       9 -> 23         0.41131
      10 -> 25         0.50437
      12 -> 32        -0.14028

 Excited State  76:      Singlet-A"    16.5447 eV   74.94 nm  f=0.0976  <S**2>=0.000
       8 -> 23         0.11637
      11 -> 28         0.67509
      12 -> 31        -0.14389

 Excited State  77:      Singlet-A'    16.6318 eV   74.55 nm  f=0.1180  <S**2>=0.000
       7 -> 19        -0.17567
       7 -> 20         0.22755
       8 -> 22        -0.20111
       9 -> 23         0.43102
      10 -> 25        -0.37819

 Excited State  78:      Singlet-A'    16.7464 eV   74.04 nm  f=0.0438  <S**2>=0.000
       7 -> 19         0.11595
       7 -> 20         0.43848
       8 -> 22         0.13564
      10 -> 25         0.13652
      10 -> 26        -0.13026
      12 -> 32         0.41219

 Excited State  79:      Singlet-A'    16.7825 eV   73.88 nm  f=0.0081  <S**2>=0.000
       7 -> 20         0.49474
       8 -> 24        -0.10607
       9 -> 23        -0.23759
      10 -> 26         0.23047
      12 -> 32        -0.29381

 Excited State  80:      Singlet-A"    16.8517 eV   73.57 nm  f=0.0067  <S**2>=0.000
       8 -> 23         0.41367
       9 -> 24         0.56471

 Excited State  81:      Singlet-A'    16.9379 eV   73.20 nm  f=0.1157  <S**2>=0.000
       6 -> 14         0.49207
       9 -> 23         0.11832
      10 -> 26         0.43174
      12 -> 32         0.10291

 Excited State  82:      Singlet-A"    16.9768 eV   73.03 nm  f=0.0490  <S**2>=0.000
       6 -> 13         0.11914
       7 -> 21        -0.40731
       8 -> 23         0.41148
       9 -> 24        -0.32125
      10 -> 27        -0.13654

 Excited State  83:      Singlet-A"    17.0037 eV   72.92 nm  f=0.0111  <S**2>=0.000
       7 -> 21         0.57649
       8 -> 23         0.27831
       9 -> 24        -0.23423
      10 -> 27        -0.10982

 Excited State  84:      Singlet-A'    17.2300 eV   71.96 nm  f=0.0106  <S**2>=0.000
       6 -> 14        -0.31925
       6 -> 15        -0.11358
       8 -> 24         0.40960
      10 -> 26         0.38545
      11 -> 31         0.16427

 Excited State  85:      Singlet-A"    17.2559 eV   71.85 nm  f=0.0488  <S**2>=0.000
      10 -> 27         0.51273
      11 -> 29        -0.45313
      11 -> 30        -0.10132

 Excited State  86:      Singlet-A"    17.2814 eV   71.74 nm  f=0.0425  <S**2>=0.000
      10 -> 27         0.44377
      11 -> 29         0.50335
      11 -> 30         0.17359

 Excited State  87:      Singlet-A'    17.3984 eV   71.26 nm  f=0.0644  <S**2>=0.000
       6 -> 14         0.20890
       6 -> 15         0.12135
       8 -> 24         0.52385
      10 -> 26        -0.15863
      10 -> 28        -0.10111
      11 -> 31        -0.18693
      12 -> 32        -0.10373
      12 -> 33        -0.21749

 Excited State  88:      Singlet-A"    17.4236 eV   71.16 nm  f=0.0006  <S**2>=0.000
      11 -> 29        -0.19460
      11 -> 30         0.67573

 Excited State  89:      Singlet-A'    17.5706 eV   70.56 nm  f=0.0075  <S**2>=0.000
       6 -> 15         0.10482
       7 -> 22         0.28586
      11 -> 31        -0.16137
      12 -> 33         0.58947

 Excited State  90:      Singlet-A'    17.6366 eV   70.30 nm  f=0.0110  <S**2>=0.000
       7 -> 22         0.59382
      11 -> 31         0.30362
      12 -> 33        -0.17587

 Excited State  91:      Singlet-A"    17.7293 eV   69.93 nm  f=0.0012  <S**2>=0.000
      11 -> 32         0.69986

 Excited State  92:      Singlet-A'    17.8349 eV   69.52 nm  f=0.0805  <S**2>=0.000
       6 -> 15         0.39377
       7 -> 22        -0.16954
       7 -> 24         0.17804
      11 -> 31         0.47586
      12 -> 33         0.11540

 Excited State  93:      Singlet-A'    17.9174 eV   69.20 nm  f=0.0537  <S**2>=0.000
       6 -> 14        -0.13421
       6 -> 15         0.50921
      10 -> 26         0.10276
      10 -> 28         0.18920
      11 -> 31        -0.24390
      12 -> 33        -0.14689

 Excited State  94:      Singlet-A"    17.9268 eV   69.16 nm  f=0.0191  <S**2>=0.000
       7 -> 23         0.53996
       9 -> 25         0.44157

 Excited State  95:      Singlet-A"    17.9753 eV   68.97 nm  f=0.0708  <S**2>=0.000
       7 -> 23        -0.43112
       9 -> 25         0.54614

 Excited State  96:      Singlet-A'    18.2008 eV   68.12 nm  f=0.0614  <S**2>=0.000
       7 -> 24         0.11989
      10 -> 28         0.63177
      10 -> 30         0.10191

 Excited State  97:      Singlet-A'    18.3909 eV   67.42 nm  f=0.0005  <S**2>=0.000
       8 -> 25         0.67693
       8 -> 26         0.13779

 Excited State  98:      Singlet-A"    18.4428 eV   67.23 nm  f=0.0113  <S**2>=0.000
      12 -> 34         0.70163

 Excited State  99:      Singlet-A"    18.6104 eV   66.62 nm  f=0.0173  <S**2>=0.000
       9 -> 26         0.64923
      11 -> 33         0.19830

 Excited State 100:      Singlet-A'    18.6805 eV   66.37 nm  f=0.1329  <S**2>=0.000
       6 -> 16        -0.23875
       7 -> 24         0.58444
       7 -> 26         0.12076
      10 -> 30        -0.18469

 Excited State 101:      Singlet-A'    18.8045 eV   65.93 nm  f=0.0019  <S**2>=0.000
       6 -> 16        -0.19323
       9 -> 27         0.62274
      10 -> 29        -0.25687

 Excited State 102:      Singlet-A'    18.8865 eV   65.65 nm  f=0.0024  <S**2>=0.000
       6 -> 16        -0.36900
      10 -> 29         0.47413
      10 -> 30         0.30323

 Excited State 103:      Singlet-A'    18.9327 eV   65.49 nm  f=0.0072  <S**2>=0.000
       6 -> 16         0.44896
       8 -> 26        -0.33316
       9 -> 27         0.24125
      10 -> 29         0.28908

 Excited State 104:      Singlet-A"    18.9711 eV   65.35 nm  f=0.0001  <S**2>=0.000
       6 -> 17         0.59891
      11 -> 33        -0.36722

 Excited State 105:      Singlet-A"    19.0033 eV   65.24 nm  f=0.0175  <S**2>=0.000
       6 -> 17         0.35630
       9 -> 26        -0.19327
      11 -> 33         0.55681

 Excited State 106:      Singlet-A'    19.0548 eV   65.07 nm  f=0.0472  <S**2>=0.000
       6 -> 16         0.18692
       7 -> 24         0.13278
       8 -> 25        -0.11870
       8 -> 26         0.51835
       9 -> 27         0.13379
      10 -> 29         0.10071
      10 -> 30         0.22731
      12 -> 35        -0.18949

 Excited State 107:      Singlet-A'    19.1679 eV   64.68 nm  f=0.0029  <S**2>=0.000
       7 -> 26        -0.11314
       8 -> 26         0.25162
       9 -> 27         0.11707
      10 -> 29         0.22485
      10 -> 30        -0.38215
      12 -> 35         0.41867

 Excited State 108:      Singlet-A"    19.2080 eV   64.55 nm  f=0.0071  <S**2>=0.000
       8 -> 27         0.55698
      10 -> 31        -0.43431

 Excited State 109:      Singlet-A"    19.2400 eV   64.44 nm  f=0.0120  <S**2>=0.000
       8 -> 27         0.43130
      10 -> 31         0.54863

 Excited State 110:      Singlet-A'    19.3017 eV   64.23 nm  f=0.0581  <S**2>=0.000
      10 -> 30        -0.17211
      10 -> 32         0.65957

 Excited State 111:      Singlet-A'    19.3530 eV   64.06 nm  f=0.0957  <S**2>=0.000
       6 -> 18         0.13029
       7 -> 25         0.14114
       7 -> 26         0.11541
      10 -> 29        -0.15991
      10 -> 30         0.28479
      10 -> 32         0.19095
      12 -> 35         0.49991
      12 -> 36         0.12803

 Excited State 112:      Singlet-A'    19.6480 eV   63.10 nm  f=0.0952  <S**2>=0.000
       6 -> 18         0.53032
       7 -> 25         0.34694
       7 -> 26        -0.16831

 Excited State 113:      Singlet-A"    19.7044 eV   62.92 nm  f=0.0066  <S**2>=0.000
       9 -> 28         0.69048

 Excited State 114:      Singlet-A'    19.8091 eV   62.59 nm  f=0.0884  <S**2>=0.000
       6 -> 18        -0.24960
       7 -> 25         0.45235
       7 -> 26         0.19532
       8 -> 28        -0.17952
      10 -> 30        -0.12952
      11 -> 34         0.14429
      12 -> 36         0.31072

 Excited State 115:      Singlet-A'    19.8772 eV   62.38 nm  f=0.0193  <S**2>=0.000
       6 -> 18         0.10361
       6 -> 19         0.22461
       7 -> 25        -0.11843
       8 -> 28         0.18853
      11 -> 34         0.58471
      12 -> 36         0.16896

 Excited State 116:      Singlet-A'    20.0715 eV   61.77 nm  f=0.0079  <S**2>=0.000
       6 -> 19         0.47018
       7 -> 25        -0.13360

 The electronic state is 1-A'.
 Alpha  occ. eigenvalues --  -18.68430 -18.62923  -9.92938  -1.03024  -0.94368
 Alpha  occ. eigenvalues --   -0.62157  -0.48638  -0.44292  -0.42882  -0.37142
 Alpha  occ. eigenvalues --   -0.31417  -0.26393
 Alpha virt. eigenvalues --   -0.06569  -0.00980   0.02490   0.06948   0.07501
 Alpha virt. eigenvalues --    0.09261   0.11404   0.12817   0.13859   0.15842
 Alpha virt. eigenvalues --    0.17231   0.19062   0.23052   0.24594   0.26350

 Mulliken charges:
               1
     1  O   -0.170289
     2  C    0.479736
     3  O   -0.234426
     4  H    0.179276
     5  H   -0.254296
 Sum of Mulliken charges =  -0.00000

 Dipole moment (field-independent basis, Debye):
    X=             -1.5091    Y=             -0.3698    Z=             -0.0000  Tot=              1.5538
 Quadrupole moment (field-independent basis, Debye-Ang):
   XX=            -22.3803   YY=            -13.2030   ZZ=            -17.3837
   XY=              0.0931   XZ=              0.0000   YZ=             -0.0000

 Normal termination of Gaussian 16 at Mon Mar 21 20:06:07 2022.
