 Gaussian 16, Revision C.01,
 Gaussian 16:  EM64L-G16RevC.01  3-Jul-2019

 ---------------------------------------------------------------------
 #P TD(Nstates=10000) svwn5/Gen SCF(maxcycles=100) Int(Grid=ultrafine)
 ---------------------------------------------------------------------

 ---------------------
 xGDB7_00001_tier4.com
 ---------------------
 Symbolic Z-matrix:
 Charge =  0 Multiplicity = 1

                         Standard orientation:
 ---------------------------------------------------------------------
 Center     Atomic      Atomic             Coordinates (Angstroms)
 Number     Number       Type             X           Y           Z
 ---------------------------------------------------------------------
      1          6           0        0.000284   -0.018657   -1.236532
      2          6           0       -0.000055    0.003295    0.218717
      3          6           0       -0.000323    0.021367    1.415619
      4          1           0        0.273656    0.958689   -1.636635
      5          1           0       -0.987794   -0.279414   -1.618263
      6          1           0        0.715256   -0.752703   -1.610700
      7          1           0       -0.000556    0.037402    2.478776
 ---------------------------------------------------------------------

 SCF Done:  E(RS-VWN5) =  -115.465724649     A.U. after   13 cycles

 Excitation energies and oscillator strengths:

 Excited State   1:      Singlet-A      6.7628 eV  183.33 nm  f=0.0000  <S**2>=0.000
      10 -> 12        -0.31298
      10 -> 13         0.38991
      11 -> 12         0.38995
      11 -> 13         0.31298
 This state for optimization and/or second-order correction.
 Total Energy, E(TD-HF/TD-DFT) =  -115.217197957
 Copying the excited state density for this state as the 1-particle RhoCI density.

 Excited State   2:      Singlet-A      6.8503 eV  180.99 nm  f=0.0049  <S**2>=0.000
      11 -> 14         0.70651

 Excited State   3:      Singlet-A      6.8504 eV  180.99 nm  f=0.0049  <S**2>=0.000
      10 -> 14         0.70653

 Excited State   4:      Singlet-A      7.0449 eV  175.99 nm  f=0.0011  <S**2>=0.000
      10 -> 12         0.35411
      10 -> 13        -0.35203
      11 -> 12         0.35201
      11 -> 13         0.35409

 Excited State   5:      Singlet-A      7.0449 eV  175.99 nm  f=0.0011  <S**2>=0.000
      10 -> 12         0.35202
      10 -> 13         0.35412
      11 -> 12        -0.35409
      11 -> 13         0.35204

 Excited State   6:      Singlet-A      7.9583 eV  155.79 nm  f=0.0413  <S**2>=0.000
      11 -> 15         0.70545

 Excited State   7:      Singlet-A      7.9583 eV  155.79 nm  f=0.0413  <S**2>=0.000
      10 -> 15         0.70545

 Excited State   8:      Singlet-A      8.5571 eV  144.89 nm  f=0.0358  <S**2>=0.000
      11 -> 16         0.70382

 Excited State   9:      Singlet-A      8.5571 eV  144.89 nm  f=0.0358  <S**2>=0.000
      10 -> 16         0.70382

 Excited State  10:      Singlet-A      8.8371 eV  140.30 nm  f=0.4890  <S**2>=0.000
      10 -> 12        -0.26442
      10 -> 13        -0.21224
      10 -> 17         0.29527
      10 -> 18         0.20034
      11 -> 12        -0.21224
      11 -> 13         0.26442
      11 -> 17        -0.20035
      11 -> 18         0.29527

 Excited State  11:      Singlet-A      9.2690 eV  133.76 nm  f=0.0000  <S**2>=0.000
      10 -> 17         0.28071
      10 -> 18        -0.41354
      11 -> 17         0.41388
      11 -> 18         0.28071

 Excited State  12:      Singlet-A      9.2980 eV  133.35 nm  f=0.0026  <S**2>=0.000
      10 -> 17         0.20646
      10 -> 18         0.45379
      11 -> 17         0.45353
      11 -> 18        -0.20663

 Excited State  13:      Singlet-A      9.2980 eV  133.35 nm  f=0.0026  <S**2>=0.000
      10 -> 17         0.45370
      10 -> 18        -0.20660
      11 -> 17        -0.20649
      11 -> 18        -0.45362

 Excited State  14:      Singlet-A     10.0093 eV  123.87 nm  f=0.0000  <S**2>=0.000
      10 -> 20        -0.49891
      11 -> 19         0.49896

 Excited State  15:      Singlet-A     10.0622 eV  123.22 nm  f=0.0051  <S**2>=0.000
      10 -> 19         0.49454
      11 -> 20         0.49444

 Excited State  16:      Singlet-A     10.0739 eV  123.07 nm  f=0.0002  <S**2>=0.000
      10 -> 19         0.44449
      10 -> 20         0.19116
      10 -> 21         0.15810
      11 -> 19         0.19115
      11 -> 20        -0.44450

 Excited State  17:      Singlet-A     10.0739 eV  123.07 nm  f=0.0002  <S**2>=0.000
      10 -> 19        -0.19102
      10 -> 20         0.44449
      11 -> 19         0.44447
      11 -> 20         0.19127
      11 -> 21        -0.15819

 Excited State  18:      Singlet-A     10.0985 eV  122.77 nm  f=0.7200  <S**2>=0.000
       8 -> 12        -0.10174
       8 -> 13        -0.14243
       9 -> 12        -0.14244
       9 -> 13         0.10171
      10 -> 12         0.23017
      10 -> 13         0.18473
      10 -> 17         0.27125
      10 -> 18         0.18405
      10 -> 22        -0.10006
      11 -> 12         0.18473
      11 -> 13        -0.23017
      11 -> 17        -0.18404
      11 -> 18         0.27124
      11 -> 23         0.10006

 Excited State  19:      Singlet-A     10.2300 eV  121.20 nm  f=0.0252  <S**2>=0.000
      10 -> 20         0.10379
      11 -> 19         0.10378
      11 -> 21         0.67892

 Excited State  20:      Singlet-A     10.2301 eV  121.20 nm  f=0.0252  <S**2>=0.000
      10 -> 19        -0.10373
      10 -> 21         0.67894
      11 -> 20         0.10373

 Excited State  21:      Singlet-A     10.7673 eV  115.15 nm  f=0.0000  <S**2>=0.000
       8 -> 12        -0.40679
       8 -> 13         0.29050
       9 -> 12         0.29068
       9 -> 13         0.40696

 Excited State  22:      Singlet-A     10.9358 eV  113.37 nm  f=0.0372  <S**2>=0.000
       8 -> 13         0.31984
       9 -> 12        -0.31987
       9 -> 14         0.52945

 Excited State  23:      Singlet-A     10.9359 eV  113.37 nm  f=0.0371  <S**2>=0.000
       8 -> 12         0.32000
       8 -> 14         0.52924
       9 -> 13         0.32000

 Excited State  24:      Singlet-A     10.9743 eV  112.98 nm  f=0.0953  <S**2>=0.000
       7 -> 12         0.10452
       8 -> 12        -0.19767
       8 -> 13        -0.30916
       8 -> 14         0.16884
       9 -> 12         0.30907
       9 -> 13        -0.19766
       9 -> 14         0.42586

 Excited State  25:      Singlet-A     10.9744 eV  112.98 nm  f=0.0953  <S**2>=0.000
       7 -> 13         0.10450
       8 -> 12        -0.30904
       8 -> 13         0.19761
       8 -> 14         0.42616
       9 -> 12        -0.19760
       9 -> 13        -0.30884
       9 -> 14        -0.16887

 Excited State  26:      Singlet-A     11.3667 eV  109.08 nm  f=0.0023  <S**2>=0.000
      10 -> 23        -0.49822
      11 -> 22         0.49856

 Excited State  27:      Singlet-A     11.3667 eV  109.08 nm  f=0.0023  <S**2>=0.000
      10 -> 22         0.49839
      11 -> 23         0.49840

 Excited State  28:      Singlet-A     11.3926 eV  108.83 nm  f=0.0000  <S**2>=0.000
      10 -> 22         0.13672
      10 -> 23         0.48108
      11 -> 22         0.48073
      11 -> 23        -0.13671

 Excited State  29:      Singlet-A     11.4926 eV  107.88 nm  f=0.0304  <S**2>=0.000
       7 -> 14         0.69778

 Excited State  30:      Singlet-A     11.5239 eV  107.59 nm  f=0.0000  <S**2>=0.000
       7 -> 12         0.39762
       7 -> 13         0.40370
      10 -> 24         0.40367

 Excited State  31:      Singlet-A     11.5239 eV  107.59 nm  f=0.0000  <S**2>=0.000
       7 -> 12         0.40369
       7 -> 13        -0.39760
      11 -> 24         0.40370

 Excited State  32:      Singlet-A     11.6842 eV  106.11 nm  f=0.0327  <S**2>=0.000
       8 -> 12         0.24507
       8 -> 13         0.34314
       9 -> 12         0.34309
       9 -> 13        -0.24503
      10 -> 28        -0.10712
      11 -> 27         0.10713

 Excited State  33:      Singlet-A     11.9216 eV  104.00 nm  f=0.0121  <S**2>=0.000
       7 -> 12        -0.28822
       7 -> 13         0.25161
       9 -> 15        -0.13041
      11 -> 24         0.55084

 Excited State  34:      Singlet-A     11.9216 eV  104.00 nm  f=0.0121  <S**2>=0.000
       7 -> 12        -0.25161
       7 -> 13        -0.28823
       8 -> 15        -0.13016
      10 -> 24         0.55089

 Excited State  35:      Singlet-A     11.9737 eV  103.55 nm  f=0.0040  <S**2>=0.000
       9 -> 15         0.69414
      11 -> 24         0.10500

 Excited State  36:      Singlet-A     11.9738 eV  103.55 nm  f=0.0040  <S**2>=0.000
       8 -> 15         0.69419
      10 -> 24         0.10481

 Excited State  37:      Singlet-A     12.2751 eV  101.00 nm  f=0.1592  <S**2>=0.000
       7 -> 15         0.30217
      10 -> 22         0.38771
      10 -> 23        -0.11022
      11 -> 22        -0.11022
      11 -> 23        -0.38771

 Excited State  38:      Singlet-A     12.5113 eV   99.10 nm  f=0.0005  <S**2>=0.000
       9 -> 16         0.70393

 Excited State  39:      Singlet-A     12.5114 eV   99.10 nm  f=0.0005  <S**2>=0.000
       8 -> 16         0.70393

 Excited State  40:      Singlet-A     12.6421 eV   98.07 nm  f=0.0017  <S**2>=0.000
       6 -> 14        -0.11175
       7 -> 15         0.62272
      10 -> 22        -0.16234
      11 -> 23         0.16234

 Excited State  41:      Singlet-A     13.0190 eV   95.23 nm  f=0.0019  <S**2>=0.000
       6 -> 14         0.68730

 Excited State  42:      Singlet-A     13.1035 eV   94.62 nm  f=0.0000  <S**2>=0.000
      10 -> 25         0.16553
      10 -> 26         0.47020
      11 -> 25         0.47029
      11 -> 26        -0.16550

 Excited State  43:      Singlet-A     13.1457 eV   94.32 nm  f=0.1304  <S**2>=0.000
       7 -> 16         0.47478
      10 -> 25        -0.32800
      10 -> 26         0.11535
      11 -> 25         0.11552
      11 -> 26         0.32794

 Excited State  44:      Singlet-A     13.1755 eV   94.10 nm  f=0.0194  <S**2>=0.000
       6 -> 12         0.51029
      10 -> 25         0.34263
      11 -> 26         0.34237

 Excited State  45:      Singlet-A     13.1755 eV   94.10 nm  f=0.0194  <S**2>=0.000
       6 -> 13         0.51028
      10 -> 26        -0.34236
      11 -> 25         0.34264

 Excited State  46:      Singlet-A     13.1771 eV   94.09 nm  f=0.0667  <S**2>=0.000
       7 -> 16         0.50721
      10 -> 25         0.29094
      10 -> 26        -0.10312
      10 -> 28        -0.10891
      11 -> 25        -0.10178
      11 -> 26        -0.29122
      11 -> 27         0.10884

 Excited State  47:      Singlet-A     13.2819 eV   93.35 nm  f=0.0000  <S**2>=0.000
       8 -> 17         0.15811
       8 -> 18        -0.47404
       9 -> 17         0.47451
       9 -> 18         0.15826

 Excited State  48:      Singlet-A     13.3938 eV   92.57 nm  f=0.0314  <S**2>=0.000
       8 -> 18         0.47718
       9 -> 17         0.47675

 Excited State  49:      Singlet-A     13.3938 eV   92.57 nm  f=0.0314  <S**2>=0.000
       8 -> 17         0.47697
       9 -> 18        -0.47696

 Excited State  50:      Singlet-A     13.6053 eV   91.13 nm  f=0.0150  <S**2>=0.000
       6 -> 12         0.13269
       6 -> 13        -0.15545
      10 -> 25        -0.11735
      10 -> 26        -0.14273
      10 -> 27        -0.40515
      10 -> 28         0.14206
      11 -> 25         0.14273
      11 -> 26        -0.11737
      11 -> 27         0.14224
      11 -> 28         0.40539

 Excited State  51:      Singlet-A     13.6053 eV   91.13 nm  f=0.0150  <S**2>=0.000
       6 -> 12        -0.15544
       6 -> 13        -0.13268
      10 -> 25         0.14271
      10 -> 26        -0.11736
      10 -> 27         0.14220
      10 -> 28         0.40522
      11 -> 25         0.11734
      11 -> 26         0.14274
      11 -> 27         0.40533
      11 -> 28        -0.14210

 Excited State  52:      Singlet-A     13.6449 eV   90.86 nm  f=0.0000  <S**2>=0.000
      10 -> 27         0.38559
      10 -> 28        -0.31635
      11 -> 27         0.31612
      11 -> 28         0.38534

 Excited State  53:      Singlet-A     13.7564 eV   90.13 nm  f=0.0228  <S**2>=0.000
       6 -> 12        -0.10190
       7 -> 17         0.20847
       7 -> 18         0.14953
      10 -> 28        -0.15674
      10 -> 29         0.55264
      11 -> 27        -0.15666

 Excited State  54:      Singlet-A     13.7564 eV   90.13 nm  f=0.0228  <S**2>=0.000
       6 -> 13         0.10187
       7 -> 17        -0.14952
       7 -> 18         0.20848
      10 -> 27        -0.15661
      11 -> 28         0.15664
      11 -> 29         0.55272

 Excited State  55:      Singlet-A     13.8723 eV   89.38 nm  f=0.0110  <S**2>=0.000
       7 -> 17         0.59549
       7 -> 18        -0.16998
      10 -> 29        -0.20202
      11 -> 29         0.24157

 Excited State  56:      Singlet-A     13.8723 eV   89.38 nm  f=0.0110  <S**2>=0.000
       7 -> 17         0.17000
       7 -> 18         0.59548
      10 -> 29        -0.24157
      11 -> 29        -0.20204

 Excited State  57:      Singlet-A     13.9115 eV   89.12 nm  f=0.0029  <S**2>=0.000
       8 -> 17        -0.28502
       8 -> 19         0.35977
       8 -> 20        -0.12590
       9 -> 18        -0.28502
       9 -> 19         0.12597
       9 -> 20         0.35998

 Excited State  58:      Singlet-A     13.9975 eV   88.58 nm  f=0.0000  <S**2>=0.000
       8 -> 19        -0.16489
       8 -> 20        -0.47115
       9 -> 19         0.47201
       9 -> 20        -0.16516

 Excited State  59:      Singlet-A     14.0186 eV   88.44 nm  f=0.0892  <S**2>=0.000
       6 -> 12         0.20693
       6 -> 13        -0.19075
       7 -> 18         0.18586
       8 -> 19         0.17194
       8 -> 20        -0.21268
       9 -> 19        -0.21185
       9 -> 20        -0.17210
       9 -> 21        -0.10521
      10 -> 25        -0.14652
      10 -> 26        -0.14018
      10 -> 27         0.15263
      11 -> 25         0.14014
      11 -> 26        -0.14652
      11 -> 28        -0.15272
      11 -> 29         0.24358

 Excited State  60:      Singlet-A     14.0187 eV   88.44 nm  f=0.0892  <S**2>=0.000
       6 -> 12         0.19075
       6 -> 13         0.20695
       7 -> 17         0.18581
       8 -> 19         0.21248
       8 -> 20         0.17254
       8 -> 21        -0.10526
       9 -> 19         0.17143
       9 -> 20        -0.21197
      10 -> 25        -0.14016
      10 -> 26         0.14656
      10 -> 28         0.15261
      10 -> 29         0.24374
      11 -> 25        -0.14651
      11 -> 26        -0.14018
      11 -> 27         0.15265

 Excited State  61:      Singlet-A     14.1881 eV   87.39 nm  f=0.1653  <S**2>=0.000
       6 -> 15         0.47469
       7 -> 21         0.14997
       8 -> 17         0.13994
       9 -> 18         0.13992
      10 -> 27         0.18358
      10 -> 28         0.22374
      11 -> 27        -0.22374
      11 -> 28         0.18354

 Excited State  62:      Singlet-A     14.2129 eV   87.23 nm  f=0.0349  <S**2>=0.000
       6 -> 12         0.11324
       9 -> 21         0.62427
      11 -> 29         0.12152

 Excited State  63:      Singlet-A     14.2131 eV   87.23 nm  f=0.0349  <S**2>=0.000
       6 -> 13         0.11321
       8 -> 21         0.62436
      10 -> 29         0.12150

 Excited State  64:      Singlet-A     14.3618 eV   86.33 nm  f=0.0430  <S**2>=0.000
       6 -> 15         0.29484
       6 -> 16         0.26905
       8 -> 17        -0.25650
       8 -> 19        -0.24952
       9 -> 18        -0.25647
       9 -> 20        -0.24951

 Excited State  65:      Singlet-A     14.6016 eV   84.91 nm  f=0.0345  <S**2>=0.000
       7 -> 19         0.50647
       7 -> 20         0.48229

 Excited State  66:      Singlet-A     14.6017 eV   84.91 nm  f=0.0345  <S**2>=0.000
       7 -> 19        -0.48232
       7 -> 20         0.50648

 Excited State  67:      Singlet-A     14.6466 eV   84.65 nm  f=0.0052  <S**2>=0.000
       6 -> 15         0.29561
       7 -> 21        -0.14939
       7 -> 24         0.12857
       8 -> 17         0.12840
       8 -> 19         0.13837
       9 -> 18         0.12839
       9 -> 20         0.13836
      10 -> 27        -0.15305
      10 -> 28        -0.18655
      10 -> 30        -0.11305
      10 -> 31        -0.21411
      11 -> 27         0.18655
      11 -> 28        -0.15305
      11 -> 30        -0.21414
      11 -> 31         0.11304

 Excited State  68:      Singlet-A     14.7258 eV   84.20 nm  f=0.5624  <S**2>=0.000
       6 -> 12        -0.15746
       8 -> 19         0.30546
       8 -> 20         0.10097
       8 -> 21         0.22894
       9 -> 19         0.10090
       9 -> 20        -0.30536
       9 -> 21         0.12114
      10 -> 25         0.11677
      10 -> 32        -0.14574
      10 -> 34        -0.14364
      11 -> 26         0.11679

 Excited State  69:      Singlet-A     14.7258 eV   84.20 nm  f=0.5624  <S**2>=0.000
       6 -> 13        -0.15746
       8 -> 19        -0.10087
       8 -> 20         0.30547
       8 -> 21         0.12112
       9 -> 19         0.30529
       9 -> 20         0.10084
       9 -> 21        -0.22911
      10 -> 26        -0.11679
      11 -> 25         0.11677
      11 -> 32         0.14571
      11 -> 34         0.14363

 Excited State  70:      Singlet-A     14.7690 eV   83.95 nm  f=0.0125  <S**2>=0.000
       6 -> 15        -0.10587
       6 -> 16         0.50472
       7 -> 21        -0.40886
      10 -> 31         0.10031
      11 -> 30         0.10029

 Excited State  71:      Singlet-A     15.1108 eV   82.05 nm  f=0.0000  <S**2>=0.000
      10 -> 30         0.44256
      10 -> 31        -0.23298
      11 -> 30        -0.23378
      11 -> 31        -0.44157

 Excited State  72:      Singlet-A     15.1302 eV   81.94 nm  f=0.0031  <S**2>=0.000
      10 -> 30         0.44862
      10 -> 31         0.16439
      11 -> 30        -0.16382
      11 -> 31         0.44971

 Excited State  73:      Singlet-A     15.1302 eV   81.94 nm  f=0.0031  <S**2>=0.000
      10 -> 30        -0.16429
      10 -> 31         0.44926
      11 -> 30        -0.44905
      11 -> 31        -0.16392

 Excited State  74:      Singlet-A     15.2391 eV   81.36 nm  f=0.0755  <S**2>=0.000
       6 -> 18         0.13564
      11 -> 32         0.65430

 Excited State  75:      Singlet-A     15.2391 eV   81.36 nm  f=0.0755  <S**2>=0.000
       6 -> 17         0.13564
      10 -> 32         0.65430

 Excited State  76:      Singlet-A     15.3636 eV   80.70 nm  f=0.0031  <S**2>=0.000
       6 -> 15        -0.16049
       6 -> 16         0.27393
       7 -> 21         0.35005
       7 -> 24        -0.10713
       8 -> 22        -0.25094
       9 -> 23         0.25223
      10 -> 30        -0.10045
      10 -> 31        -0.19024
      11 -> 30        -0.19023
      11 -> 31         0.10044

 Excited State  77:      Singlet-A     15.3820 eV   80.60 nm  f=0.0178  <S**2>=0.000
       8 -> 22        -0.31958
       8 -> 23        -0.36656
       9 -> 22         0.36972
       9 -> 23        -0.31956

 Excited State  78:      Singlet-A     15.3820 eV   80.60 nm  f=0.0178  <S**2>=0.000
       8 -> 22         0.36820
       8 -> 23        -0.31824
       9 -> 22         0.32087
       9 -> 23         0.36807

 Excited State  79:      Singlet-A     15.3957 eV   80.53 nm  f=0.0000  <S**2>=0.000
       8 -> 23         0.50195
       9 -> 22         0.49795

 Excited State  80:      Singlet-A     15.4236 eV   80.39 nm  f=0.0231  <S**2>=0.000
       6 -> 16         0.23596
       7 -> 21         0.31483
       8 -> 22         0.35091
       9 -> 23        -0.35016

 Excited State  81:      Singlet-A     15.5186 eV   79.89 nm  f=0.0290  <S**2>=0.000
       6 -> 17         0.62183
      10 -> 34         0.22638
      11 -> 34        -0.16135

 Excited State  82:      Singlet-A     15.5186 eV   79.89 nm  f=0.0290  <S**2>=0.000
       6 -> 18         0.62182
      10 -> 34         0.16135
      11 -> 34         0.22640

 Excited State  83:      Singlet-A     15.6020 eV   79.47 nm  f=0.0029  <S**2>=0.000
      11 -> 33         0.70447

 Excited State  84:      Singlet-A     15.6020 eV   79.47 nm  f=0.0029  <S**2>=0.000
      10 -> 33         0.70447

 Excited State  85:      Singlet-A     15.7307 eV   78.82 nm  f=0.0089  <S**2>=0.000
       9 -> 24         0.67850

 Excited State  86:      Singlet-A     15.7307 eV   78.82 nm  f=0.0088  <S**2>=0.000
       8 -> 24         0.67850

 Excited State  87:      Singlet-A     15.7998 eV   78.47 nm  f=0.0215  <S**2>=0.000
       6 -> 15         0.12542
       6 -> 21         0.14713
       6 -> 24         0.10078
       7 -> 21         0.14149
       8 -> 22        -0.23675
       9 -> 23         0.23674
      10 -> 28        -0.10719
      10 -> 30         0.14736
      10 -> 31         0.27918
      11 -> 27         0.10720
      11 -> 30         0.27914
      11 -> 31        -0.14738

 Excited State  88:      Singlet-A     15.8285 eV   78.33 nm  f=0.0511  <S**2>=0.000
       6 -> 17         0.12454
       6 -> 18        -0.11146
       7 -> 22         0.15917
       7 -> 23         0.27694
      10 -> 34        -0.13813
      11 -> 34         0.55327

 Excited State  89:      Singlet-A     15.8285 eV   78.33 nm  f=0.0511  <S**2>=0.000
       6 -> 17        -0.11144
       6 -> 18        -0.12454
       7 -> 22        -0.27697
       7 -> 23         0.15917
      10 -> 34         0.55326
      11 -> 34         0.13813

 Excited State  90:      Singlet-A     15.9999 eV   77.49 nm  f=0.0000  <S**2>=0.000
       7 -> 23        -0.27575
      11 -> 35         0.62955

 Excited State  91:      Singlet-A     15.9999 eV   77.49 nm  f=0.0000  <S**2>=0.000
       7 -> 22         0.27576
      10 -> 35         0.62954

 Excited State  92:      Singlet-A     16.0636 eV   77.18 nm  f=0.3533  <S**2>=0.000
       6 -> 18         0.10105
       7 -> 23         0.52940
      11 -> 34        -0.20727
      11 -> 35         0.29831

 Excited State  93:      Singlet-A     16.0636 eV   77.18 nm  f=0.3533  <S**2>=0.000
       6 -> 17        -0.10105
       7 -> 22         0.52937
      10 -> 34         0.20729
      10 -> 35        -0.29834

 Excited State  94:      Singlet-A     16.1898 eV   76.58 nm  f=0.0286  <S**2>=0.000
       6 -> 19         0.64218

 The electronic state is 1-A.
 Alpha  occ. eigenvalues --   -9.80890  -9.79477  -9.77910  -0.70026  -0.62603
 Alpha  occ. eigenvalues --   -0.47026  -0.41208  -0.39204  -0.39204  -0.24501
 Alpha  occ. eigenvalues --   -0.24501
 Alpha virt. eigenvalues --    0.00351   0.00352   0.00631   0.04756   0.06716
 Alpha virt. eigenvalues --    0.09577   0.09577   0.12419   0.12419   0.12879
 Alpha virt. eigenvalues --    0.17383   0.17383   0.17856   0.24107   0.24107

 Mulliken charges:
               1
     1  C    0.300202
     2  C    0.926970
     3  C   -1.010120
     4  H   -0.031623
     5  H   -0.031630
     6  H   -0.031634
     7  H   -0.122166
 Sum of Mulliken charges =   0.00000

 Dipole moment (field-independent basis, Debye):
    X=              0.0002    Y=             -0.0135    Z=             -0.8912  Tot=              0.8913
 Quadrupole moment (field-independent basis, Debye-Ang):
   XX=            -19.6849   YY=            -19.6836   ZZ=            -14.4216
   XY=             -0.0000   XZ=             -0.0011   YZ=              0.0794

 Normal termination of Gaussian 16 at Mon Mar 21 20:06:24 2022.
