 Gaussian 16, Revision C.01,
 Gaussian 16:  EM64L-G16RevC.01  3-Jul-2019

 ---------------------------------------------------------------------
 #P TD(Nstates=10000) svwn5/Gen SCF(maxcycles=100) Int(Grid=ultrafine)
 ---------------------------------------------------------------------

 ---------------------
 xGDB7_00001_tier4.com
 ---------------------
 Symbolic Z-matrix:
 Charge =  0 Multiplicity = 1

                         Standard orientation:
 ---------------------------------------------------------------------
 Center     Atomic      Atomic             Coordinates (Angstroms)
 Number     Number       Type             X           Y           Z
 ---------------------------------------------------------------------
      1          6           0        0.000000    0.729549   -0.367364
      2          6           0       -0.000000   -0.729549   -0.367364
      3          8           0       -0.000000   -0.000000    0.845033
      4          1           0       -0.918945    1.264243   -0.587975
      5          1           0        0.918945    1.264243   -0.587975
      6          1           0        0.918945   -1.264243   -0.587975
      7          1           0       -0.918945   -1.264243   -0.587975
 ---------------------------------------------------------------------

 SCF Done:  E(RS-VWN5) =  -152.413011058     A.U. after   11 cycles

 Excitation energies and oscillator strengths:

 Excited State   1:      Singlet-B1     6.7435 eV  183.86 nm  f=0.0293  <S**2>=0.000
      12 -> 13         0.70363
 This state for optimization and/or second-order correction.
 Total Energy, E(TD-HF/TD-DFT) =  -152.165190380
 Copying the excited state density for this state as the 1-particle RhoCI density.

 Excited State   2:      Singlet-A2     7.2865 eV  170.16 nm  f=0.0000  <S**2>=0.000
      12 -> 15         0.69975
      12 -> 16         0.10076

 Excited State   3:      Singlet-B1     7.3634 eV  168.38 nm  f=0.0085  <S**2>=0.000
      12 -> 14         0.70247

 Excited State   4:      Singlet-A1     7.8291 eV  158.36 nm  f=0.0422  <S**2>=0.000
      12 -> 17         0.70240

 Excited State   5:      Singlet-A2     7.8753 eV  157.43 nm  f=0.0000  <S**2>=0.000
      12 -> 15        -0.10057
      12 -> 16         0.69947

 Excited State   6:      Singlet-A1     8.2966 eV  149.44 nm  f=0.0032  <S**2>=0.000
      11 -> 13         0.69582
      11 -> 14         0.11314

 Excited State   7:      Singlet-A1     8.8501 eV  140.09 nm  f=0.0508  <S**2>=0.000
      11 -> 13        -0.10729
      11 -> 14         0.69158

 Excited State   8:      Singlet-B2     8.9050 eV  139.23 nm  f=0.0581  <S**2>=0.000
      11 -> 15         0.64307
      11 -> 16         0.28964

 Excited State   9:      Singlet-B1     9.0014 eV  137.74 nm  f=0.0139  <S**2>=0.000
      11 -> 17        -0.12253
      12 -> 18         0.69518

 Excited State  10:      Singlet-B1     9.3214 eV  133.01 nm  f=0.0069  <S**2>=0.000
      11 -> 17         0.69441
      12 -> 18         0.12122

 Excited State  11:      Singlet-B2     9.6914 eV  127.93 nm  f=0.0598  <S**2>=0.000
      12 -> 19         0.70526

 Excited State  12:      Singlet-A2     9.6947 eV  127.89 nm  f=0.0000  <S**2>=0.000
      10 -> 13         0.70595

 Excited State  13:      Singlet-B2    10.0075 eV  123.89 nm  f=0.1107  <S**2>=0.000
       9 -> 14        -0.14787
      11 -> 15        -0.25880
      11 -> 16         0.60759
      11 -> 21         0.14136

 Excited State  14:      Singlet-B1    10.1031 eV  122.72 nm  f=0.0048  <S**2>=0.000
      12 -> 20         0.70533

 Excited State  15:      Singlet-A2    10.1686 eV  121.93 nm  f=0.0000  <S**2>=0.000
      10 -> 14         0.64382
      12 -> 21         0.28892

 Excited State  16:      Singlet-A2    10.2128 eV  121.40 nm  f=0.0000  <S**2>=0.000
      10 -> 14        -0.28670
      12 -> 21         0.64483

 Excited State  17:      Singlet-B1    10.2899 eV  120.49 nm  f=0.0712  <S**2>=0.000
      10 -> 15         0.69904

 Excited State  18:      Singlet-A1    10.4695 eV  118.42 nm  f=0.0083  <S**2>=0.000
      11 -> 18         0.69861

 Excited State  19:      Singlet-B2    10.4980 eV  118.10 nm  f=0.0120  <S**2>=0.000
       9 -> 13         0.69592
      10 -> 17         0.11860

 Excited State  20:      Singlet-A1    10.7408 eV  115.43 nm  f=0.0009  <S**2>=0.000
       9 -> 16         0.16337
      11 -> 20         0.11549
      12 -> 22         0.63893
      12 -> 24        -0.17474

 Excited State  21:      Singlet-B1    10.7855 eV  114.95 nm  f=0.0151  <S**2>=0.000
      10 -> 16         0.69897

 Excited State  22:      Singlet-A2    10.8572 eV  114.20 nm  f=0.0000  <S**2>=0.000
      12 -> 23         0.70262

 Excited State  23:      Singlet-B2    10.8801 eV  113.96 nm  f=0.1340  <S**2>=0.000
       9 -> 13        -0.11235
      10 -> 17         0.68455

 Excited State  24:      Singlet-A1    11.1043 eV  111.65 nm  f=0.0093  <S**2>=0.000
       9 -> 16         0.11601
      12 -> 22         0.14433
      12 -> 24         0.67335

 Excited State  25:      Singlet-A1    11.1396 eV  111.30 nm  f=0.0121  <S**2>=0.000
       9 -> 15         0.65087
       9 -> 16         0.24792

 Excited State  26:      Singlet-A2    11.1917 eV  110.78 nm  f=0.0000  <S**2>=0.000
      11 -> 19         0.70552

 Excited State  27:      Singlet-B2    11.2204 eV  110.50 nm  f=0.0752  <S**2>=0.000
       9 -> 14         0.67297
      11 -> 21         0.15953

 Excited State  28:      Singlet-A2    11.5241 eV  107.59 nm  f=0.0000  <S**2>=0.000
       9 -> 17         0.70496

 Excited State  29:      Singlet-A1    11.6984 eV  105.98 nm  f=0.0065  <S**2>=0.000
       9 -> 16        -0.26610
      10 -> 19         0.10693
      11 -> 20         0.63064

 Excited State  30:      Singlet-B1    11.8730 eV  104.43 nm  f=0.0019  <S**2>=0.000
      12 -> 25         0.69255

 Excited State  31:      Singlet-B2    11.9285 eV  103.94 nm  f=0.0357  <S**2>=0.000
       9 -> 14        -0.10816
      11 -> 16        -0.11953
      11 -> 21         0.65161
      11 -> 23        -0.14247

 Excited State  32:      Singlet-B1    11.9704 eV  103.58 nm  f=0.0000  <S**2>=0.000
      11 -> 22         0.70366

 Excited State  33:      Singlet-A2    11.9876 eV  103.43 nm  f=0.0000  <S**2>=0.000
      10 -> 18         0.70096

 Excited State  34:      Singlet-B2    12.3653 eV  100.27 nm  f=0.0239  <S**2>=0.000
      11 -> 21         0.10773
      11 -> 23         0.68560

 Excited State  35:      Singlet-A1    12.4052 eV   99.95 nm  f=0.0065  <S**2>=0.000
       8 -> 13         0.49480
       8 -> 14        -0.15590
       9 -> 15        -0.14324
       9 -> 16         0.37545
      11 -> 20         0.15523
      12 -> 22        -0.11473

 Excited State  36:      Singlet-A1    12.6034 eV   98.37 nm  f=0.0020  <S**2>=0.000
       8 -> 13        -0.39516
       8 -> 14        -0.20799
       9 -> 16         0.25428
      10 -> 19         0.43789

 Excited State  37:      Singlet-B1    12.6191 eV   98.25 nm  f=0.0188  <S**2>=0.000
      11 -> 24         0.68997

 Excited State  38:      Singlet-B2    12.7192 eV   97.48 nm  f=0.0068  <S**2>=0.000
       9 -> 18         0.70375

 Excited State  39:      Singlet-B2    12.8175 eV   96.73 nm  f=0.0355  <S**2>=0.000
      12 -> 26         0.69545

 Excited State  40:      Singlet-A2    12.9981 eV   95.39 nm  f=0.0000  <S**2>=0.000
      10 -> 20         0.70615

 Excited State  41:      Singlet-B1    13.0120 eV   95.28 nm  f=0.0028  <S**2>=0.000
       7 -> 13        -0.14094
      12 -> 27         0.67436

 Excited State  42:      Singlet-A1    13.0544 eV   94.97 nm  f=0.0112  <S**2>=0.000
       7 -> 17        -0.17728
       8 -> 13         0.26009
       8 -> 14         0.23842
       9 -> 16        -0.15512
      10 -> 19         0.48985
      11 -> 20        -0.15435
      11 -> 25        -0.10838
      12 -> 22         0.10520

 Excited State  43:      Singlet-B2    13.0611 eV   94.93 nm  f=0.1375  <S**2>=0.000
       8 -> 15         0.68722
       8 -> 16         0.12727

 Excited State  44:      Singlet-B1    13.1403 eV   94.35 nm  f=0.0000  <S**2>=0.000
      10 -> 21         0.70260

 Excited State  45:      Singlet-A1    13.2251 eV   93.75 nm  f=0.1534  <S**2>=0.000
       8 -> 13        -0.11019
       8 -> 14         0.58027
       9 -> 16         0.19910
      11 -> 27         0.16967
      12 -> 29        -0.17669

 Excited State  46:      Singlet-B1    13.2306 eV   93.71 nm  f=0.0670  <S**2>=0.000
       7 -> 13         0.67237
       9 -> 19         0.11117
      10 -> 23         0.10898
      12 -> 27         0.11077

 Excited State  47:      Singlet-B2    13.4013 eV   92.52 nm  f=0.0061  <S**2>=0.000
       8 -> 16         0.13304
      10 -> 22         0.68500

 Excited State  48:      Singlet-A1    13.4211 eV   92.38 nm  f=0.0949  <S**2>=0.000
      10 -> 19         0.10145
      11 -> 25         0.67665

 Excited State  49:      Singlet-B1    13.4381 eV   92.26 nm  f=0.0155  <S**2>=0.000
       8 -> 17         0.19372
       9 -> 19         0.67373

 Excited State  50:      Singlet-B1    13.5359 eV   91.60 nm  f=0.0641  <S**2>=0.000
       8 -> 17         0.64805
       9 -> 19        -0.16611
      10 -> 23         0.18699

 Excited State  51:      Singlet-A2    13.5480 eV   91.52 nm  f=0.0000  <S**2>=0.000
       7 -> 15        -0.14845
      12 -> 28         0.68643

 Excited State  52:      Singlet-B2    13.7262 eV   90.33 nm  f=0.0479  <S**2>=0.000
       8 -> 16         0.60865
       9 -> 20        -0.28833
      10 -> 22        -0.13763

 Excited State  53:      Singlet-B1    13.7293 eV   90.31 nm  f=0.0053  <S**2>=0.000
       7 -> 14         0.62219
      10 -> 23         0.31430

 Excited State  54:      Singlet-A2    13.7965 eV   89.87 nm  f=0.0000  <S**2>=0.000
       7 -> 15         0.68528
      12 -> 28         0.14095

 Excited State  55:      Singlet-A1    13.8371 eV   89.60 nm  f=0.1126  <S**2>=0.000
       9 -> 21         0.21124
      11 -> 27         0.14194
      12 -> 29         0.63975

 Excited State  56:      Singlet-B2    13.8842 eV   89.30 nm  f=0.0040  <S**2>=0.000
       8 -> 16         0.25564
       9 -> 20         0.63888
      10 -> 24        -0.12813

 Excited State  57:      Singlet-A1    14.0322 eV   88.36 nm  f=0.0272  <S**2>=0.000
       7 -> 17         0.22995
       9 -> 21         0.60805
      11 -> 27        -0.19404
      12 -> 29        -0.16411

 Excited State  58:      Singlet-B1    14.1684 eV   87.51 nm  f=0.3132  <S**2>=0.000
       7 -> 14        -0.27665
       7 -> 18         0.11902
       8 -> 17        -0.12466
      10 -> 23         0.45189
      12 -> 30         0.39458

 Excited State  59:      Singlet-A2    14.2083 eV   87.26 nm  f=0.0000  <S**2>=0.000
       7 -> 16         0.37962
       9 -> 22         0.58210
      10 -> 25         0.10723

 Excited State  60:      Singlet-A2    14.2566 eV   86.97 nm  f=0.0000  <S**2>=0.000
       7 -> 16         0.31545
       9 -> 22        -0.23815
      11 -> 26         0.58090

 Excited State  61:      Singlet-B2    14.3030 eV   86.68 nm  f=0.3013  <S**2>=0.000
       8 -> 16         0.13376
       9 -> 25         0.13978
      10 -> 24         0.64898

 Excited State  62:      Singlet-A2    14.3169 eV   86.60 nm  f=0.0000  <S**2>=0.000
       7 -> 16         0.48773
       9 -> 22        -0.29180
      11 -> 26        -0.39695

 Excited State  63:      Singlet-B1    14.3862 eV   86.18 nm  f=0.1179  <S**2>=0.000
       7 -> 14         0.11772
       7 -> 18        -0.12922
      10 -> 23        -0.31664
      12 -> 30         0.58045

 Excited State  64:      Singlet-A2    14.4120 eV   86.03 nm  f=0.0000  <S**2>=0.000
      12 -> 31         0.69605

 Excited State  65:      Singlet-A1    14.5138 eV   85.43 nm  f=0.0316  <S**2>=0.000
       7 -> 17         0.46770
       8 -> 18         0.36031
       9 -> 21        -0.10718
       9 -> 23        -0.27882
      11 -> 27         0.16146
      12 -> 32        -0.11021

 Excited State  66:      Singlet-A1    14.6131 eV   84.84 nm  f=0.0078  <S**2>=0.000
       7 -> 17         0.10284
       8 -> 18         0.14724
       9 -> 23         0.61236
      11 -> 27         0.25953
      12 -> 32        -0.12509

 Excited State  67:      Singlet-A2    14.7593 eV   84.00 nm  f=0.0000  <S**2>=0.000
       9 -> 24         0.49056
      10 -> 25         0.49688

 Excited State  68:      Singlet-A1    14.8452 eV   83.52 nm  f=0.0056  <S**2>=0.000
       7 -> 17        -0.29950
       8 -> 18         0.56974
      12 -> 32         0.19583

 Excited State  69:      Singlet-A2    14.8557 eV   83.46 nm  f=0.0000  <S**2>=0.000
       9 -> 24         0.49759
      10 -> 25        -0.47656

 Excited State  70:      Singlet-A1    14.9305 eV   83.04 nm  f=0.0337  <S**2>=0.000
       7 -> 17         0.23796
       8 -> 20        -0.15228
       9 -> 21        -0.13678
       9 -> 23         0.16805
      11 -> 27        -0.27900
      12 -> 32         0.49829

 Excited State  71:      Singlet-A1    15.1052 eV   82.08 nm  f=0.1780  <S**2>=0.000
       8 -> 18        -0.12068
       8 -> 20         0.16525
       9 -> 16        -0.10822
       9 -> 28        -0.10641
      10 -> 26        -0.15730
      11 -> 27         0.40803
      12 -> 29        -0.11294
      12 -> 32         0.41063

 Excited State  72:      Singlet-B2    15.1677 eV   81.74 nm  f=0.0526  <S**2>=0.000
      11 -> 28         0.69291

 Excited State  73:      Singlet-B1    15.2527 eV   81.29 nm  f=0.0515  <S**2>=0.000
       7 -> 18         0.16266
      11 -> 29         0.26875
      12 -> 33         0.63101

 Excited State  74:      Singlet-B1    15.2950 eV   81.06 nm  f=0.0411  <S**2>=0.000
       7 -> 18        -0.19848
      11 -> 29         0.64040
      12 -> 33        -0.22035

 Excited State  75:      Singlet-A2    15.4023 eV   80.50 nm  f=0.0000  <S**2>=0.000
       8 -> 19         0.70425

 Excited State  76:      Singlet-B2    15.6535 eV   79.21 nm  f=0.0692  <S**2>=0.000
       6 -> 13         0.12959
       9 -> 25         0.54317
      11 -> 31        -0.10622
      12 -> 34        -0.39443

 Excited State  77:      Singlet-B1    15.6773 eV   79.09 nm  f=0.3463  <S**2>=0.000
       7 -> 18         0.61448
       9 -> 26         0.11032
      10 -> 23        -0.11948
      11 -> 29         0.11757
      12 -> 33        -0.18928

 Excited State  78:      Singlet-A1    15.7611 eV   78.66 nm  f=0.1654  <S**2>=0.000
       8 -> 20         0.20797
      10 -> 26         0.64771
      11 -> 30         0.10955

 Excited State  79:      Singlet-A2    15.7803 eV   78.57 nm  f=0.0000  <S**2>=0.000
      10 -> 27         0.69665

 Excited State  80:      Singlet-B2    15.8117 eV   78.41 nm  f=0.1850  <S**2>=0.000
       6 -> 13         0.15018
       8 -> 21         0.12785
       9 -> 25         0.30523
      11 -> 31        -0.18238
      12 -> 34         0.55989

 Excited State  81:      Singlet-A1    15.8695 eV   78.13 nm  f=0.0227  <S**2>=0.000
       8 -> 20        -0.14813
      11 -> 30         0.67990

 Excited State  82:      Singlet-B2    15.9147 eV   77.91 nm  f=0.0133  <S**2>=0.000
       8 -> 21         0.63213
      11 -> 31         0.28436

 Excited State  83:      Singlet-B2    15.9804 eV   77.59 nm  f=0.0124  <S**2>=0.000
       6 -> 13         0.55996
       8 -> 21        -0.22757
      11 -> 31         0.34133

 Excited State  84:      Singlet-A1    16.0323 eV   77.33 nm  f=0.0973  <S**2>=0.000
       5 -> 13         0.10574
       6 -> 15        -0.12982
       8 -> 20         0.58784
       9 -> 28         0.12195
      10 -> 26        -0.16370
      11 -> 27        -0.12345
      11 -> 30         0.11204

 Excited State  85:      Singlet-B2    16.0789 eV   77.11 nm  f=0.0838  <S**2>=0.000
       6 -> 13        -0.22003
       7 -> 19         0.42515
       8 -> 21        -0.13136
       8 -> 23        -0.15068
       9 -> 25         0.15467
      11 -> 31         0.39797
      12 -> 34         0.14003

 Excited State  86:      Singlet-A2    16.1675 eV   76.69 nm  f=0.0000  <S**2>=0.000
      12 -> 35         0.69798

 Excited State  87:      Singlet-B1    16.2020 eV   76.52 nm  f=0.0075  <S**2>=0.000
       8 -> 22         0.69016

 Excited State  88:      Singlet-B2    16.3718 eV   75.73 nm  f=0.0172  <S**2>=0.000
       5 -> 15         0.10766
       6 -> 13         0.14853
       6 -> 14         0.32089
       7 -> 19         0.44532
       8 -> 23         0.28246
       9 -> 27        -0.17267
      11 -> 31        -0.18123

 Excited State  89:      Singlet-B1    16.4680 eV   75.29 nm  f=0.0005  <S**2>=0.000
       7 -> 20        -0.17124
       8 -> 24         0.10478
       9 -> 26         0.15735
      11 -> 32         0.62917
      12 -> 36        -0.16565

 Excited State  90:      Singlet-B1    16.5329 eV   74.99 nm  f=0.0048  <S**2>=0.000
       7 -> 20         0.27947
       8 -> 24         0.11595
       9 -> 26        -0.37005
      10 -> 28         0.45508
      11 -> 32         0.15892
      12 -> 36        -0.14694

 Excited State  91:      Singlet-B2    16.5407 eV   74.96 nm  f=0.0207  <S**2>=0.000
       6 -> 14         0.49013
       7 -> 19        -0.18533
       9 -> 27         0.40016
      10 -> 29         0.17444

 Excited State  92:      Singlet-B1    16.5585 eV   74.88 nm  f=0.0006  <S**2>=0.000
       7 -> 20         0.60911
      10 -> 28        -0.29466
      11 -> 32         0.13453

 Excited State  93:      Singlet-A1    16.5759 eV   74.80 nm  f=0.0071  <S**2>=0.000
       5 -> 13         0.36201
       6 -> 15         0.53442
       6 -> 16         0.15606
      11 -> 33         0.22412

 Excited State  94:      Singlet-B1    16.5909 eV   74.73 nm  f=0.0547  <S**2>=0.000
       7 -> 20         0.10698
       8 -> 24        -0.21268
       9 -> 26         0.50205
      10 -> 28         0.41236

 Excited State  95:      Singlet-B2    16.6154 eV   74.62 nm  f=0.0180  <S**2>=0.000
       6 -> 14        -0.29824
       8 -> 23         0.49420
       9 -> 27         0.37427
      10 -> 29        -0.11731

 Excited State  96:      Singlet-A2    16.6535 eV   74.45 nm  f=0.0000  <S**2>=0.000
      12 -> 37         0.69827

 Excited State  97:      Singlet-B1    16.6643 eV   74.40 nm  f=0.0137  <S**2>=0.000
       8 -> 24         0.19046
      11 -> 32         0.14670
      12 -> 36         0.64164

 Excited State  98:      Singlet-A2    16.6800 eV   74.33 nm  f=0.0000  <S**2>=0.000
       7 -> 21         0.69896

 Excited State  99:      Singlet-A1    16.7415 eV   74.06 nm  f=0.0568  <S**2>=0.000
       5 -> 13        -0.38098
      11 -> 33         0.58137

 Excited State 100:      Singlet-B2    16.7473 eV   74.03 nm  f=0.0000  <S**2>=0.000
       6 -> 14        -0.21788
       7 -> 19         0.11774
       8 -> 23        -0.12297
       9 -> 27         0.13465
      10 -> 29         0.57213
      12 -> 38        -0.23996

 Excited State 101:      Singlet-A1    16.9099 eV   73.32 nm  f=0.0427  <S**2>=0.000
       5 -> 13        -0.20842
       6 -> 15         0.12178
       6 -> 16         0.15998
       7 -> 22         0.62202
      11 -> 33        -0.14113

 Excited State 102:      Singlet-B2    16.9344 eV   73.21 nm  f=0.0880  <S**2>=0.000
       5 -> 15        -0.20496
       8 -> 23         0.20572
       9 -> 25         0.12019
       9 -> 27        -0.18326
      10 -> 29         0.30809
      11 -> 35         0.11700
      12 -> 38         0.46123

 Excited State 103:      Singlet-B1    16.9447 eV   73.17 nm  f=0.1684  <S**2>=0.000
       7 -> 18        -0.10007
       8 -> 24         0.60473
       9 -> 26         0.21389
      11 -> 32        -0.15019

 Excited State 104:      Singlet-B2    16.9489 eV   73.15 nm  f=0.0036  <S**2>=0.000
       5 -> 15         0.27073
       6 -> 13         0.12526
       7 -> 19         0.13292
       8 -> 23        -0.23166
       9 -> 27         0.26868
      11 -> 35        -0.13693
      12 -> 38         0.45841

 Excited State 105:      Singlet-A2    16.9925 eV   72.96 nm  f=0.0000  <S**2>=0.000
       6 -> 17         0.65818
      10 -> 30         0.23432

 Excited State 106:      Singlet-B1    17.0183 eV   72.85 nm  f=0.0015  <S**2>=0.000
      12 -> 39         0.70093

 Excited State 107:      Singlet-A1    17.0936 eV   72.53 nm  f=0.0200  <S**2>=0.000
       5 -> 13        -0.31321
       6 -> 15         0.32302
       6 -> 16        -0.21622
       7 -> 22        -0.18790
       7 -> 24         0.21452
       8 -> 25        -0.16951
       9 -> 28        -0.15299
      11 -> 33        -0.23603

 Excited State 108:      Singlet-A2    17.2100 eV   72.04 nm  f=0.0000  <S**2>=0.000
       6 -> 17        -0.23269
       7 -> 23        -0.40687
      10 -> 30         0.49904
      11 -> 34        -0.13607

 Excited State 109:      Singlet-A1    17.2331 eV   71.95 nm  f=0.0042  <S**2>=0.000
       5 -> 13        -0.19087
       5 -> 14        -0.28281
       6 -> 16         0.37543
       7 -> 22        -0.18021
       9 -> 28         0.39345

 Excited State 110:      Singlet-A2    17.2661 eV   71.81 nm  f=0.0000  <S**2>=0.000
      10 -> 30         0.17782
      11 -> 34         0.68230

 Excited State 111:      Singlet-B1    17.3546 eV   71.44 nm  f=0.0146  <S**2>=0.000
       5 -> 17        -0.14363
      10 -> 31         0.67864

 Excited State 112:      Singlet-A1    17.4136 eV   71.20 nm  f=0.0354  <S**2>=0.000
       5 -> 14         0.50722
       7 -> 24         0.16236
       8 -> 25         0.40888
       9 -> 28         0.13209

 Excited State 113:      Singlet-B2    17.4797 eV   70.93 nm  f=0.0021  <S**2>=0.000
       5 -> 15         0.48456
       5 -> 16         0.25550
       9 -> 30         0.10080
      10 -> 32        -0.10283
      11 -> 35         0.36347

 Excited State 114:      Singlet-A2    17.5117 eV   70.80 nm  f=0.0000  <S**2>=0.000
       7 -> 23        -0.38934
       9 -> 29         0.46728
      10 -> 30        -0.33157

 Excited State 115:      Singlet-A1    17.6265 eV   70.34 nm  f=0.0001  <S**2>=0.000
       5 -> 14        -0.25339
       6 -> 16        -0.15261
       7 -> 22         0.12186
       7 -> 24         0.55077
       8 -> 25         0.15189
       9 -> 28         0.13118

 Excited State 116:      Singlet-A2    17.6450 eV   70.27 nm  f=0.0000  <S**2>=0.000
       7 -> 23         0.39153
       9 -> 29         0.52093
      10 -> 30         0.20560

 Excited State 117:      Singlet-A1    17.8258 eV   69.55 nm  f=0.3065  <S**2>=0.000
       5 -> 14        -0.20817
       6 -> 16        -0.14578
       7 -> 24        -0.18650
       8 -> 25         0.45752
       8 -> 27         0.17746
       9 -> 28        -0.19085
       9 -> 31        -0.13335
      11 -> 36         0.18001
      11 -> 39         0.10930
      12 -> 44        -0.14444

 Excited State 118:      Singlet-B1    17.8725 eV   69.37 nm  f=0.0115  <S**2>=0.000
       5 -> 17         0.66950
       7 -> 25        -0.11217
      10 -> 31         0.12327

 The electronic state is 1-A1.
 Alpha  occ. eigenvalues --  -18.63536  -9.84226  -9.84223  -0.99583  -0.60051
 Alpha  occ. eigenvalues --   -0.57211  -0.47217  -0.44525  -0.37294  -0.34286
 Alpha  occ. eigenvalues --   -0.29047  -0.23597
 Alpha virt. eigenvalues --    0.01158   0.02807   0.03113   0.04810   0.05000
 Alpha virt. eigenvalues --    0.09446   0.12034   0.13578   0.14052   0.14894
 Alpha virt. eigenvalues --    0.16170   0.16990   0.19518   0.23498   0.23609

 Mulliken charges:
               1
     1  C    0.558052
     2  C    0.558052
     3  O   -0.535847
     4  H   -0.145064
     5  H   -0.145064
     6  H   -0.145064
     7  H   -0.145064
 Sum of Mulliken charges =   0.00000

 Dipole moment (field-independent basis, Debye):
    X=             -0.0000    Y=              0.0000    Z=             -1.8371  Tot=              1.8371
 Quadrupole moment (field-independent basis, Debye-Ang):
   XX=            -17.7097   YY=            -16.7614   ZZ=            -21.1704
   XY=              0.0000   XZ=             -0.0000   YZ=             -0.0000

 Normal termination of Gaussian 16 at Mon Mar 21 04:00:17 2022.
