 Gaussian 16, Revision C.01,
 Gaussian 16:  EM64L-G16RevC.01  3-Jul-2019

 ---------------------------------------------------------------------
 #P TD(Nstates=10000) svwn5/Gen SCF(maxcycles=100) Int(Grid=ultrafine)
 ---------------------------------------------------------------------

 ---------------------
 xGDB7_00001_tier4.com
 ---------------------
 Symbolic Z-matrix:
 Charge =  0 Multiplicity = 1

                         Standard orientation:
 ---------------------------------------------------------------------
 Center     Atomic      Atomic             Coordinates (Angstroms)
 Number     Number       Type             X           Y           Z
 ---------------------------------------------------------------------
      1          7           0        1.078471   -0.156900   -0.000001
      2          6           0       -0.161963    0.384944   -0.000002
      3          8           0       -1.189170   -0.245458    0.000001
      4          1           0        1.898427    0.419427    0.000004
      5          1           0        1.178124   -1.157073    0.000005
      6          1           0       -0.140706    1.489948    0.000007
 ---------------------------------------------------------------------

 SCF Done:  E(RS-VWN5) =  -168.446386202     A.U. after   14 cycles

 Excitation energies and oscillator strengths:

 Excited State   1:      Singlet-A      5.4118 eV  229.10 nm  f=0.0007  <S**2>=0.000
      12 -> 13         0.70667
 This state for optimization and/or second-order correction.
 Total Energy, E(TD-HF/TD-DFT) =  -168.247507548
 Copying the excited state density for this state as the 1-particle RhoCI density.

 Excited State   2:      Singlet-A      6.1581 eV  201.34 nm  f=0.0201  <S**2>=0.000
      11 -> 13         0.18394
      12 -> 14         0.68145

 Excited State   3:      Singlet-A      6.9165 eV  179.26 nm  f=0.0870  <S**2>=0.000
      12 -> 15         0.70249

 Excited State   4:      Singlet-A      6.9901 eV  177.37 nm  f=0.0120  <S**2>=0.000
      11 -> 14         0.70516

 Excited State   5:      Singlet-A      7.6836 eV  161.36 nm  f=0.3118  <S**2>=0.000
      11 -> 13         0.64967
      12 -> 14        -0.17025

 Excited State   6:      Singlet-A      7.7746 eV  159.47 nm  f=0.0036  <S**2>=0.000
      11 -> 15         0.70563

 Excited State   7:      Singlet-A      7.9280 eV  156.39 nm  f=0.0265  <S**2>=0.000
      12 -> 16         0.70420

 Excited State   8:      Singlet-A      8.7098 eV  142.35 nm  f=0.0304  <S**2>=0.000
      12 -> 17         0.69346

 Excited State   9:      Singlet-A      8.7973 eV  140.93 nm  f=0.0142  <S**2>=0.000
      11 -> 16         0.57034
      12 -> 18        -0.41728

 Excited State  10:      Singlet-A      8.8146 eV  140.66 nm  f=0.0040  <S**2>=0.000
      11 -> 16         0.41668
      12 -> 18         0.57021

 Excited State  11:      Singlet-A      9.1634 eV  135.30 nm  f=0.0153  <S**2>=0.000
      12 -> 19         0.70025

 Excited State  12:      Singlet-A      9.4389 eV  131.35 nm  f=0.0013  <S**2>=0.000
      10 -> 13         0.15292
      11 -> 17         0.68938

 Excited State  13:      Singlet-A      9.6204 eV  128.88 nm  f=0.0019  <S**2>=0.000
      10 -> 13         0.67897
      11 -> 17        -0.15202

 Excited State  14:      Singlet-A      9.6324 eV  128.72 nm  f=0.0082  <S**2>=0.000
      11 -> 18         0.14445
      12 -> 20         0.69117

 Excited State  15:      Singlet-A      9.8215 eV  126.24 nm  f=0.0157  <S**2>=0.000
      11 -> 18         0.67660
      12 -> 20        -0.14616

 Excited State  16:      Singlet-A     10.0180 eV  123.76 nm  f=0.0013  <S**2>=0.000
      11 -> 19         0.70315

 Excited State  17:      Singlet-A     10.0992 eV  122.77 nm  f=0.0132  <S**2>=0.000
      10 -> 14         0.70269

 Excited State  18:      Singlet-A     10.2643 eV  120.79 nm  f=0.0066  <S**2>=0.000
       9 -> 14        -0.19277
      12 -> 21         0.67663

 Excited State  19:      Singlet-A     10.3440 eV  119.86 nm  f=0.0387  <S**2>=0.000
       9 -> 14         0.67723
      12 -> 21         0.18773

 Excited State  20:      Singlet-A     10.5307 eV  117.74 nm  f=0.0127  <S**2>=0.000
      12 -> 22         0.70247

 Excited State  21:      Singlet-A     10.5696 eV  117.30 nm  f=0.0231  <S**2>=0.000
      11 -> 20         0.69624

 Excited State  22:      Singlet-A     10.7863 eV  114.95 nm  f=0.0444  <S**2>=0.000
       9 -> 13        -0.38201
      10 -> 15        -0.27841
      12 -> 23         0.50525

 Excited State  23:      Singlet-A     10.9421 eV  113.31 nm  f=0.0545  <S**2>=0.000
      10 -> 15         0.63128
      12 -> 23         0.29327

 Excited State  24:      Singlet-A     10.9727 eV  112.99 nm  f=0.0366  <S**2>=0.000
       8 -> 14         0.10488
       9 -> 13         0.40618
      10 -> 15        -0.14322
      11 -> 21         0.43752
      12 -> 23         0.31286

 Excited State  25:      Singlet-A     11.0782 eV  111.92 nm  f=0.0014  <S**2>=0.000
       8 -> 13         0.11376
       9 -> 15        -0.32246
      12 -> 24         0.61809

 Excited State  26:      Singlet-A     11.1444 eV  111.25 nm  f=0.0046  <S**2>=0.000
       8 -> 13        -0.18020
       9 -> 15         0.59018
      12 -> 24         0.34038

 Excited State  27:      Singlet-A     11.4059 eV  108.70 nm  f=0.0002  <S**2>=0.000
       8 -> 13         0.55284
       9 -> 15         0.17003
      11 -> 22         0.39262

 Excited State  28:      Singlet-A     11.4272 eV  108.50 nm  f=0.0057  <S**2>=0.000
       8 -> 13        -0.36496
       9 -> 15        -0.12647
      11 -> 22         0.58709

 Excited State  29:      Singlet-A     11.4716 eV  108.08 nm  f=0.0854  <S**2>=0.000
       8 -> 14        -0.19655
       9 -> 13        -0.31252
      10 -> 16        -0.16093
      11 -> 21         0.51553
      12 -> 23        -0.19486
      12 -> 27         0.11203

 Excited State  30:      Singlet-A     11.7165 eV  105.82 nm  f=0.0022  <S**2>=0.000
      11 -> 23         0.70440

 Excited State  31:      Singlet-A     12.0336 eV  103.03 nm  f=0.0051  <S**2>=0.000
       8 -> 14        -0.34859
      10 -> 16         0.57784
      11 -> 24        -0.17027

 Excited State  32:      Singlet-A     12.0734 eV  102.69 nm  f=0.0364  <S**2>=0.000
       8 -> 14         0.55734
       9 -> 13        -0.17469
      10 -> 16         0.32029
      11 -> 21         0.11571
      12 -> 27         0.14176

 Excited State  33:      Singlet-A     12.1840 eV  101.76 nm  f=0.0487  <S**2>=0.000
       9 -> 16         0.70365

 Excited State  34:      Singlet-A     12.2750 eV  101.01 nm  f=0.0119  <S**2>=0.000
       9 -> 18         0.12365
      10 -> 16         0.15170
      11 -> 24         0.64542

 Excited State  35:      Singlet-A     12.6141 eV   98.29 nm  f=0.1094  <S**2>=0.000
      10 -> 17         0.69763

 Excited State  36:      Singlet-A     12.6589 eV   97.94 nm  f=0.0040  <S**2>=0.000
       8 -> 15        -0.16506
      12 -> 25         0.66597
      12 -> 27        -0.12299

 Excited State  37:      Singlet-A     12.7956 eV   96.90 nm  f=0.0090  <S**2>=0.000
       9 -> 17         0.21479
      10 -> 18         0.47604
      12 -> 26         0.47596

 Excited State  38:      Singlet-A     12.8344 eV   96.60 nm  f=0.0019  <S**2>=0.000
      10 -> 18        -0.49521
      12 -> 26         0.50318

 Excited State  39:      Singlet-A     12.8738 eV   96.31 nm  f=0.1599  <S**2>=0.000
       8 -> 15         0.66702
      12 -> 25         0.17667

 Excited State  40:      Singlet-A     12.9487 eV   95.75 nm  f=0.0543  <S**2>=0.000
       9 -> 17         0.65653
      10 -> 18        -0.16384
      12 -> 26        -0.13195

 Excited State  41:      Singlet-A     13.1555 eV   94.25 nm  f=0.0424  <S**2>=0.000
      10 -> 19         0.70207

 Excited State  42:      Singlet-A     13.2386 eV   93.65 nm  f=0.0044  <S**2>=0.000
       9 -> 18         0.65764
      10 -> 20        -0.16273

 Excited State  43:      Singlet-A     13.2981 eV   93.23 nm  f=0.0040  <S**2>=0.000
       7 -> 13         0.66932
       9 -> 19        -0.19632

 Excited State  44:      Singlet-A     13.4173 eV   92.41 nm  f=0.0009  <S**2>=0.000
       7 -> 13         0.19516
       9 -> 19         0.67590

 Excited State  45:      Singlet-A     13.4855 eV   91.94 nm  f=0.2207  <S**2>=0.000
       8 -> 16         0.24227
      10 -> 20        -0.21995
      11 -> 26         0.14056
      12 -> 27         0.56263

 Excited State  46:      Singlet-A     13.5816 eV   91.29 nm  f=0.0598  <S**2>=0.000
       9 -> 20         0.17987
      11 -> 25         0.66134
      11 -> 27        -0.11554

 Excited State  47:      Singlet-A     13.7171 eV   90.39 nm  f=0.0474  <S**2>=0.000
       9 -> 18         0.13503
      10 -> 20         0.57155
      11 -> 26         0.35655

 Excited State  48:      Singlet-A     13.7675 eV   90.06 nm  f=0.0251  <S**2>=0.000
       8 -> 16         0.47070
      10 -> 20         0.22610
      11 -> 26        -0.45715

 Excited State  49:      Singlet-A     13.9200 eV   89.07 nm  f=0.0237  <S**2>=0.000
       7 -> 14         0.11464
       8 -> 16         0.42737
      10 -> 20        -0.18809
      11 -> 26         0.34923
      12 -> 27        -0.24445
      12 -> 28         0.18530

 Excited State  50:      Singlet-A     13.9360 eV   88.97 nm  f=0.0704  <S**2>=0.000
       6 -> 13        -0.13566
       9 -> 20         0.62350
      11 -> 25        -0.10202
      11 -> 27         0.27934

 Excited State  51:      Singlet-A     14.0343 eV   88.34 nm  f=0.0446  <S**2>=0.000
       9 -> 20        -0.23423
      11 -> 25         0.15348
      11 -> 27         0.63587

 Excited State  52:      Singlet-A     14.2930 eV   86.74 nm  f=0.0143  <S**2>=0.000
      10 -> 21         0.70429

 Excited State  53:      Singlet-A     14.2985 eV   86.71 nm  f=0.0927  <S**2>=0.000
       7 -> 14         0.62780
       8 -> 17        -0.16962
       9 -> 21         0.16259
      10 -> 22        -0.10930

 Excited State  54:      Singlet-A     14.4394 eV   85.87 nm  f=0.0244  <S**2>=0.000
       9 -> 21         0.26571
      10 -> 22         0.28964
      12 -> 28         0.57392

 Excited State  55:      Singlet-A     14.5450 eV   85.24 nm  f=0.0042  <S**2>=0.000
       7 -> 14         0.14944
       7 -> 15         0.11397
       8 -> 17         0.62454
       8 -> 19         0.15607
      10 -> 22         0.14136

 Excited State  56:      Singlet-A     14.6023 eV   84.91 nm  f=0.0610  <S**2>=0.000
       7 -> 14         0.13083
       8 -> 17        -0.16016
       9 -> 21        -0.40994
      10 -> 22         0.50783

 Excited State  57:      Singlet-A     14.6322 eV   84.73 nm  f=0.0077  <S**2>=0.000
       8 -> 18         0.70479

 Excited State  58:      Singlet-A     14.6406 eV   84.69 nm  f=0.0073  <S**2>=0.000
       9 -> 21         0.31743
      10 -> 22         0.17558
      12 -> 28        -0.17498
      12 -> 29         0.56271

 Excited State  59:      Singlet-A     14.7695 eV   83.95 nm  f=0.0019  <S**2>=0.000
       7 -> 15         0.12727
       8 -> 19        -0.10967
       9 -> 21        -0.19083
      10 -> 22        -0.16378
      10 -> 23         0.54591
      12 -> 28         0.16391
      12 -> 29         0.22914

 Excited State  60:      Singlet-A     14.8017 eV   83.76 nm  f=0.0032  <S**2>=0.000
       9 -> 22         0.70257

 Excited State  61:      Singlet-A     14.8739 eV   83.36 nm  f=0.0017  <S**2>=0.000
       7 -> 15        -0.36525
       8 -> 19         0.23035
       9 -> 21         0.18363
      10 -> 22         0.12774
      10 -> 23         0.40480
      12 -> 28        -0.14013
      12 -> 29        -0.21624

 Excited State  62:      Singlet-A     14.9772 eV   82.78 nm  f=0.0150  <S**2>=0.000
       7 -> 15         0.42557
       8 -> 19        -0.28452
       9 -> 21         0.18226
      10 -> 22         0.11815
      10 -> 23         0.14731
      12 -> 28        -0.14463
      12 -> 29        -0.24068
      12 -> 30        -0.17007
      12 -> 32         0.14388

 Excited State  63:      Singlet-A     15.0614 eV   82.32 nm  f=0.0059  <S**2>=0.000
       6 -> 13        -0.13376
       9 -> 23         0.14728
      10 -> 24        -0.22294
      12 -> 31         0.63525

 Excited State  64:      Singlet-A     15.0681 eV   82.28 nm  f=0.0035  <S**2>=0.000
       6 -> 13        -0.12759
       9 -> 23         0.64998
      10 -> 24         0.16941
      11 -> 28        -0.11068
      12 -> 31        -0.13081

 Excited State  65:      Singlet-A     15.1028 eV   82.09 nm  f=0.0030  <S**2>=0.000
       6 -> 13        -0.14518
       9 -> 23        -0.15013
      10 -> 24         0.63375
      12 -> 31         0.22146

 Excited State  66:      Singlet-A     15.1132 eV   82.04 nm  f=0.0194  <S**2>=0.000
       8 -> 19        -0.29522
       8 -> 20         0.10660
       9 -> 24        -0.10044
      12 -> 30         0.59234

 Excited State  67:      Singlet-A     15.2510 eV   81.30 nm  f=0.0050  <S**2>=0.000
       6 -> 15         0.13488
       7 -> 15         0.33503
       7 -> 16        -0.16954
       8 -> 17        -0.12965
       8 -> 19         0.41866
       8 -> 20         0.12561
      12 -> 30         0.25768
      12 -> 32        -0.16539

 Excited State  68:      Singlet-A     15.4196 eV   80.41 nm  f=0.0537  <S**2>=0.000
       9 -> 23         0.12227
      11 -> 28         0.68476

 Excited State  69:      Singlet-A     15.4612 eV   80.19 nm  f=0.0409  <S**2>=0.000
       8 -> 19         0.14776
       9 -> 24        -0.19682
      12 -> 32         0.60987
      12 -> 33         0.10213

 Excited State  70:      Singlet-A     15.5000 eV   79.99 nm  f=0.0308  <S**2>=0.000
       6 -> 14         0.16305
       8 -> 20         0.14778
       9 -> 24         0.62069
      12 -> 32         0.19501

 Excited State  71:      Singlet-A     15.5348 eV   79.81 nm  f=0.0195  <S**2>=0.000
       6 -> 14        -0.18420
       8 -> 20         0.63951
      12 -> 30        -0.12237

 Excited State  72:      Singlet-A     15.5767 eV   79.60 nm  f=0.1702  <S**2>=0.000
       6 -> 13         0.57236
       9 -> 20         0.11527
       9 -> 23         0.12282
      10 -> 24         0.11142
      11 -> 29         0.24567
      12 -> 31         0.13301

 Excited State  73:      Singlet-A     15.6382 eV   79.28 nm  f=0.0245  <S**2>=0.000
       6 -> 13        -0.20784
      11 -> 29         0.65841

 Excited State  74:      Singlet-A     15.7028 eV   78.96 nm  f=0.0398  <S**2>=0.000
       6 -> 14         0.60112
       7 -> 16         0.20261
       8 -> 20         0.11826
       9 -> 24        -0.12886
      11 -> 31         0.21796

 Excited State  75:      Singlet-A     15.9034 eV   77.96 nm  f=0.0501  <S**2>=0.000
       7 -> 16        -0.29068
      11 -> 31         0.29297
      12 -> 33         0.54960

 Excited State  76:      Singlet-A     15.9777 eV   77.60 nm  f=0.0132  <S**2>=0.000
      11 -> 30         0.70169

 Excited State  77:      Singlet-A     16.0344 eV   77.32 nm  f=0.0510  <S**2>=0.000
       7 -> 16        -0.10313
       8 -> 22         0.13095
      11 -> 31         0.55278
      12 -> 33        -0.36381

 Excited State  78:      Singlet-A     16.0897 eV   77.06 nm  f=0.0000  <S**2>=0.000
       8 -> 21         0.70442

 Excited State  79:      Singlet-A     16.2744 eV   76.18 nm  f=0.0492  <S**2>=0.000
       6 -> 14        -0.16670
       6 -> 15         0.26866
       7 -> 16         0.48726
       7 -> 17         0.14388
       8 -> 22         0.16905
       9 -> 24         0.10755
      11 -> 31         0.13578
      12 -> 33         0.16802
      12 -> 34         0.12213

 Excited State  80:      Singlet-A     16.2767 eV   76.17 nm  f=0.0017  <S**2>=0.000
      11 -> 32         0.70568

 Excited State  81:      Singlet-A     16.4985 eV   75.15 nm  f=0.0775  <S**2>=0.000
       8 -> 22         0.60513
       8 -> 23        -0.17704
      11 -> 31        -0.11273
      12 -> 34        -0.22078

 Excited State  82:      Singlet-A     16.5950 eV   74.71 nm  f=0.0040  <S**2>=0.000
       6 -> 15        -0.32308
       7 -> 17         0.37833
      10 -> 25         0.45399
      12 -> 34         0.16136

 Excited State  83:      Singlet-A     16.6340 eV   74.54 nm  f=0.0053  <S**2>=0.000
       6 -> 15         0.18944
       7 -> 17        -0.37042
       8 -> 23        -0.32275
      10 -> 25         0.45378

 Excited State  84:      Singlet-A     16.7691 eV   73.94 nm  f=0.0439  <S**2>=0.000
       6 -> 15         0.21704
       8 -> 23         0.42182
      10 -> 25         0.26778
      12 -> 34        -0.41086

 Excited State  85:      Singlet-A     16.7784 eV   73.89 nm  f=0.0000  <S**2>=0.000
       7 -> 18         0.15677
      11 -> 33         0.68263

 Excited State  86:      Singlet-A     16.8441 eV   73.61 nm  f=0.0075  <S**2>=0.000
       7 -> 18         0.65793
       8 -> 24         0.16349
      10 -> 26        -0.10963
      11 -> 33        -0.15911

 Excited State  87:      Singlet-A     16.8621 eV   73.53 nm  f=0.0020  <S**2>=0.000
       8 -> 24         0.42444
       9 -> 25        -0.11374
      10 -> 26         0.54514

 Excited State  88:      Singlet-A     16.9042 eV   73.35 nm  f=0.2948  <S**2>=0.000
       6 -> 15         0.23445
       7 -> 17         0.36751
       7 -> 19        -0.13294
       8 -> 22        -0.17365
       8 -> 23        -0.36310
      10 -> 27        -0.14279
      12 -> 34        -0.25778

 Excited State  89:      Singlet-A     16.9162 eV   73.29 nm  f=0.0267  <S**2>=0.000
       7 -> 18        -0.18146
       8 -> 24         0.51886
       9 -> 25         0.23886
      10 -> 26        -0.36429

 Excited State  90:      Singlet-A     16.9600 eV   73.10 nm  f=0.0025  <S**2>=0.000
       8 -> 24        -0.11873
       9 -> 25         0.63187
       9 -> 27        -0.13606
      10 -> 26         0.21367

 Excited State  91:      Singlet-A     17.0458 eV   72.74 nm  f=0.0089  <S**2>=0.000
       6 -> 15         0.28011
       7 -> 16        -0.17082
       7 -> 17         0.19843
       7 -> 19         0.19707
       9 -> 26         0.18068
      10 -> 27         0.34901
      12 -> 34         0.28942

 Excited State  92:      Singlet-A     17.1536 eV   72.28 nm  f=0.0116  <S**2>=0.000
       7 -> 19         0.26245
       9 -> 26         0.54478
      10 -> 27        -0.34290

 Excited State  93:      Singlet-A     17.3204 eV   71.58 nm  f=0.0420  <S**2>=0.000
       6 -> 16         0.19300
       7 -> 19         0.56558
       7 -> 20        -0.12986
       9 -> 26        -0.27588

 Excited State  94:      Singlet-A     17.4424 eV   71.08 nm  f=0.0378  <S**2>=0.000
       9 -> 27         0.65449
      11 -> 34         0.11945
      12 -> 35        -0.17710

 Excited State  95:      Singlet-A     17.4609 eV   71.01 nm  f=0.0999  <S**2>=0.000
       6 -> 15        -0.15885
       6 -> 16        -0.28804
       7 -> 20        -0.18941
       8 -> 22        -0.13577
       8 -> 23        -0.11002
       8 -> 25        -0.12122
       9 -> 26         0.18183
      10 -> 27         0.41464
      12 -> 34        -0.18526

 Excited State  96:      Singlet-A     17.4767 eV   70.94 nm  f=0.0119  <S**2>=0.000
       6 -> 15        -0.11529
       6 -> 16         0.59979
       7 -> 19        -0.13344
       7 -> 20        -0.10250
       9 -> 26         0.19357
      10 -> 27         0.17158

 Excited State  97:      Singlet-A     17.5954 eV   70.46 nm  f=0.0124  <S**2>=0.000
       9 -> 27         0.16955
      12 -> 35         0.68260

 Excited State  98:      Singlet-A     17.7132 eV   70.00 nm  f=0.0167  <S**2>=0.000
       9 -> 27        -0.10760
      11 -> 34         0.68758

 Excited State  99:      Singlet-A     17.7298 eV   69.93 nm  f=0.0270  <S**2>=0.000
      12 -> 36         0.68635

 Excited State 100:      Singlet-A     17.7871 eV   69.70 nm  f=0.0324  <S**2>=0.000
       7 -> 20         0.63218
       7 -> 22        -0.12745

 Excited State 101:      Singlet-A     18.2244 eV   68.03 nm  f=0.0652  <S**2>=0.000
       6 -> 17         0.63941
       7 -> 22         0.10852
       8 -> 27        -0.14917
      10 -> 28        -0.10657

 Excited State 102:      Singlet-A     18.3222 eV   67.67 nm  f=0.0069  <S**2>=0.000
       6 -> 18         0.66532
       7 -> 21        -0.23077

 Excited State 103:      Singlet-A     18.3531 eV   67.55 nm  f=0.0781  <S**2>=0.000
       6 -> 18         0.22883
       7 -> 21         0.64752

 Excited State 104:      Singlet-A     18.4740 eV   67.11 nm  f=0.0019  <S**2>=0.000
      10 -> 28         0.63269
      11 -> 35         0.28395

 Excited State 105:      Singlet-A     18.5012 eV   67.01 nm  f=0.0024  <S**2>=0.000
       7 -> 22        -0.19693
       8 -> 25         0.17729
      10 -> 28        -0.19732
      11 -> 35         0.52945
      12 -> 37         0.30793

 Excited State 106:      Singlet-A     18.6164 eV   66.60 nm  f=0.0149  <S**2>=0.000
       8 -> 26        -0.27378
      11 -> 36         0.64924

 Excited State 107:      Singlet-A     18.6172 eV   66.60 nm  f=0.0348  <S**2>=0.000
       6 -> 19        -0.24286
       7 -> 22        -0.11841
       8 -> 25         0.56683
      10 -> 29         0.12862
      11 -> 35        -0.16972

 Excited State 108:      Singlet-A     18.6717 eV   66.40 nm  f=0.0787  <S**2>=0.000
       6 -> 19         0.57051
       7 -> 22         0.24878
       7 -> 23         0.12324
       8 -> 25         0.21237
      10 -> 29         0.15428

 Excited State 109:      Singlet-A     18.7034 eV   66.29 nm  f=0.0920  <S**2>=0.000
       8 -> 26         0.64002
      11 -> 36         0.26832

 Excited State 110:      Singlet-A     18.7270 eV   66.21 nm  f=0.0004  <S**2>=0.000
       9 -> 28         0.69497

 Excited State 111:      Singlet-A     18.7802 eV   66.02 nm  f=0.0155  <S**2>=0.000
       7 -> 22        -0.18686
       8 -> 25        -0.17857
       8 -> 27        -0.10944
      10 -> 29         0.62040

 Excited State 112:      Singlet-A     18.8224 eV   65.87 nm  f=0.0719  <S**2>=0.000
       6 -> 19        -0.30174
       6 -> 20        -0.11757
       7 -> 22         0.52274
      10 -> 29         0.15657
      12 -> 37         0.20653

 Excited State 113:      Singlet-A     18.8825 eV   65.66 nm  f=0.0016  <S**2>=0.000
       7 -> 23         0.45505
       9 -> 31        -0.11181
      10 -> 29         0.10096
      10 -> 30        -0.30662
      11 -> 35         0.12686
      12 -> 37        -0.36385

 Excited State 114:      Singlet-A     18.9991 eV   65.26 nm  f=0.0000  <S**2>=0.000
       9 -> 29         0.68346
      10 -> 31        -0.11505

 Excited State 115:      Singlet-A     19.0146 eV   65.20 nm  f=0.0636  <S**2>=0.000
       7 -> 22        -0.10552
       7 -> 23         0.49091
       8 -> 25        -0.11320
       8 -> 27        -0.14425
       9 -> 31         0.13219

 The electronic state is 1-A.
 Alpha  occ. eigenvalues --  -18.59412 -13.90528  -9.88947  -0.94874  -0.83153
 Alpha  occ. eigenvalues --   -0.57483  -0.52084  -0.44008  -0.38317  -0.37363
 Alpha  occ. eigenvalues --   -0.25917  -0.22737
 Alpha virt. eigenvalues --   -0.03743  -0.00478   0.02550   0.06358   0.08706
 Alpha virt. eigenvalues --    0.09797   0.10963   0.12741   0.15095   0.16075
 Alpha virt. eigenvalues --    0.17076   0.18122   0.23626   0.24683   0.25379

 Mulliken charges:
               1
     1  N    0.217317
     2  C    0.439093
     3  O   -0.308216
     4  H   -0.089951
     5  H   -0.052861
     6  H   -0.205383
 Sum of Mulliken charges =  -0.00000

 Dipole moment (field-independent basis, Debye):
    X=              3.8903    Y=              0.7808    Z=              0.0000  Tot=              3.9679
 Quadrupole moment (field-independent basis, Debye-Ang):
   XX=            -18.1747   YY=            -15.8692   ZZ=            -19.1320
   XY=             -1.3515   XZ=              0.0000   YZ=             -0.0000

 1\1\GINC-HEL23\SP\RSVWN5 TD-FC\Gen\C1H3N1O1\SABYASACHI\21-Mar-2022\0\\
 #P TD(Nstates=10000) svwn5/Gen SCF(maxcycles=100) Int(Grid=ultrafine)\
 \xGDB7_00001_tier4.com\\0,1\N,0,-1.078471,-0.1569,0.000001\C,0,0.16196
 3,0.384944,0.000002\O,0,1.18917,-0.245458,-0.000001\H,0,-1.898427,0.41
 9427,-0.000004\H,0,-1.178124,-1.157073,-0.000005\H,0,0.140706,1.489948
 ,-0.000007\\Version=EM64L-G16RevC.01\State=1-A\HF=-168.4463862\RMSD=3.
 607e-09\PG=C01 [X(C1H3N1O1)]\\@
 The archive entry for this job was punched.

 Normal termination of Gaussian 16 at Mon Mar 21 19:58:29 2022.
