 Gaussian 16, Revision C.01,
 Gaussian 16:  EM64L-G16RevC.01  3-Jul-2019

 ---------------------------------------------------------------------
 #P TD(Nstates=10000) svwn5/Gen SCF(maxcycles=100) Int(Grid=ultrafine)
 ---------------------------------------------------------------------

 ---------------------
 xGDB7_00001_tier4.com
 ---------------------
 Symbolic Z-matrix:
 Charge =  0 Multiplicity = 1

                         Standard orientation:
 ---------------------------------------------------------------------
 Center     Atomic      Atomic             Coordinates (Angstroms)
 Number     Number       Type             X           Y           Z
 ---------------------------------------------------------------------
      1          6           0       -0.026655   -0.220923    1.206915
      2          7           0       -0.026655    0.579675   -0.000000
      3          6           0       -0.026655   -0.220923   -1.206915
      4          1           0        0.028929    0.427196    2.082330
      5          1           0        0.800836   -0.947383    1.258571
      6          1           0       -0.961718   -0.783094    1.269367
      7          1           0        0.770359    1.199905   -0.000000
      8          1           0       -0.961718   -0.783094   -1.269367
      9          1           0        0.800836   -0.947383   -1.258571
     10          1           0        0.028929    0.427196   -2.082330
 ---------------------------------------------------------------------

 SCF Done:  E(RS-VWN5) =  -133.850064689     A.U. after   12 cycles

 Excitation energies and oscillator strengths:

 Excited State   1:      Singlet-A'     5.1099 eV  242.64 nm  f=0.0066  <S**2>=0.000
      13 -> 14         0.70632
 This state for optimization and/or second-order correction.
 Total Energy, E(TD-HF/TD-DFT) =  -133.662279524
 Copying the excited state density for this state as the 1-particle RhoCI density.

 Excited State   2:      Singlet-A"     6.0503 eV  204.92 nm  f=0.0045  <S**2>=0.000
      13 -> 15         0.70678

 Excited State   3:      Singlet-A'     6.2313 eV  198.97 nm  f=0.0345  <S**2>=0.000
      13 -> 16         0.70490

 Excited State   4:      Singlet-A'     6.9989 eV  177.15 nm  f=0.0131  <S**2>=0.000
      13 -> 17         0.69331
      13 -> 18         0.12985

 Excited State   5:      Singlet-A'     7.0931 eV  174.79 nm  f=0.0870  <S**2>=0.000
      13 -> 17        -0.12816
      13 -> 18         0.69198

 Excited State   6:      Singlet-A'     7.7444 eV  160.10 nm  f=0.0056  <S**2>=0.000
      13 -> 19         0.70066

 Excited State   7:      Singlet-A"     7.8246 eV  158.45 nm  f=0.0207  <S**2>=0.000
      13 -> 20         0.70334

 Excited State   8:      Singlet-A'     8.2794 eV  149.75 nm  f=0.0076  <S**2>=0.000
      13 -> 22         0.70110

 Excited State   9:      Singlet-A"     8.2795 eV  149.75 nm  f=0.0784  <S**2>=0.000
      13 -> 21         0.69834

 Excited State  10:      Singlet-A"     8.8386 eV  140.28 nm  f=0.0047  <S**2>=0.000
      12 -> 14        -0.25904
      13 -> 23         0.65411

 Excited State  11:      Singlet-A"     8.8651 eV  139.86 nm  f=0.0453  <S**2>=0.000
      12 -> 14         0.65577
      13 -> 23         0.25391

 Excited State  12:      Singlet-A'     8.9373 eV  138.73 nm  f=0.0123  <S**2>=0.000
      11 -> 14         0.69439
      13 -> 24        -0.12475

 Excited State  13:      Singlet-A'     9.1661 eV  135.26 nm  f=0.0041  <S**2>=0.000
      11 -> 14         0.11952
      13 -> 24         0.68931

 Excited State  14:      Singlet-A"     9.3323 eV  132.86 nm  f=0.0080  <S**2>=0.000
      10 -> 14         0.11855
      13 -> 25         0.69284

 Excited State  15:      Singlet-A"     9.3994 eV  131.91 nm  f=0.0058  <S**2>=0.000
      10 -> 14         0.69613
      13 -> 25        -0.11850

 Excited State  16:      Singlet-A'     9.8569 eV  125.78 nm  f=0.0211  <S**2>=0.000
      12 -> 15         0.70059

 Excited State  17:      Singlet-A"     9.8729 eV  125.58 nm  f=0.0010  <S**2>=0.000
      11 -> 15         0.67486
      13 -> 26         0.19286

 Excited State  18:      Singlet-A"     9.9180 eV  125.01 nm  f=0.0015  <S**2>=0.000
      11 -> 15         0.18494
      12 -> 16         0.50155
      13 -> 26        -0.45779

 Excited State  19:      Singlet-A"     9.9480 eV  124.63 nm  f=0.0357  <S**2>=0.000
      12 -> 16         0.48672
      13 -> 26         0.49484

 Excited State  20:      Singlet-A'    10.0269 eV  123.65 nm  f=0.1189  <S**2>=0.000
      11 -> 16         0.69995

 Excited State  21:      Singlet-A'    10.3870 eV  119.37 nm  f=0.0669  <S**2>=0.000
      10 -> 15         0.69998

 Excited State  22:      Singlet-A"    10.4706 eV  118.41 nm  f=0.0005  <S**2>=0.000
      10 -> 16         0.70269

 Excited State  23:      Singlet-A'    10.6990 eV  115.88 nm  f=0.0041  <S**2>=0.000
      13 -> 27         0.66704
      13 -> 28        -0.12515

 Excited State  24:      Singlet-A"    10.7853 eV  114.96 nm  f=0.0093  <S**2>=0.000
      12 -> 17        -0.43092
      12 -> 18         0.54469

 Excited State  25:      Singlet-A'    10.8038 eV  114.76 nm  f=0.0198  <S**2>=0.000
      11 -> 17         0.64066
      11 -> 18        -0.28073

 Excited State  26:      Singlet-A"    10.8404 eV  114.37 nm  f=0.1879  <S**2>=0.000
      12 -> 17         0.54162
      12 -> 18         0.42881

 Excited State  27:      Singlet-A'    10.9348 eV  113.38 nm  f=0.0292  <S**2>=0.000
       9 -> 14         0.58303
      11 -> 17        -0.15572
      11 -> 18        -0.35120

 Excited State  28:      Singlet-A'    10.9974 eV  112.74 nm  f=0.1012  <S**2>=0.000
       9 -> 14         0.38072
      11 -> 17         0.22953
      11 -> 18         0.50779
      13 -> 28        -0.13995

 Excited State  29:      Singlet-A"    11.0337 eV  112.37 nm  f=0.0123  <S**2>=0.000
       8 -> 14         0.66958
      10 -> 17        -0.10925
      10 -> 18         0.13791
      12 -> 18         0.10481

 Excited State  30:      Singlet-A'    11.1914 eV  110.79 nm  f=0.0235  <S**2>=0.000
      11 -> 18         0.11432
      13 -> 27         0.10380
      13 -> 28         0.66443

 Excited State  31:      Singlet-A"    11.2412 eV  110.29 nm  f=0.0121  <S**2>=0.000
      10 -> 17        -0.11865
      13 -> 29         0.67901

 Excited State  32:      Singlet-A"    11.3535 eV  109.20 nm  f=0.0084  <S**2>=0.000
      10 -> 17         0.63468
      10 -> 18         0.23946
      12 -> 19         0.11852

 Excited State  33:      Singlet-A"    11.4881 eV  107.92 nm  f=0.0084  <S**2>=0.000
      10 -> 18        -0.35894
      11 -> 20        -0.25157
      12 -> 19         0.52683

 Excited State  34:      Singlet-A'    11.5175 eV  107.65 nm  f=0.0041  <S**2>=0.000
      11 -> 19         0.67832
      12 -> 20        -0.11343

 Excited State  35:      Singlet-A"    11.5444 eV  107.40 nm  f=0.0089  <S**2>=0.000
      10 -> 17        -0.21947
      10 -> 18         0.45671
      11 -> 20         0.10874
      12 -> 19         0.41046
      13 -> 29        -0.14772

 Excited State  36:      Singlet-A"    11.6793 eV  106.16 nm  f=0.0396  <S**2>=0.000
      10 -> 18        -0.17208
      11 -> 20         0.63137
      12 -> 19         0.13071

 Excited State  37:      Singlet-A'    11.7056 eV  105.92 nm  f=0.0276  <S**2>=0.000
      12 -> 20         0.65477

 Excited State  38:      Singlet-A'    11.8696 eV  104.46 nm  f=0.1013  <S**2>=0.000
       8 -> 15        -0.15959
       9 -> 16         0.12556
      13 -> 30         0.64711
      13 -> 31        -0.11762

 Excited State  39:      Singlet-A"    11.8982 eV  104.20 nm  f=0.0148  <S**2>=0.000
       9 -> 15         0.69430

 Excited State  40:      Singlet-A'    11.9443 eV  103.80 nm  f=0.0414  <S**2>=0.000
       8 -> 15         0.65229
      11 -> 22         0.16051
      13 -> 30         0.14619

 Excited State  41:      Singlet-A"    11.9487 eV  103.76 nm  f=0.0204  <S**2>=0.000
      10 -> 19         0.57380
      12 -> 22        -0.40390

 Excited State  42:      Singlet-A'    11.9690 eV  103.59 nm  f=0.0033  <S**2>=0.000
       9 -> 16         0.36323
      10 -> 20         0.10346
      12 -> 21         0.58415

 Excited State  43:      Singlet-A"    11.9855 eV  103.44 nm  f=0.0031  <S**2>=0.000
       8 -> 16        -0.16212
      10 -> 19         0.25970
      11 -> 21         0.47725
      12 -> 22         0.41655

 Excited State  44:      Singlet-A'    11.9874 eV  103.43 nm  f=0.0137  <S**2>=0.000
       9 -> 16         0.54258
      10 -> 20        -0.18148
      11 -> 22        -0.17004
      12 -> 21        -0.33687

 Excited State  45:      Singlet-A"    12.0559 eV  102.84 nm  f=0.0476  <S**2>=0.000
       8 -> 16         0.64578
      10 -> 19         0.16949
      12 -> 22         0.19725

 Excited State  46:      Singlet-A'    12.0659 eV  102.76 nm  f=0.0283  <S**2>=0.000
       8 -> 15        -0.10696
       9 -> 16         0.17268
      10 -> 21         0.12000
      11 -> 22         0.64451

 Excited State  47:      Singlet-A'    12.1571 eV  101.99 nm  f=0.0389  <S**2>=0.000
      10 -> 20         0.66641
      12 -> 21        -0.16670

 Excited State  48:      Singlet-A"    12.2058 eV  101.58 nm  f=0.0709  <S**2>=0.000
       8 -> 16         0.19611
      10 -> 18         0.15481
      10 -> 19        -0.22529
      11 -> 21         0.47729
      11 -> 23        -0.15751
      12 -> 22        -0.32061

 Excited State  49:      Singlet-A'    12.3169 eV  100.66 nm  f=0.0540  <S**2>=0.000
       7 -> 14         0.65169
      13 -> 31         0.14409

 Excited State  50:      Singlet-A'    12.4791 eV   99.35 nm  f=0.0571  <S**2>=0.000
       7 -> 14        -0.13256
      12 -> 23        -0.17661
      13 -> 31         0.61916
      13 -> 33         0.16904

 Excited State  51:      Singlet-A'    12.5745 eV   98.60 nm  f=0.0425  <S**2>=0.000
      10 -> 21        -0.29482
      12 -> 23         0.58090
      13 -> 31         0.17524

 Excited State  52:      Singlet-A"    12.5757 eV   98.59 nm  f=0.0186  <S**2>=0.000
      10 -> 22         0.65050
      11 -> 23        -0.24093

 Excited State  53:      Singlet-A'    12.7200 eV   97.47 nm  f=0.0599  <S**2>=0.000
       9 -> 17         0.26867
       9 -> 18        -0.31494
      10 -> 21         0.44045
      10 -> 23        -0.14352
      12 -> 23         0.28694

 Excited State  54:      Singlet-A"    12.7290 eV   97.40 nm  f=0.0384  <S**2>=0.000
      10 -> 22         0.18937
      11 -> 23         0.51993
      12 -> 24         0.15554
      13 -> 32         0.37705

 Excited State  55:      Singlet-A"    12.8021 eV   96.85 nm  f=0.0585  <S**2>=0.000
       8 -> 17        -0.19919
       8 -> 18        -0.10264
      10 -> 22        -0.14332
      11 -> 23        -0.29245
      12 -> 24        -0.14047
      13 -> 32         0.54910

 Excited State  56:      Singlet-A'    12.8191 eV   96.72 nm  f=0.0009  <S**2>=0.000
       9 -> 17         0.27654
       9 -> 18         0.18663
      11 -> 24         0.23118
      12 -> 25         0.15889
      13 -> 31        -0.10235
      13 -> 33         0.48436
      13 -> 34         0.22505

 Excited State  57:      Singlet-A"    12.8483 eV   96.50 nm  f=0.0009  <S**2>=0.000
       8 -> 17         0.55638
       8 -> 18        -0.40987

 Excited State  58:      Singlet-A'    12.8532 eV   96.46 nm  f=0.0078  <S**2>=0.000
       9 -> 17         0.43302
       9 -> 18         0.31572
      11 -> 24         0.14525
      13 -> 33        -0.34407
      13 -> 34        -0.19838

 Excited State  59:      Singlet-A"    12.9046 eV   96.08 nm  f=0.0019  <S**2>=0.000
       8 -> 17        -0.12837
       8 -> 18        -0.15247
      11 -> 23        -0.16314
      11 -> 25        -0.11417
      12 -> 24         0.63038

 Excited State  60:      Singlet-A"    12.9526 eV   95.72 nm  f=0.0305  <S**2>=0.000
       8 -> 17         0.30126
       8 -> 18         0.50882
      11 -> 23        -0.12484
      11 -> 25         0.17636
      12 -> 24         0.18862
      13 -> 32         0.17725

 Excited State  61:      Singlet-A'    12.9669 eV   95.62 nm  f=0.0442  <S**2>=0.000
       9 -> 18         0.31125
      10 -> 21         0.14213
      10 -> 23        -0.14307
      11 -> 24        -0.22391
      12 -> 25        -0.13894
      13 -> 33        -0.15368
      13 -> 34         0.49374

 Excited State  62:      Singlet-A'    12.9767 eV   95.54 nm  f=0.0099  <S**2>=0.000
      10 -> 23         0.14597
      11 -> 24         0.49170
      12 -> 25        -0.39338
      13 -> 33        -0.12278
      13 -> 34         0.18067

 Excited State  63:      Singlet-A'    13.0961 eV   94.67 nm  f=0.0169  <S**2>=0.000
       7 -> 16        -0.10298
       9 -> 18        -0.29367
      10 -> 21        -0.12152
      12 -> 25         0.41823
      13 -> 33        -0.21207
      13 -> 34         0.33779

 Excited State  64:      Singlet-A"    13.1084 eV   94.58 nm  f=0.0004  <S**2>=0.000
       8 -> 17        -0.12343
       8 -> 18        -0.12404
      11 -> 25         0.66614

 Excited State  65:      Singlet-A'    13.1983 eV   93.94 nm  f=0.0380  <S**2>=0.000
       8 -> 20        -0.17224
       9 -> 17        -0.15472
       9 -> 18         0.19081
       9 -> 19         0.20423
      10 -> 21         0.25469
      10 -> 23         0.42261
      12 -> 25         0.21278
      12 -> 26        -0.10148
      13 -> 35         0.10192

 Excited State  66:      Singlet-A"    13.2467 eV   93.60 nm  f=0.0973  <S**2>=0.000
       7 -> 15         0.67896
       8 -> 19         0.10521

 Excited State  67:      Singlet-A'    13.3027 eV   93.20 nm  f=0.0268  <S**2>=0.000
       7 -> 16         0.51078
       8 -> 20        -0.15341
       9 -> 17        -0.14957
      10 -> 23        -0.35345
      11 -> 24         0.13073
      12 -> 25         0.15707

 Excited State  68:      Singlet-A"    13.4351 eV   92.28 nm  f=0.0308  <S**2>=0.000
       8 -> 19        -0.11949
      10 -> 24         0.68302

 Excited State  69:      Singlet-A'    13.4519 eV   92.17 nm  f=0.0673  <S**2>=0.000
       7 -> 16         0.39187
       8 -> 20         0.29974
       9 -> 17         0.16783
       9 -> 19         0.30153
      10 -> 23         0.19111
      11 -> 24        -0.14243
      12 -> 26         0.11572

 Excited State  70:      Singlet-A"    13.5664 eV   91.39 nm  f=0.0209  <S**2>=0.000
       8 -> 19         0.59442
      10 -> 24         0.10443
      11 -> 26        -0.18638
      13 -> 36         0.26777

 Excited State  71:      Singlet-A'    13.6030 eV   91.14 nm  f=0.0041  <S**2>=0.000
       9 -> 19        -0.10574
      10 -> 25        -0.26313
      13 -> 35         0.62702

 Excited State  72:      Singlet-A'    13.6320 eV   90.95 nm  f=0.0035  <S**2>=0.000
       8 -> 20        -0.17033
      10 -> 25         0.11542
      12 -> 26         0.64845
      13 -> 35         0.11160

 Excited State  73:      Singlet-A'    13.6327 eV   90.95 nm  f=0.1511  <S**2>=0.000
       7 -> 16        -0.12791
       8 -> 20        -0.17384
       8 -> 21        -0.11629
       9 -> 19         0.42268
      10 -> 23        -0.14657
      10 -> 25        -0.41178
      13 -> 35        -0.11901

 Excited State  74:      Singlet-A"    13.6564 eV   90.79 nm  f=0.0027  <S**2>=0.000
       9 -> 20         0.13467
      11 -> 26         0.48033
      13 -> 36         0.48947

 Excited State  75:      Singlet-A"    13.7095 eV   90.44 nm  f=0.1188  <S**2>=0.000
       8 -> 19         0.13416
       9 -> 20         0.62861
       9 -> 21        -0.11456
      13 -> 36        -0.20144

 Excited State  76:      Singlet-A'    13.7808 eV   89.97 nm  f=0.1609  <S**2>=0.000
       7 -> 16        -0.12514
       7 -> 17        -0.10041
       9 -> 19         0.34009
       9 -> 22        -0.19429
      10 -> 23        -0.14356
      10 -> 25         0.36370
      12 -> 26        -0.14899
      13 -> 35         0.19929
      13 -> 37        -0.21202

 Excited State  77:      Singlet-A'    13.8682 eV   89.40 nm  f=0.0327  <S**2>=0.000
       7 -> 17        -0.11510
       7 -> 18        -0.10433
       8 -> 20         0.40858
       9 -> 22        -0.13136
      10 -> 26        -0.10006
      13 -> 37         0.45114

 Excited State  78:      Singlet-A"    13.8747 eV   89.36 nm  f=0.1526  <S**2>=0.000
       8 -> 19         0.23182
       9 -> 20        -0.16418
       9 -> 21         0.14343
      11 -> 26         0.45074
      12 -> 27        -0.11542
      13 -> 36        -0.33950

 Excited State  79:      Singlet-A'    14.0193 eV   88.44 nm  f=0.0205  <S**2>=0.000
       7 -> 18         0.30617
       8 -> 20        -0.19433
       8 -> 21         0.33928
      10 -> 25         0.10079
      13 -> 37         0.40089

 Excited State  80:      Singlet-A"    14.0637 eV   88.16 nm  f=0.0075  <S**2>=0.000
       8 -> 22         0.61819
       9 -> 21        -0.31136
      12 -> 27        -0.10847

 Excited State  81:      Singlet-A'    14.0760 eV   88.08 nm  f=0.0060  <S**2>=0.000
       7 -> 17        -0.33926
       8 -> 21         0.36283
       9 -> 22         0.46843

 Excited State  82:      Singlet-A'    14.1198 eV   87.81 nm  f=0.0231  <S**2>=0.000
       7 -> 17         0.42067
       7 -> 18        -0.27132
       8 -> 21         0.36266
      10 -> 26        -0.26335
      11 -> 27         0.12353

 Excited State  83:      Singlet-A"    14.1684 eV   87.51 nm  f=0.0841  <S**2>=0.000
       8 -> 22         0.28627
       9 -> 20         0.10569
       9 -> 21         0.36609
      12 -> 27         0.50049

 Excited State  84:      Singlet-A'    14.1837 eV   87.41 nm  f=0.0069  <S**2>=0.000
       7 -> 18         0.13697
       9 -> 22        -0.13573
      10 -> 26         0.15114
      11 -> 27         0.64932

 Excited State  85:      Singlet-A'    14.1857 eV   87.40 nm  f=0.0238  <S**2>=0.000
       7 -> 17         0.19105
       7 -> 18        -0.24734
       8 -> 21        -0.12511
       9 -> 22         0.14708
      10 -> 26         0.38681
      13 -> 38         0.44517

 Excited State  86:      Singlet-A"    14.2142 eV   87.23 nm  f=0.0218  <S**2>=0.000
       8 -> 22        -0.15129
       9 -> 21        -0.44105
      11 -> 29        -0.11967
      12 -> 27         0.44166
      12 -> 28         0.14479

 Excited State  87:      Singlet-A'    14.2583 eV   86.96 nm  f=0.0388  <S**2>=0.000
       7 -> 17        -0.19527
       9 -> 22        -0.13449
      10 -> 26        -0.34211
      12 -> 29         0.10532
      13 -> 38         0.52183

 Excited State  88:      Singlet-A"    14.3815 eV   86.21 nm  f=0.0012  <S**2>=0.000
      13 -> 39         0.69882

 Excited State  89:      Singlet-A'    14.4393 eV   85.87 nm  f=0.2891  <S**2>=0.000
       7 -> 18        -0.16204
       7 -> 19         0.19729
       8 -> 20        -0.12735
       8 -> 21        -0.21871
       8 -> 23         0.28260
       9 -> 17         0.11827
       9 -> 22         0.19548
      10 -> 25         0.15703
      10 -> 26        -0.26185
      11 -> 27         0.17599
      13 -> 37         0.18731

 Excited State  90:      Singlet-A'    14.5920 eV   84.97 nm  f=0.0519  <S**2>=0.000
       7 -> 17         0.22707
       7 -> 18         0.34869
       7 -> 19        -0.11707
       8 -> 20         0.10208
       8 -> 25        -0.13497
       9 -> 22         0.23248
      10 -> 26        -0.11679
      13 -> 40        -0.33751

 Excited State  91:      Singlet-A"    14.6463 eV   84.65 nm  f=0.0003  <S**2>=0.000
       9 -> 23         0.49376
      10 -> 27        -0.40127
      13 -> 41         0.29255

 Excited State  92:      Singlet-A'    14.6561 eV   84.60 nm  f=0.0252  <S**2>=0.000
       7 -> 18         0.16569
       8 -> 20         0.10317
      11 -> 28         0.16597
      13 -> 40         0.59443

 Excited State  93:      Singlet-A"    14.7113 eV   84.28 nm  f=0.0588  <S**2>=0.000
       7 -> 20        -0.14622
       9 -> 23         0.45844
      10 -> 27         0.46151
      13 -> 41        -0.17775

 Excited State  94:      Singlet-A'    14.7230 eV   84.21 nm  f=0.0222  <S**2>=0.000
       7 -> 19        -0.27678
       8 -> 23         0.57910
      11 -> 28        -0.19900
      12 -> 29        -0.11300

 Excited State  95:      Singlet-A"    14.7648 eV   83.97 nm  f=0.0163  <S**2>=0.000
       9 -> 25        -0.14636
      10 -> 27         0.31844
      13 -> 41         0.58896

 Excited State  96:      Singlet-A"    14.8713 eV   83.37 nm  f=0.0170  <S**2>=0.000
      11 -> 29         0.37377
      12 -> 28         0.58274

 Excited State  97:      Singlet-A'    14.9215 eV   83.09 nm  f=0.0003  <S**2>=0.000
       7 -> 19         0.16891
       8 -> 25        -0.14612
       9 -> 24         0.62592
      11 -> 28        -0.14748
      12 -> 29         0.10007

 Excited State  98:      Singlet-A"    14.9532 eV   82.92 nm  f=0.0064  <S**2>=0.000
       8 -> 24         0.65434
       9 -> 25        -0.15874
      11 -> 29         0.10787
      13 -> 42         0.12607

 Excited State  99:      Singlet-A'    14.9757 eV   82.79 nm  f=0.1037  <S**2>=0.000
       7 -> 19         0.43986
       7 -> 22        -0.11209
       8 -> 23         0.13209
       9 -> 24        -0.29187
      11 -> 28        -0.26161
      12 -> 29         0.21250

 Excited State 100:      Singlet-A"    14.9964 eV   82.68 nm  f=0.0076  <S**2>=0.000
       7 -> 20         0.64155
       9 -> 23         0.11650
      10 -> 28         0.11530
      13 -> 42         0.13148

 Excited State 101:      Singlet-A"    15.0232 eV   82.53 nm  f=0.0027  <S**2>=0.000
       7 -> 20        -0.11874
       8 -> 24        -0.16200
       9 -> 25        -0.15367
      13 -> 42         0.64224
      13 -> 43         0.10910

 Excited State 102:      Singlet-A"    15.1068 eV   82.07 nm  f=0.0001  <S**2>=0.000
       9 -> 25         0.15881
      11 -> 29        -0.13637
      13 -> 43         0.64516

 Excited State 103:      Singlet-A'    15.1239 eV   81.98 nm  f=0.0681  <S**2>=0.000
       6 -> 14         0.12391
       7 -> 19         0.18114
       7 -> 22        -0.23950
       8 -> 23         0.17491
       8 -> 25         0.36075
      11 -> 28         0.42671

 Excited State 104:      Singlet-A'    15.2458 eV   81.32 nm  f=0.1642  <S**2>=0.000
       6 -> 14        -0.21898
       7 -> 19        -0.19899
       7 -> 22        -0.14261
       8 -> 25        -0.17045
       8 -> 26        -0.18586
      10 -> 29        -0.14387
      11 -> 28         0.12788
      12 -> 29         0.49354

 Excited State 105:      Singlet-A"    15.2553 eV   81.27 nm  f=0.1304  <S**2>=0.000
       8 -> 24         0.13501
       9 -> 25         0.43756
      10 -> 27         0.10342
      11 -> 29        -0.32059
      12 -> 28         0.17937
      12 -> 31        -0.12743
      13 -> 42         0.11749
      13 -> 43        -0.22666

 Excited State 106:      Singlet-A"    15.3149 eV   80.96 nm  f=0.1002  <S**2>=0.000

 The electronic state is 1-A'.
 Alpha  occ. eigenvalues --  -13.85365  -9.79842  -9.79838  -0.81373  -0.62677
 Alpha  occ. eigenvalues --   -0.55826  -0.44610  -0.39858  -0.39768  -0.34212
 Alpha  occ. eigenvalues --   -0.32375  -0.32155  -0.18467
 Alpha virt. eigenvalues --    0.00179   0.03770   0.04132   0.07117   0.07346
 Alpha virt. eigenvalues --    0.09603   0.10198   0.11737   0.11825   0.13944
 Alpha virt. eigenvalues --    0.14988   0.15647   0.17862   0.19780   0.22154

 Mulliken charges:
               1
     1  C    0.586632
     2  N   -0.654296
     3  C    0.586632
     4  H   -0.197113
     5  H    0.032156
     6  H   -0.076991
     7  H   -0.035070
     8  H   -0.076991
     9  H    0.032156
    10  H   -0.197113
 Sum of Mulliken charges =  -0.00000

 Dipole moment (field-independent basis, Debye):
    X=              0.9062    Y=             -0.3152    Z=             -0.0000  Tot=              0.9594
 Quadrupole moment (field-independent basis, Debye-Ang):
   XX=            -21.2958   YY=            -21.8526   ZZ=            -20.1260
   XY=              2.1702   XZ=              0.0000   YZ=             -0.0000

 Normal termination of Gaussian 16 at Mon Mar 21 20:10:01 2022.
