 Gaussian 16, Revision C.01,
 Gaussian 16:  EM64L-G16RevC.01  3-Jul-2019

 ---------------------------------------------------------------------
 #P TD(Nstates=10000) svwn5/Gen SCF(maxcycles=100) Int(Grid=ultrafine)
 ---------------------------------------------------------------------

 ---------------------
 xGDB7_00001_tier4.com
 ---------------------
 Symbolic Z-matrix:
 Charge =  0 Multiplicity = 1

                         Standard orientation:
 ---------------------------------------------------------------------
 Center     Atomic      Atomic             Coordinates (Angstroms)
 Number     Number       Type             X           Y           Z
 ---------------------------------------------------------------------
      1          6           0        0.037922   -0.393776    0.738519
      2          6           0        0.037922   -0.393776   -0.738519
      3          7           0        0.037922    0.865964    0.000000
      4          1           0        0.953211   -0.606479    1.276872
      5          1           0       -0.870248   -0.700655    1.244917
      6          1           0       -0.870248   -0.700655   -1.244917
      7          1           0        0.953211   -0.606479   -1.276872
      8          1           0       -0.886454    1.277834    0.000000
 ---------------------------------------------------------------------

 SCF Done:  E(RS-VWN5) =  -132.642783822     A.U. after   12 cycles

 Excitation energies and oscillator strengths:

 Excited State   1:      Singlet-A'     6.0399 eV  205.28 nm  f=0.0027  <S**2>=0.000
      12 -> 13         0.70571
 This state for optimization and/or second-order correction.
 Total Energy, E(TD-HF/TD-DFT) =  -132.420823056
 Copying the excited state density for this state as the 1-particle RhoCI density.

 Excited State   2:      Singlet-A'     6.8303 eV  181.52 nm  f=0.0286  <S**2>=0.000
      12 -> 14         0.70516

 Excited State   3:      Singlet-A"     6.8566 eV  180.82 nm  f=0.0030  <S**2>=0.000
      12 -> 15         0.70633

 Excited State   4:      Singlet-A'     7.5724 eV  163.73 nm  f=0.0814  <S**2>=0.000
      12 -> 16         0.70362

 Excited State   5:      Singlet-A"     8.2101 eV  151.01 nm  f=0.0290  <S**2>=0.000
      12 -> 17         0.69543

 Excited State   6:      Singlet-A'     8.4363 eV  146.97 nm  f=0.0057  <S**2>=0.000
      11 -> 13         0.70338

 Excited State   7:      Singlet-A'     8.6168 eV  143.89 nm  f=0.0067  <S**2>=0.000
      12 -> 18         0.70212

 Excited State   8:      Singlet-A"     8.8486 eV  140.12 nm  f=0.0005  <S**2>=0.000
      10 -> 13         0.70035

 Excited State   9:      Singlet-A"     9.1828 eV  135.02 nm  f=0.0005  <S**2>=0.000
       9 -> 13         0.65012
      12 -> 19         0.26318

 Excited State  10:      Singlet-A"     9.2262 eV  134.38 nm  f=0.0207  <S**2>=0.000
       9 -> 13        -0.25383
      12 -> 19         0.65364

 Excited State  11:      Singlet-A'     9.2441 eV  134.12 nm  f=0.0322  <S**2>=0.000
      11 -> 14         0.69969

 Excited State  12:      Singlet-A"     9.2996 eV  133.32 nm  f=0.0636  <S**2>=0.000
      11 -> 15         0.68767

 Excited State  13:      Singlet-A'     9.5420 eV  129.94 nm  f=0.0122  <S**2>=0.000
      12 -> 20         0.69763

 Excited State  14:      Singlet-A"     9.6342 eV  128.69 nm  f=0.0593  <S**2>=0.000
      10 -> 14         0.69482

 Excited State  15:      Singlet-A'     9.7051 eV  127.75 nm  f=0.0358  <S**2>=0.000
      10 -> 15         0.69724

 Excited State  16:      Singlet-A'     9.9412 eV  124.72 nm  f=0.0226  <S**2>=0.000
      11 -> 16         0.69305

 Excited State  17:      Singlet-A"     9.9446 eV  124.67 nm  f=0.0037  <S**2>=0.000
       9 -> 14         0.70104

 Excited State  18:      Singlet-A'    10.0788 eV  123.02 nm  f=0.0683  <S**2>=0.000
       9 -> 15         0.69919

 Excited State  19:      Singlet-A"    10.1716 eV  121.89 nm  f=0.0012  <S**2>=0.000
      12 -> 21         0.68992

 Excited State  20:      Singlet-A"    10.3128 eV  120.22 nm  f=0.0000  <S**2>=0.000
      10 -> 16         0.67841
      11 -> 17        -0.15321

 Excited State  21:      Singlet-A"    10.4400 eV  118.76 nm  f=0.0026  <S**2>=0.000
      12 -> 22         0.69415

 Excited State  22:      Singlet-A'    10.5964 eV  117.01 nm  f=0.0005  <S**2>=0.000
      12 -> 23         0.67609
      12 -> 24        -0.16240

 Excited State  23:      Singlet-A"    10.7916 eV  114.89 nm  f=0.2048  <S**2>=0.000
       9 -> 16         0.67129
      11 -> 17        -0.17391

 Excited State  24:      Singlet-A'    10.9372 eV  113.36 nm  f=0.0421  <S**2>=0.000
      10 -> 17        -0.35808
      11 -> 18         0.36783
      12 -> 24         0.46186

 Excited State  25:      Singlet-A"    10.9538 eV  113.19 nm  f=0.0548  <S**2>=0.000
       9 -> 16         0.18645
      10 -> 16         0.15551
      11 -> 17         0.60429
      12 -> 26        -0.11531

 Excited State  26:      Singlet-A'    11.0422 eV  112.28 nm  f=0.0041  <S**2>=0.000
       9 -> 17         0.29153
      10 -> 17         0.19367
      11 -> 18         0.55834
      12 -> 24        -0.23478

 Excited State  27:      Singlet-A'    11.0983 eV  111.71 nm  f=0.0103  <S**2>=0.000
       9 -> 17         0.60736
      11 -> 18        -0.20381
      12 -> 24         0.27820

 Excited State  28:      Singlet-A'    11.3224 eV  109.50 nm  f=0.0082  <S**2>=0.000
      10 -> 17        -0.10571
      12 -> 25         0.68443

 Excited State  29:      Singlet-A"    11.3896 eV  108.86 nm  f=0.0004  <S**2>=0.000
      10 -> 18         0.70334

 Excited State  30:      Singlet-A'    11.5596 eV  107.26 nm  f=0.0305  <S**2>=0.000
       9 -> 17        -0.14372
      10 -> 17         0.42164
      11 -> 20         0.34507
      12 -> 23         0.11332
      12 -> 24         0.25151
      12 -> 25         0.13229
      12 -> 27        -0.23972

 Excited State  31:      Singlet-A"    11.6309 eV  106.60 nm  f=0.0081  <S**2>=0.000
       9 -> 18         0.10522
      11 -> 19         0.68888

 Excited State  32:      Singlet-A"    11.8136 eV  104.95 nm  f=0.0027  <S**2>=0.000
       9 -> 18         0.69183

 Excited State  33:      Singlet-A'    11.8389 eV  104.73 nm  f=0.0179  <S**2>=0.000
       8 -> 13         0.69698

 Excited State  34:      Singlet-A'    12.0204 eV  103.14 nm  f=0.0225  <S**2>=0.000
      10 -> 19         0.67014
      11 -> 20        -0.18243

 Excited State  35:      Singlet-A"    12.0315 eV  103.05 nm  f=0.0525  <S**2>=0.000
      12 -> 26         0.67773

 Excited State  36:      Singlet-A'    12.1330 eV  102.19 nm  f=0.0089  <S**2>=0.000
       9 -> 19        -0.22720
      10 -> 17        -0.10615
      10 -> 19         0.18560
      11 -> 20         0.48734
      12 -> 24        -0.12078
      12 -> 27         0.33305

 Excited State  37:      Singlet-A"    12.2751 eV  101.00 nm  f=0.0017  <S**2>=0.000
      10 -> 20         0.70048

 Excited State  38:      Singlet-A'    12.4165 eV   99.85 nm  f=0.0680  <S**2>=0.000
       8 -> 14         0.32425
      10 -> 17         0.18118
      10 -> 21         0.12489
      11 -> 20        -0.16551
      12 -> 27         0.45457
      12 -> 28        -0.24357

 Excited State  39:      Singlet-A'    12.5135 eV   99.08 nm  f=0.0152  <S**2>=0.000
       7 -> 13         0.12699
       8 -> 14        -0.28939
       9 -> 19         0.56373
      10 -> 21         0.16513
      12 -> 27         0.14865

 Excited State  40:      Singlet-A"    12.5818 eV   98.54 nm  f=0.0040  <S**2>=0.000
       9 -> 20         0.37718
      11 -> 21         0.58247

 Excited State  41:      Singlet-A"    12.6152 eV   98.28 nm  f=0.0002  <S**2>=0.000
       9 -> 20         0.57388
      11 -> 21        -0.36860
      11 -> 22         0.14040

 Excited State  42:      Singlet-A"    12.6939 eV   97.67 nm  f=0.1004  <S**2>=0.000
       8 -> 15         0.69584

 Excited State  43:      Singlet-A'    12.7149 eV   97.51 nm  f=0.2224  <S**2>=0.000
       8 -> 14         0.53196
       9 -> 19         0.26459
      11 -> 20         0.10758
      12 -> 27        -0.10843
      12 -> 28         0.25104

 Excited State  44:      Singlet-A"    12.8951 eV   96.15 nm  f=0.0288  <S**2>=0.000
       9 -> 20        -0.11181
      11 -> 22         0.67434

 Excited State  45:      Singlet-A'    12.8986 eV   96.12 nm  f=0.0424  <S**2>=0.000
       8 -> 14        -0.10259
      10 -> 17         0.12162
      11 -> 23        -0.22271
      11 -> 24        -0.12927
      12 -> 27         0.18522
      12 -> 28         0.55133

 Excited State  46:      Singlet-A'    12.9821 eV   95.50 nm  f=0.0262  <S**2>=0.000
       9 -> 21        -0.10832
       9 -> 22         0.10407
      11 -> 23         0.64186
      12 -> 28         0.18591

 Excited State  47:      Singlet-A'    13.0863 eV   94.74 nm  f=0.0176  <S**2>=0.000
       7 -> 13        -0.33093
       8 -> 16        -0.16846
      10 -> 21         0.56444

 Excited State  48:      Singlet-A"    13.1984 eV   93.94 nm  f=0.0024  <S**2>=0.000
      12 -> 29         0.68727

 Excited State  49:      Singlet-A'    13.2380 eV   93.66 nm  f=0.0081  <S**2>=0.000
       9 -> 21         0.20347
      10 -> 22         0.56674
      11 -> 24        -0.35424

 Excited State  50:      Singlet-A'    13.2734 eV   93.41 nm  f=0.0206  <S**2>=0.000
       7 -> 13         0.41053
       8 -> 16        -0.30170
       9 -> 21         0.38492
      10 -> 21         0.11146
      10 -> 22        -0.24602

 Excited State  51:      Singlet-A'    13.3230 eV   93.06 nm  f=0.0091  <S**2>=0.000
       8 -> 16         0.18195
       9 -> 21         0.35792
      10 -> 22         0.20932
      11 -> 24         0.50520
      12 -> 28         0.10093

 Excited State  52:      Singlet-A"    13.3348 eV   92.98 nm  f=0.0030  <S**2>=0.000
      10 -> 23         0.70304

 Excited State  53:      Singlet-A'    13.4278 eV   92.33 nm  f=0.0583  <S**2>=0.000
       7 -> 13        -0.17015
       8 -> 16         0.33367
       9 -> 21         0.30228
       9 -> 22         0.36497
      10 -> 22        -0.22059
      11 -> 24        -0.23359

 Excited State  54:      Singlet-A"    13.6835 eV   90.61 nm  f=0.0292  <S**2>=0.000
       8 -> 17        -0.33348
      10 -> 24         0.60822

 Excited State  55:      Singlet-A"    13.6982 eV   90.51 nm  f=0.0067  <S**2>=0.000
       8 -> 17         0.35040
       9 -> 23         0.56242
       9 -> 24         0.10438
      10 -> 24         0.14685
      10 -> 25        -0.12235

 Excited State  56:      Singlet-A'    13.7686 eV   90.05 nm  f=0.0607  <S**2>=0.000
       7 -> 13         0.13647
       7 -> 14        -0.14373
       9 -> 22         0.15359
      12 -> 30         0.62867

 Excited State  57:      Singlet-A'    13.8329 eV   89.63 nm  f=0.0675  <S**2>=0.000
       7 -> 13         0.11610
       7 -> 14         0.29348
       7 -> 16         0.11137
       8 -> 16         0.23494
       9 -> 22        -0.19275
      11 -> 25         0.47646

 Excited State  58:      Singlet-A'    13.8645 eV   89.43 nm  f=0.0642  <S**2>=0.000
       7 -> 13        -0.26213
       7 -> 14         0.31804
       7 -> 16        -0.13533
       8 -> 16        -0.16478
       8 -> 18        -0.19445
       9 -> 19         0.11223
       9 -> 21         0.17602
       9 -> 22        -0.23576
      10 -> 21        -0.16712
      12 -> 30         0.29031

 Excited State  59:      Singlet-A"    13.8863 eV   89.29 nm  f=0.0164  <S**2>=0.000
       8 -> 17         0.48830
       9 -> 23        -0.30546
       9 -> 24        -0.24988
      10 -> 24         0.25905
      10 -> 25         0.12726

 Excited State  60:      Singlet-A'    13.9353 eV   88.97 nm  f=0.1238  <S**2>=0.000
       7 -> 14         0.16473
       8 -> 16        -0.27831
       8 -> 18         0.13206
       9 -> 22         0.40585
      10 -> 21        -0.11282
      10 -> 26         0.11099
      11 -> 24         0.10419
      11 -> 25         0.29875

 Excited State  61:      Singlet-A"    14.0611 eV   88.18 nm  f=0.0057  <S**2>=0.000
       7 -> 15         0.16557
       9 -> 24         0.53841
      10 -> 25         0.39951

 Excited State  62:      Singlet-A"    14.0707 eV   88.11 nm  f=0.0261  <S**2>=0.000
       7 -> 15         0.65509
      10 -> 25        -0.19085
      12 -> 31         0.14879

 Excited State  63:      Singlet-A'    14.1022 eV   87.92 nm  f=0.2926  <S**2>=0.000
       7 -> 13         0.12342
       7 -> 14         0.48357
       8 -> 18         0.24521
      10 -> 21         0.10733
      11 -> 25        -0.32434
      12 -> 32         0.14286

 Excited State  64:      Singlet-A"    14.1700 eV   87.50 nm  f=0.0538  <S**2>=0.000
       7 -> 15        -0.15994
      10 -> 25        -0.11568
      12 -> 31         0.65360

 Excited State  65:      Singlet-A"    14.3428 eV   86.44 nm  f=0.0650  <S**2>=0.000
       9 -> 23         0.10166
       9 -> 24        -0.14060
       9 -> 25         0.24570
      10 -> 25         0.26010
      11 -> 26         0.52542
      12 -> 31         0.16741

 Excited State  66:      Singlet-A"    14.3637 eV   86.32 nm  f=0.2092  <S**2>=0.000
       9 -> 23        -0.12058
       9 -> 24         0.22358
       9 -> 25        -0.27576
      10 -> 25        -0.32911
      11 -> 26         0.45448

 Excited State  67:      Singlet-A'    14.4205 eV   85.98 nm  f=0.0224  <S**2>=0.000
      11 -> 27         0.41029
      12 -> 32         0.54184

 Excited State  68:      Singlet-A'    14.5505 eV   85.21 nm  f=0.1499  <S**2>=0.000
       7 -> 16         0.10612
       8 -> 18        -0.31968
      10 -> 26        -0.12613
      11 -> 27         0.43193
      11 -> 28        -0.10024
      12 -> 32        -0.32822

 Excited State  69:      Singlet-A'    14.5845 eV   85.01 nm  f=0.0816  <S**2>=0.000
       7 -> 16        -0.29809
       8 -> 18         0.40105
      10 -> 26        -0.36165
      11 -> 27         0.26282

 Excited State  70:      Singlet-A"    14.6506 eV   84.63 nm  f=0.1836  <S**2>=0.000
       9 -> 23        -0.14908
       9 -> 24         0.17690
       9 -> 25         0.56179
      10 -> 25        -0.21723
      10 -> 27         0.20369

 Excited State  71:      Singlet-A'    14.8727 eV   83.36 nm  f=0.0675  <S**2>=0.000
       7 -> 16        -0.16575
       9 -> 26         0.11146
      10 -> 26         0.45548
      11 -> 27         0.12153
      12 -> 32        -0.10196
      12 -> 33         0.44097

 Excited State  72:      Singlet-A"    14.9222 eV   83.09 nm  f=0.0233  <S**2>=0.000
       6 -> 13         0.13882
       7 -> 17        -0.10806
       8 -> 19        -0.15656
       9 -> 25        -0.13878
      10 -> 27         0.63517

 Excited State  73:      Singlet-A'    14.9294 eV   83.05 nm  f=0.2254  <S**2>=0.000
       6 -> 15         0.11641
       7 -> 13        -0.11061
       7 -> 16         0.50960
       8 -> 18         0.28549
       9 -> 26         0.14746
      10 -> 26         0.10623
      11 -> 27         0.12459

 Excited State  74:      Singlet-A"    15.0692 eV   82.28 nm  f=0.0056  <S**2>=0.000
       6 -> 13         0.31709
       8 -> 19         0.61045

 Excited State  75:      Singlet-A'    15.0838 eV   82.20 nm  f=0.1259  <S**2>=0.000
       6 -> 15         0.12416
       7 -> 16         0.18835
       7 -> 18        -0.13175
      10 -> 26        -0.29136
      11 -> 27        -0.12299
      12 -> 33         0.51542

 Excited State  76:      Singlet-A"    15.1267 eV   81.96 nm  f=0.0026  <S**2>=0.000
       7 -> 17         0.59609
       9 -> 27         0.31737
      10 -> 27         0.10990

 Excited State  77:      Singlet-A'    15.1739 eV   81.71 nm  f=0.0771  <S**2>=0.000
       8 -> 20        -0.30331
       9 -> 26         0.56511
      11 -> 28         0.25001

 Excited State  78:      Singlet-A"    15.2037 eV   81.55 nm  f=0.0171  <S**2>=0.000
       6 -> 13        -0.41893
       7 -> 17        -0.24300
       8 -> 19         0.22061
       9 -> 27         0.42467

 Excited State  79:      Singlet-A'    15.2384 eV   81.36 nm  f=0.0605  <S**2>=0.000
       8 -> 20         0.26034
       9 -> 26        -0.12993
      11 -> 28         0.61874

 Excited State  80:      Singlet-A"    15.2730 eV   81.18 nm  f=0.0002  <S**2>=0.000
       6 -> 13         0.40047
       7 -> 17        -0.19694
       8 -> 19        -0.14265
       9 -> 27         0.41929
      10 -> 27        -0.10038
      10 -> 28         0.23994
      11 -> 29        -0.10152

 Excited State  81:      Singlet-A"    15.3399 eV   80.82 nm  f=0.0602  <S**2>=0.000
      12 -> 34         0.68714

 Excited State  82:      Singlet-A'    15.3411 eV   80.82 nm  f=0.2335  <S**2>=0.000
       8 -> 20         0.54780
       9 -> 26         0.28904
      10 -> 29         0.14279
      11 -> 28        -0.13602

 Excited State  83:      Singlet-A"    15.5891 eV   79.53 nm  f=0.0066  <S**2>=0.000
      10 -> 28         0.37940
      11 -> 29         0.57914

 Excited State  84:      Singlet-A"    15.7341 eV   78.80 nm  f=0.0113  <S**2>=0.000
      12 -> 35         0.68030

 Excited State  85:      Singlet-A"    15.7604 eV   78.67 nm  f=0.1481  <S**2>=0.000
       6 -> 14        -0.24196
       8 -> 21         0.16462
       9 -> 27        -0.12004
       9 -> 28        -0.26178
      10 -> 28         0.41240
      11 -> 29        -0.32172
      11 -> 31         0.10890

 Excited State  86:      Singlet-A'    15.8699 eV   78.13 nm  f=0.1123  <S**2>=0.000
       6 -> 15         0.19716
       7 -> 18         0.62568
      11 -> 30         0.10824
      12 -> 36         0.13461

 Excited State  87:      Singlet-A"    15.9000 eV   77.98 nm  f=0.0033  <S**2>=0.000
       6 -> 14         0.10123
       8 -> 21         0.35124
       9 -> 28         0.56517
      10 -> 28         0.15551

 Excited State  88:      Singlet-A"    15.9674 eV   77.65 nm  f=0.0001  <S**2>=0.000
       6 -> 14         0.60093
       8 -> 22        -0.13685
       9 -> 28        -0.20773
      10 -> 28         0.10452
      11 -> 31         0.11105

 Excited State  89:      Singlet-A"    16.0502 eV   77.25 nm  f=0.1079  <S**2>=0.000
       8 -> 21         0.54067
       8 -> 22         0.20861
       9 -> 28        -0.23843
      10 -> 28        -0.17758
      11 -> 29         0.10054
      11 -> 31        -0.15379

 Excited State  90:      Singlet-A'    16.1334 eV   76.85 nm  f=0.0666  <S**2>=0.000
       5 -> 13         0.24842
       6 -> 15         0.35074
       7 -> 18        -0.20815
      10 -> 29         0.34053
      12 -> 36         0.32737

 Excited State  91:      Singlet-A"    16.1377 eV   76.83 nm  f=0.0003  <S**2>=0.000
      12 -> 37         0.69329

 Excited State  92:      Singlet-A'    16.1778 eV   76.64 nm  f=0.0204  <S**2>=0.000
       7 -> 18        -0.10003
      11 -> 30         0.67589

 Excited State  93:      Singlet-A'    16.2224 eV   76.43 nm  f=0.0445  <S**2>=0.000
       5 -> 14         0.15014
       6 -> 15        -0.42246
       9 -> 29         0.17400
      10 -> 29         0.44721

 Excited State  94:      Singlet-A'    16.2509 eV   76.29 nm  f=0.0744  <S**2>=0.000
       5 -> 13         0.49194
       5 -> 14        -0.10701
       7 -> 20        -0.13570
      12 -> 36        -0.43171

 Excited State  95:      Singlet-A"    16.3354 eV   75.90 nm  f=0.0250  <S**2>=0.000
       7 -> 19         0.16777
       8 -> 21        -0.12865
       8 -> 22         0.59374
       9 -> 30        -0.12639
      10 -> 30        -0.19152
      11 -> 31         0.13821

 Excited State  96:      Singlet-A'    16.3562 eV   75.80 nm  f=0.0796  <S**2>=0.000
       8 -> 23         0.66635

 Excited State  97:      Singlet-A'    16.4147 eV   75.53 nm  f=0.0103  <S**2>=0.000
       5 -> 13        -0.25636
       6 -> 15         0.17406
       9 -> 29         0.56320
      12 -> 36        -0.17179
      12 -> 38        -0.10051

 Excited State  98:      Singlet-A"    16.4236 eV   75.49 nm  f=0.0062  <S**2>=0.000
       7 -> 19         0.62924
      10 -> 30         0.10968
      11 -> 31        -0.23565

 Excited State  99:      Singlet-A'    16.4647 eV   75.30 nm  f=0.0404  <S**2>=0.000
       5 -> 13         0.22755
       6 -> 15        -0.12438
       6 -> 17         0.11569
       7 -> 20        -0.23068
       8 -> 23         0.16776
       9 -> 29         0.32301
      10 -> 29        -0.24418
      12 -> 36         0.33343

 Excited State 100:      Singlet-A'    16.5085 eV   75.10 nm  f=0.0049  <S**2>=0.000
      12 -> 38         0.68888

 Excited State 101:      Singlet-A"    16.5798 eV   74.78 nm  f=0.0076  <S**2>=0.000
       6 -> 16         0.18091
      10 -> 30         0.53816
      11 -> 31         0.22638
      12 -> 39         0.34079

 Excited State 102:      Singlet-A"    16.6312 eV   74.55 nm  f=0.0187  <S**2>=0.000
       6 -> 16        -0.35048
      10 -> 30        -0.18904
      12 -> 39         0.54561

 Excited State 103:      Singlet-A"    16.6680 eV   74.38 nm  f=0.0083  <S**2>=0.000
       6 -> 16         0.52970
       9 -> 30         0.17996
      10 -> 30        -0.24594
      11 -> 31        -0.21155
      12 -> 39         0.24965

 Excited State 104:      Singlet-A'    16.6736 eV   74.36 nm  f=0.0084  <S**2>=0.000
       7 -> 20         0.41920
       8 -> 24        -0.29463
      11 -> 32         0.40841
      12 -> 40        -0.18438

 Excited State 105:      Singlet-A'    16.6918 eV   74.28 nm  f=0.0049  <S**2>=0.000
       5 -> 14        -0.11264
       7 -> 20         0.12408
      11 -> 32         0.11500
      12 -> 40         0.66669

 Excited State 106:      Singlet-A'    16.7423 eV   74.05 nm  f=0.0316  <S**2>=0.000
       7 -> 20         0.19045
       8 -> 24         0.59135
      10 -> 31        -0.17634
      11 -> 32         0.17861

 Excited State 107:      Singlet-A"    16.7805 eV   73.89 nm  f=0.0134  <S**2>=0.000
       5 -> 15         0.35644
       7 -> 19         0.12092
       7 -> 21        -0.14970
       8 -> 22        -0.12332
      10 -> 30        -0.19656
      10 -> 32         0.15666
      11 -> 31         0.43094

 Excited State 108:      Singlet-A'    16.8491 eV   73.59 nm  f=0.1150  <S**2>=0.000
       7 -> 20        -0.27630
      10 -> 31         0.43164
      11 -> 32         0.43788

 Excited State 109:      Singlet-A"    16.9731 eV   73.05 nm  f=0.0009  <S**2>=0.000
       6 -> 16        -0.16164
       8 -> 22         0.11232
       9 -> 30         0.64415

 Excited State 110:      Singlet-A'    17.0516 eV   72.71 nm  f=0.0040  <S**2>=0.000
       5 -> 14        -0.27797
       8 -> 25         0.63890

 Excited State 111:      Singlet-A"    17.1038 eV   72.49 nm  f=0.0000  <S**2>=0.000
       5 -> 15         0.48666
       7 -> 21         0.21426
      10 -> 32        -0.43115

 Excited State 112:      Singlet-A'    17.2248 eV   71.98 nm  f=0.0050  <S**2>=0.000
       5 -> 14         0.23148
       6 -> 15         0.10291
       6 -> 17        -0.22125

 The electronic state is 1-A'.
 Alpha  occ. eigenvalues --  -13.86593  -9.81467  -9.81465  -0.87756  -0.58814
 Alpha  occ. eigenvalues --   -0.54867  -0.47786  -0.42730  -0.33101  -0.31794
 Alpha  occ. eigenvalues --   -0.30295  -0.21553
 Alpha virt. eigenvalues --    0.00441   0.03252   0.03649   0.05934   0.07058
 Alpha virt. eigenvalues --    0.10049   0.12353   0.13145   0.15847   0.16793
 Alpha virt. eigenvalues --    0.17237   0.18299   0.19943   0.22390   0.22737

 Mulliken charges:
               1
     1  C    0.582366
     2  C    0.582366
     3  N   -0.345464
     4  H   -0.242383
     5  H   -0.170575
     6  H   -0.170575
     7  H   -0.242383
     8  H    0.006647
 Sum of Mulliken charges =   0.00000

 Dipole moment (field-independent basis, Debye):
    X=             -1.3154    Y=             -1.0237    Z=              0.0000  Tot=              1.6668
 Quadrupole moment (field-independent basis, Debye-Ang):
   XX=            -17.9836   YY=            -21.5247   ZZ=            -18.9114
   XY=             -2.1739   XZ=              0.0000   YZ=              0.0000

 Normal termination of Gaussian 16 at Mon Mar 21 19:55:44 2022.
