 Gaussian 16, Revision C.01,
 Gaussian 16:  EM64L-G16RevC.01  3-Jul-2019

 ---------------------------------------------------------------------
 #P TD(Nstates=10000) svwn5/Gen SCF(maxcycles=100) Int(Grid=ultrafine)
 ---------------------------------------------------------------------

 ---------------------
 xGDB7_00001_tier4.com
 ---------------------
 Symbolic Z-matrix:
 Charge =  0 Multiplicity = 1

                         Standard orientation:
 ---------------------------------------------------------------------
 Center     Atomic      Atomic             Coordinates (Angstroms)
 Number     Number       Type             X           Y           Z
 ---------------------------------------------------------------------
      1          6           0        0.000000    0.000000   -0.524273
      2          8           0        0.000000    0.000000    0.670793
      3          1           0        0.000000    0.939221   -1.110351
      4          1           0       -0.000000   -0.939221   -1.110351
 ---------------------------------------------------------------------

 SCF Done:  E(RS-VWN5) =  -113.514244978     A.U. after   12 cycles

 Excitation energies and oscillator strengths:

 Excited State   1:      Singlet-A2     3.7668 eV  329.15 nm  f=0.0000  <S**2>=0.000
       8 ->  9         0.70769
 This state for optimization and/or second-order correction.
 Total Energy, E(TD-HF/TD-DFT) =  -113.375816312
 Copying the excited state density for this state as the 1-particle RhoCI density.

 Excited State   2:      Singlet-B2     6.6372 eV  186.80 nm  f=0.0368  <S**2>=0.000
       8 -> 10         0.70589

 Excited State   3:      Singlet-A1     8.2272 eV  150.70 nm  f=0.0957  <S**2>=0.000
       8 -> 12         0.70285

 Excited State   4:      Singlet-B2     8.2525 eV  150.24 nm  f=0.0391  <S**2>=0.000
       8 -> 11         0.70341

 Excited State   5:      Singlet-B1     8.8782 eV  139.65 nm  f=0.0006  <S**2>=0.000
       6 ->  9         0.70469

 Excited State   6:      Singlet-A2     8.9795 eV  138.07 nm  f=0.0000  <S**2>=0.000
       8 -> 13         0.70659

 Excited State   7:      Singlet-B2     9.4840 eV  130.73 nm  f=0.0472  <S**2>=0.000
       8 -> 14         0.68865
       8 -> 15         0.13949

 Excited State   8:      Singlet-A1     9.6921 eV  127.92 nm  f=0.0607  <S**2>=0.000
       7 ->  9         0.57344
       8 -> 16        -0.39764

 Excited State   9:      Singlet-A2     9.7734 eV  126.86 nm  f=0.0000  <S**2>=0.000
       5 ->  9         0.70579

 Excited State  10:      Singlet-B2    10.2232 eV  121.28 nm  f=0.0118  <S**2>=0.000
       8 -> 14        -0.13302
       8 -> 15         0.69138

 Excited State  11:      Singlet-B1    10.8037 eV  114.76 nm  f=0.0377  <S**2>=0.000
       7 -> 10         0.70417

 Excited State  12:      Singlet-B1    11.0615 eV  112.09 nm  f=0.0140  <S**2>=0.000
       8 -> 17         0.70213

 Excited State  13:      Singlet-A1    11.1245 eV  111.45 nm  f=0.1551  <S**2>=0.000
       6 -> 10        -0.33139
       7 ->  9         0.32698
       8 -> 16         0.50392

 Excited State  14:      Singlet-A1    11.6613 eV  106.32 nm  f=0.1277  <S**2>=0.000
       6 -> 10         0.61938
       7 ->  9         0.17164
       8 -> 16         0.25151

 Excited State  15:      Singlet-A2    11.9526 eV  103.73 nm  f=0.0000  <S**2>=0.000
       8 -> 18         0.70401

 Excited State  16:      Singlet-A2    12.3715 eV  100.22 nm  f=0.0000  <S**2>=0.000
       7 -> 12         0.70410

 Excited State  17:      Singlet-B1    12.4744 eV   99.39 nm  f=0.0552  <S**2>=0.000
       4 ->  9        -0.10961
       7 -> 11         0.69704

 Excited State  18:      Singlet-B2    12.7629 eV   97.14 nm  f=0.1168  <S**2>=0.000
       5 -> 10         0.69609

 Excited State  19:      Singlet-B2    13.0331 eV   95.13 nm  f=0.0682  <S**2>=0.000
       6 -> 12         0.69970

 Excited State  20:      Singlet-A1    13.0902 eV   94.72 nm  f=0.1416  <S**2>=0.000
       6 -> 11         0.69683
       7 -> 13        -0.10275

 Excited State  21:      Singlet-A1    13.3180 eV   93.10 nm  f=0.0124  <S**2>=0.000
       5 -> 12         0.15378
       7 -> 13         0.67196

 Excited State  22:      Singlet-B1    13.4317 eV   92.31 nm  f=0.0007  <S**2>=0.000
       4 ->  9        -0.31859
       7 -> 14         0.62059

 Excited State  23:      Singlet-B2    13.7490 eV   90.18 nm  f=0.0007  <S**2>=0.000
       8 -> 19         0.69398

 Excited State  24:      Singlet-B1    13.7913 eV   89.90 nm  f=0.0067  <S**2>=0.000
       4 ->  9        -0.19694
       6 -> 13         0.65149
       7 -> 14        -0.16854

 Excited State  25:      Singlet-B1    13.8864 eV   89.28 nm  f=0.0503  <S**2>=0.000
       4 ->  9         0.42621
       6 -> 13         0.25568
       7 -> 14         0.26745
       7 -> 15         0.40996

 Excited State  26:      Singlet-A1    14.0155 eV   88.46 nm  f=0.1915  <S**2>=0.000
       6 -> 14         0.17932
       8 -> 20         0.66175

 Excited State  27:      Singlet-A1    14.2092 eV   87.26 nm  f=0.0273  <S**2>=0.000
       6 -> 14         0.67339
       8 -> 20        -0.17015

 Excited State  28:      Singlet-B2    14.3239 eV   86.56 nm  f=0.0138  <S**2>=0.000
       5 -> 11         0.70039

 Excited State  29:      Singlet-A2    14.4117 eV   86.03 nm  f=0.0000  <S**2>=0.000
       7 -> 16         0.70567

 Excited State  30:      Singlet-B2    14.5782 eV   85.05 nm  f=0.0730  <S**2>=0.000
       5 -> 14        -0.11388
       8 -> 21         0.68910

 Excited State  31:      Singlet-A1    14.6264 eV   84.77 nm  f=0.0054  <S**2>=0.000
       4 -> 10         0.16899
       5 -> 12         0.61624
       6 -> 15         0.21624
       7 -> 13        -0.10780

 Excited State  32:      Singlet-B1    14.6339 eV   84.72 nm  f=0.2213  <S**2>=0.000
       4 ->  9        -0.36534
       5 -> 17         0.12096
       7 -> 14        -0.11288
       7 -> 15         0.55642

 Excited State  33:      Singlet-A1    15.0260 eV   82.51 nm  f=0.0241  <S**2>=0.000
       5 -> 12        -0.17315
       6 -> 15         0.64944
       8 -> 22         0.13754

 Excited State  34:      Singlet-A2    15.0390 eV   82.44 nm  f=0.0000  <S**2>=0.000
       5 -> 13         0.70588

 Excited State  35:      Singlet-B2    15.0770 eV   82.23 nm  f=0.0033  <S**2>=0.000
       6 -> 16         0.69248
       7 -> 17         0.10116

 Excited State  36:      Singlet-B2    15.2273 eV   81.42 nm  f=0.0108  <S**2>=0.000
       5 -> 14         0.26448
       7 -> 17         0.63387
       8 -> 23         0.15182

 Excited State  37:      Singlet-B2    15.4821 eV   80.08 nm  f=0.0267  <S**2>=0.000
       7 -> 17        -0.11804
       8 -> 23         0.68474

 Excited State  38:      Singlet-A1    15.6334 eV   79.31 nm  f=0.0702  <S**2>=0.000
       4 -> 10         0.11600
       7 -> 18        -0.12642
       8 -> 22         0.65433

 Excited State  39:      Singlet-B2    15.8665 eV   78.14 nm  f=0.2691  <S**2>=0.000
       5 -> 14         0.54098
       5 -> 15         0.35695
       7 -> 17        -0.21152

 Excited State  40:      Singlet-A2    15.8752 eV   78.10 nm  f=0.0000  <S**2>=0.000
       6 -> 17         0.70676

 Excited State  41:      Singlet-B1    16.0336 eV   77.33 nm  f=0.0989  <S**2>=0.000
       8 -> 24         0.69901

 Excited State  42:      Singlet-A1    16.1848 eV   76.61 nm  f=0.0000  <S**2>=0.000
       4 -> 10         0.49004
       5 -> 16         0.48730

 Excited State  43:      Singlet-A1    16.2912 eV   76.11 nm  f=0.0275  <S**2>=0.000
       4 -> 10        -0.26890
       5 -> 16         0.29307
       7 -> 18         0.54729
       8 -> 22         0.13092

 Excited State  44:      Singlet-B2    16.3741 eV   75.72 nm  f=0.1807  <S**2>=0.000
       5 -> 14        -0.29144
       5 -> 15         0.60408
       7 -> 17         0.13715

 Excited State  45:      Singlet-A2    16.5980 eV   74.70 nm  f=0.0000  <S**2>=0.000
       8 -> 26         0.70684

 Excited State  46:      Singlet-B2    16.7430 eV   74.05 nm  f=0.0038  <S**2>=0.000
       8 -> 25         0.69545

 Excited State  47:      Singlet-B1    16.8595 eV   73.54 nm  f=0.0007  <S**2>=0.000
       5 -> 17        -0.11350
       6 -> 18         0.69513

 Excited State  48:      Singlet-A1    17.0283 eV   72.81 nm  f=0.0110  <S**2>=0.000
       4 -> 10         0.30485
       4 -> 11         0.20246
       5 -> 12        -0.13942
       5 -> 16        -0.36610
       7 -> 18         0.37092
       8 -> 27         0.16037

 Excited State  49:      Singlet-B1    17.3928 eV   71.28 nm  f=0.3121  <S**2>=0.000
       4 ->  9         0.11018
       4 -> 13         0.10064
       5 -> 17         0.66782

 Excited State  50:      Singlet-B2    17.5389 eV   70.69 nm  f=0.0285  <S**2>=0.000
       4 -> 12         0.69976

 Excited State  51:      Singlet-A1    17.5986 eV   70.45 nm  f=0.1150  <S**2>=0.000
       4 -> 10        -0.10691
       4 -> 11         0.64681
       5 -> 16         0.13031
       8 -> 27         0.10120

 Excited State  52:      Singlet-B1    17.9413 eV   69.11 nm  f=0.0151  <S**2>=0.000
       4 -> 13         0.17328
       7 -> 19         0.68412

 Excited State  53:      Singlet-A2    18.0105 eV   68.84 nm  f=0.0000  <S**2>=0.000
       5 -> 18         0.69822
       7 -> 20        -0.10889

 Excited State  54:      Singlet-A2    18.1298 eV   68.39 nm  f=0.0000  <S**2>=0.000
       5 -> 18         0.10883
       7 -> 20         0.69855

 Excited State  55:      Singlet-B1    18.2464 eV   67.95 nm  f=0.0027  <S**2>=0.000
       4 -> 13         0.66892
       7 -> 19        -0.16338
       7 -> 21         0.11177

 Excited State  56:      Singlet-A1    18.5655 eV   66.78 nm  f=0.0145  <S**2>=0.000
       4 -> 14        -0.18981
       6 -> 19         0.60440
       8 -> 27         0.30497

 Excited State  57:      Singlet-B1    18.7046 eV   66.29 nm  f=0.0524  <S**2>=0.000
       7 -> 21         0.68894

 Excited State  58:      Singlet-A1    18.7547 eV   66.11 nm  f=0.0365  <S**2>=0.000
       4 -> 14         0.62352
       6 -> 21         0.16874
       8 -> 27         0.22014

 Excited State  59:      Singlet-B2    18.7869 eV   65.99 nm  f=0.0207  <S**2>=0.000
       6 -> 20         0.70034

 Excited State  60:      Singlet-A1    19.2279 eV   64.48 nm  f=0.0001  <S**2>=0.000
       4 -> 14         0.13267
       4 -> 15         0.41740
       6 -> 19         0.21103
       6 -> 21        -0.40359
       8 -> 27        -0.27553

 Excited State  61:      Singlet-B2    19.4548 eV   63.73 nm  f=0.0084  <S**2>=0.000
       4 -> 16         0.66265
       5 -> 19        -0.16765
       8 -> 28         0.14543

 Excited State  62:      Singlet-A1    19.4633 eV   63.70 nm  f=0.0263  <S**2>=0.000
       4 -> 14        -0.18631
       4 -> 15         0.55633
       6 -> 19        -0.11330
       6 -> 21         0.28830
       8 -> 27         0.18473

 Excited State  63:      Singlet-A2    19.6413 eV   63.12 nm  f=0.0000  <S**2>=0.000
       7 -> 22         0.70462

 Excited State  64:      Singlet-B2    19.7473 eV   62.79 nm  f=0.0010  <S**2>=0.000
       5 -> 19         0.40999
       8 -> 28         0.56975

 Excited State  65:      Singlet-A1    19.7926 eV   62.64 nm  f=0.0491  <S**2>=0.000
       5 -> 20         0.17283
       6 -> 19         0.19546
       6 -> 21         0.42740
       6 -> 25        -0.24018
       7 -> 26         0.18720
       8 -> 27        -0.34443

 Excited State  66:      Singlet-B1    19.8664 eV   62.41 nm  f=0.1169  <S**2>=0.000
       7 -> 23         0.68659

 Excited State  67:      Singlet-B2    19.9722 eV   62.08 nm  f=0.1052  <S**2>=0.000
       4 -> 16         0.20628
       5 -> 19         0.52739
       5 -> 21         0.13856
       8 -> 28        -0.36263

 Excited State  68:      Singlet-A1    20.0715 eV   61.77 nm  f=0.0331  <S**2>=0.000
       5 -> 20         0.67074
       6 -> 25         0.11988
       8 -> 27         0.10193

 Excited State  69:      Singlet-B2    20.2179 eV   61.32 nm  f=0.0080  <S**2>=0.000
       6 -> 22        -0.35429
       7 -> 24         0.59670

 Excited State  70:      Singlet-A2    20.3223 eV   61.01 nm  f=0.0000  <S**2>=0.000
       4 -> 17         0.70267

 Excited State  71:      Singlet-A1    20.3460 eV   60.94 nm  f=0.0067  <S**2>=0.000
       6 -> 23         0.70055

 Excited State  72:      Singlet-B2    20.4189 eV   60.72 nm  f=0.0382  <S**2>=0.000
       6 -> 22         0.57625
       7 -> 24         0.31303
       8 -> 29         0.23585

 Excited State  73:      Singlet-B2    20.6106 eV   60.16 nm  f=0.0071  <S**2>=0.000
       5 -> 21         0.68632

 Excited State  74:      Singlet-A2    20.8568 eV   59.45 nm  f=0.0000  <S**2>=0.000
       6 -> 24         0.70591

 Excited State  75:      Singlet-A1    20.9056 eV   59.31 nm  f=0.0020  <S**2>=0.000
       6 -> 25         0.20339
       7 -> 26         0.59366
       8 -> 30         0.29288

 Excited State  76:      Singlet-A2    21.0078 eV   59.02 nm  f=0.0000  <S**2>=0.000
       8 -> 31         0.70506

 Excited State  77:      Singlet-B1    21.0234 eV   58.97 nm  f=0.0044  <S**2>=0.000
       4 -> 18         0.11545
       7 -> 25         0.68506

 Excited State  78:      Singlet-B2    21.0276 eV   58.96 nm  f=0.0915  <S**2>=0.000
       5 -> 23        -0.20006
       6 -> 22        -0.13943
       7 -> 24        -0.11355
       8 -> 29         0.61621
       8 -> 32        -0.16458

 Excited State  79:      Singlet-B1    21.2146 eV   58.44 nm  f=0.0370  <S**2>=0.000
       4 -> 18         0.66922
       6 -> 26        -0.19192
       7 -> 25        -0.10210

 Excited State  80:      Singlet-A1    21.2273 eV   58.41 nm  f=0.0927  <S**2>=0.000
       7 -> 26        -0.27393
       8 -> 30         0.62142

 Excited State  81:      Singlet-B1    21.5028 eV   57.66 nm  f=0.0010  <S**2>=0.000
       4 -> 18         0.18069
       6 -> 26         0.67558

 Excited State  82:      Singlet-B2    21.6092 eV   57.38 nm  f=0.0413  <S**2>=0.000
       5 -> 23         0.65334
       8 -> 29         0.11580
       8 -> 32        -0.21479

 Excited State  83:      Singlet-A1    22.0943 eV   56.12 nm  f=0.0040  <S**2>=0.000
       4 -> 19         0.27406
       5 -> 22         0.61918

 Excited State  84:      Singlet-B1    22.1672 eV   55.93 nm  f=0.0525  <S**2>=0.000
       5 -> 24         0.69185

 Excited State  85:      Singlet-B2    22.3717 eV   55.42 nm  f=0.1806  <S**2>=0.000
       5 -> 23         0.13279
       5 -> 25         0.23157
       6 -> 27        -0.13054
       8 -> 29         0.12836
       8 -> 32         0.61008

 Excited State  86:      Singlet-A2    22.5641 eV   54.95 nm  f=0.0000  <S**2>=0.000
       5 -> 26         0.12284
       7 -> 27         0.69589

 Excited State  87:      Singlet-A2    22.6157 eV   54.82 nm  f=0.0000  <S**2>=0.000
       5 -> 26         0.69609
       7 -> 27        -0.12313

 Excited State  88:      Singlet-A1    22.7439 eV   54.51 nm  f=0.4467  <S**2>=0.000
       4 -> 19         0.19181
       6 -> 19         0.10062
       6 -> 21         0.10866
       6 -> 25         0.56292
       7 -> 26        -0.12377
       8 -> 27        -0.17073

 Excited State  89:      Singlet-B2    23.1472 eV   53.56 nm  f=0.0227  <S**2>=0.000
       4 -> 20         0.43351
       5 -> 25         0.36475
       6 -> 27         0.40929

 Excited State  90:      Singlet-B2    23.2988 eV   53.21 nm  f=0.0439  <S**2>=0.000
       4 -> 20         0.55143
       5 -> 25        -0.32201
       6 -> 27        -0.28665

 Excited State  91:      Singlet-A1    23.3504 eV   53.10 nm  f=0.0062  <S**2>=0.000
       4 -> 19         0.52763
       4 -> 21         0.35011
       5 -> 22        -0.13761
       5 -> 27        -0.15893
       6 -> 25        -0.13822

 Excited State  92:      Singlet-B2    23.5664 eV   52.61 nm  f=0.1954  <S**2>=0.000
       5 -> 25        -0.42265
       6 -> 27         0.47481
       6 -> 30        -0.12336
       8 -> 29         0.10047
       8 -> 32         0.18321

 Excited State  93:      Singlet-B1    23.6985 eV   52.32 nm  f=0.0248  <S**2>=0.000
       3 ->  9        -0.34797
       7 -> 28         0.53356
       8 -> 33         0.30261

 Excited State  94:      Singlet-B1    23.8033 eV   52.09 nm  f=0.1014  <S**2>=0.000
       7 -> 28        -0.33187
       7 -> 29        -0.10998
       8 -> 33         0.60088

 Excited State  95:      Singlet-A2    24.1603 eV   51.32 nm  f=0.0000  <S**2>=0.000
       8 -> 34         0.70638

 Excited State  96:      Singlet-A1    24.2242 eV   51.18 nm  f=0.0640  <S**2>=0.000
       4 -> 19        -0.21246
       4 -> 21         0.53261
       4 -> 23         0.19930
       4 -> 25        -0.10516
       6 -> 28        -0.29250

 Excited State  97:      Singlet-A1    24.6366 eV   50.33 nm  f=0.0416  <S**2>=0.000
       4 -> 23         0.41997
       5 -> 27        -0.20160
       6 -> 28         0.47975
       6 -> 29        -0.11983
       7 -> 31        -0.10472

 Excited State  98:      Singlet-A1    24.7722 eV   50.05 nm  f=0.0603  <S**2>=0.000
       5 -> 27         0.61819
       6 -> 28         0.21016
       7 -> 31        -0.15776

 Excited State  99:      Singlet-A1    24.8054 eV   49.98 nm  f=0.0031  <S**2>=0.000
       4 -> 19         0.14291
       4 -> 21        -0.21254
       4 -> 23         0.50997
       6 -> 28        -0.25824
       6 -> 29         0.12334
       7 -> 31         0.24436

 Excited State 100:      Singlet-B1    24.8141 eV   49.97 nm  f=0.0239  <S**2>=0.000
       3 ->  9         0.52053
       4 -> 26         0.13606
       7 -> 28         0.28478
       7 -> 29        -0.32926

 Excited State 101:      Singlet-B2    24.9068 eV   49.78 nm  f=0.0410  <S**2>=0.000
       4 -> 22         0.68692
       5 -> 28         0.11079

 Excited State 102:      Singlet-A2    24.9957 eV   49.60 nm  f=0.0000  <S**2>=0.000
       7 -> 30         0.70673

 Excited State 103:      Singlet-B1    25.1779 eV   49.24 nm  f=0.0331  <S**2>=0.000
       3 ->  9         0.22934
       6 -> 31         0.24900
       7 -> 28         0.11327
       7 -> 29         0.57581
       7 -> 32         0.11853
       8 -> 33         0.11241

 Excited State 104:      Singlet-A2    25.1876 eV   49.22 nm  f=0.0000  <S**2>=0.000
       4 -> 24         0.70624

 Excited State 105:      Singlet-A1    25.5153 eV   48.59 nm  f=0.0005  <S**2>=0.000
       4 -> 25         0.12642
       5 -> 27         0.14397
       6 -> 28         0.14460
       6 -> 29        -0.36775
       7 -> 31         0.52045

 Excited State 106:      Singlet-B2    25.7387 eV   48.17 nm  f=0.0282  <S**2>=0.000
       5 -> 28         0.51350
       6 -> 30        -0.46214

 Excited State 107:      Singlet-B1    25.8530 eV   47.96 nm  f=0.0146  <S**2>=0.000
       3 ->  9        -0.12155
       4 -> 26         0.66695
       7 -> 32        -0.18451

 Excited State 108:      Singlet-B1    25.9442 eV   47.79 nm  f=0.1017  <S**2>=0.000
       4 -> 26        -0.12506
       6 -> 31         0.54972
       7 -> 29        -0.11631
       7 -> 32        -0.40522

 Excited State 109:      Singlet-B2    25.9992 eV   47.69 nm  f=0.2500  <S**2>=0.000
       5 -> 28         0.45156
       6 -> 30         0.50569

 Excited State 110:      Singlet-A1    26.3433 eV   47.06 nm  f=0.4138  <S**2>=0.000
       4 -> 21         0.11674
       4 -> 25         0.42633
       6 -> 28         0.11055
       6 -> 29         0.44681
       6 -> 32        -0.10956
       7 -> 31         0.14877
       7 -> 34        -0.10033

 Excited State 111:      Singlet-A1    26.5935 eV   46.62 nm  f=0.0000  <S**2>=0.000
       4 -> 25        -0.42262
       5 -> 30         0.45592
       6 -> 29         0.22133
       7 -> 31         0.19221

 Excited State 112:      Singlet-B1    26.6916 eV   46.45 nm  f=0.4017  <S**2>=0.000
       3 ->  9        -0.15452
       6 -> 31         0.35379
       7 -> 29        -0.16787
       7 -> 32         0.52670
       8 -> 33        -0.12793

 Excited State 113:      Singlet-A1    26.8217 eV   46.23 nm  f=0.0023  <S**2>=0.000
       3 -> 10         0.54472
       6 -> 32        -0.44733

 Excited State 114:      Singlet-A1    26.8522 eV   46.17 nm  f=0.0296  <S**2>=0.000
       3 -> 10         0.43365
       6 -> 32         0.52988

 Excited State 115:      Singlet-B2    26.9631 eV   45.98 nm  f=0.0000  <S**2>=0.000
       4 -> 27         0.11541
       5 -> 29         0.68504

 Excited State 116:      Singlet-A2    27.0634 eV   45.81 nm  f=0.0000  <S**2>=0.000
       5 -> 31         0.70687

 Excited State 117:      Singlet-A1    27.4869 eV   45.11 nm  f=0.0011  <S**2>=0.000
       3 -> 11         0.12551
       4 -> 25         0.25670
       4 -> 28        -0.15653
       5 -> 30         0.49409
       6 -> 29        -0.19476
       7 -> 31        -0.18420
       7 -> 34         0.14381
       8 -> 36         0.15788

 Excited State 118:      Singlet-B2    27.6990 eV   44.76 nm  f=0.0674  <S**2>=0.000
       4 -> 27         0.65034
       5 -> 32         0.12432
       7 -> 33         0.18897

 Excited State 119:      Singlet-B2    27.8783 eV   44.47 nm  f=0.0426  <S**2>=0.000
       5 -> 32        -0.39459
       7 -> 33         0.57256

 Excited State 120:      Singlet-B2    28.2347 eV   43.91 nm  f=0.0275  <S**2>=0.000
       4 -> 27        -0.14820
       5 -> 32         0.53626
       7 -> 33         0.32587
       8 -> 35        -0.26598

 Excited State 121:      Singlet-A2    28.4507 eV   43.58 nm  f=0.0000  <S**2>=0.000
       6 -> 33         0.70654

 Excited State 122:      Singlet-B2    28.4901 eV   43.52 nm  f=0.0001  <S**2>=0.000
       3 -> 12         0.70185

 Excited State 123:      Singlet-A1    28.6924 eV   43.21 nm  f=0.0164  <S**2>=0.000
       3 -> 11         0.56808
       4 -> 28         0.38862
       7 -> 34         0.10624

 Excited State 124:      Singlet-A1    28.8738 eV   42.94 nm  f=0.0007  <S**2>=0.000
       3 -> 11         0.14211
       4 -> 28        -0.35583
       7 -> 34         0.42286
       8 -> 36        -0.37926

 Excited State 125:      Singlet-B1    29.0123 eV   42.74 nm  f=0.0157  <S**2>=0.000
       6 -> 34         0.70063

 Excited State 126:      Singlet-A1    29.0152 eV   42.73 nm  f=0.0000  <S**2>=0.000
       3 -> 11        -0.30099
       4 -> 28         0.33855
       7 -> 34         0.47938
       8 -> 36         0.14406

 Excited State 127:      Singlet-B2    29.0495 eV   42.68 nm  f=0.0081  <S**2>=0.000
       4 -> 27        -0.11025
       4 -> 30         0.12025
       5 -> 32         0.15857
       7 -> 33         0.11840
       8 -> 35         0.60927
       8 -> 37         0.21574

 Excited State 128:      Singlet-B1    29.3234 eV   42.28 nm  f=0.0001  <S**2>=0.000
       3 -> 13         0.69683

 Excited State 129:      Singlet-A1    29.5240 eV   41.99 nm  f=0.0014  <S**2>=0.000
       3 -> 14         0.66411
       8 -> 36         0.22223

 Excited State 130:      Singlet-B2    29.5552 eV   41.95 nm  f=0.0004  <S**2>=0.000
       4 -> 30        -0.30515
       8 -> 35        -0.12216
       8 -> 37         0.61496

 The electronic state is 1-A1.
 Alpha  occ. eigenvalues --  -18.64068  -9.88999  -0.97355  -0.56892  -0.45419
 Alpha  occ. eigenvalues --   -0.40898  -0.38603  -0.23301
 Alpha virt. eigenvalues --   -0.10607   0.01066   0.06786   0.06845   0.09927
 Alpha virt. eigenvalues --    0.11107   0.14006   0.14281   0.17456   0.20912
 Alpha virt. eigenvalues --    0.27192   0.28109   0.30193   0.33578   0.33906

 Mulliken charges:
               1
     1  C    0.410102
     2  O   -0.228841
     3  H   -0.090630
     4  H   -0.090630
 Sum of Mulliken charges =  -0.00000

 Dipole moment (field-independent basis, Debye):
    X=              0.0000    Y=              0.0000    Z=             -2.2938  Tot=              2.2938
 Quadrupole moment (field-independent basis, Debye-Ang):
   XX=            -11.8028   YY=            -11.8248   ZZ=            -12.5235
   XY=             -0.0000   XZ=             -0.0000   YZ=             -0.0000

 Normal termination of Gaussian 16 at Mon Mar 21 19:55:09 2022.
