 Gaussian 16, Revision C.01,
 Gaussian 16:  EM64L-G16RevC.01  3-Jul-2019

 ---------------------------------------------------------------------
 #P TD(Nstates=10000) svwn5/Gen SCF(maxcycles=100) Int(Grid=ultrafine)
 ---------------------------------------------------------------------

 ---------------------
 xGDB7_00001_tier4.com
 ---------------------
 Symbolic Z-matrix:
 Charge =  0 Multiplicity = 1

                         Standard orientation:
 ---------------------------------------------------------------------
 Center     Atomic      Atomic             Coordinates (Angstroms)
 Number     Number       Type             X           Y           Z
 ---------------------------------------------------------------------
      1          6           0       -0.000001    0.000006    0.000000
      2          1           0       -0.991926    0.448073    0.033817
      3          1           0        0.066172   -0.671147   -0.854975
      4          1           0        0.176250   -0.561167    0.916416
      5          1           0        0.749514    0.784204   -0.095260
 ---------------------------------------------------------------------

 SCF Done:  E(RS-VWN5) =  -40.0714458898     A.U. after    9 cycles

 Excitation energies and oscillator strengths:

 Excited State   1:      Singlet-A      9.9516 eV  124.59 nm  f=0.1249  <S**2>=0.000
       5 ->  6         0.70603
 This state for optimization and/or second-order correction.
 Total Energy, E(TD-HF/TD-DFT) =  -39.7057328465
 Copying the excited state density for this state as the 1-particle RhoCI density.

 Excited State   2:      Singlet-A      9.9517 eV  124.59 nm  f=0.1249  <S**2>=0.000
       4 ->  6         0.70600

 Excited State   3:      Singlet-A      9.9517 eV  124.59 nm  f=0.1249  <S**2>=0.000
       3 ->  6         0.70600

 Excited State   4:      Singlet-A     12.2462 eV  101.24 nm  f=0.0000  <S**2>=0.000
       4 ->  7         0.24131
       4 ->  8        -0.29099
       4 ->  9         0.31482
       5 ->  7        -0.28011
       5 ->  8         0.17601
       5 ->  9         0.37497

 Excited State   5:      Singlet-A     12.2462 eV  101.24 nm  f=0.0000  <S**2>=0.000
       3 ->  7         0.25391
       3 ->  8        -0.31702
       3 ->  9         0.27762
       5 ->  7         0.33768
       5 ->  8         0.35649

 Excited State   6:      Singlet-A     12.2463 eV  101.24 nm  f=0.0000  <S**2>=0.000
       3 ->  7        -0.19380
       3 ->  8         0.20883
       3 ->  9         0.41042
       4 ->  7        -0.37313
       4 ->  8        -0.32986

 Excited State   7:      Singlet-A     12.3763 eV  100.18 nm  f=0.0000  <S**2>=0.000
       3 ->  7        -0.19025
       3 ->  8         0.25588
       3 ->  9        -0.32891
       4 ->  7        -0.13798
       4 ->  9         0.10166
       5 ->  7         0.41416
       5 ->  8         0.20517
       5 ->  9         0.17192

 Excited State   8:      Singlet-A     12.3763 eV  100.18 nm  f=0.0000  <S**2>=0.000
       3 ->  7        -0.15117
       3 ->  8        -0.29528
       4 ->  7        -0.27331
       4 ->  8         0.28573
       4 ->  9         0.36555
       5 ->  8        -0.20739
       5 ->  9         0.19537

 Excited State   9:      Singlet-A     12.4604 eV   99.50 nm  f=0.1253  <S**2>=0.000
       3 ->  7        -0.11780
       4 ->  7        -0.16255
       4 ->  8         0.21558
       4 ->  9        -0.33079
       4 -> 11         0.11018
       4 -> 12        -0.10310
       5 ->  7        -0.27521
       5 ->  8         0.34361
       5 ->  9         0.17891
       5 -> 11         0.15848

 Excited State  10:      Singlet-A     12.4605 eV   99.50 nm  f=0.1253  <S**2>=0.000
       3 ->  7         0.37366
       3 ->  8         0.22010
       3 -> 10        -0.16097
       4 ->  9        -0.13961
       5 ->  8        -0.21735
       5 ->  9         0.38966
       5 -> 12         0.14093

 Excited State  11:      Singlet-A     12.4605 eV   99.50 nm  f=0.1253  <S**2>=0.000
       3 ->  7        -0.22572
       3 ->  8         0.23517
       3 ->  9         0.32785
       3 -> 11         0.10995
       3 -> 12         0.13059
       4 ->  7         0.33812
       4 ->  8         0.31160
       4 -> 10        -0.16236

 Excited State  12:      Singlet-A     12.9747 eV   95.56 nm  f=0.0000  <S**2>=0.000
       3 ->  7         0.21729
       3 ->  8         0.18251
       3 -> 10         0.26605
       3 -> 12         0.10122
       4 ->  7        -0.12256
       4 ->  8         0.13429
       4 ->  9         0.21806
       4 -> 11        -0.16329
       4 -> 12        -0.22704
       5 ->  7        -0.13558
       5 ->  8         0.17107
       5 ->  9        -0.18157
       5 -> 11        -0.23311
       5 -> 12         0.14326

 Excited State  13:      Singlet-A     13.0484 eV   95.02 nm  f=0.0000  <S**2>=0.000
       3 -> 10        -0.14148
       3 -> 11        -0.34151
       3 -> 12         0.26843
       4 -> 11        -0.13493
       4 -> 12        -0.13221
       5 -> 10         0.48998

 Excited State  14:      Singlet-A     13.0485 eV   95.02 nm  f=0.0000  <S**2>=0.000
       3 -> 10         0.23632
       3 -> 11        -0.17348
       3 -> 12         0.17465
       4 -> 11         0.35836
       4 -> 12         0.39312
       5 -> 11        -0.16858
       5 -> 12         0.22536

 Excited State  15:      Singlet-A     13.0832 eV   94.77 nm  f=0.0000  <S**2>=0.000
       4 -> 10         0.17133
       4 -> 11         0.39314
       4 -> 12        -0.23451
       5 -> 10         0.20295
       5 -> 11        -0.29121
       5 -> 12        -0.35028

 Excited State  16:      Singlet-A     13.0832 eV   94.77 nm  f=0.0000  <S**2>=0.000
       3 -> 10         0.14999
       3 -> 11         0.39329
       3 -> 12        -0.25087
       5 -> 10         0.42912
       5 -> 12         0.25305

 Excited State  17:      Singlet-A     13.0833 eV   94.77 nm  f=0.0000  <S**2>=0.000
       3 -> 10        -0.11001
       3 -> 11         0.28592
       3 -> 12         0.39346
       4 -> 10         0.45419
       4 -> 12         0.18914

 Excited State  18:      Singlet-A     13.5046 eV   91.81 nm  f=0.0170  <S**2>=0.000
       3 -> 13         0.15013
       3 -> 14         0.36151
       4 -> 10         0.10588
       4 -> 11         0.25481
       4 -> 12        -0.24006
       5 -> 11         0.28538
       5 -> 12         0.23500
       5 -> 13         0.20264

 Excited State  19:      Singlet-A     13.5046 eV   91.81 nm  f=0.0170  <S**2>=0.000
       3 -> 10        -0.36426
       4 -> 13         0.42006
       4 -> 14        -0.12128
       5 -> 11        -0.25673
       5 -> 12         0.24323

 Excited State  20:      Singlet-A     13.5046 eV   91.81 nm  f=0.0170  <S**2>=0.000
       3 -> 11        -0.23157
       3 -> 12        -0.28966
       3 -> 13         0.21552
       4 -> 10         0.34562
       5 -> 14         0.37228

 Excited State  21:      Singlet-A     13.7908 eV   89.90 nm  f=0.0000  <S**2>=0.000
       3 -> 13        -0.17494
       3 -> 14        -0.29391
       5 -> 13         0.61122

 Excited State  22:      Singlet-A     13.7909 eV   89.90 nm  f=0.0000  <S**2>=0.000
       3 -> 13         0.44063
       3 -> 14        -0.22351
       4 -> 13        -0.10755
       4 -> 14        -0.38058
       5 -> 14        -0.31248

 Excited State  23:      Singlet-A     13.7909 eV   89.90 nm  f=0.0000  <S**2>=0.000
       3 -> 13         0.31882
       3 -> 14        -0.19010
       4 -> 13         0.17900
       4 -> 14         0.55351
       5 -> 14        -0.15025

 Excited State  24:      Singlet-A     14.1517 eV   87.61 nm  f=0.0000  <S**2>=0.000
       2 ->  6         0.15657
       3 ->  7        -0.20098
       3 ->  8        -0.16883
       3 -> 10         0.26391
       3 -> 12         0.10051
       4 ->  7         0.11339
       4 ->  8        -0.12423
       4 ->  9        -0.20171
       4 -> 11        -0.16212
       4 -> 12        -0.22538
       5 ->  7         0.12540
       5 ->  8        -0.15823
       5 ->  9         0.16793
       5 -> 11        -0.23119
       5 -> 12         0.14208

 Excited State  25:      Singlet-A     14.3860 eV   86.18 nm  f=0.6731  <S**2>=0.000
       3 -> 11         0.17428
       3 -> 12         0.21236
       3 -> 13         0.25335
       4 ->  7        -0.10870
       4 -> 10        -0.25916
       5 -> 14         0.44651

 Excited State  26:      Singlet-A     14.3860 eV   86.18 nm  f=0.6731  <S**2>=0.000
       3 ->  7         0.11465
       3 -> 10         0.27027
       4 -> 13         0.50243
       4 -> 14        -0.15300
       5 ->  8        -0.10273
       5 -> 11         0.22049
       5 -> 12        -0.15934

 Excited State  27:      Singlet-A     14.3860 eV   86.18 nm  f=0.6731  <S**2>=0.000
       3 -> 13         0.17548
       3 -> 14         0.42436
       4 ->  9        -0.11276
       4 -> 11        -0.19213
       4 -> 12         0.18066
       5 -> 11        -0.18274
       5 -> 12        -0.19919
       5 -> 13         0.24490

 Excited State  28:      Singlet-A     16.8871 eV   73.42 nm  f=0.1049  <S**2>=0.000
       5 -> 15         0.68887

 Excited State  29:      Singlet-A     16.8872 eV   73.42 nm  f=0.1049  <S**2>=0.000
       4 -> 15         0.68867

 Excited State  30:      Singlet-A     16.8873 eV   73.42 nm  f=0.1049  <S**2>=0.000
       3 -> 15         0.68868

 Excited State  31:      Singlet-A     17.5313 eV   70.72 nm  f=0.0000  <S**2>=0.000
       2 ->  6         0.66020
       5 -> 20         0.11636

 Excited State  32:      Singlet-A     18.2893 eV   67.79 nm  f=0.0210  <S**2>=0.000
       3 -> 18        -0.12686
       4 -> 19        -0.12720
       5 -> 16         0.67346

 Excited State  33:      Singlet-A     18.2894 eV   67.79 nm  f=0.0210  <S**2>=0.000
       3 -> 17        -0.12619
       4 -> 16         0.67341
       5 -> 19         0.12741

 Excited State  34:      Singlet-A     18.2894 eV   67.79 nm  f=0.0210  <S**2>=0.000
       3 -> 16         0.67341
       4 -> 17         0.12640
       5 -> 18         0.12722

 Excited State  35:      Singlet-A     18.4935 eV   67.04 nm  f=0.0000  <S**2>=0.000
       3 -> 17         0.46068
       4 -> 18        -0.16396
       5 -> 17        -0.12018
       5 -> 19         0.47860

 Excited State  36:      Singlet-A     18.4935 eV   67.04 nm  f=0.0000  <S**2>=0.000
       3 -> 17         0.18340
       3 -> 19         0.27547
       4 -> 18         0.54115
       5 -> 17         0.26408
       5 -> 19         0.11491

 Excited State  37:      Singlet-A     18.5213 eV   66.94 nm  f=0.0240  <S**2>=0.000
       3 -> 16        -0.18836
       4 -> 17         0.46996
       5 -> 18         0.47408

 Excited State  38:      Singlet-A     18.5213 eV   66.94 nm  f=0.0240  <S**2>=0.000
       3 -> 17        -0.47192
       4 -> 16        -0.18835
       5 -> 19         0.47284

 Excited State  39:      Singlet-A     18.5214 eV   66.94 nm  f=0.0240  <S**2>=0.000
       3 -> 18         0.47363
       4 -> 19         0.47494
       5 -> 16         0.18818

 Excited State  40:      Singlet-A     18.5395 eV   66.88 nm  f=0.0000  <S**2>=0.000
       4 -> 17        -0.48359
       5 -> 18         0.48662

 Excited State  41:      Singlet-A     18.5396 eV   66.88 nm  f=0.0000  <S**2>=0.000
       3 -> 19        -0.47925
       5 -> 17         0.48272

 Excited State  42:      Singlet-A     18.5397 eV   66.88 nm  f=0.0000  <S**2>=0.000
       3 -> 18         0.47919
       3 -> 19         0.10529
       4 -> 19        -0.47830

 Excited State  43:      Singlet-A     18.6383 eV   66.52 nm  f=0.0000  <S**2>=0.000
       3 -> 19         0.40207
       4 -> 18        -0.40103
       5 -> 17         0.39821

 Excited State  44:      Singlet-A     18.9961 eV   65.27 nm  f=0.0000  <S**2>=0.000
       3 -> 20         0.43192
       3 -> 21         0.13370
       4 -> 21        -0.12505
       4 -> 22        -0.11268
       5 -> 20        -0.23538
       5 -> 21         0.30342
       5 -> 22        -0.31530

 Excited State  45:      Singlet-A     18.9961 eV   65.27 nm  f=0.0000  <S**2>=0.000
       3 -> 20         0.11094
       3 -> 21         0.27366
       3 -> 22        -0.17226
       4 -> 20        -0.16750
       4 -> 21         0.28628
       4 -> 22         0.42655
       5 -> 20         0.19041
       5 -> 21         0.21641

 Excited State  46:      Singlet-A     19.0103 eV   65.22 nm  f=0.0000  <S**2>=0.000
       4 -> 20         0.47828
       4 -> 21         0.10195
       5 -> 21         0.29199
       5 -> 22         0.38409

 Excited State  47:      Singlet-A     19.0103 eV   65.22 nm  f=0.0000  <S**2>=0.000
       3 -> 20         0.48228
       5 -> 21        -0.37862
       5 -> 22         0.30330

 Excited State  48:      Singlet-A     19.0104 eV   65.22 nm  f=0.0000  <S**2>=0.000
       3 -> 21         0.27077
       3 -> 22         0.40392
       4 -> 21         0.39993
       4 -> 22        -0.27891

 Excited State  49:      Singlet-A     19.5661 eV   63.37 nm  f=0.0000  <S**2>=0.000
       3 -> 21         0.25792
       3 -> 22        -0.18103
       3 -> 25        -0.23463
       4 -> 21        -0.17323
       4 -> 22        -0.26142
       4 -> 24        -0.23006
       5 -> 20         0.31097
       5 -> 23        -0.22566

 Excited State  50:      Singlet-A     19.6125 eV   63.22 nm  f=0.2132  <S**2>=0.000
       2 ->  7        -0.11788
       2 ->  8         0.22015
       2 ->  9        -0.12281
       3 -> 21        -0.10245
       4 -> 20         0.36444
       4 -> 21         0.13080
       5 -> 20         0.26740
       5 -> 21        -0.15496
       5 -> 22        -0.31288

 Excited State  51:      Singlet-A     19.6125 eV   63.22 nm  f=0.2132  <S**2>=0.000
       2 ->  7        -0.11762
       2 ->  9         0.24176
       3 -> 20         0.14311
       3 -> 21        -0.29997
       3 -> 22         0.24032
       4 -> 20        -0.15218
       5 -> 20         0.31783
       5 -> 21         0.24334
       5 -> 22         0.10875

 Excited State  52:      Singlet-A     19.6126 eV   63.22 nm  f=0.2132  <S**2>=0.000
       2 ->  7         0.22303
       2 ->  8         0.15434
       3 -> 20        -0.11666
       3 -> 21         0.23320
       3 -> 22         0.33964
       4 -> 21        -0.32960
       4 -> 22         0.26611

 Excited State  53:      Singlet-A     20.0572 eV   61.82 nm  f=0.0022  <S**2>=0.000
       2 ->  7        -0.40748
       2 ->  8         0.45688
       2 ->  9        -0.13923
       3 -> 27         0.10711
       4 -> 20        -0.12618
       5 -> 20        -0.14359
       5 -> 22         0.11582

 Excited State  54:      Singlet-A     20.0572 eV   61.82 nm  f=0.0022  <S**2>=0.000
       2 ->  7        -0.36848
       2 ->  8        -0.18429
       2 ->  9         0.47372
       3 -> 21         0.13830
       4 -> 20         0.11416
       5 -> 21        -0.11242

 Excited State  55:      Singlet-A     20.0572 eV   61.82 nm  f=0.0022  <S**2>=0.000
       2 ->  7         0.30385
       2 ->  8         0.38917
       2 ->  9         0.38777
       3 -> 22        -0.17720
       4 -> 21         0.13402
       5 -> 27         0.12113

 Excited State  56:      Singlet-A     20.3870 eV   60.82 nm  f=0.0000  <S**2>=0.000
       4 -> 23        -0.47437
       4 -> 24         0.14049
       5 -> 23         0.14236
       5 -> 24         0.47558

 Excited State  57:      Singlet-A     20.3870 eV   60.82 nm  f=0.0000  <S**2>=0.000
       3 -> 23        -0.47663
       3 -> 24         0.10369
       5 -> 25         0.48731

 Excited State  58:      Singlet-A     20.3871 eV   60.81 nm  f=0.0000  <S**2>=0.000
       3 -> 23        -0.10081
       3 -> 24        -0.48468
       4 -> 25         0.49267

 Excited State  59:      Singlet-A     20.4699 eV   60.57 nm  f=0.0000  <S**2>=0.000
       3 -> 23         0.42179
       3 -> 24        -0.17723
       4 -> 24         0.13583
       5 -> 24         0.10922
       5 -> 25         0.47873

 Excited State  60:      Singlet-A     20.4699 eV   60.57 nm  f=0.0000  <S**2>=0.000
       3 -> 23        -0.19908
       3 -> 25        -0.26386
       4 -> 23         0.21138
       4 -> 24         0.49523
       5 -> 23        -0.23499
       5 -> 24         0.13268

 Excited State  61:      Singlet-A     20.4823 eV   60.53 nm  f=0.0366  <S**2>=0.000
       2 -> 11         0.16306
       3 -> 25        -0.10308
       4 -> 23         0.40156
       4 -> 24        -0.20740
       5 -> 23         0.29783
       5 -> 24         0.37336

 Excited State  62:      Singlet-A     20.4824 eV   60.53 nm  f=0.0366  <S**2>=0.000
       2 -> 12        -0.15176
       3 -> 24         0.12859
       3 -> 25         0.44557
       4 -> 23         0.13826
       5 -> 23        -0.38254
       5 -> 24         0.24603

 Excited State  63:      Singlet-A     20.4825 eV   60.53 nm  f=0.0366  <S**2>=0.000
       2 -> 10         0.17191
       3 -> 23         0.16237
       3 -> 24         0.42255
       3 -> 25        -0.13943
       4 -> 25         0.45746

 Excited State  64:      Singlet-A     20.6872 eV   59.93 nm  f=0.0124  <S**2>=0.000
       2 -> 10         0.67288
       3 -> 24        -0.10787
       4 -> 25        -0.11032

 Excited State  65:      Singlet-A     20.6873 eV   59.93 nm  f=0.0124  <S**2>=0.000
       2 -> 11         0.62133
       2 -> 12         0.26441
       3 -> 25         0.10253
       5 -> 23        -0.11869

 Excited State  66:      Singlet-A     20.6873 eV   59.93 nm  f=0.0124  <S**2>=0.000
       2 -> 11        -0.26302
       2 -> 12         0.61941
       5 -> 24         0.10915

 Excited State  67:      Singlet-A     21.2887 eV   58.24 nm  f=0.0000  <S**2>=0.000
       2 -> 13         0.70036

 Excited State  68:      Singlet-A     21.2887 eV   58.24 nm  f=0.0000  <S**2>=0.000
       2 -> 14         0.70036

 Excited State  69:      Singlet-A     21.6336 eV   57.31 nm  f=0.0000  <S**2>=0.000
       2 ->  6        -0.13252
       2 -> 15        -0.25975
       3 -> 21         0.14529
       3 -> 22        -0.10200
       3 -> 25         0.29600
       4 -> 22        -0.14694
       4 -> 24         0.28999
       5 -> 20         0.17437
       5 -> 23         0.28416

 Excited State  70:      Singlet-A     22.0506 eV   56.23 nm  f=0.0000  <S**2>=0.000
       3 -> 26        -0.23778
       3 -> 27        -0.25700
       5 -> 26         0.60987

 Excited State  71:      Singlet-A     22.0507 eV   56.23 nm  f=0.0000  <S**2>=0.000
       3 -> 26         0.50023
       3 -> 27        -0.31604
       4 -> 27        -0.14759
       5 -> 27        -0.35196

 Excited State  72:      Singlet-A     22.0507 eV   56.23 nm  f=0.0000  <S**2>=0.000
       3 -> 26         0.13128
       4 -> 26         0.21415
       4 -> 27         0.65280

 Excited State  73:      Singlet-A     22.8378 eV   54.29 nm  f=0.3631  <S**2>=0.000
       3 -> 26         0.26564
       3 -> 27        -0.19079
       5 -> 27         0.58045

 Excited State  74:      Singlet-A     22.8379 eV   54.29 nm  f=0.3631  <S**2>=0.000
       3 -> 26         0.24829
       3 -> 27         0.43097
       4 -> 26         0.31137
       5 -> 26         0.31151

 Excited State  75:      Singlet-A     22.8379 eV   54.29 nm  f=0.3631  <S**2>=0.000
       3 -> 26        -0.16095
       3 -> 27        -0.26457
       4 -> 26         0.55350
       4 -> 27        -0.18615
       5 -> 26        -0.11504

 Excited State  76:      Singlet-A     24.6431 eV   50.31 nm  f=0.0000  <S**2>=0.000
       2 -> 15         0.60703
       2 -> 16        -0.28911

 Excited State  77:      Singlet-A     25.9357 eV   47.80 nm  f=0.0000  <S**2>=0.000
       2 -> 17         0.70681

 Excited State  78:      Singlet-A     25.9357 eV   47.80 nm  f=0.0000  <S**2>=0.000
       2 -> 18         0.70681

 Excited State  79:      Singlet-A     25.9357 eV   47.80 nm  f=0.0000  <S**2>=0.000
       2 -> 19         0.70681

 Excited State  80:      Singlet-A     26.2139 eV   47.30 nm  f=0.0000  <S**2>=0.000
       2 -> 15         0.22154
       2 -> 16         0.63047

 Excited State  81:      Singlet-A     26.7318 eV   46.38 nm  f=0.0014  <S**2>=0.000
       2 -> 20         0.68539
       2 -> 23        -0.11269

 Excited State  82:      Singlet-A     26.7318 eV   46.38 nm  f=0.0014  <S**2>=0.000
       2 -> 21         0.49086
       2 -> 22         0.48423
       2 -> 24         0.11305

 Excited State  83:      Singlet-A     26.7318 eV   46.38 nm  f=0.0014  <S**2>=0.000
       2 -> 21        -0.47862
       2 -> 22         0.49350
       2 -> 25         0.11066

 Excited State  84:      Singlet-A     27.9226 eV   44.40 nm  f=0.0142  <S**2>=0.000
       2 -> 20         0.10327
       2 -> 23         0.69506

 Excited State  85:      Singlet-A     27.9227 eV   44.40 nm  f=0.0142  <S**2>=0.000
       2 -> 24         0.69514

 Excited State  86:      Singlet-A     27.9228 eV   44.40 nm  f=0.0142  <S**2>=0.000
       2 -> 25         0.69514

 Excited State  87:      Singlet-A     29.6332 eV   41.84 nm  f=0.0000  <S**2>=0.000
       2 -> 26         0.66129
       4 -> 29         0.17798

 Excited State  88:      Singlet-A     29.6332 eV   41.84 nm  f=0.0000  <S**2>=0.000
       2 -> 27         0.66128
       3 -> 28        -0.16414
       5 -> 30         0.14520

 Excited State  89:      Singlet-A     30.0961 eV   41.20 nm  f=0.0000  <S**2>=0.000
       4 -> 28        -0.48580
       5 -> 29         0.48742

 Excited State  90:      Singlet-A     30.0961 eV   41.20 nm  f=0.0000  <S**2>=0.000
       3 -> 28         0.48840
       4 -> 28        -0.10080
       5 -> 30         0.49030

 Excited State  91:      Singlet-A     30.0963 eV   41.20 nm  f=0.0000  <S**2>=0.000
       3 -> 29         0.46251
       3 -> 30         0.18634
       4 -> 29        -0.18692
       4 -> 30         0.46230

 Excited State  92:      Singlet-A     30.4178 eV   40.76 nm  f=0.0000  <S**2>=0.000
       2 -> 27         0.24720
       3 -> 28         0.43157
       4 -> 29         0.14206
       4 -> 30         0.10547
       5 -> 28        -0.20070
       5 -> 29         0.18055
       5 -> 30        -0.38023

 Excited State  93:      Singlet-A     30.4179 eV   40.76 nm  f=0.0000  <S**2>=0.000

 The electronic state is 1-A.
 Alpha  occ. eigenvalues --   -9.76842  -0.61657  -0.34724  -0.34723  -0.34723
 Alpha virt. eigenvalues --    0.01424   0.10233   0.10233   0.10233   0.13417
 Alpha virt. eigenvalues --    0.13417   0.13417   0.16142   0.16143   0.26403
 Alpha virt. eigenvalues --    0.32716   0.33772   0.33772   0.33772   0.35156

 Mulliken charges:
               1
     1  C    0.189998
     2  H   -0.047480
     3  H   -0.047509
     4  H   -0.047519
     5  H   -0.047490
 Sum of Mulliken charges =  -0.00000

 Dipole moment (field-independent basis, Debye):
    X=              0.0000    Y=             -0.0000    Z=              0.0000  Tot=              0.0000
 Quadrupole moment (field-independent basis, Debye-Ang):
   XX=             -8.5396   YY=             -8.5397   ZZ=             -8.5398
   XY=              0.0000   XZ=              0.0000   YZ=             -0.0000

 Normal termination of Gaussian 16 at Mon Mar 21 20:05:46 2022.
