 Gaussian 16, Revision C.01,
 Gaussian 16:  EM64L-G16RevC.01  3-Jul-2019

 ---------------------------------------------------------------------
 #P TD(Nstates=10000) svwn5/Gen SCF(maxcycles=100) Int(Grid=ultrafine)
 ---------------------------------------------------------------------

 ---------------------
 xGDB7_00001_tier4.com
 ---------------------
 Symbolic Z-matrix:
 Charge =  0 Multiplicity = 1

                         Standard orientation:
 ---------------------------------------------------------------------
 Center     Atomic      Atomic             Coordinates (Angstroms)
 Number     Number       Type             X           Y           Z
 ---------------------------------------------------------------------
      1          6           0       -0.049078    0.702042   -0.000000
      2          7           0       -0.049078   -0.754243    0.000000
      3          1           0        0.946109    1.166603   -0.000000
      4          1           0       -0.587574    1.062597    0.877770
      5          1           0       -0.587574    1.062597   -0.877770
      6          1           0        0.433525   -1.112175    0.812504
      7          1           0        0.433525   -1.112175   -0.812504
 ---------------------------------------------------------------------

 SCF Done:  E(RS-VWN5) =  -94.9418364525     A.U. after   12 cycles

 Excitation energies and oscillator strengths:

 Excited State   1:      Singlet-A'     5.5580 eV  223.07 nm  f=0.0042  <S**2>=0.000
       9 -> 10         0.70577
 This state for optimization and/or second-order correction.
 Total Energy, E(TD-HF/TD-DFT) =  -94.7375819442
 Copying the excited state density for this state as the 1-particle RhoCI density.

 Excited State   2:      Singlet-A'     6.5802 eV  188.42 nm  f=0.0384  <S**2>=0.000
       9 -> 11         0.70516

 Excited State   3:      Singlet-A"     7.3341 eV  169.05 nm  f=0.0062  <S**2>=0.000
       9 -> 12         0.70492

 Excited State   4:      Singlet-A'     7.7916 eV  159.13 nm  f=0.0789  <S**2>=0.000
       9 -> 13         0.70510

 Excited State   5:      Singlet-A"     8.1954 eV  151.29 nm  f=0.0005  <S**2>=0.000
       9 -> 14         0.70480

 Excited State   6:      Singlet-A'     8.8246 eV  140.50 nm  f=0.0046  <S**2>=0.000
       9 -> 15         0.69490
       9 -> 16         0.12067

 Excited State   7:      Singlet-A'     8.9390 eV  138.70 nm  f=0.0172  <S**2>=0.000
       9 -> 15        -0.11988
       9 -> 16         0.69548

 Excited State   8:      Singlet-A"     8.9550 eV  138.45 nm  f=0.0065  <S**2>=0.000
       8 -> 10         0.70655

 Excited State   9:      Singlet-A"     9.4592 eV  131.07 nm  f=0.0007  <S**2>=0.000
       9 -> 17         0.70601

 Excited State  10:      Singlet-A"    10.0013 eV  123.97 nm  f=0.0765  <S**2>=0.000
       8 -> 11         0.70526

 Excited State  11:      Singlet-A'    10.0560 eV  123.29 nm  f=0.0521  <S**2>=0.000
       7 -> 10         0.70257

 Excited State  12:      Singlet-A'    10.4502 eV  118.64 nm  f=0.0069  <S**2>=0.000
       9 -> 18         0.56587
       9 -> 19         0.39109

 Excited State  13:      Singlet-A'    10.7106 eV  115.76 nm  f=0.0258  <S**2>=0.000
       7 -> 11        -0.14888
       8 -> 12         0.46634
       9 -> 18         0.21676
       9 -> 19        -0.43477

 Excited State  14:      Singlet-A"    10.7170 eV  115.69 nm  f=0.0122  <S**2>=0.000
       9 -> 20         0.70354

 Excited State  15:      Singlet-A'    10.8702 eV  114.06 nm  f=0.0293  <S**2>=0.000
       6 -> 10         0.16213
       8 -> 12         0.50354
       9 -> 18        -0.28413
       9 -> 19         0.34852

 Excited State  16:      Singlet-A'    11.0734 eV  111.97 nm  f=0.0824  <S**2>=0.000
       6 -> 10         0.11959
       7 -> 11         0.67096
       9 -> 19        -0.11534

 Excited State  17:      Singlet-A'    11.1906 eV  110.79 nm  f=0.1047  <S**2>=0.000
       6 -> 10         0.65405
       7 -> 11        -0.14987
       9 -> 18         0.12631

 Excited State  18:      Singlet-A"    11.2026 eV  110.67 nm  f=0.0216  <S**2>=0.000
       8 -> 13         0.69982

 Excited State  19:      Singlet-A"    11.7478 eV  105.54 nm  f=0.0095  <S**2>=0.000
       7 -> 12         0.70316

 Excited State  20:      Singlet-A'    11.8163 eV  104.93 nm  f=0.0124  <S**2>=0.000
       6 -> 11         0.15132
       7 -> 13         0.14001
       8 -> 14         0.61545
       9 -> 21        -0.23057

 Excited State  21:      Singlet-A'    12.0902 eV  102.55 nm  f=0.1145  <S**2>=0.000
       6 -> 11         0.64441
       7 -> 13        -0.13663
       8 -> 14        -0.16533
       9 -> 21        -0.13849

 Excited State  22:      Singlet-A'    12.1210 eV  102.29 nm  f=0.2112  <S**2>=0.000
       6 -> 11         0.20329
       8 -> 14         0.15187
       9 -> 21         0.63515

 Excited State  23:      Singlet-A"    12.2109 eV  101.54 nm  f=0.0195  <S**2>=0.000
       5 -> 10        -0.14613
       8 -> 16         0.14280
       9 -> 22         0.66752

 Excited State  24:      Singlet-A"    12.2580 eV  101.15 nm  f=0.0026  <S**2>=0.000
       5 -> 10        -0.27046
       8 -> 15         0.62822
       8 -> 16        -0.14232

 Excited State  25:      Singlet-A"    12.3171 eV  100.66 nm  f=0.0137  <S**2>=0.000
       5 -> 10         0.25738
       7 -> 14        -0.15128
       8 -> 15         0.22354
       8 -> 16         0.59298

 Excited State  26:      Singlet-A"    12.4039 eV   99.96 nm  f=0.1086  <S**2>=0.000
       5 -> 10         0.56077
       6 -> 12         0.12976
       7 -> 14        -0.11294
       8 -> 15         0.14497
       8 -> 16        -0.30605
       9 -> 22         0.17919

 Excited State  27:      Singlet-A'    12.4979 eV   99.20 nm  f=0.0295  <S**2>=0.000
       6 -> 13        -0.10630
       7 -> 13         0.62137
       8 -> 14        -0.13828
       8 -> 17        -0.20824

 Excited State  28:      Singlet-A'    12.6197 eV   98.25 nm  f=0.2176  <S**2>=0.000
       9 -> 23         0.65910
       9 -> 24        -0.16799

 Excited State  29:      Singlet-A"    12.7462 eV   97.27 nm  f=0.0347  <S**2>=0.000
       6 -> 12         0.35545
       7 -> 14         0.57697
       8 -> 15         0.10381

 Excited State  30:      Singlet-A"    12.8927 eV   96.17 nm  f=0.1690  <S**2>=0.000
       5 -> 10        -0.10406
       6 -> 12         0.58582
       7 -> 14        -0.29995
       8 -> 19        -0.13203

 Excited State  31:      Singlet-A'    12.9874 eV   95.46 nm  f=0.0000  <S**2>=0.000
       6 -> 13         0.14843
       8 -> 17        -0.43557
       9 -> 23         0.15333
       9 -> 24         0.48620

 Excited State  32:      Singlet-A'    13.0377 eV   95.10 nm  f=0.0017  <S**2>=0.000
       6 -> 13        -0.20062
       7 -> 13         0.10039
       7 -> 15        -0.18387
       8 -> 17         0.42024
       9 -> 24         0.47136

 Excited State  33:      Singlet-A'    13.2857 eV   93.32 nm  f=0.0216  <S**2>=0.000
       6 -> 13        -0.45068
       7 -> 15         0.53412

 Excited State  34:      Singlet-A"    13.3415 eV   92.93 nm  f=0.0083  <S**2>=0.000
       5 -> 11         0.69598

 Excited State  35:      Singlet-A'    13.5300 eV   91.64 nm  f=0.0147  <S**2>=0.000
       5 -> 12        -0.25405
       6 -> 13         0.33106
       7 -> 13         0.11927
       7 -> 15         0.25270
       7 -> 16         0.41995
       8 -> 17         0.17398
       9 -> 25        -0.11588

 Excited State  36:      Singlet-A"    13.5470 eV   91.52 nm  f=0.0016  <S**2>=0.000
       8 -> 18         0.68579
       8 -> 19        -0.11457

 Excited State  37:      Singlet-A"    13.6696 eV   90.70 nm  f=0.0069  <S**2>=0.000
       6 -> 14         0.68895
       8 -> 19         0.10880

 Excited State  38:      Singlet-A'    13.6827 eV   90.61 nm  f=0.2141  <S**2>=0.000
       5 -> 12         0.16718
       6 -> 13        -0.26046
       7 -> 15        -0.27259
       7 -> 16         0.51166
       8 -> 17        -0.11471

 Excited State  39:      Singlet-A'    13.8668 eV   89.41 nm  f=0.0205  <S**2>=0.000
       9 -> 25         0.68941

 Excited State  40:      Singlet-A"    13.8859 eV   89.29 nm  f=0.0081  <S**2>=0.000
       7 -> 17         0.59815
       8 -> 19         0.36659

 Excited State  41:      Singlet-A"    14.2118 eV   87.24 nm  f=0.0801  <S**2>=0.000
       5 -> 13         0.24006
       7 -> 17        -0.31520
       8 -> 19         0.43443
       9 -> 26        -0.32813

 Excited State  42:      Singlet-A'    14.2419 eV   87.06 nm  f=0.0317  <S**2>=0.000
       5 -> 12        -0.27819
       6 -> 15        -0.41469
       6 -> 16         0.11493
       8 -> 20         0.45802

 Excited State  43:      Singlet-A"    14.2617 eV   86.94 nm  f=0.0733  <S**2>=0.000
       5 -> 13         0.21575
       7 -> 17        -0.11416
       8 -> 19         0.20512
       9 -> 26         0.61839

 Excited State  44:      Singlet-A'    14.3569 eV   86.36 nm  f=0.0117  <S**2>=0.000
       6 -> 15         0.41086
       6 -> 16         0.47011
       8 -> 20         0.29620

 Excited State  45:      Singlet-A'    14.5299 eV   85.33 nm  f=0.0829  <S**2>=0.000
       5 -> 12        -0.29562
       5 -> 14        -0.11684
       6 -> 16         0.32931
       7 -> 18         0.36275
       8 -> 17        -0.10298
       8 -> 20        -0.26934
       9 -> 29        -0.15324
       9 -> 30        -0.11537

 Excited State  46:      Singlet-A"    14.5645 eV   85.13 nm  f=0.1764  <S**2>=0.000
       5 -> 13         0.60902
       7 -> 17         0.10263
       7 -> 20        -0.12242
       8 -> 19        -0.20203
       9 -> 27        -0.15052

 Excited State  47:      Singlet-A'    14.6748 eV   84.49 nm  f=0.2479  <S**2>=0.000
       5 -> 12         0.14076
       5 -> 14         0.13113
       6 -> 16        -0.19725
       7 -> 18         0.54873
       7 -> 19        -0.11323
       8 -> 20         0.23659
       9 -> 29        -0.14875

 Excited State  48:      Singlet-A"    14.7816 eV   83.88 nm  f=0.0070  <S**2>=0.000
       6 -> 17        -0.13503
       7 -> 20        -0.12198
       9 -> 27         0.65802
       9 -> 28        -0.14160

 Excited State  49:      Singlet-A'    14.8516 eV   83.48 nm  f=0.0172  <S**2>=0.000
       5 -> 12         0.22922
       5 -> 14        -0.14194
       6 -> 15        -0.24050
       6 -> 16         0.19351
       7 -> 18         0.20684
       7 -> 19         0.13465
       9 -> 29         0.47977

 Excited State  50:      Singlet-A"    14.9237 eV   83.08 nm  f=0.0363  <S**2>=0.000
       6 -> 17         0.55469
       7 -> 20        -0.11215
       9 -> 27         0.15151
       9 -> 28         0.36878

 Excited State  51:      Singlet-A'    15.0025 eV   82.64 nm  f=0.0876  <S**2>=0.000
       5 -> 14         0.40922
       6 -> 15        -0.11638
       6 -> 16         0.12528
       7 -> 19        -0.34820
       9 -> 29         0.10123
       9 -> 30        -0.37901

 Excited State  52:      Singlet-A"    15.0191 eV   82.55 nm  f=0.0010  <S**2>=0.000
       6 -> 17        -0.39314
       9 -> 28         0.56085

 Excited State  53:      Singlet-A'    15.0855 eV   82.19 nm  f=0.0484  <S**2>=0.000
       4 -> 11         0.11882
       5 -> 12        -0.28426
       5 -> 14        -0.10189
       6 -> 13        -0.10587
       6 -> 15         0.22663
       6 -> 16        -0.19154
       7 -> 19        -0.14709
       8 -> 20         0.11959
       9 -> 29         0.40377
       9 -> 30        -0.13853

 Excited State  54:      Singlet-A'    15.1296 eV   81.95 nm  f=0.0111  <S**2>=0.000
       5 -> 14         0.37524
       6 -> 18         0.16247
       7 -> 19         0.51031

 Excited State  55:      Singlet-A'    15.2435 eV   81.34 nm  f=0.2013  <S**2>=0.000
       5 -> 12        -0.12255
       5 -> 14         0.28629
       7 -> 19        -0.16857
       8 -> 20        -0.10497
       8 -> 22         0.15166
       9 -> 29         0.10382
       9 -> 30         0.53918

 Excited State  56:      Singlet-A"    15.2675 eV   81.21 nm  f=0.0185  <S**2>=0.000
       5 -> 15         0.19298
       7 -> 20         0.59841
       8 -> 21         0.23126

 Excited State  57:      Singlet-A"    15.3763 eV   80.63 nm  f=0.0101  <S**2>=0.000
       5 -> 16        -0.11588
       7 -> 20        -0.20127
       8 -> 21         0.65663

 Excited State  58:      Singlet-A"    15.6227 eV   79.36 nm  f=0.0080  <S**2>=0.000
       5 -> 15         0.61585
       5 -> 16        -0.29985
       7 -> 20        -0.11255

 Excited State  59:      Singlet-A'    15.6609 eV   79.17 nm  f=0.1617  <S**2>=0.000
       5 -> 14        -0.10445
       6 -> 19        -0.16726
       8 -> 22         0.65804

 Excited State  60:      Singlet-A'    15.7653 eV   78.64 nm  f=0.0264  <S**2>=0.000
       4 -> 10        -0.14334
       5 -> 17        -0.12572
       6 -> 18         0.60717
       6 -> 19        -0.21341
       8 -> 22        -0.12227

 Excited State  61:      Singlet-A"    15.7936 eV   78.50 nm  f=0.1613  <S**2>=0.000
       5 -> 15         0.22059
       5 -> 16         0.56759
       6 -> 20        -0.26395
       7 -> 20        -0.11901

 Excited State  62:      Singlet-A"    15.8274 eV   78.34 nm  f=0.0081  <S**2>=0.000
       8 -> 23         0.69381

 Excited State  63:      Singlet-A'    16.0425 eV   77.29 nm  f=0.0444  <S**2>=0.000
       4 -> 10         0.24571
       6 -> 18        -0.15073
       6 -> 19        -0.41147
       9 -> 31         0.47651

 Excited State  64:      Singlet-A'    16.0852 eV   77.08 nm  f=0.0421  <S**2>=0.000
       4 -> 10        -0.36556
       6 -> 19         0.30990
       9 -> 31         0.49284

 Excited State  65:      Singlet-A"    16.0917 eV   77.05 nm  f=0.0023  <S**2>=0.000
       9 -> 32         0.70346

 Excited State  66:      Singlet-A'    16.2907 eV   76.11 nm  f=0.0537  <S**2>=0.000
       4 -> 10        -0.31626
       5 -> 17         0.42268
       6 -> 19        -0.23827
       7 -> 21         0.37266

 Excited State  67:      Singlet-A"    16.3471 eV   75.84 nm  f=0.0952  <S**2>=0.000
       5 -> 16         0.16479
       6 -> 20         0.61207
       8 -> 24         0.19228

 Excited State  68:      Singlet-A'    16.4007 eV   75.60 nm  f=0.0976  <S**2>=0.000
       4 -> 10         0.22819
       5 -> 17         0.50201
       6 -> 18         0.10779
       7 -> 21        -0.38428

 Excited State  69:      Singlet-A"    16.5684 eV   74.83 nm  f=0.1211  <S**2>=0.000
       6 -> 20        -0.16121
       7 -> 22        -0.17871
       8 -> 24         0.63212

 Excited State  70:      Singlet-A"    16.6705 eV   74.37 nm  f=0.0013  <S**2>=0.000
       7 -> 22         0.67143
       8 -> 24         0.18028

 Excited State  71:      Singlet-A'    16.7702 eV   73.93 nm  f=0.0439  <S**2>=0.000
       4 -> 10         0.22548
       6 -> 19         0.17847
       7 -> 21         0.29420
       7 -> 23        -0.14972
       9 -> 33         0.46589

 Excited State  72:      Singlet-A'    16.8621 eV   73.53 nm  f=0.0149  <S**2>=0.000
       4 -> 10        -0.16838
       6 -> 19        -0.14293
       7 -> 21        -0.22736
       7 -> 23         0.14256
       9 -> 33         0.51863
       9 -> 34         0.19395

 Excited State  73:      Singlet-A"    16.8925 eV   73.40 nm  f=0.0026  <S**2>=0.000
       5 -> 18         0.68119
       5 -> 19        -0.14333

 Excited State  74:      Singlet-A'    17.0026 eV   72.92 nm  f=0.0366  <S**2>=0.000
       4 -> 10         0.10565
       7 -> 21         0.14245
       7 -> 23         0.65386

 Excited State  75:      Singlet-A"    17.1938 eV   72.11 nm  f=0.0097  <S**2>=0.000
       8 -> 25         0.69457

 Excited State  76:      Singlet-A'    17.2484 eV   71.88 nm  f=0.0003  <S**2>=0.000
       4 -> 11         0.21035
       5 -> 20         0.11027
       7 -> 24         0.18649
       9 -> 34         0.60988

 Excited State  77:      Singlet-A'    17.2983 eV   71.67 nm  f=0.0067  <S**2>=0.000
       4 -> 11         0.53975
       6 -> 21        -0.34225
       9 -> 34        -0.20650

 Excited State  78:      Singlet-A"    17.3921 eV   71.29 nm  f=0.0277  <S**2>=0.000
       5 -> 18         0.11766
       5 -> 19         0.66358

 Excited State  79:      Singlet-A'    17.5555 eV   70.62 nm  f=0.0119  <S**2>=0.000
       4 -> 11        -0.16275
       5 -> 20        -0.33010
       6 -> 21        -0.17063
       7 -> 24         0.46168
       8 -> 26         0.27450
       8 -> 27        -0.11846

 Excited State  80:      Singlet-A'    17.5939 eV   70.47 nm  f=0.0043  <S**2>=0.000
       4 -> 11        -0.19973
       5 -> 20         0.50073
       6 -> 21        -0.38997
       7 -> 24         0.11028

 Excited State  81:      Singlet-A'    17.6389 eV   70.29 nm  f=0.0078  <S**2>=0.000
       4 -> 11         0.11669
       5 -> 20         0.15315
       7 -> 24        -0.14053
       8 -> 26         0.64142

 Excited State  82:      Singlet-A"    17.6931 eV   70.07 nm  f=0.0129  <S**2>=0.000
       6 -> 22         0.69326

 Excited State  83:      Singlet-A"    17.7999 eV   69.65 nm  f=0.0000  <S**2>=0.000
       9 -> 35         0.69676

 Excited State  84:      Singlet-A'    17.8233 eV   69.56 nm  f=0.1314  <S**2>=0.000
       4 -> 11         0.10101
       5 -> 20         0.24116
       6 -> 21         0.35846
       6 -> 25        -0.10665
       7 -> 24         0.35539
       7 -> 25         0.15596
       8 -> 28        -0.12543
       9 -> 34        -0.14198
       9 -> 36        -0.15573

 Excited State  85:      Singlet-A"    17.9380 eV   69.12 nm  f=0.0006  <S**2>=0.000
       4 -> 12         0.69521

 Excited State  86:      Singlet-A'    17.9745 eV   68.98 nm  f=0.0211  <S**2>=0.000
       6 -> 23         0.47223
       8 -> 27        -0.14711
       8 -> 28         0.10614
       9 -> 36         0.46979

 Excited State  87:      Singlet-A'    18.2110 eV   68.08 nm  f=0.0450  <S**2>=0.000
       6 -> 23         0.38411
       6 -> 24        -0.23408
       7 -> 25        -0.38211
       8 -> 28        -0.12628
       9 -> 36        -0.32314

 Excited State  88:      Singlet-A"    18.2505 eV   67.93 nm  f=0.0045  <S**2>=0.000
       9 -> 37         0.69283

 Excited State  89:      Singlet-A'    18.3656 eV   67.51 nm  f=0.0069  <S**2>=0.000
       4 -> 13         0.14278
       6 -> 24        -0.38058
       6 -> 25         0.10672
       7 -> 25         0.43751
       8 -> 28         0.25998
       9 -> 36        -0.14526

 Excited State  90:      Singlet-A"    18.3735 eV   67.48 nm  f=0.0033  <S**2>=0.000
       5 -> 21        -0.11238
       8 -> 29         0.59085
       8 -> 30         0.31937

 Excited State  91:      Singlet-A'    18.4460 eV   67.21 nm  f=0.0689  <S**2>=0.000
       4 -> 13        -0.19208
       6 -> 24         0.10180
       7 -> 25        -0.18330
       8 -> 27         0.34188
       8 -> 28         0.48890

 Excited State  92:      Singlet-A"    18.4817 eV   67.08 nm  f=0.0332  <S**2>=0.000
       4 -> 14        -0.10262
       5 -> 21        -0.24449
       7 -> 27         0.12455
       8 -> 29        -0.31694
       8 -> 30         0.54096

 Excited State  93:      Singlet-A'    18.5742 eV   66.75 nm  f=0.0490  <S**2>=0.000
       4 -> 13         0.60269
       7 -> 24         0.17221
       7 -> 25        -0.13909
       8 -> 27         0.15147
       9 -> 36         0.11433

 Excited State  94:      Singlet-A"    18.6931 eV   66.33 nm  f=0.0105  <S**2>=0.000
       7 -> 26         0.68365

 Excited State  95:      Singlet-A'    18.7005 eV   66.30 nm  f=0.1754  <S**2>=0.000
       6 -> 23         0.22038
       6 -> 24         0.36424
       6 -> 25         0.19413
       7 -> 25         0.20920
       7 -> 30         0.12993
       8 -> 27         0.31568
       8 -> 28        -0.19435
       9 -> 36        -0.11288

 Excited State  96:      Singlet-A"    18.7805 eV   66.02 nm  f=0.0393  <S**2>=0.000
       4 -> 14        -0.14627
       5 -> 21         0.62996
       8 -> 30         0.20681

 Excited State  97:      Singlet-A'    18.9298 eV   65.50 nm  f=0.0906  <S**2>=0.000
       4 -> 13        -0.15540
       5 -> 22         0.41249
       6 -> 24        -0.26096
       6 -> 25        -0.12243
       7 -> 29        -0.16221
       8 -> 27         0.32182
       8 -> 28        -0.16347

 Excited State  98:      Singlet-A"    18.9362 eV   65.47 nm  f=0.0245  <S**2>=0.000
       4 -> 14         0.64365
       5 -> 23        -0.13332
       5 -> 24        -0.10025
       7 -> 26        -0.10999
       8 -> 30         0.14267

 Excited State  99:      Singlet-A'    19.0354 eV   65.13 nm  f=0.0916  <S**2>=0.000
       4 -> 15        -0.11943
       5 -> 22         0.55768
       6 -> 24         0.18901
       7 -> 29         0.10677
       8 -> 27        -0.19003
       8 -> 28         0.16470
       9 -> 36        -0.11805
       9 -> 38        -0.10884

 Excited State 100:      Singlet-A"    19.1834 eV   64.63 nm  f=0.0016  <S**2>=0.000
       4 -> 14         0.10856
       5 -> 23         0.68698

 Excited State 101:      Singlet-A"    19.2805 eV   64.31 nm  f=0.0083  <S**2>=0.000
       7 -> 27         0.33884
       7 -> 28         0.60791

 Excited State 102:      Singlet-A"    19.4004 eV   63.91 nm  f=0.0141  <S**2>=0.000
       7 -> 28        -0.12678
       8 -> 31         0.67322

 Excited State 103:      Singlet-A'    19.4284 eV   63.82 nm  f=0.0014  <S**2>=0.000
       4 -> 15        -0.34051
       8 -> 32         0.59670

 Excited State 104:      Singlet-A'    19.5070 eV   63.56 nm  f=0.0367  <S**2>=0.000
       4 -> 15         0.45445
       4 -> 16         0.37403
       7 -> 29         0.19462
       8 -> 32         0.27254
       9 -> 38        -0.12805

 Excited State 105:      Singlet-A'    19.5447 eV   63.44 nm  f=0.1170  <S**2>=0.000
       4 -> 16         0.19032
       6 -> 25         0.43840
       7 -> 29         0.16724
       7 -> 30        -0.24093
       8 -> 32        -0.11581
       9 -> 38         0.35939

 Excited State 106:      Singlet-A'    19.5749 eV   63.34 nm  f=0.0235  <S**2>=0.000
       7 -> 29         0.17413
       7 -> 30         0.57448
       9 -> 38         0.32949

 Excited State 107:      Singlet-A"    19.6035 eV   63.25 nm  f=0.0365  <S**2>=0.000
       4 -> 17         0.11396
       5 -> 24         0.20488
       6 -> 26         0.14769
       7 -> 27         0.49393
       7 -> 28        -0.28889
       8 -> 29         0.10271
       8 -> 31        -0.16191
       9 -> 39         0.11539

 Excited State 108:      Singlet-A'    19.6826 eV   62.99 nm  f=0.0512  <S**2>=0.000
       4 -> 15        -0.24254
       4 -> 16         0.51773
       7 -> 29        -0.29630
       7 -> 30         0.19478

 The electronic state is 1-A'.
 Alpha  occ. eigenvalues --  -13.84615  -9.79896  -0.78858  -0.58664  -0.44586
 Alpha  occ. eigenvalues --   -0.39967  -0.36219  -0.32341  -0.19863
 Alpha virt. eigenvalues --    0.00377   0.04038   0.06887   0.08554   0.10005
 Alpha virt. eigenvalues --    0.12609   0.12911   0.14979   0.17346   0.18593
 Alpha virt. eigenvalues --    0.19459   0.23888   0.25137   0.25905   0.27652

 Mulliken charges:
               1
     1  C    0.551628
     2  N   -0.288692
     3  H   -0.034536
     4  H   -0.126561
     5  H   -0.126561
     6  H    0.012361
     7  H    0.012361
 Sum of Mulliken charges =  -0.00000

 Dipole moment (field-independent basis, Debye):
    X=              1.2553    Y=              0.3315    Z=             -0.0000  Tot=              1.2983
 Quadrupole moment (field-independent basis, Debye-Ang):
   XX=            -15.3162   YY=            -14.5931   ZZ=            -12.8805
   XY=             -2.1356   XZ=              0.0000   YZ=             -0.0000

 Normal termination of Gaussian 16 at Mon Mar 21 19:58:07 2022.
