 Gaussian 16, Revision C.01,
 Gaussian 16:  EM64L-G16RevC.01  3-Jul-2019

 ---------------------------------------------------------------------
 #P TD(Nstates=10000) svwn5/Gen SCF(maxcycles=100) Int(Grid=ultrafine)
 ---------------------------------------------------------------------

 ---------------------
 xGDB7_00001_tier4.com
 ---------------------
 Symbolic Z-matrix:
 Charge =  0 Multiplicity = 1

                         Standard orientation:
 ---------------------------------------------------------------------
 Center     Atomic      Atomic             Coordinates (Angstroms)
 Number     Number       Type             X           Y           Z
 ---------------------------------------------------------------------
      1          7           0        1.106441    0.142513   -0.090982
      2          7           0       -0.080753   -0.512520    0.006066
      3          6           0       -1.148696    0.167456    0.008166
      4          1           0        1.854749   -0.409916    0.291533
      5          1           0        1.109676    1.100453    0.242713
      6          1           0       -2.089851   -0.366199    0.035249
      7          1           0       -1.162209    1.260974   -0.024080
 ---------------------------------------------------------------------

 SCF Done:  E(RS-VWN5) =  -148.603960110     A.U. after   13 cycles

 Excitation energies and oscillator strengths:

 Excited State   1:      Singlet-A      5.5509 eV  223.36 nm  f=0.0077  <S**2>=0.000
      11 -> 13         0.67871
      12 -> 13         0.18834
 This state for optimization and/or second-order correction.
 Total Energy, E(TD-HF/TD-DFT) =  -148.399966485
 Copying the excited state density for this state as the 1-particle RhoCI density.

 Excited State   2:      Singlet-A      5.7834 eV  214.38 nm  f=0.1421  <S**2>=0.000
      11 -> 13        -0.17875
      12 -> 13         0.60289
      12 -> 14         0.29485

 Excited State   3:      Singlet-A      6.1412 eV  201.89 nm  f=0.0498  <S**2>=0.000
      12 -> 13        -0.26895
      12 -> 14         0.63981

 Excited State   4:      Singlet-A      6.6802 eV  185.60 nm  f=0.0522  <S**2>=0.000
      11 -> 14         0.70158

 Excited State   5:      Singlet-A      6.9701 eV  177.88 nm  f=0.0263  <S**2>=0.000
      12 -> 15         0.70490

 Excited State   6:      Singlet-A      7.5005 eV  165.30 nm  f=0.0251  <S**2>=0.000
      11 -> 15         0.67365
      12 -> 16        -0.19472

 Excited State   7:      Singlet-A      7.5635 eV  163.92 nm  f=0.0195  <S**2>=0.000
      11 -> 15         0.18742
      12 -> 16         0.67608

 Excited State   8:      Singlet-A      8.1319 eV  152.47 nm  f=0.0955  <S**2>=0.000
      11 -> 16         0.69880

 Excited State   9:      Singlet-A      8.3143 eV  149.12 nm  f=0.0083  <S**2>=0.000
      12 -> 17         0.70081

 Excited State  10:      Singlet-A      8.6362 eV  143.56 nm  f=0.0079  <S**2>=0.000
      12 -> 18         0.69635

 Excited State  11:      Singlet-A      8.9044 eV  139.24 nm  f=0.0441  <S**2>=0.000
      11 -> 17         0.68749

 Excited State  12:      Singlet-A      9.0606 eV  136.84 nm  f=0.0074  <S**2>=0.000
       9 -> 13         0.48712
      10 -> 13        -0.26307
      12 -> 19        -0.40795

 Excited State  13:      Singlet-A      9.1465 eV  135.55 nm  f=0.0039  <S**2>=0.000
       9 -> 13         0.36537
      10 -> 13        -0.19379
      12 -> 19         0.56042

 Excited State  14:      Singlet-A      9.1636 eV  135.30 nm  f=0.0871  <S**2>=0.000
       9 -> 13        -0.10193
      11 -> 18         0.69429

 Excited State  15:      Singlet-A      9.6289 eV  128.76 nm  f=0.0214  <S**2>=0.000
      11 -> 19         0.69136

 Excited State  16:      Singlet-A      9.8965 eV  125.28 nm  f=0.0581  <S**2>=0.000
       9 -> 13         0.24425
       9 -> 14         0.10487
      10 -> 13         0.38702
      10 -> 14         0.45098
      12 -> 20         0.14890
      12 -> 21         0.13974

 Excited State  17:      Singlet-A     10.1428 eV  122.24 nm  f=0.0509  <S**2>=0.000
       9 -> 13        -0.16096
      10 -> 13        -0.28650
      10 -> 14         0.53048
      12 -> 20        -0.17842
      12 -> 21        -0.21666

 Excited State  18:      Singlet-A     10.2443 eV  121.03 nm  f=0.0300  <S**2>=0.000
       9 -> 14        -0.11786
      10 -> 13        -0.17477
      12 -> 21         0.64917

 Excited State  19:      Singlet-A     10.3274 eV  120.05 nm  f=0.0095  <S**2>=0.000
       9 -> 14        -0.26417
      10 -> 13        -0.12294
      11 -> 20         0.22131
      12 -> 20         0.56287

 Excited State  20:      Singlet-A     10.4377 eV  118.78 nm  f=0.0297  <S**2>=0.000
      11 -> 20         0.65623
      11 -> 21         0.10481
      12 -> 20        -0.20326

 Excited State  21:      Singlet-A     10.5543 eV  117.47 nm  f=0.0085  <S**2>=0.000
       9 -> 14         0.35933
      11 -> 21        -0.14515
      12 -> 20         0.12856
      12 -> 22         0.55809

 Excited State  22:      Singlet-A     10.6279 eV  116.66 nm  f=0.1513  <S**2>=0.000
       9 -> 14         0.48324
      10 -> 13        -0.12901
      11 -> 21        -0.15336
      12 -> 22        -0.42200

 Excited State  23:      Singlet-A     10.8039 eV  114.76 nm  f=0.0560  <S**2>=0.000
       9 -> 14         0.12926
      11 -> 21         0.64682
      11 -> 22        -0.13666
      12 -> 20         0.11683

 Excited State  24:      Singlet-A     10.9283 eV  113.45 nm  f=0.0001  <S**2>=0.000
      10 -> 15         0.69850

 Excited State  25:      Singlet-A     11.1053 eV  111.64 nm  f=0.0369  <S**2>=0.000
      11 -> 22         0.67033
      12 -> 23         0.16963

 Excited State  26:      Singlet-A     11.2914 eV  109.80 nm  f=0.0455  <S**2>=0.000
       9 -> 15        -0.14745
      11 -> 22        -0.12341
      12 -> 23         0.57713
      12 -> 24        -0.26995

 Excited State  27:      Singlet-A     11.3879 eV  108.87 nm  f=0.0284  <S**2>=0.000
       9 -> 15        -0.18473
      12 -> 23         0.20771
      12 -> 24         0.63624

 Excited State  28:      Singlet-A     11.4538 eV  108.25 nm  f=0.0531  <S**2>=0.000
       8 -> 13        -0.10057
       9 -> 15         0.65597
      12 -> 23         0.16905
      12 -> 24         0.11269

 Excited State  29:      Singlet-A     11.5156 eV  107.67 nm  f=0.0250  <S**2>=0.000
      10 -> 16         0.67333
      11 -> 23         0.16980

 Excited State  30:      Singlet-A     11.5825 eV  107.04 nm  f=0.0113  <S**2>=0.000
       8 -> 13        -0.20333
      10 -> 16        -0.12430
      11 -> 23         0.64351
      11 -> 24         0.10912

 Excited State  31:      Singlet-A     11.6360 eV  106.55 nm  f=0.0117  <S**2>=0.000
       8 -> 13         0.61507
      10 -> 16        -0.13133
      11 -> 23         0.19623
      12 -> 25         0.16115

 Excited State  32:      Singlet-A     11.9499 eV  103.75 nm  f=0.0960  <S**2>=0.000
       8 -> 13        -0.12282
      11 -> 24         0.14010
      12 -> 25         0.61018
      12 -> 26         0.22916

 Excited State  33:      Singlet-A     12.0443 eV  102.94 nm  f=0.0680  <S**2>=0.000
       7 -> 13        -0.33666
       9 -> 16         0.54215
      11 -> 24        -0.18348
      12 -> 26        -0.16806

 Excited State  34:      Singlet-A     12.0933 eV  102.52 nm  f=0.0284  <S**2>=0.000
       7 -> 13        -0.35115
      11 -> 24         0.50139
      11 -> 25         0.22513
      12 -> 25        -0.12775
      12 -> 26         0.15238

 Excited State  35:      Singlet-A     12.1325 eV  102.19 nm  f=0.0067  <S**2>=0.000
       7 -> 13         0.47792
       8 -> 13         0.10006
       9 -> 16         0.40326
      11 -> 24         0.16858
      11 -> 25         0.10318
      12 -> 25        -0.16360
      12 -> 26         0.10107

 Excited State  36:      Singlet-A     12.2186 eV  101.47 nm  f=0.0454  <S**2>=0.000
       7 -> 13        -0.11972
      10 -> 17         0.21974
      11 -> 24        -0.20182
      11 -> 25        -0.11853
      12 -> 25        -0.14629
      12 -> 26         0.57203

 Excited State  37:      Singlet-A     12.3278 eV  100.57 nm  f=0.0179  <S**2>=0.000
      10 -> 17         0.63181
      11 -> 25         0.14444
      12 -> 26        -0.13924
      12 -> 27         0.19124

 Excited State  38:      Singlet-A     12.5416 eV   98.86 nm  f=0.0374  <S**2>=0.000
      10 -> 17        -0.12562
      11 -> 25        -0.11660
      12 -> 26         0.11779
      12 -> 27         0.64309

 Excited State  39:      Singlet-A     12.6283 eV   98.18 nm  f=0.0093  <S**2>=0.000
       8 -> 14         0.18744
      10 -> 17        -0.12366
      10 -> 18        -0.14462
      11 -> 24        -0.19213
      11 -> 25         0.55318
      11 -> 26        -0.12100
      11 -> 27         0.11576

 Excited State  40:      Singlet-A     12.6334 eV   98.14 nm  f=0.0232  <S**2>=0.000
       8 -> 14         0.12693
      10 -> 18         0.65710
      11 -> 25         0.12225

 Excited State  41:      Singlet-A     12.7351 eV   97.36 nm  f=0.0191  <S**2>=0.000
       9 -> 17         0.11793
      11 -> 26         0.56826
      11 -> 27        -0.34087

 Excited State  42:      Singlet-A     12.8402 eV   96.56 nm  f=0.0183  <S**2>=0.000
       8 -> 14        -0.21990
       9 -> 17         0.59181
       9 -> 18         0.20538
      10 -> 18         0.10766
      11 -> 27         0.13424

 Excited State  43:      Singlet-A     12.9645 eV   95.63 nm  f=0.0107  <S**2>=0.000
       8 -> 14         0.57801
       9 -> 17         0.22798
      10 -> 19        -0.13779
      11 -> 24         0.11281
      11 -> 25        -0.16463

 Excited State  44:      Singlet-A     13.1008 eV   94.64 nm  f=0.0654  <S**2>=0.000
       6 -> 13         0.10659
       9 -> 17         0.12760
       9 -> 18        -0.25676
      10 -> 19         0.58336
      11 -> 27         0.15725

 Excited State  45:      Singlet-A     13.1879 eV   94.01 nm  f=0.0416  <S**2>=0.000
       8 -> 15        -0.13397
      10 -> 19        -0.15894
      11 -> 26         0.31471
      11 -> 27         0.54751

 Excited State  46:      Singlet-A     13.2024 eV   93.91 nm  f=0.0446  <S**2>=0.000
       8 -> 14         0.11603
       8 -> 15        -0.13672
       9 -> 18         0.57789
       9 -> 19         0.17087
      10 -> 19         0.25684

 Excited State  47:      Singlet-A     13.5880 eV   91.25 nm  f=0.0954  <S**2>=0.000
       7 -> 14         0.65025
       8 -> 15        -0.10815
       9 -> 19         0.18619

 Excited State  48:      Singlet-A     13.7121 eV   90.42 nm  f=0.1106  <S**2>=0.000
       7 -> 14        -0.11947
       8 -> 15         0.34723
       9 -> 19         0.55178
      12 -> 28         0.10098

 Excited State  49:      Singlet-A     13.8505 eV   89.52 nm  f=0.0516  <S**2>=0.000
       7 -> 14         0.12389
       8 -> 15         0.39559
       9 -> 18         0.10298
       9 -> 19        -0.24583
      10 -> 20        -0.30326
      12 -> 28         0.33537

 Excited State  50:      Singlet-A     13.9262 eV   89.03 nm  f=0.0126  <S**2>=0.000
       6 -> 13         0.10976
       8 -> 15        -0.20675
      10 -> 20         0.25449
      12 -> 28         0.58198

 Excited State  51:      Singlet-A     14.0554 eV   88.21 nm  f=0.0276  <S**2>=0.000
       8 -> 15         0.17875
       9 -> 19        -0.12337
      10 -> 20         0.39949
      12 -> 29         0.48147

 Excited State  52:      Singlet-A     14.1063 eV   87.89 nm  f=0.0170  <S**2>=0.000
       6 -> 13        -0.11339
       7 -> 16         0.11282
       8 -> 15        -0.18978
       9 -> 20         0.11266
      10 -> 20        -0.32092
      10 -> 21        -0.23503
      12 -> 29         0.46283

 Excited State  53:      Singlet-A     14.2143 eV   87.23 nm  f=0.0204  <S**2>=0.000
       8 -> 16        -0.15065
      10 -> 21         0.63671
      12 -> 29         0.16156

 Excited State  54:      Singlet-A     14.2589 eV   86.95 nm  f=0.0423  <S**2>=0.000
       6 -> 13        -0.17014
       8 -> 15        -0.10134
       8 -> 16         0.49313
      11 -> 28         0.10664
      12 -> 30         0.41051

 Excited State  55:      Singlet-A     14.3152 eV   86.61 nm  f=0.0187  <S**2>=0.000
       8 -> 16        -0.42063
      11 -> 28         0.13642
      12 -> 30         0.51174

 Excited State  56:      Singlet-A     14.3630 eV   86.32 nm  f=0.0068  <S**2>=0.000
       6 -> 13        -0.13840
       7 -> 15         0.20312
       9 -> 20         0.62444
      10 -> 20         0.10568

 Excited State  57:      Singlet-A     14.4459 eV   85.83 nm  f=0.0409  <S**2>=0.000
       7 -> 15         0.18614
      10 -> 22        -0.12403
      11 -> 28         0.64325
      12 -> 30        -0.14839

 Excited State  58:      Singlet-A     14.4690 eV   85.69 nm  f=0.0644  <S**2>=0.000
       6 -> 13         0.10656
       7 -> 15         0.61408
       9 -> 20        -0.16211
      10 -> 22         0.13383
      11 -> 28        -0.12851

 Excited State  59:      Singlet-A     14.4877 eV   85.58 nm  f=0.0701  <S**2>=0.000
       6 -> 13         0.47748
       9 -> 20         0.17685
       9 -> 21        -0.18088
       9 -> 22         0.13181
      10 -> 22        -0.22871
      11 -> 29         0.20554
      12 -> 30         0.15155

 Excited State  60:      Singlet-A     14.5936 eV   84.96 nm  f=0.0159  <S**2>=0.000
       9 -> 21        -0.13766
      10 -> 22         0.30439
      11 -> 29         0.58602

 Excited State  61:      Singlet-A     14.6488 eV   84.64 nm  f=0.0247  <S**2>=0.000
       6 -> 13         0.21947
       7 -> 16        -0.22170
      10 -> 22         0.50422
      11 -> 28         0.13578
      11 -> 29        -0.22864

 Excited State  62:      Singlet-A     14.7301 eV   84.17 nm  f=0.0315  <S**2>=0.000
       6 -> 13         0.15449
       7 -> 16         0.11400
       9 -> 21         0.61036
      11 -> 29         0.13731
      11 -> 30         0.17365

 Excited State  63:      Singlet-A     14.9017 eV   83.20 nm  f=0.0302  <S**2>=0.000
       8 -> 17        -0.24885
       9 -> 21        -0.13620
       9 -> 22         0.12737
      11 -> 30         0.60056

 Excited State  64:      Singlet-A     14.9925 eV   82.70 nm  f=0.0351  <S**2>=0.000
      12 -> 31         0.68632

 Excited State  65:      Singlet-A     15.0519 eV   82.37 nm  f=0.0718  <S**2>=0.000
       6 -> 14        -0.11062
       7 -> 16         0.12033
       8 -> 17         0.28945
       9 -> 22         0.57009
      10 -> 23         0.13276

 Excited State  66:      Singlet-A     15.1382 eV   81.90 nm  f=0.0776  <S**2>=0.000
       6 -> 14         0.14672
       7 -> 16        -0.16699
       9 -> 22        -0.13090
       9 -> 23        -0.10991
      10 -> 23         0.58359
      10 -> 24        -0.11881
      11 -> 30         0.11748

 Excited State  67:      Singlet-A     15.2201 eV   81.46 nm  f=0.1293  <S**2>=0.000
       6 -> 14         0.14849
       7 -> 16        -0.27413
       7 -> 17         0.14397
       8 -> 17         0.41601
       9 -> 22        -0.10384
       9 -> 23         0.11311
      10 -> 23        -0.19612
      11 -> 30         0.16123
      12 -> 32         0.23635

 Excited State  68:      Singlet-A     15.2643 eV   81.23 nm  f=0.1103  <S**2>=0.000
       6 -> 14        -0.24168
       7 -> 16         0.37244
       7 -> 18         0.10099
       8 -> 17         0.23244
       8 -> 18         0.29651
       9 -> 22        -0.22570
      12 -> 32         0.13370

 Excited State  69:      Singlet-A     15.3593 eV   80.72 nm  f=0.0561  <S**2>=0.000
       8 -> 17        -0.17200
       8 -> 18        -0.11986
      12 -> 32         0.61816
      12 -> 33         0.14554

 Excited State  70:      Singlet-A     15.3873 eV   80.58 nm  f=0.0349  <S**2>=0.000
       6 -> 14        -0.12969
       8 -> 18        -0.14609
      10 -> 24         0.58090
      11 -> 31         0.26571
      12 -> 33         0.12439

 Excited State  71:      Singlet-A     15.4564 eV   80.22 nm  f=0.0223  <S**2>=0.000
       6 -> 14         0.15676
       7 -> 17        -0.12032
       9 -> 23         0.26976
      11 -> 31        -0.32563
      12 -> 33         0.49744

 Excited State  72:      Singlet-A     15.4670 eV   80.16 nm  f=0.0354  <S**2>=0.000
       8 -> 18        -0.13975
       9 -> 23         0.25645
      10 -> 24        -0.33428
      11 -> 31         0.44341
      12 -> 33         0.24792

 Excited State  73:      Singlet-A     15.4950 eV   80.02 nm  f=0.0227  <S**2>=0.000
       6 -> 14         0.32436
       7 -> 17        -0.14174
       8 -> 18         0.33356
       9 -> 23         0.31274
      11 -> 31         0.22689
      12 -> 33        -0.24280

 Excited State  74:      Singlet-A     15.5368 eV   79.80 nm  f=0.0830  <S**2>=0.000
       6 -> 14        -0.17657
       7 -> 18         0.11431
       8 -> 18        -0.30309
       9 -> 22        -0.11024
       9 -> 23         0.40980
      11 -> 31        -0.22225
      12 -> 33        -0.27134

 Excited State  75:      Singlet-A     15.7354 eV   78.79 nm  f=0.0982  <S**2>=0.000
       6 -> 14         0.26762
       7 -> 16         0.12930
       8 -> 18        -0.24421
       9 -> 23        -0.11811
      11 -> 32         0.51733

 Excited State  76:      Singlet-A     15.7974 eV   78.48 nm  f=0.0038  <S**2>=0.000
       8 -> 19         0.66279
       9 -> 24        -0.18182

 Excited State  77:      Singlet-A     15.8548 eV   78.20 nm  f=0.0286  <S**2>=0.000
       8 -> 19         0.15602
       9 -> 24         0.56308
      10 -> 25        -0.30852
      11 -> 32        -0.10939
      12 -> 34         0.11265

 Excited State  78:      Singlet-A     15.8792 eV   78.08 nm  f=0.0578  <S**2>=0.000
       6 -> 14         0.13367
       7 -> 18         0.11585
       9 -> 24         0.28173
      10 -> 25         0.48159
      10 -> 26         0.13690
      11 -> 32        -0.13250
      11 -> 33         0.16126
      12 -> 34        -0.21237

 Excited State  79:      Singlet-A     15.9036 eV   77.96 nm  f=0.0021  <S**2>=0.000
       7 -> 17         0.14585
      11 -> 32        -0.12732
      11 -> 33         0.21305
      12 -> 34         0.60573

 Excited State  80:      Singlet-A     15.9330 eV   77.82 nm  f=0.0052  <S**2>=0.000
       6 -> 14         0.14379
       7 -> 18         0.15277
       9 -> 24        -0.16017
      10 -> 25        -0.23554
      10 -> 26        -0.16921
      11 -> 32        -0.29484
      11 -> 33         0.36881
      12 -> 34        -0.17553
      12 -> 35         0.16380

 Excited State  81:      Singlet-A     15.9593 eV   77.69 nm  f=0.1044  <S**2>=0.000
       6 -> 15         0.11806
       7 -> 17         0.56526
       7 -> 18         0.12189
       8 -> 18         0.11189
      10 -> 25        -0.10379
      11 -> 33         0.11826
      12 -> 34        -0.16498
      12 -> 36         0.12536

 Excited State  82:      Singlet-A     15.9927 eV   77.53 nm  f=0.0425  <S**2>=0.000
       6 -> 14        -0.14944
       6 -> 15         0.19107
       7 -> 16        -0.10844
       7 -> 17        -0.12092
       7 -> 18        -0.26822
       9 -> 25         0.10730
      11 -> 32         0.21009
      11 -> 33         0.47460

 Excited State  83:      Singlet-A     16.1238 eV   76.90 nm  f=0.0096  <S**2>=0.000
       7 -> 18        -0.13343
      10 -> 26         0.46510
      12 -> 35         0.48292

 Excited State  84:      Singlet-A     16.2328 eV   76.38 nm  f=0.0108  <S**2>=0.000
       9 -> 25         0.13856
      10 -> 25        -0.22028
      10 -> 26         0.37164
      10 -> 27        -0.26988
      12 -> 35        -0.36941
      12 -> 36        -0.16518

 Excited State  85:      Singlet-A     16.2630 eV   76.24 nm  f=0.0717  <S**2>=0.000
       6 -> 14        -0.13302
       6 -> 15        -0.14145
       6 -> 16        -0.14695
       7 -> 16        -0.17892
       7 -> 18         0.47027
       9 -> 25         0.22431
      11 -> 32         0.11193
      11 -> 35        -0.15367
      12 -> 35         0.15978

 Excited State  86:      Singlet-A     16.3473 eV   75.84 nm  f=0.0479  <S**2>=0.000
       6 -> 15         0.51957
       7 -> 19         0.31636
       9 -> 25         0.20094
       9 -> 26         0.14163
      11 -> 35         0.11880

 Excited State  87:      Singlet-A     16.3825 eV   75.68 nm  f=0.0890  <S**2>=0.000
       6 -> 15        -0.23002
       7 -> 17         0.12127
       7 -> 18        -0.14907
       7 -> 19         0.17114
       9 -> 25         0.43002
      10 -> 27         0.31146
      11 -> 34        -0.11004
      12 -> 36        -0.21776

 Excited State  88:      Singlet-A     16.4253 eV   75.48 nm  f=0.1256  <S**2>=0.000
       6 -> 15        -0.10857
       9 -> 25         0.25406
       9 -> 26         0.19738
      10 -> 27        -0.19041
      12 -> 36         0.54748

 Excited State  89:      Singlet-A     16.5351 eV   74.98 nm  f=0.0027  <S**2>=0.000
       7 -> 19        -0.29687
       8 -> 20        -0.10250
       9 -> 25         0.18917
       9 -> 26        -0.12774
      11 -> 34         0.36163
      11 -> 35         0.43183

 Excited State  90:      Singlet-A     16.5666 eV   74.84 nm  f=0.0140  <S**2>=0.000
       8 -> 20         0.49260
      10 -> 26         0.13265
      10 -> 27         0.25204
      11 -> 34         0.24950
      11 -> 35        -0.25064

 Excited State  91:      Singlet-A     16.6210 eV   74.59 nm  f=0.0722  <S**2>=0.000
       6 -> 15        -0.16394
       7 -> 19         0.44717
       8 -> 21        -0.13793
       9 -> 26        -0.27433
       9 -> 27         0.14292
      11 -> 34         0.24944

 Excited State  92:      Singlet-A     16.6517 eV   74.46 nm  f=0.0777  <S**2>=0.000
       6 -> 16        -0.10978
       8 -> 20        -0.23581
       8 -> 21        -0.11009
       9 -> 25        -0.17407
       9 -> 26         0.30883
      10 -> 25        -0.10014
      10 -> 26         0.16809
      10 -> 27         0.39170
      11 -> 36        -0.10609
      12 -> 35        -0.12897
      12 -> 36         0.13585

 Excited State  93:      Singlet-A     16.6908 eV   74.28 nm  f=0.0411  <S**2>=0.000
       6 -> 15        -0.15246
       6 -> 16         0.19821
       7 -> 19         0.11139
       8 -> 20         0.34593
       9 -> 25        -0.10717
       9 -> 26         0.28079

 The electronic state is 1-A.
 Alpha  occ. eigenvalues --  -13.90079 -13.89983  -9.80634  -0.91049  -0.72765
 Alpha  occ. eigenvalues --   -0.55470  -0.48647  -0.46031  -0.37697  -0.35973
 Alpha  occ. eigenvalues --   -0.23370  -0.21431
 Alpha virt. eigenvalues --   -0.04777   0.00671   0.04020   0.06165   0.08820
 Alpha virt. eigenvalues --    0.10163   0.11726   0.14932   0.16116   0.17372
 Alpha virt. eigenvalues --    0.19231   0.20421   0.22208   0.22807   0.24304

 Mulliken charges:
               1
     1  N    0.126215
     2  N   -0.241300
     3  C    0.575336
     4  H    0.022993
     5  H    0.029776
     6  H   -0.360699
     7  H   -0.152320
 Sum of Mulliken charges =  -0.00000

 Dipole moment (field-independent basis, Debye):
    X=              0.6402    Y=              1.5980    Z=              0.9725  Tot=              1.9772
 Quadrupole moment (field-independent basis, Debye-Ang):
   XX=            -15.0230   YY=            -18.9582   ZZ=            -20.8019
   XY=             -0.2307   XZ=              1.8072   YZ=              0.2739

 Normal termination of Gaussian 16 at Mon Mar 21 20:06:35 2022.
