 Gaussian 16, Revision C.01,
 Gaussian 16:  EM64L-G16RevC.01  3-Jul-2019

 ---------------------------------------------------------------------
 #P TD(Nstates=10000) svwn5/Gen SCF(maxcycles=100) Int(Grid=ultrafine)
 ---------------------------------------------------------------------

 ---------------------
 xGDB7_00001_tier4.com
 ---------------------
 Symbolic Z-matrix:
 Charge =  0 Multiplicity = 1

                         Standard orientation:
 ---------------------------------------------------------------------
 Center     Atomic      Atomic             Coordinates (Angstroms)
 Number     Number       Type             X           Y           Z
 ---------------------------------------------------------------------
      1          6           0        0.000000    0.000000    0.660866
      2          6           0        0.000000    0.000000   -0.660866
      3          1           0        0.000000    0.922586    1.229258
      4          1           0       -0.000000   -0.922586    1.229258
      5          1           0        0.000000    0.922586   -1.229258
      6          1           0       -0.000000   -0.922586   -1.229258
 ---------------------------------------------------------------------

 SCF Done:  E(RS-VWN5) =  -77.7701500476     A.U. after    9 cycles

 Excitation energies and oscillator strengths:

 Excited State   1:      Singlet-B1G    7.5329 eV  164.59 nm  f=0.0000  <S**2>=0.000
       7 ->  9         0.70480
 This state for optimization and/or second-order correction.
 Total Energy, E(TD-HF/TD-DFT) =  -77.4933203675
 Copying the excited state density for this state as the 1-particle RhoCI density.

 Excited State   2:      Singlet-B3U    7.5415 eV  164.40 nm  f=0.0686  <S**2>=0.000
       8 -> 10         0.70690

 Excited State   3:      Singlet-B1U    7.9281 eV  156.39 nm  f=0.3373  <S**2>=0.000
       8 ->  9         0.69366
       8 -> 20        -0.11868
       8 <-  9        -0.10666

 Excited State   4:      Singlet-B2G    8.2193 eV  150.85 nm  f=0.0000  <S**2>=0.000
       8 -> 11         0.70536

 Excited State   5:      Singlet-B1G    8.8871 eV  139.51 nm  f=0.0000  <S**2>=0.000
       8 -> 12         0.70477

 Excited State   6:      Singlet-B3G    9.0254 eV  137.37 nm  f=0.0000  <S**2>=0.000
       7 -> 10         0.70662

 Excited State   7:      Singlet-B2G    9.3970 eV  131.94 nm  f=0.0000  <S**2>=0.000
       6 ->  9         0.70435

 Excited State   8:      Singlet-B2U    9.7145 eV  127.63 nm  f=0.0952  <S**2>=0.000
       7 -> 11         0.70600

 Excited State   9:      Singlet-B3U    9.9729 eV  124.32 nm  f=0.0522  <S**2>=0.000
       8 -> 13         0.69948

 Excited State  10:      Singlet-AU    10.5260 eV  117.79 nm  f=0.0000  <S**2>=0.000
       5 ->  9        -0.45216
       8 -> 14         0.54344

 Excited State  11:      Singlet-B1U   10.5593 eV  117.42 nm  f=0.1812  <S**2>=0.000
       7 -> 12         0.69660

 Excited State  12:      Singlet-AU    10.6876 eV  116.01 nm  f=0.0000  <S**2>=0.000
       5 ->  9         0.54329
       8 -> 14         0.45211

 Excited State  13:      Singlet-B3U   10.9910 eV  112.80 nm  f=0.1635  <S**2>=0.000
       4 ->  9         0.12351
       8 -> 15         0.69011

 Excited State  14:      Singlet-AG    10.9986 eV  112.73 nm  f=0.0000  <S**2>=0.000
       6 -> 10         0.67976
       8 -> 16        -0.18181

 Excited State  15:      Singlet-B2U   11.3777 eV  108.97 nm  f=0.0858  <S**2>=0.000
       6 -> 12        -0.12189
       8 -> 17         0.68883

 Excited State  16:      Singlet-AG    11.4103 eV  108.66 nm  f=0.0000  <S**2>=0.000
       6 -> 10         0.15149
       7 -> 14         0.23820
       8 -> 16         0.63756

 Excited State  17:      Singlet-B3G   11.5336 eV  107.50 nm  f=0.0000  <S**2>=0.000
       7 -> 13         0.69691
       7 -> 15        -0.10308

 Excited State  18:      Singlet-B1U   11.5786 eV  107.08 nm  f=0.2455  <S**2>=0.000
       6 -> 11         0.70069

 Excited State  19:      Singlet-B2G   11.7394 eV  105.61 nm  f=0.0000  <S**2>=0.000
       8 -> 18         0.70396

 Excited State  20:      Singlet-B1G   12.0473 eV  102.91 nm  f=0.0000  <S**2>=0.000
       8 -> 19         0.70690

 Excited State  21:      Singlet-B2U   12.1666 eV  101.91 nm  f=0.0610  <S**2>=0.000
       5 -> 10         0.65457
       6 -> 12        -0.26247

 Excited State  22:      Singlet-B3G   12.3180 eV  100.65 nm  f=0.0000  <S**2>=0.000
       7 -> 15         0.69736

 Excited State  23:      Singlet-AG    12.3409 eV  100.47 nm  f=0.0000  <S**2>=0.000
       5 -> 12         0.20187
       7 -> 14         0.63620
       8 -> 16        -0.17469

 Excited State  24:      Singlet-B2U   12.3705 eV  100.23 nm  f=0.2005  <S**2>=0.000
       5 -> 10         0.24180
       6 -> 12         0.62673
       7 -> 18         0.17925
       8 -> 17         0.10031

 Excited State  25:      Singlet-AU    12.5299 eV   98.95 nm  f=0.0000  <S**2>=0.000
       7 -> 16         0.70682

 Excited State  26:      Singlet-B2G   12.7870 eV   96.96 nm  f=0.0000  <S**2>=0.000
       7 -> 17         0.69964

 Excited State  27:      Singlet-B3G   12.8287 eV   96.65 nm  f=0.0000  <S**2>=0.000
       5 -> 11         0.70521

 Excited State  28:      Singlet-AG    13.2944 eV   93.26 nm  f=0.0000  <S**2>=0.000
       5 -> 12         0.13682
       6 -> 13         0.69222

 Excited State  29:      Singlet-B2U   13.5376 eV   91.59 nm  f=0.3692  <S**2>=0.000
       5 -> 13         0.21639
       6 -> 12        -0.11035
       7 -> 18         0.64335

 Excited State  30:      Singlet-B2G   13.5566 eV   91.46 nm  f=0.0000  <S**2>=0.000
       8 -> 21         0.69782

 Excited State  31:      Singlet-B1U   13.6408 eV   90.89 nm  f=0.0669  <S**2>=0.000
       7 -> 19         0.27690
       8 -> 20         0.62500

 Excited State  32:      Singlet-B3G   13.6997 eV   90.50 nm  f=0.0000  <S**2>=0.000
       8 -> 22         0.70158

 Excited State  33:      Singlet-B3U   13.8040 eV   89.82 nm  f=0.0839  <S**2>=0.000
       4 ->  9         0.64265
       5 -> 17        -0.12403
       6 -> 16        -0.16937
       7 -> 22        -0.14576

 Excited State  34:      Singlet-AG    13.8191 eV   89.72 nm  f=0.0000  <S**2>=0.000
       5 -> 12         0.53593
       6 -> 13        -0.10865
       6 -> 15        -0.41678

 Excited State  35:      Singlet-B3G   13.9007 eV   89.19 nm  f=0.0000  <S**2>=0.000
       6 -> 14         0.70448

 Excited State  36:      Singlet-B1U   14.0040 eV   88.54 nm  f=0.3128  <S**2>=0.000
       4 -> 10        -0.21580
       7 -> 19         0.61063
       8 -> 20        -0.22177

 Excited State  37:      Singlet-B3U   14.5559 eV   85.18 nm  f=0.0949  <S**2>=0.000
       4 ->  9         0.12987
       6 -> 16         0.68152

 Excited State  38:      Singlet-B1G   14.5631 eV   85.14 nm  f=0.0000  <S**2>=0.000
       6 -> 17         0.64112
       7 -> 20        -0.29724

 Excited State  39:      Singlet-AG    14.6669 eV   84.53 nm  f=0.0000  <S**2>=0.000
       4 -> 11        -0.32315
       5 -> 12         0.29231
       6 -> 15         0.52110

 Excited State  40:      Singlet-B1G   14.7061 eV   84.31 nm  f=0.0000  <S**2>=0.000
       6 -> 17         0.29794
       7 -> 20         0.64060

 Excited State  41:      Singlet-B1U   14.7655 eV   83.97 nm  f=0.0001  <S**2>=0.000
       4 -> 10         0.56812
       5 -> 14         0.23503
       6 -> 18         0.31503
       7 -> 19         0.10898

 Excited State  42:      Singlet-B2U   14.8229 eV   83.64 nm  f=0.3133  <S**2>=0.000
       5 -> 13         0.62302
       6 -> 19         0.26686
       7 -> 18        -0.13928

 Excited State  43:      Singlet-B2U   15.0123 eV   82.59 nm  f=0.0003  <S**2>=0.000
       7 -> 21         0.70334

 Excited State  44:      Singlet-B3U   15.1803 eV   81.67 nm  f=0.0064  <S**2>=0.000
       7 -> 22         0.15302
       8 -> 23         0.68194

 Excited State  45:      Singlet-B1U   15.2163 eV   81.48 nm  f=0.0359  <S**2>=0.000
       4 -> 10        -0.16232
       5 -> 14        -0.35724
       6 -> 18         0.58279

 Excited State  46:      Singlet-B3U   15.2358 eV   81.38 nm  f=0.1948  <S**2>=0.000
       5 -> 17        -0.16897
       7 -> 22         0.65454
       8 -> 23        -0.17292

 Excited State  47:      Singlet-B2U   15.3939 eV   80.54 nm  f=0.0003  <S**2>=0.000
       5 -> 15         0.69279
       6 -> 19         0.13697

 Excited State  48:      Singlet-B1U   15.6780 eV   79.08 nm  f=0.0114  <S**2>=0.000
       4 -> 10        -0.27903
       5 -> 14         0.53189
       6 -> 18         0.22046
       6 -> 21         0.14134
       8 -> 20         0.16635

 Excited State  49:      Singlet-B1G   15.6802 eV   79.07 nm  f=0.0000  <S**2>=0.000
       5 -> 16         0.70445

 Excited State  50:      Singlet-AG    15.7043 eV   78.95 nm  f=0.0000  <S**2>=0.000
       4 -> 11         0.57564
       5 -> 12         0.19197
       6 -> 15         0.18404
       7 -> 30        -0.10161
       8 -> 25         0.20409

 Excited State  51:      Singlet-B2U   15.7763 eV   78.59 nm  f=0.2564  <S**2>=0.000
       5 -> 13        -0.21610
       5 -> 15        -0.11748
       6 -> 19         0.62422
       7 -> 18         0.12174

 Excited State  52:      Singlet-B1G   15.8024 eV   78.46 nm  f=0.0000  <S**2>=0.000
       8 -> 24         0.70418

 Excited State  53:      Singlet-AG    15.9006 eV   77.97 nm  f=0.0000  <S**2>=0.000
       4 -> 11        -0.18911
       5 -> 19         0.11704
       8 -> 25         0.66170

 Excited State  54:      Singlet-B3G   15.9675 eV   77.65 nm  f=0.0000  <S**2>=0.000
       4 -> 12         0.68919
       7 -> 23         0.13589

 Excited State  55:      Singlet-B2G   16.0920 eV   77.05 nm  f=0.0000  <S**2>=0.000
       8 -> 26         0.70369

 Excited State  56:      Singlet-B3U   16.1482 eV   76.78 nm  f=0.4033  <S**2>=0.000
       4 ->  9         0.13491
       5 -> 17         0.65261
       7 -> 22         0.12628
       8 -> 28        -0.15809

 Excited State  57:      Singlet-B3G   16.3571 eV   75.80 nm  f=0.0000  <S**2>=0.000
       5 -> 18         0.59714
       7 -> 23        -0.37397

 Excited State  58:      Singlet-AU    16.3743 eV   75.72 nm  f=0.0000  <S**2>=0.000
       8 -> 27         0.70610

 Excited State  59:      Singlet-B2G   16.5350 eV   74.98 nm  f=0.0000  <S**2>=0.000
       6 -> 20         0.70641

 Excited State  60:      Singlet-AG    16.8795 eV   73.45 nm  f=0.0000  <S**2>=0.000
       5 -> 19         0.68476
       8 -> 25        -0.11458

 Excited State  61:      Singlet-B3G   16.8943 eV   73.39 nm  f=0.0000  <S**2>=0.000
       4 -> 12        -0.14320
       5 -> 18         0.35926
       7 -> 23         0.57947

 Excited State  62:      Singlet-B1U   16.9926 eV   72.96 nm  f=0.0632  <S**2>=0.000
       4 -> 13        -0.36609
       6 -> 21         0.52565
       7 -> 24         0.26788

 Excited State  63:      Singlet-AU    17.0001 eV   72.93 nm  f=0.0000  <S**2>=0.000
       6 -> 22         0.70479

 Excited State  64:      Singlet-B1U   17.1016 eV   72.50 nm  f=0.2107  <S**2>=0.000
       4 -> 13         0.59928
       6 -> 21         0.32429
       7 -> 24         0.13175

 Excited State  65:      Singlet-AU    17.3544 eV   71.44 nm  f=0.0000  <S**2>=0.000
       7 -> 25         0.70550

 Excited State  66:      Singlet-B2U   17.5947 eV   70.47 nm  f=0.0059  <S**2>=0.000
       4 -> 14        -0.41622
       7 -> 26         0.56221

 Excited State  67:      Singlet-B1U   17.6114 eV   70.40 nm  f=0.1427  <S**2>=0.000
       4 -> 15        -0.31648
       6 -> 21        -0.25569
       7 -> 24         0.55202
       7 -> 29         0.12441

 Excited State  68:      Singlet-B3U   17.6233 eV   70.35 nm  f=0.1857  <S**2>=0.000
       5 -> 17         0.10941
       6 -> 25        -0.10178
       8 -> 28         0.66973
       8 -> 32         0.12161

 Excited State  69:      Singlet-B2U   17.8383 eV   69.50 nm  f=0.1148  <S**2>=0.000
       4 -> 14         0.56310
       7 -> 26         0.41696

 Excited State  70:      Singlet-AU    17.8457 eV   69.48 nm  f=0.0000  <S**2>=0.000
       5 -> 20         0.69874

 Excited State  71:      Singlet-AG    17.8532 eV   69.45 nm  f=0.0000  <S**2>=0.000
       7 -> 27         0.69193

 Excited State  72:      Singlet-B1G   17.9889 eV   68.92 nm  f=0.0000  <S**2>=0.000
       8 -> 29         0.70643

 Excited State  73:      Singlet-B2G   18.0085 eV   68.85 nm  f=0.0000  <S**2>=0.000
       3 ->  9         0.56340
       4 -> 16         0.30349
       5 -> 22        -0.26558
       8 -> 35         0.11193

 Excited State  74:      Singlet-B1U   18.0122 eV   68.83 nm  f=0.2546  <S**2>=0.000
       4 -> 15         0.62181
       7 -> 24         0.28175

 Excited State  75:      Singlet-AU    18.1184 eV   68.43 nm  f=0.0000  <S**2>=0.000
       4 -> 17         0.16077
       8 -> 30         0.68809

 Excited State  76:      Singlet-B3G   18.1369 eV   68.36 nm  f=0.0000  <S**2>=0.000
       5 -> 21         0.70293

 Excited State  77:      Singlet-B2G   18.1935 eV   68.15 nm  f=0.0000  <S**2>=0.000
       3 ->  9        -0.15240
       4 -> 16         0.59706
       5 -> 22         0.33862

 Excited State  78:      Singlet-B2G   18.3552 eV   67.55 nm  f=0.0000  <S**2>=0.000
       3 ->  9        -0.15675
       4 -> 16         0.15434
       5 -> 22        -0.27401
       8 -> 31         0.60732

 Excited State  79:      Singlet-AU    18.3824 eV   67.45 nm  f=0.0000  <S**2>=0.000
       4 -> 17         0.68200
       8 -> 30        -0.16022

 Excited State  80:      Singlet-B2G   18.4268 eV   67.28 nm  f=0.0000  <S**2>=0.000
       3 ->  9         0.30212
       4 -> 16        -0.16078
       5 -> 22         0.48461
       8 -> 31         0.35709
       8 -> 35         0.11410

 Excited State  81:      Singlet-B3U   18.4642 eV   67.15 nm  f=0.0729  <S**2>=0.000
       6 -> 25         0.10051
       8 -> 32         0.68869

 Excited State  82:      Singlet-B2U   18.4710 eV   67.12 nm  f=0.0390  <S**2>=0.000
       6 -> 24         0.14139
       8 -> 33         0.68137

 Excited State  83:      Singlet-AG    18.5433 eV   66.86 nm  f=0.0000  <S**2>=0.000
       3 -> 10         0.10305
       4 -> 18        -0.31777
       6 -> 23         0.61826

 Excited State  84:      Singlet-B3G   18.7999 eV   65.95 nm  f=0.0000  <S**2>=0.000
       7 -> 28         0.70492

 Excited State  85:      Singlet-AG    18.9860 eV   65.30 nm  f=0.0000  <S**2>=0.000
       3 -> 10         0.41484
       4 -> 18         0.53168
       6 -> 23         0.19722

 Excited State  86:      Singlet-B1U   19.0565 eV   65.06 nm  f=0.0136  <S**2>=0.000
       8 -> 34         0.70124

 Excited State  87:      Singlet-B2U   19.3036 eV   64.23 nm  f=0.0254  <S**2>=0.000
       5 -> 23         0.12766
       6 -> 24         0.63228
       7 -> 31         0.25745

 Excited State  88:      Singlet-AG    19.3289 eV   64.14 nm  f=0.0000  <S**2>=0.000
       3 -> 10         0.50943
       4 -> 18        -0.28426
       6 -> 23        -0.19529
       7 -> 30        -0.33180

 Excited State  89:      Singlet-B3G   19.3413 eV   64.10 nm  f=0.0000  <S**2>=0.000
       4 -> 19         0.67553
       6 -> 27         0.12557
       7 -> 32         0.13484

 Excited State  90:      Singlet-B3U   19.3903 eV   63.94 nm  f=0.2835  <S**2>=0.000
       4 -> 20        -0.14227
       6 -> 25         0.67505

 Excited State  91:      Singlet-B1U   19.5385 eV   63.46 nm  f=0.0577  <S**2>=0.000
       3 -> 11         0.15236
       6 -> 26         0.68182

 Excited State  92:      Singlet-B3G   19.6650 eV   63.05 nm  f=0.0000  <S**2>=0.000
       4 -> 19        -0.11391
       6 -> 27         0.69271

 Excited State  93:      Singlet-B2U   19.7711 eV   62.71 nm  f=0.0339  <S**2>=0.000
       5 -> 23         0.62422
       7 -> 31        -0.31461

 Excited State  94:      Singlet-B1U   19.7960 eV   62.63 nm  f=0.1417  <S**2>=0.000
       3 -> 11        -0.45637
       6 -> 26         0.13312
       7 -> 29         0.49831

 Excited State  95:      Singlet-B2G   19.8252 eV   62.54 nm  f=0.0000  <S**2>=0.000
       7 -> 33         0.69596
       8 -> 35        -0.11661

 Excited State  96:      Singlet-B3G   19.9862 eV   62.03 nm  f=0.0000  <S**2>=0.000
       4 -> 19        -0.12389
       7 -> 32         0.68666

 Excited State  97:      Singlet-B1U   20.0508 eV   61.84 nm  f=0.0158  <S**2>=0.000
       3 -> 11         0.49717
       6 -> 31         0.10191
       7 -> 29         0.44868

 Excited State  98:      Singlet-AG    20.0674 eV   61.78 nm  f=0.0000  <S**2>=0.000
       3 -> 10         0.19683
       4 -> 18        -0.13666
       5 -> 24        -0.34567
       6 -> 23        -0.13857
       7 -> 30         0.51807

 Excited State  99:      Singlet-B1G   20.4489 eV   60.63 nm  f=0.0000  <S**2>=0.000
       5 -> 25         0.69096
       7 -> 34         0.14646

 Excited State 100:      Singlet-B3U   20.4854 eV   60.52 nm  f=0.0001  <S**2>=0.000
       4 -> 20         0.68574
       6 -> 25         0.11882

 Excited State 101:      Singlet-B2U   20.5075 eV   60.46 nm  f=0.3818  <S**2>=0.000
       3 -> 12        -0.38517
       5 -> 23         0.26335
       6 -> 24        -0.15083
       6 -> 29        -0.20144
       7 -> 31         0.42337
       7 -> 35         0.12726

 Excited State 102:      Singlet-AG    20.5234 eV   60.41 nm  f=0.0000  <S**2>=0.000
       4 -> 21         0.59456
       5 -> 24         0.35844

 Excited State 103:      Singlet-B1G   20.5492 eV   60.34 nm  f=0.0000  <S**2>=0.000
       5 -> 25        -0.14682
       7 -> 34         0.69093

 Excited State 104:      Singlet-B2G   20.6006 eV   60.18 nm  f=0.0000  <S**2>=0.000
       3 ->  9        -0.15522
       7 -> 33         0.10275
       8 -> 35         0.65801
       8 -> 36         0.12406

 Excited State 105:      Singlet-AG    20.6722 eV   59.98 nm  f=0.0000  <S**2>=0.000
       6 -> 28         0.70221

 Excited State 106:      Singlet-B1G   20.7780 eV   59.67 nm  f=0.0000  <S**2>=0.000
       4 -> 22         0.70514

 Excited State 107:      Singlet-B3G   20.7834 eV   59.66 nm  f=0.0000  <S**2>=0.000
       5 -> 26         0.70137

 Excited State 108:      Singlet-B2U   20.9290 eV   59.24 nm  f=0.0113  <S**2>=0.000
       3 -> 12         0.52764
       6 -> 24        -0.12776
       6 -> 29        -0.34409
       7 -> 31         0.22261

 Excited State 109:      Singlet-B1U   20.9910 eV   59.07 nm  f=0.0573  <S**2>=0.000
       5 -> 27         0.69694

 Excited State 110:      Singlet-AG    21.2064 eV   58.47 nm  f=0.0000  <S**2>=0.000
       3 -> 13        -0.14135
       4 -> 21        -0.31100
       4 -> 26         0.11920
       5 -> 24         0.40512
       6 -> 32         0.34911
       7 -> 30         0.21081

 Excited State 111:      Singlet-B3G   21.5087 eV   57.64 nm  f=0.0000  <S**2>=0.000
       6 -> 30         0.70184

 Excited State 112:      Singlet-B2U   21.5761 eV   57.46 nm  f=0.0214  <S**2>=0.000
       3 -> 12         0.16512
       5 -> 28        -0.23308
       5 -> 32         0.10083
       6 -> 29         0.39948
       7 -> 31         0.11615
       7 -> 35         0.47018

 Excited State 113:      Singlet-AG    21.6656 eV   57.23 nm  f=0.0000  <S**2>=0.000
       3 -> 13         0.68483
       6 -> 32         0.12649

 Excited State 114:      Singlet-B1G   21.7199 eV   57.08 nm  f=0.0000  <S**2>=0.000
       6 -> 33         0.70616

 Excited State 115:      Singlet-B2U   21.7730 eV   56.94 nm  f=0.1681  <S**2>=0.000
       5 -> 28         0.14666
       5 -> 32        -0.20938
       6 -> 29        -0.36003
       7 -> 31        -0.17526
       7 -> 35         0.49217

 Excited State 116:      Singlet-B1U   21.9134 eV   56.58 nm  f=0.1642  <S**2>=0.000
       4 -> 23        -0.34662
       6 -> 31         0.60029
       6 -> 35        -0.10750

 Excited State 117:      Singlet-B2U   22.0189 eV   56.31 nm  f=0.0323  <S**2>=0.000
       5 -> 28         0.63835
       5 -> 32         0.18986
       6 -> 29         0.15553

 Excited State 118:      Singlet-AG    22.0869 eV   56.13 nm  f=0.0000  <S**2>=0.000
       3 -> 15        -0.20221
       4 -> 21         0.14451
       4 -> 26        -0.19015
       5 -> 24        -0.18408
       6 -> 32         0.56442
       7 -> 30        -0.12610

 Excited State 119:      Singlet-B3G   22.2342 eV   55.76 nm  f=0.0000  <S**2>=0.000
       3 -> 14        -0.48037
       8 -> 37         0.51400

 Excited State 120:      Singlet-B2G   22.2788 eV   55.65 nm  f=0.0000  <S**2>=0.000
       8 -> 36         0.68968

 Excited State 121:      Singlet-B3G   22.3900 eV   55.37 nm  f=0.0000  <S**2>=0.000
       3 -> 14         0.49126
       5 -> 31         0.21532
       8 -> 37         0.45362

 Excited State 122:      Singlet-B2G   22.3989 eV   55.35 nm  f=0.0000  <S**2>=0.000
       6 -> 34         0.70485

 Excited State 123:      Singlet-B1U   22.5338 eV   55.02 nm  f=0.0042  <S**2>=0.000
       3 -> 18        -0.13377
       4 -> 23         0.51901
       5 -> 30         0.35669
       6 -> 31         0.23830
       6 -> 35        -0.14562

 Excited State 124:      Singlet-AG    22.6775 eV   54.67 nm  f=0.0000  <S**2>=0.000
       3 -> 15         0.66413
       5 -> 29        -0.12156
       6 -> 32         0.14340

 Excited State 125:      Singlet-AG    22.8060 eV   54.36 nm  f=0.0000  <S**2>=0.000
       3 -> 15         0.10560
       5 -> 29         0.68176

 Excited State 126:      Singlet-B3U   22.8941 eV   54.16 nm  f=0.0543  <S**2>=0.000
       3 -> 16         0.60895
       5 -> 33        -0.35725

 Excited State 127:      Singlet-AU    22.9568 eV   54.01 nm  f=0.0000  <S**2>=0.000
       8 -> 38         0.70560

 Excited State 128:      Singlet-B3G   22.9712 eV   53.97 nm  f=0.0000  <S**2>=0.000
       4 -> 24         0.66784
       5 -> 31         0.19502

 Excited State 129:      Singlet-B1G   22.9804 eV   53.95 nm  f=0.0000  <S**2>=0.000
       3 -> 17         0.70619

 Excited State 130:      Singlet-B1U   23.0867 eV   53.70 nm  f=0.0798  <S**2>=0.000
       3 -> 18         0.25031
       4 -> 23        -0.18802
       5 -> 30         0.54386
       6 -> 35         0.28634

 Excited State 131:      Singlet-B2G   23.1110 eV   53.65 nm  f=0.0000  <S**2>=0.000
       4 -> 25         0.69425

 Excited State 132:      Singlet-B3U   23.1750 eV   53.50 nm  f=0.0074  <S**2>=0.000
       3 -> 16         0.33799
       5 -> 33         0.58964
       7 -> 37         0.15239

 Excited State 133:      Singlet-B2U   23.4236 eV   52.93 nm  f=0.0135  <S**2>=0.000
       4 -> 27         0.68665
       7 -> 36         0.14280

 Excited State 134:      Singlet-B3G   23.4662 eV   52.84 nm  f=0.0000  <S**2>=0.000
       3 -> 14        -0.11444
       4 -> 24        -0.18826
       4 -> 29        -0.13250
       5 -> 31         0.62416
       8 -> 37        -0.14375

 Excited State 135:      Singlet-B1U   23.4822 eV   52.80 nm  f=0.0381  <S**2>=0.000
       3 -> 18         0.63676
       4 -> 23         0.12958
       5 -> 30        -0.10105
       6 -> 35        -0.23612

 Excited State 136:      Singlet-B2U   23.5826 eV   52.57 nm  f=0.1365  <S**2>=0.000
       3 -> 19        -0.21496
       5 -> 32        -0.26982
       7 -> 36         0.58842

 Excited State 137:      Singlet-AG    23.6337 eV   52.46 nm  f=0.0000  <S**2>=0.000
       4 -> 26         0.62703
       7 -> 38         0.15226

 The electronic state is 1-AG.
 Alpha  occ. eigenvalues --   -9.78841  -9.78795  -0.68202  -0.51455  -0.42442
 Alpha  occ. eigenvalues --   -0.37787  -0.31011  -0.25613
 Alpha virt. eigenvalues --   -0.04244   0.02048   0.04494   0.06840   0.10890
 Alpha virt. eigenvalues --    0.13307   0.14159   0.15312   0.15833   0.17505
 Alpha virt. eigenvalues --    0.18773   0.23177   0.23962   0.24855   0.29960

 Mulliken charges:
               1
     1  C    0.175880
     2  C    0.175880
     3  H   -0.087940
     4  H   -0.087940
     5  H   -0.087940
     6  H   -0.087940
 Sum of Mulliken charges =  -0.00000

 Dipole moment (field-independent basis, Debye):
    X=              0.0000    Y=             -0.0000    Z=              0.0000  Tot=              0.0000
 Quadrupole moment (field-independent basis, Debye-Ang):
   XX=            -15.5088   YY=            -12.5296   ZZ=            -12.5347
   XY=              0.0000   XZ=             -0.0000   YZ=             -0.0000

 Normal termination of Gaussian 16 at Mon Mar 21 19:55:10 2022.
