 Gaussian 16, Revision C.01,
 Gaussian 16:  EM64L-G16RevC.01  3-Jul-2019

 ---------------------------------------------------------------------
 #P TD(Nstates=10000) svwn5/Gen SCF(maxcycles=100) Int(Grid=ultrafine)
 ---------------------------------------------------------------------

 ---------------------
 xGDB7_00001_tier4.com
 ---------------------
 Symbolic Z-matrix:
 Charge =  0 Multiplicity = 1

                         Standard orientation:
 ---------------------------------------------------------------------
 Center     Atomic      Atomic             Coordinates (Angstroms)
 Number     Number       Type             X           Y           Z
 ---------------------------------------------------------------------
      1          6           0        0.630149   -0.000001   -0.000003
      2          9           0       -0.748512    0.000002    0.000001
      3          1           0        0.985250    0.897475   -0.509314
      4          1           0        0.985222   -0.889832   -0.522562
      5          1           0        0.985245   -0.007652    1.031883
 ---------------------------------------------------------------------

 SCF Done:  E(RS-VWN5) =  -138.620969809     A.U. after   11 cycles

 Excitation energies and oscillator strengths:

 Excited State   1:      Singlet-A      8.4459 eV  146.80 nm  f=0.0215  <S**2>=0.000
       9 -> 10         0.70377
 This state for optimization and/or second-order correction.
 Total Energy, E(TD-HF/TD-DFT) =  -138.310587721
 Copying the excited state density for this state as the 1-particle RhoCI density.

 Excited State   2:      Singlet-A      8.4460 eV  146.80 nm  f=0.0215  <S**2>=0.000
       8 -> 10         0.70377

 Excited State   3:      Singlet-A      9.1324 eV  135.76 nm  f=0.0135  <S**2>=0.000
       9 -> 11         0.70297

 Excited State   4:      Singlet-A      9.1324 eV  135.76 nm  f=0.0135  <S**2>=0.000
       8 -> 11         0.70297

 Excited State   5:      Singlet-A     10.3588 eV  119.69 nm  f=0.0000  <S**2>=0.000
       8 -> 12         0.15654
       8 -> 13        -0.47433
       9 -> 12         0.47532
       9 -> 13         0.15669

 Excited State   6:      Singlet-A     10.3911 eV  119.32 nm  f=0.0319  <S**2>=0.000
       8 -> 12        -0.39984
       8 -> 13        -0.29335
       9 -> 12        -0.29293
       9 -> 13         0.40002

 Excited State   7:      Singlet-A     10.3911 eV  119.32 nm  f=0.0319  <S**2>=0.000
       8 -> 12        -0.29328
       8 -> 13         0.40035
       9 -> 12         0.39950
       9 -> 13         0.29300

 Excited State   8:      Singlet-A     10.6155 eV  116.80 nm  f=0.1058  <S**2>=0.000
       8 -> 12         0.46406
       8 -> 13         0.15306
       9 -> 12        -0.15304
       9 -> 13         0.46402

 Excited State   9:      Singlet-A     11.5367 eV  107.47 nm  f=0.0000  <S**2>=0.000
       8 -> 14        -0.49961
       9 -> 15         0.49966

 Excited State  10:      Singlet-A     11.7016 eV  105.95 nm  f=0.0066  <S**2>=0.000
       8 -> 15         0.48252
       9 -> 14         0.49012

 Excited State  11:      Singlet-A     11.7048 eV  105.93 nm  f=0.0003  <S**2>=0.000
       8 -> 15         0.30877
       9 -> 14        -0.29682
       9 -> 16         0.55734

 Excited State  12:      Singlet-A     11.7049 eV  105.93 nm  f=0.0003  <S**2>=0.000
       8 -> 14         0.30275
       8 -> 16         0.55748
       9 -> 15         0.30270

 Excited State  13:      Singlet-A     11.8402 eV  104.71 nm  f=0.0503  <S**2>=0.000
       6 -> 10         0.17097
       8 -> 14        -0.37667
       8 -> 16         0.40735
       9 -> 15        -0.37663

 Excited State  14:      Singlet-A     11.8402 eV  104.71 nm  f=0.0503  <S**2>=0.000
       7 -> 10         0.17100
       8 -> 15        -0.37668
       9 -> 14         0.37650
       9 -> 16         0.40746

 Excited State  15:      Singlet-A     12.2022 eV  101.61 nm  f=0.1669  <S**2>=0.000
       7 -> 10         0.67595
       7 -> 11         0.10715
       9 -> 16        -0.12952

 Excited State  16:      Singlet-A     12.2023 eV  101.61 nm  f=0.1669  <S**2>=0.000
       6 -> 10         0.67595
       6 -> 11         0.10715
       8 -> 16        -0.12948

 Excited State  17:      Singlet-A     12.5807 eV   98.55 nm  f=0.0003  <S**2>=0.000
       8 -> 18         0.47267
       9 -> 17         0.51071

 Excited State  18:      Singlet-A     12.5807 eV   98.55 nm  f=0.0003  <S**2>=0.000
       8 -> 17        -0.49198
       9 -> 18         0.49213

 Excited State  19:      Singlet-A     12.5818 eV   98.54 nm  f=0.0000  <S**2>=0.000
       8 -> 18         0.51834
       9 -> 17        -0.48013

 Excited State  20:      Singlet-A     12.7052 eV   97.59 nm  f=0.0013  <S**2>=0.000
       5 -> 10         0.63701
       5 -> 11         0.22090
       8 -> 17         0.13611
       9 -> 18         0.13611

 Excited State  21:      Singlet-A     12.9191 eV   95.97 nm  f=0.0084  <S**2>=0.000
       7 -> 11         0.68910

 Excited State  22:      Singlet-A     12.9192 eV   95.97 nm  f=0.0084  <S**2>=0.000
       6 -> 11         0.68910

 Excited State  23:      Singlet-A     12.9344 eV   95.86 nm  f=0.0010  <S**2>=0.000
       5 -> 10        -0.24974
       5 -> 11         0.28828
       8 -> 17         0.39487
       9 -> 18         0.39483

 Excited State  24:      Singlet-A     13.9327 eV   88.99 nm  f=0.4174  <S**2>=0.000
       5 -> 10        -0.10252
       5 -> 11         0.57007
       5 -> 16         0.15184
       5 -> 19        -0.11785
       8 -> 17        -0.20468
       9 -> 18        -0.20467

 Excited State  25:      Singlet-A     14.0376 eV   88.32 nm  f=0.0000  <S**2>=0.000
       6 -> 12         0.25165
       6 -> 13        -0.43175
       7 -> 12         0.43221
       7 -> 13         0.25181

 Excited State  26:      Singlet-A     14.1170 eV   87.83 nm  f=0.0306  <S**2>=0.000
       6 -> 12         0.42533
       7 -> 13        -0.42532
       9 -> 19        -0.33273

 Excited State  27:      Singlet-A     14.1170 eV   87.83 nm  f=0.0306  <S**2>=0.000
       6 -> 13         0.42556
       7 -> 12         0.42520
       8 -> 19        -0.33258

 Excited State  28:      Singlet-A     14.1845 eV   87.41 nm  f=0.0238  <S**2>=0.000
       6 -> 12         0.22910
       7 -> 13        -0.22909
       9 -> 19         0.60982

 Excited State  29:      Singlet-A     14.1846 eV   87.41 nm  f=0.0238  <S**2>=0.000
       6 -> 13         0.22908
       7 -> 12         0.22890
       8 -> 19         0.60990

 Excited State  30:      Singlet-A     14.5226 eV   85.37 nm  f=0.0395  <S**2>=0.000
       5 -> 12         0.69534

 Excited State  31:      Singlet-A     14.5227 eV   85.37 nm  f=0.0395  <S**2>=0.000
       5 -> 13         0.69534

 Excited State  32:      Singlet-A     14.8289 eV   83.61 nm  f=0.0094  <S**2>=0.000
       6 -> 12         0.38961
       6 -> 13         0.22705
       7 -> 12        -0.22703
       7 -> 13         0.38958

 Excited State  33:      Singlet-A     15.1736 eV   81.71 nm  f=0.0127  <S**2>=0.000
       6 -> 15         0.12961
       7 -> 14        -0.12963
       7 -> 16        -0.10996
       9 -> 20         0.66239

 Excited State  34:      Singlet-A     15.1736 eV   81.71 nm  f=0.0127  <S**2>=0.000
       6 -> 14         0.12965
       6 -> 16        -0.10991
       7 -> 15         0.12965
       8 -> 20         0.66238

 Excited State  35:      Singlet-A     15.2418 eV   81.35 nm  f=0.0000  <S**2>=0.000
       6 -> 14        -0.48637
       6 -> 15         0.11406
       7 -> 14         0.11405
       7 -> 15         0.48643

 Excited State  36:      Singlet-A     15.3486 eV   80.78 nm  f=0.0144  <S**2>=0.000
       5 -> 16         0.17133
       6 -> 14         0.10798
       6 -> 15         0.46034
       7 -> 14         0.46057
       7 -> 15        -0.10796

 Excited State  37:      Singlet-A     15.4134 eV   80.44 nm  f=0.0087  <S**2>=0.000
       6 -> 15         0.18573
       7 -> 14        -0.18544
       7 -> 16         0.64366

 Excited State  38:      Singlet-A     15.4135 eV   80.44 nm  f=0.0087  <S**2>=0.000
       6 -> 14         0.18548
       6 -> 16         0.64373
       7 -> 15         0.18545

 Excited State  39:      Singlet-A     15.7065 eV   78.94 nm  f=0.1902  <S**2>=0.000
       5 -> 14         0.52586
       6 -> 15        -0.25495
       7 -> 14         0.25485
       7 -> 16         0.13802
       8 -> 21        -0.11107
       9 -> 22         0.11105

 Excited State  40:      Singlet-A     15.7065 eV   78.94 nm  f=0.1903  <S**2>=0.000
       5 -> 15         0.52571
       6 -> 14        -0.25502
       6 -> 16         0.13795
       7 -> 15        -0.25497
       8 -> 22        -0.11114
       9 -> 21        -0.11116

 Excited State  41:      Singlet-A     15.7616 eV   78.66 nm  f=0.0801  <S**2>=0.000
       5 -> 14         0.17561
       5 -> 15         0.41136
       6 -> 14         0.18939
       6 -> 15         0.12870
       6 -> 16        -0.16818
       7 -> 14        -0.12864
       7 -> 15         0.18935
       8 -> 20        -0.11314
       8 -> 22         0.24954
       9 -> 21         0.24961

 Excited State  42:      Singlet-A     15.7616 eV   78.66 nm  f=0.0801  <S**2>=0.000
       5 -> 14         0.41119
       5 -> 15        -0.17567
       6 -> 14        -0.12866
       6 -> 15         0.18945
       7 -> 14        -0.18938
       7 -> 15        -0.12865
       7 -> 16        -0.16827
       8 -> 21         0.24962
       9 -> 20        -0.11315
       9 -> 22        -0.24965

 Excited State  43:      Singlet-A     15.9645 eV   77.66 nm  f=0.0000  <S**2>=0.000
       8 -> 21         0.28478
       8 -> 22        -0.41046
       9 -> 21         0.41116
       9 -> 22         0.28507

 Excited State  44:      Singlet-A     15.9896 eV   77.54 nm  f=0.1005  <S**2>=0.000
       6 -> 14         0.15828
       6 -> 15        -0.11917
       6 -> 18        -0.10052
       7 -> 14         0.11915
       7 -> 15         0.15827
       7 -> 17        -0.10054
       8 -> 21         0.39691
       9 -> 22        -0.39665

 Excited State  45:      Singlet-A     15.9896 eV   77.54 nm  f=0.1005  <S**2>=0.000
       6 -> 14        -0.11918
       6 -> 15        -0.15828
       6 -> 17         0.10054
       7 -> 14         0.15825
       7 -> 15        -0.11916
       7 -> 18        -0.10053
       8 -> 22         0.39711
       9 -> 21         0.39648

 Excited State  46:      Singlet-A     16.0148 eV   77.42 nm  f=0.0754  <S**2>=0.000
       5 -> 16         0.46801
       6 -> 17        -0.14267
       7 -> 18        -0.14268
       8 -> 21         0.26409
       8 -> 22         0.18320
       9 -> 21        -0.18311
       9 -> 22         0.26406

 Excited State  47:      Singlet-A     16.1870 eV   76.60 nm  f=0.2596  <S**2>=0.000
       4 -> 10        -0.11611
       5 -> 16         0.38200
       5 -> 19         0.14263
       6 -> 17        -0.13775
       7 -> 18        -0.13771
       8 -> 21        -0.29356
       8 -> 22        -0.20364
       9 -> 21         0.20356
       9 -> 22        -0.29354

 Excited State  48:      Singlet-A     16.2619 eV   76.24 nm  f=0.0000  <S**2>=0.000
       6 -> 17         0.11769
       6 -> 18        -0.48422
       7 -> 17         0.48711
       7 -> 18         0.11796

 Excited State  49:      Singlet-A     16.2803 eV   76.16 nm  f=0.0586  <S**2>=0.000
       6 -> 18         0.47350
       7 -> 17         0.47055

 Excited State  50:      Singlet-A     16.2803 eV   76.16 nm  f=0.0586  <S**2>=0.000
       6 -> 17        -0.47200
       7 -> 18         0.47204

 Excited State  51:      Singlet-A     16.3482 eV   75.84 nm  f=0.0001  <S**2>=0.000
       9 -> 23         0.68917

 Excited State  52:      Singlet-A     16.3483 eV   75.84 nm  f=0.0001  <S**2>=0.000
       8 -> 23         0.68918

 Excited State  53:      Singlet-A     16.5379 eV   74.97 nm  f=0.0662  <S**2>=0.000
       5 -> 16         0.23175
       5 -> 19         0.15017
       6 -> 17         0.42836
       6 -> 18         0.10393
       7 -> 17        -0.10390
       7 -> 18         0.42833

 Excited State  54:      Singlet-A     16.7225 eV   74.14 nm  f=0.0106  <S**2>=0.000
       5 -> 17         0.69701

 Excited State  55:      Singlet-A     16.7225 eV   74.14 nm  f=0.0106  <S**2>=0.000
       5 -> 18         0.69701

 Excited State  56:      Singlet-A     17.0113 eV   72.88 nm  f=0.0079  <S**2>=0.000
       9 -> 24         0.70283

 Excited State  57:      Singlet-A     17.0114 eV   72.88 nm  f=0.0079  <S**2>=0.000
       8 -> 24         0.70283

 Excited State  58:      Singlet-A     17.1904 eV   72.12 nm  f=0.0000  <S**2>=0.000
       8 -> 25         0.48549
       8 -> 26        -0.11579
       9 -> 25         0.11583
       9 -> 26         0.48551

 Excited State  59:      Singlet-A     17.3590 eV   71.42 nm  f=0.0176  <S**2>=0.000
       7 -> 19        -0.11672
       8 -> 25         0.23372
       8 -> 26         0.40460
       9 -> 25         0.41611
       9 -> 26        -0.23650

 Excited State  60:      Singlet-A     17.3590 eV   71.42 nm  f=0.0176  <S**2>=0.000
       6 -> 19         0.11672
       8 -> 25         0.41105
       8 -> 26        -0.23252
       9 -> 25        -0.23767
       9 -> 26        -0.40977

 Excited State  61:      Singlet-A     17.3609 eV   71.42 nm  f=0.0112  <S**2>=0.000
       4 -> 10         0.32821
       4 -> 11         0.17199
       5 -> 19         0.13249
       8 -> 26         0.40048
       9 -> 25        -0.38538

 Excited State  62:      Singlet-A     17.6686 eV   70.17 nm  f=0.0123  <S**2>=0.000
       4 -> 10         0.56558
       5 -> 19         0.14942
       5 -> 20         0.10462
       8 -> 26        -0.22711
       9 -> 25         0.22708

 Excited State  63:      Singlet-A     17.8622 eV   69.41 nm  f=0.0009  <S**2>=0.000
       7 -> 19         0.68833

 Excited State  64:      Singlet-A     17.8622 eV   69.41 nm  f=0.0009  <S**2>=0.000
       6 -> 19         0.68833

 Excited State  65:      Singlet-A     18.2949 eV   67.77 nm  f=0.0773  <S**2>=0.000
       4 -> 11         0.62091
       8 -> 27         0.14788
       9 -> 28        -0.14787

 Excited State  66:      Singlet-A     18.5808 eV   66.73 nm  f=0.0000  <S**2>=0.000
       8 -> 27        -0.20769
       8 -> 28         0.45380
       9 -> 27         0.45436
       9 -> 28         0.20767

 Excited State  67:      Singlet-A     18.6547 eV   66.46 nm  f=0.0490  <S**2>=0.000
       7 -> 20        -0.25194
       8 -> 27         0.38583
       8 -> 28         0.25791
       9 -> 27        -0.25773
       9 -> 28         0.38618

 Excited State  68:      Singlet-A     18.6547 eV   66.46 nm  f=0.0490  <S**2>=0.000
       6 -> 20         0.25190
       8 -> 27        -0.25822
       8 -> 28         0.38607
       9 -> 27        -0.38595
       9 -> 28        -0.25744

 Excited State  69:      Singlet-A     18.6737 eV   66.40 nm  f=0.0952  <S**2>=0.000
       4 -> 11         0.15065
       5 -> 19         0.25876
       5 -> 20         0.11333
       8 -> 27        -0.39035
       8 -> 28        -0.17893
       9 -> 27        -0.17823
       9 -> 28         0.39055

 Excited State  70:      Singlet-A     18.8695 eV   65.71 nm  f=0.0153  <S**2>=0.000
       4 -> 13         0.13608
       7 -> 20         0.58256
       8 -> 27         0.13389
       9 -> 28         0.13390
       9 -> 29         0.25685

 Excited State  71:      Singlet-A     18.8695 eV   65.71 nm  f=0.0153  <S**2>=0.000
       4 -> 12         0.13611
       6 -> 20         0.58260
       8 -> 28        -0.13395
       8 -> 29         0.25677
       9 -> 27         0.13381

 Excited State  72:      Singlet-A     18.9604 eV   65.39 nm  f=0.0507  <S**2>=0.000
       7 -> 20        -0.22532
       9 -> 29         0.64977

 Excited State  73:      Singlet-A     18.9605 eV   65.39 nm  f=0.0506  <S**2>=0.000
       6 -> 20        -0.22526
       8 -> 29         0.64981

 Excited State  74:      Singlet-A     19.2615 eV   64.37 nm  f=0.0003  <S**2>=0.000
       4 -> 10        -0.10526
       5 -> 19         0.19513
       5 -> 20         0.60555
       6 -> 26         0.10097
       7 -> 25        -0.10099
       8 -> 27         0.10615
       9 -> 28        -0.10616

 Excited State  75:      Singlet-A     19.5313 eV   63.48 nm  f=0.0172  <S**2>=0.000
       4 -> 12         0.63915
       6 -> 20        -0.12361
       6 -> 23         0.13080

 Excited State  76:      Singlet-A     19.5313 eV   63.48 nm  f=0.0172  <S**2>=0.000
       4 -> 13         0.63914
       7 -> 20        -0.12358
       7 -> 23         0.13082

 Excited State  77:      Singlet-A     19.6236 eV   63.18 nm  f=0.0000  <S**2>=0.000
       4 -> 13        -0.10597
       6 -> 21        -0.48197
       7 -> 22         0.48270

 Excited State  78:      Singlet-A     19.6236 eV   63.18 nm  f=0.0000  <S**2>=0.000
       4 -> 12         0.10594
       6 -> 22         0.48169
       7 -> 21         0.48299

 Excited State  79:      Singlet-A     19.6436 eV   63.12 nm  f=0.0000  <S**2>=0.000
       6 -> 21         0.36441
       6 -> 22        -0.34349
       7 -> 21         0.34201
       7 -> 22         0.36355

 Excited State  80:      Singlet-A     19.6825 eV   62.99 nm  f=0.0003  <S**2>=0.000
       4 -> 11        -0.12671
       5 -> 19         0.25850
       5 -> 20        -0.21991
       6 -> 21         0.25906
       6 -> 22         0.27519
       6 -> 26         0.11672
       7 -> 21        -0.27487
       7 -> 22         0.25891
       7 -> 25        -0.11670

 Excited State  81:      Singlet-A     19.8726 eV   62.39 nm  f=0.0889  <S**2>=0.000
       5 -> 19         0.37236
       5 -> 20        -0.18465
       6 -> 21        -0.19729
       6 -> 22        -0.20955
       7 -> 21         0.20938
       7 -> 22        -0.19721
       8 -> 31        -0.19813
       9 -> 32        -0.19813

 Excited State  82:      Singlet-A     19.9981 eV   62.00 nm  f=0.0030  <S**2>=0.000
       7 -> 23         0.25132
       9 -> 30         0.65340

 Excited State  83:      Singlet-A     19.9981 eV   62.00 nm  f=0.0030  <S**2>=0.000
       6 -> 23         0.25129
       8 -> 30         0.65341

 Excited State  84:      Singlet-A     20.1079 eV   61.66 nm  f=0.0484  <S**2>=0.000
       5 -> 21         0.67684
       5 -> 22         0.11056

 Excited State  85:      Singlet-A     20.1080 eV   61.66 nm  f=0.0485  <S**2>=0.000
       5 -> 21        -0.11054
       5 -> 22         0.67683

 Excited State  86:      Singlet-A     20.1490 eV   61.53 nm  f=0.0853  <S**2>=0.000
       4 -> 13        -0.12370
       7 -> 23         0.62327
       9 -> 30        -0.24992

 Excited State  87:      Singlet-A     20.1490 eV   61.53 nm  f=0.0853  <S**2>=0.000
       4 -> 12        -0.12368
       6 -> 23         0.62330
       8 -> 30        -0.24990

 Excited State  88:      Singlet-A     20.5087 eV   60.45 nm  f=0.0335  <S**2>=0.000
       4 -> 16         0.36154
       5 -> 23         0.60235

 Excited State  89:      Singlet-A     20.6091 eV   60.16 nm  f=0.0002  <S**2>=0.000
       4 -> 14         0.57630
       4 -> 15         0.16397
       6 -> 24         0.30688
       7 -> 24        -0.17078

 Excited State  90:      Singlet-A     20.6091 eV   60.16 nm  f=0.0002  <S**2>=0.000
       4 -> 14        -0.16404
       4 -> 15         0.57620
       6 -> 24        -0.17070
       7 -> 24        -0.30708

 Excited State  91:      Singlet-A     20.7252 eV   59.82 nm  f=0.0016  <S**2>=0.000
       4 -> 15         0.31708
       7 -> 24         0.60577

 Excited State  92:      Singlet-A     20.7253 eV   59.82 nm  f=0.0016  <S**2>=0.000
       4 -> 14        -0.31686
       6 -> 24         0.60590

 Excited State  93:      Singlet-A     20.8768 eV   59.39 nm  f=0.0000  <S**2>=0.000
       6 -> 25         0.49652
       7 -> 26         0.49656

 Excited State  94:      Singlet-A     20.8843 eV   59.37 nm  f=0.0287  <S**2>=0.000
       4 -> 16         0.56167
       4 -> 19         0.13193
       5 -> 23        -0.31053
       6 -> 26        -0.13129
       7 -> 25         0.13132

 Excited State  95:      Singlet-A     21.0771 eV   58.82 nm  f=0.0000  <S**2>=0.000
       5 -> 24        -0.13086
       8 -> 31         0.17507
       8 -> 32        -0.45844
       9 -> 31         0.45946
       9 -> 32         0.17512

 Excited State  96:      Singlet-A     21.0988 eV   58.76 nm  f=0.0200  <S**2>=0.000
       5 -> 25         0.13539
       6 -> 25         0.22099
       6 -> 26         0.13681
       7 -> 25         0.13683
       7 -> 26        -0.22097
       8 -> 31         0.40040
       9 -> 32        -0.40030

 Excited State  97:      Singlet-A     21.0988 eV   58.76 nm  f=0.0200  <S**2>=0.000
       5 -> 26        -0.13535
       6 -> 25        -0.13680
       6 -> 26         0.22096
       7 -> 25         0.22098
       7 -> 26         0.13680
       8 -> 32         0.40089
       9 -> 31         0.39985

 Excited State  98:      Singlet-A     21.1880 eV   58.52 nm  f=0.0000  <S**2>=0.000
       5 -> 24         0.69105

 Excited State  99:      Singlet-A     21.3127 eV   58.17 nm  f=0.0306  <S**2>=0.000
       4 -> 14         0.10304
       5 -> 25         0.45418
       6 -> 25         0.15856
       6 -> 26         0.21427
       7 -> 25         0.21442
       7 -> 26        -0.15856
       8 -> 31        -0.24096
       9 -> 32         0.24095

 Excited State 100:      Singlet-A     21.3128 eV   58.17 nm  f=0.0306  <S**2>=0.000
       4 -> 15        -0.10303
       5 -> 26         0.45418
       6 -> 25         0.21437
       6 -> 26        -0.15855
       7 -> 25        -0.15863
       7 -> 26        -0.21434
       8 -> 32         0.24097
       9 -> 31         0.24089

 Excited State 101:      Singlet-A     21.4579 eV   57.78 nm  f=0.0014  <S**2>=0.000
       4 -> 16         0.12271
       5 -> 23        -0.10757
       6 -> 26         0.38540
       6 -> 27        -0.24199
       7 -> 25        -0.38538
       7 -> 28         0.24198

 Excited State 102:      Singlet-A     21.4912 eV   57.69 nm  f=0.1598  <S**2>=0.000
       4 -> 17         0.36249
       5 -> 26         0.43358
       6 -> 25        -0.22451
       6 -> 26         0.12511
       7 -> 25         0.12507
       7 -> 26         0.22449

 Excited State 103:      Singlet-A     21.4912 eV   57.69 nm  f=0.1599  <S**2>=0.000
       4 -> 18        -0.36221
       5 -> 25         0.43367
       6 -> 25        -0.12512
       6 -> 26        -0.22465

 The electronic state is 1-A.
 Alpha  occ. eigenvalues --  -24.09185  -9.85840  -1.07470  -0.62635  -0.45209
 Alpha  occ. eigenvalues --   -0.43595  -0.43594  -0.30077  -0.30077
 Alpha virt. eigenvalues --    0.00795   0.02690   0.07976   0.07976   0.12452
 Alpha virt. eigenvalues --    0.12453   0.13029   0.16220   0.16220   0.21428
 Alpha virt. eigenvalues --    0.25331   0.28590   0.28590   0.30027   0.32723

 Mulliken charges:
               1
     1  C    0.598215
     2  F   -0.426950
     3  H   -0.057077
     4  H   -0.057093
     5  H   -0.057095
 Sum of Mulliken charges =  -0.00000

 Dipole moment (field-independent basis, Debye):
    X=              1.8024    Y=             -0.0000    Z=              0.0000  Tot=              1.8024
 Quadrupole moment (field-independent basis, Debye-Ang):
   XX=            -12.8411   YY=            -12.1178   ZZ=            -12.1179
   XY=              0.0000   XZ=              0.0000   YZ=              0.0000

 Normal termination of Gaussian 16 at Mon Mar 21 20:06:02 2022.
