 Gaussian 16, Revision C.01,
 Gaussian 16:  EM64L-G16RevC.01  3-Jul-2019

 ---------------------------------------------------------------------
 #P TD(Nstates=10000) svwn5/Gen SCF(maxcycles=100) Int(Grid=ultrafine)
 ---------------------------------------------------------------------

 ---------------------
 xGDB7_00001_tier4.com
 ---------------------
 Symbolic Z-matrix:
 Charge =  0 Multiplicity = 1

                         Standard orientation:
 ---------------------------------------------------------------------
 Center     Atomic      Atomic             Coordinates (Angstroms)
 Number     Number       Type             X           Y           Z
 ---------------------------------------------------------------------
      1          6           0       -1.240791   -0.237624   -0.027525
      2          6           0        0.048946    0.559205    0.053709
      3          7           0        1.202342   -0.317606   -0.116703
      4          1           0       -2.109817    0.415828    0.064703
      5          1           0       -1.292929   -0.976209    0.776809
      6          1           0       -1.300329   -0.769884   -0.977746
      7          1           0        0.066306    1.122818    0.997967
      8          1           0        0.069957    1.296574   -0.752592
      9          1           0        1.236408   -1.003082    0.627159
     10          1           0        2.065080    0.207710   -0.076483
 ---------------------------------------------------------------------

 SCF Done:  E(RS-VWN5) =  -133.861645360     A.U. after   13 cycles

 Excitation energies and oscillator strengths:

 Excited State   1:      Singlet-A      5.5303 eV  224.19 nm  f=0.0105  <S**2>=0.000
      13 -> 14         0.70624
 This state for optimization and/or second-order correction.
 Total Energy, E(TD-HF/TD-DFT) =  -133.658411808
 Copying the excited state density for this state as the 1-particle RhoCI density.

 Excited State   2:      Singlet-A      6.3694 eV  194.66 nm  f=0.0039  <S**2>=0.000
      13 -> 15         0.70232

 Excited State   3:      Singlet-A      6.6553 eV  186.29 nm  f=0.0275  <S**2>=0.000
      13 -> 16         0.70258

 Excited State   4:      Singlet-A      7.2516 eV  170.97 nm  f=0.0709  <S**2>=0.000
      13 -> 17         0.70508

 Excited State   5:      Singlet-A      7.6460 eV  162.16 nm  f=0.0219  <S**2>=0.000
      13 -> 18         0.70365

 Excited State   6:      Singlet-A      8.1082 eV  152.91 nm  f=0.0098  <S**2>=0.000
      13 -> 19         0.70283

 Excited State   7:      Singlet-A      8.3424 eV  148.62 nm  f=0.0031  <S**2>=0.000
      12 -> 14         0.69921

 Excited State   8:      Singlet-A      8.4000 eV  147.60 nm  f=0.0025  <S**2>=0.000
      13 -> 20         0.69837

 Excited State   9:      Singlet-A      8.5835 eV  144.45 nm  f=0.0175  <S**2>=0.000
      13 -> 21         0.69429

 Excited State  10:      Singlet-A      8.9282 eV  138.87 nm  f=0.0072  <S**2>=0.000
      11 -> 14         0.70212

 Excited State  11:      Singlet-A      9.0449 eV  137.08 nm  f=0.0590  <S**2>=0.000
      10 -> 14         0.70411

 Excited State  12:      Singlet-A      9.1730 eV  135.16 nm  f=0.0191  <S**2>=0.000
      12 -> 15         0.54290
      13 -> 22        -0.44874

 Excited State  13:      Singlet-A      9.1982 eV  134.79 nm  f=0.0151  <S**2>=0.000
      12 -> 15         0.44506
      13 -> 22         0.52614

 Excited State  14:      Singlet-A      9.3707 eV  132.31 nm  f=0.0009  <S**2>=0.000
      13 -> 23         0.69730

 Excited State  15:      Singlet-A      9.4967 eV  130.56 nm  f=0.0928  <S**2>=0.000
      12 -> 16         0.68627
      13 -> 24         0.14180

 Excited State  16:      Singlet-A      9.5175 eV  130.27 nm  f=0.0090  <S**2>=0.000
      12 -> 16        -0.14546
      13 -> 24         0.68367

 Excited State  17:      Singlet-A      9.7543 eV  127.11 nm  f=0.0709  <S**2>=0.000
      11 -> 15         0.70090

 Excited State  18:      Singlet-A      9.9089 eV  125.12 nm  f=0.0081  <S**2>=0.000
      10 -> 15         0.69324

 Excited State  19:      Singlet-A      9.9922 eV  124.08 nm  f=0.0163  <S**2>=0.000
      11 -> 16         0.63027
      12 -> 17         0.23652
      13 -> 25        -0.18519

 Excited State  20:      Singlet-A     10.0678 eV  123.15 nm  f=0.0368  <S**2>=0.000
      11 -> 16         0.14358
      12 -> 17         0.17504
      13 -> 25         0.63741
      13 -> 26        -0.10591
      13 -> 27        -0.12409

 Excited State  21:      Singlet-A     10.1267 eV  122.43 nm  f=0.0506  <S**2>=0.000
      11 -> 16        -0.27300
      12 -> 17         0.62312
      13 -> 25        -0.10565

 Excited State  22:      Singlet-A     10.1721 eV  121.89 nm  f=0.0031  <S**2>=0.000
      10 -> 16         0.68570
      12 -> 17         0.11083

 Excited State  23:      Singlet-A     10.4155 eV  119.04 nm  f=0.0038  <S**2>=0.000
       9 -> 14        -0.15723
      12 -> 18         0.13761
      13 -> 26         0.62327
      13 -> 27        -0.21160

 Excited State  24:      Singlet-A     10.4807 eV  118.30 nm  f=0.0465  <S**2>=0.000
      12 -> 18         0.66992
      13 -> 26        -0.17216

 Excited State  25:      Singlet-A     10.5586 eV  117.43 nm  f=0.0180  <S**2>=0.000
       9 -> 14         0.64426
      11 -> 17         0.15159
      13 -> 27        -0.17486

 Excited State  26:      Singlet-A     10.6054 eV  116.91 nm  f=0.0458  <S**2>=0.000
       9 -> 14        -0.19346
      10 -> 17        -0.10833
      11 -> 17         0.63202
      13 -> 27        -0.20826

 Excited State  27:      Singlet-A     10.7282 eV  115.57 nm  f=0.0356  <S**2>=0.000
      10 -> 17         0.64695
      13 -> 27        -0.22415

 Excited State  28:      Singlet-A     10.7874 eV  114.93 nm  f=0.0819  <S**2>=0.000
      10 -> 17         0.22314
      11 -> 17         0.23091
      12 -> 19        -0.20800
      13 -> 25         0.11256
      13 -> 26         0.16719
      13 -> 27         0.51932

 Excited State  29:      Singlet-A     11.0046 eV  112.67 nm  f=0.0342  <S**2>=0.000
      12 -> 19         0.65105
      12 -> 20         0.11956
      13 -> 27         0.14289

 Excited State  30:      Singlet-A     11.0506 eV  112.20 nm  f=0.0070  <S**2>=0.000
      11 -> 18         0.69120

 Excited State  31:      Singlet-A     11.1599 eV  111.10 nm  f=0.0695  <S**2>=0.000
      10 -> 18         0.63033
      12 -> 20         0.25130

 Excited State  32:      Singlet-A     11.2587 eV  110.12 nm  f=0.0389  <S**2>=0.000
       9 -> 15        -0.11108
      10 -> 18        -0.24936
      12 -> 20         0.58705
      12 -> 21         0.13378
      13 -> 28         0.17509

 Excited State  33:      Singlet-A     11.2869 eV  109.85 nm  f=0.0117  <S**2>=0.000
       9 -> 15         0.32478
      12 -> 20        -0.11864
      13 -> 28         0.59344

 Excited State  34:      Singlet-A     11.3772 eV  108.98 nm  f=0.0405  <S**2>=0.000
       9 -> 15         0.44902
      12 -> 21         0.49965
      13 -> 28        -0.15582

 Excited State  35:      Singlet-A     11.4231 eV  108.54 nm  f=0.0612  <S**2>=0.000
       8 -> 14        -0.12136
       9 -> 15        -0.38775
      11 -> 19        -0.22383
      12 -> 20        -0.16505
      12 -> 21         0.42027
      13 -> 28         0.20688

 Excited State  36:      Singlet-A     11.5168 eV  107.65 nm  f=0.0342  <S**2>=0.000
       8 -> 14        -0.17715
       9 -> 16        -0.15480
      10 -> 19         0.14448
      11 -> 19         0.61362
      12 -> 21         0.10992

 Excited State  37:      Singlet-A     11.6364 eV  106.55 nm  f=0.0348  <S**2>=0.000
       8 -> 14         0.56403
       9 -> 15        -0.11423
       9 -> 16         0.25325
      11 -> 19         0.14088
      11 -> 20        -0.12604
      13 -> 29         0.11313

 Excited State  38:      Singlet-A     11.6772 eV  106.18 nm  f=0.0173  <S**2>=0.000
       8 -> 14        -0.20594
       9 -> 16         0.34724
      10 -> 19         0.53035
      11 -> 19        -0.10493
      11 -> 20        -0.11167

 Excited State  39:      Singlet-A     11.6969 eV  106.00 nm  f=0.0675  <S**2>=0.000
       8 -> 14        -0.21854
       9 -> 16         0.47725
      10 -> 19        -0.38346
      11 -> 19         0.12025
      11 -> 20        -0.14766

 Excited State  40:      Singlet-A     11.7757 eV  105.29 nm  f=0.0167  <S**2>=0.000
       9 -> 16         0.15796
      10 -> 20         0.12252
      11 -> 20         0.62952
      11 -> 21        -0.13587
      13 -> 29         0.14425

 Excited State  41:      Singlet-A     11.7868 eV  105.19 nm  f=0.1207  <S**2>=0.000
      11 -> 20        -0.13214
      13 -> 29         0.65216

 Excited State  42:      Singlet-A     11.9585 eV  103.68 nm  f=0.0693  <S**2>=0.000
      10 -> 20         0.59797
      11 -> 21         0.14530
      12 -> 22         0.27272

 Excited State  43:      Singlet-A     12.0313 eV  103.05 nm  f=0.0411  <S**2>=0.000
      10 -> 21         0.37718
      11 -> 21         0.40220
      12 -> 22        -0.38047

 Excited State  44:      Singlet-A     12.0700 eV  102.72 nm  f=0.0083  <S**2>=0.000
       7 -> 14        -0.10323
       9 -> 17        -0.18378
      10 -> 20        -0.24180
      10 -> 21         0.12621
      11 -> 21         0.31538
      12 -> 22         0.44110
      12 -> 23         0.17274

 Excited State  45:      Singlet-A     12.0865 eV  102.58 nm  f=0.0575  <S**2>=0.000
      10 -> 21         0.55932
      11 -> 21        -0.33895
      12 -> 22         0.14849

 Excited State  46:      Singlet-A     12.2209 eV  101.45 nm  f=0.0107  <S**2>=0.000
       7 -> 14         0.41011
      12 -> 22        -0.11003
      12 -> 23         0.54635

 Excited State  47:      Singlet-A     12.2578 eV  101.15 nm  f=0.0714  <S**2>=0.000
       7 -> 14         0.45791
       9 -> 17        -0.26412
      12 -> 23        -0.31672
      12 -> 24         0.27267
      13 -> 30         0.13000

 Excited State  48:      Singlet-A     12.2816 eV  100.95 nm  f=0.0051  <S**2>=0.000
       7 -> 14         0.12829
       9 -> 17         0.55347
      12 -> 24         0.19825
      13 -> 30         0.27649

 Excited State  49:      Singlet-A     12.3384 eV  100.49 nm  f=0.0044  <S**2>=0.000
       7 -> 14        -0.12124
       9 -> 17        -0.19490
      12 -> 23         0.10244
      12 -> 24        -0.10986
      13 -> 30         0.60155

 Excited State  50:      Singlet-A     12.3563 eV  100.34 nm  f=0.0216  <S**2>=0.000
       7 -> 14         0.14037
       8 -> 15         0.53548
      12 -> 24        -0.38384

 Excited State  51:      Singlet-A     12.4324 eV   99.73 nm  f=0.0500  <S**2>=0.000
       7 -> 14        -0.17712
       8 -> 15         0.41665
       9 -> 18         0.14826
      11 -> 22         0.11170
      11 -> 23         0.11655
      12 -> 23         0.14973
      12 -> 24         0.41290

 Excited State  52:      Singlet-A     12.4898 eV   99.27 nm  f=0.0797  <S**2>=0.000
       8 -> 15        -0.12846
       8 -> 16         0.10416
      13 -> 31         0.64777

 Excited State  53:      Singlet-A     12.5898 eV   98.48 nm  f=0.0116  <S**2>=0.000
       9 -> 18        -0.21476
      10 -> 22         0.30148
      11 -> 22         0.56165

 Excited State  54:      Singlet-A     12.6273 eV   98.19 nm  f=0.0062  <S**2>=0.000
       8 -> 16        -0.16011
       9 -> 18         0.47234
      10 -> 22        -0.32456
      10 -> 23        -0.10916
      11 -> 22         0.26496
      11 -> 23        -0.15129

 Excited State  55:      Singlet-A     12.6840 eV   97.75 nm  f=0.0594  <S**2>=0.000
       8 -> 16         0.51813
       9 -> 18         0.28279
      10 -> 22         0.29096
      11 -> 23        -0.16885

 Excited State  56:      Singlet-A     12.7282 eV   97.41 nm  f=0.0992  <S**2>=0.000
       8 -> 16        -0.40615
       9 -> 18         0.22978
      10 -> 22         0.41388
      10 -> 23         0.10928
      10 -> 24        -0.10769
      11 -> 22        -0.15309
      12 -> 26        -0.10712
      13 -> 31         0.10244

 Excited State  57:      Singlet-A     12.7729 eV   97.07 nm  f=0.0145  <S**2>=0.000
       9 -> 18         0.16755
      10 -> 22         0.11368
      10 -> 23        -0.30450
      11 -> 23         0.53566
      12 -> 25         0.19243

 Excited State  58:      Singlet-A     12.8217 eV   96.70 nm  f=0.0321  <S**2>=0.000
      10 -> 23        -0.10990
      11 -> 23        -0.25551
      11 -> 24        -0.20268
      12 -> 25         0.59238

 Excited State  59:      Singlet-A     12.8998 eV   96.11 nm  f=0.0063  <S**2>=0.000
      10 -> 23        -0.38487
      10 -> 24        -0.11618
      11 -> 23        -0.16819
      11 -> 24         0.50709

 Excited State  60:      Singlet-A     13.0244 eV   95.19 nm  f=0.0779  <S**2>=0.000
       7 -> 15         0.26664
       8 -> 17         0.11450
       9 -> 19        -0.21511
       9 -> 20        -0.13389
      10 -> 23         0.34379
      11 -> 24         0.33849
      11 -> 25        -0.13096
      12 -> 25         0.22343

 Excited State  61:      Singlet-A     13.0811 eV   94.78 nm  f=0.0681  <S**2>=0.000
       7 -> 15         0.49208
       9 -> 19         0.38277
      10 -> 24         0.26027

 Excited State  62:      Singlet-A     13.1267 eV   94.45 nm  f=0.0181  <S**2>=0.000
       7 -> 15        -0.26426
      10 -> 24         0.58704

 Excited State  63:      Singlet-A     13.2099 eV   93.86 nm  f=0.0069  <S**2>=0.000
       7 -> 15        -0.28182
       7 -> 16        -0.18983
       8 -> 17         0.16565
       9 -> 19         0.41434
      10 -> 23         0.13867
      10 -> 25         0.10319
      11 -> 24         0.10498
      11 -> 25        -0.22047
      12 -> 26         0.19998
      12 -> 27         0.12666

 Excited State  64:      Singlet-A     13.2430 eV   93.62 nm  f=0.0049  <S**2>=0.000
       8 -> 17         0.42738
       9 -> 19         0.12999
      11 -> 25         0.24099
      12 -> 26        -0.41772
      12 -> 27        -0.10844
      13 -> 32        -0.15653

 Excited State  65:      Singlet-A     13.3151 eV   93.12 nm  f=0.0536  <S**2>=0.000
       7 -> 16        -0.31570
       8 -> 17        -0.18172
      11 -> 25         0.10175
      12 -> 26        -0.26779
      13 -> 32         0.48747
      13 -> 33        -0.12110

 Excited State  66:      Singlet-A     13.3489 eV   92.88 nm  f=0.0090  <S**2>=0.000
       7 -> 16         0.45376
       9 -> 20        -0.10860
      12 -> 27         0.15501
      13 -> 32         0.27447
      13 -> 33        -0.34356
      13 -> 34        -0.18783

 Excited State  67:      Singlet-A     13.3772 eV   92.68 nm  f=0.0027  <S**2>=0.000
       7 -> 16         0.18811
       8 -> 17         0.20577
      11 -> 25        -0.25620
      12 -> 27        -0.25392
      13 -> 32         0.30369
      13 -> 33         0.31612
      13 -> 34         0.28243

 Excited State  68:      Singlet-A     13.3868 eV   92.62 nm  f=0.0249  <S**2>=0.000
       7 -> 16        -0.15511
       8 -> 17         0.27005
       9 -> 19        -0.15285
       9 -> 20         0.34341
       9 -> 21        -0.10912
      10 -> 25        -0.18661
      12 -> 26         0.20285
      12 -> 27        -0.19375
      13 -> 33        -0.30419

 Excited State  69:      Singlet-A     13.4349 eV   92.29 nm  f=0.0186  <S**2>=0.000
       9 -> 20         0.23226
       9 -> 21         0.25458
      10 -> 25        -0.13881
      12 -> 27         0.42770
      13 -> 34         0.38489

 Excited State  70:      Singlet-A     13.4881 eV   91.92 nm  f=0.0487  <S**2>=0.000
       7 -> 16         0.10838
       8 -> 17        -0.18501
       8 -> 18         0.24479
       9 -> 20         0.12883
       9 -> 21         0.34296
      11 -> 25        -0.10092
      12 -> 27        -0.30629
      13 -> 32        -0.16366
      13 -> 33        -0.22130
      13 -> 34         0.16496

 Excited State  71:      Singlet-A     13.5123 eV   91.76 nm  f=0.0012  <S**2>=0.000
       7 -> 16        -0.12508
       8 -> 18        -0.19087
       9 -> 21        -0.18790
      10 -> 25         0.43196
      11 -> 25        -0.13516
      13 -> 32        -0.10690
      13 -> 33        -0.27307
      13 -> 34         0.26955

 Excited State  72:      Singlet-A     13.5653 eV   91.40 nm  f=0.0753  <S**2>=0.000
       9 -> 19        -0.10772
       9 -> 20         0.35569
       9 -> 21         0.10855
      10 -> 25         0.35179
      10 -> 26        -0.12192
      11 -> 25        -0.11003
      12 -> 27         0.10539
      13 -> 33         0.16829
      13 -> 34        -0.29552

 Excited State  73:      Singlet-A     13.6209 eV   91.02 nm  f=0.1356  <S**2>=0.000
       7 -> 16         0.11698
       7 -> 17        -0.11815
       8 -> 18         0.26143
       9 -> 20         0.15038
       9 -> 21        -0.24989
      10 -> 25         0.17746
      10 -> 26         0.10332
      11 -> 25         0.35249
      11 -> 27        -0.12862
      12 -> 26         0.15679
      12 -> 28         0.13938
      13 -> 34         0.15289

 Excited State  74:      Singlet-A     13.6614 eV   90.75 nm  f=0.1071  <S**2>=0.000
       8 -> 18        -0.21047
       9 -> 20        -0.11427
       9 -> 21         0.36472
      10 -> 25         0.19211
      10 -> 26         0.14989
      11 -> 25         0.22405
      11 -> 26        -0.15959
      11 -> 27        -0.12101
      12 -> 26         0.22323
      12 -> 27        -0.11009

 Excited State  75:      Singlet-A     13.7615 eV   90.09 nm  f=0.0283  <S**2>=0.000
       7 -> 16        -0.10133
       7 -> 17         0.43515
       8 -> 17         0.12175
       8 -> 18         0.39668
       9 -> 20        -0.14549
       9 -> 21         0.10014
      11 -> 26         0.18818
      11 -> 27        -0.11453

 Excited State  76:      Singlet-A     13.8750 eV   89.36 nm  f=0.0514  <S**2>=0.000
       7 -> 17        -0.16424
       8 -> 18        -0.16971
       8 -> 19        -0.12507
      11 -> 26         0.58824
      12 -> 28        -0.14002

 Excited State  77:      Singlet-A     13.9506 eV   88.87 nm  f=0.0021  <S**2>=0.000
      10 -> 26         0.43929
      11 -> 27        -0.25567
      12 -> 28        -0.15145
      13 -> 35         0.41707

 Excited State  78:      Singlet-A     13.9750 eV   88.72 nm  f=0.0499  <S**2>=0.000
      10 -> 26         0.15199
      10 -> 27         0.20467
      11 -> 27         0.57237
      13 -> 35         0.23956

 Excited State  79:      Singlet-A     14.0009 eV   88.55 nm  f=0.0250  <S**2>=0.000
      10 -> 26        -0.36298
      10 -> 27        -0.11793
      12 -> 28         0.24344
      13 -> 35         0.48742

 Excited State  80:      Singlet-A     14.0742 eV   88.09 nm  f=0.0146  <S**2>=0.000
       7 -> 17        -0.10517
       8 -> 19         0.18119
       9 -> 22         0.12166
      10 -> 27         0.59873
      11 -> 27        -0.13862
      12 -> 28         0.15495

 Excited State  81:      Singlet-A     14.1522 eV   87.61 nm  f=0.0563  <S**2>=0.000
       7 -> 17        -0.27489
       7 -> 18        -0.16176
       8 -> 18         0.13767
       8 -> 19         0.41759
       9 -> 22        -0.23068
      12 -> 28        -0.22263
      13 -> 36        -0.11597

 Excited State  82:      Singlet-A     14.1591 eV   87.57 nm  f=0.0450  <S**2>=0.000
       7 -> 17        -0.11774
       7 -> 18        -0.26938
       8 -> 20         0.10384
       9 -> 22         0.42653
      10 -> 26         0.16612
      10 -> 27        -0.21079
      12 -> 28         0.27735

 Excited State  83:      Singlet-A     14.1955 eV   87.34 nm  f=0.1082  <S**2>=0.000
       7 -> 17         0.22060
       7 -> 18         0.15016
       8 -> 19         0.33652
       9 -> 22         0.37794
      10 -> 26        -0.10973
      11 -> 25         0.10999
      12 -> 28        -0.23500

 Excited State  84:      Singlet-A     14.2735 eV   86.86 nm  f=0.0521  <S**2>=0.000
       6 -> 14        -0.10607
       7 -> 17        -0.11912
       7 -> 18        -0.16239
       8 -> 19        -0.28358
       9 -> 22         0.20700
       9 -> 23         0.39587
      11 -> 28        -0.18406
      12 -> 28        -0.26066

 Excited State  85:      Singlet-A     14.3715 eV   86.27 nm  f=0.0078  <S**2>=0.000
       7 -> 18         0.41288
       8 -> 20         0.46091
       9 -> 23         0.20598
       9 -> 24        -0.14024

 Excited State  86:      Singlet-A     14.4034 eV   86.08 nm  f=0.0322  <S**2>=0.000
       7 -> 18        -0.10854
       8 -> 19         0.12005
       9 -> 22        -0.10454
       9 -> 23         0.20626
      11 -> 28         0.21542
      13 -> 36         0.55801
      13 -> 37         0.10789

 Excited State  87:      Singlet-A     14.4480 eV   85.81 nm  f=0.0207  <S**2>=0.000
       8 -> 21        -0.10505
       9 -> 23        -0.32292
      11 -> 28        -0.28653
      13 -> 36         0.20388
      13 -> 37         0.43409

 Excited State  88:      Singlet-A     14.4674 eV   85.70 nm  f=0.0193  <S**2>=0.000
       7 -> 18         0.15855
       8 -> 20        -0.35056
       8 -> 21         0.14626
       9 -> 23         0.18273
      10 -> 28         0.11560
      11 -> 28         0.21349
      13 -> 36        -0.18883
      13 -> 37         0.39773

 Excited State  89:      Singlet-A     14.4971 eV   85.52 nm  f=0.0094  <S**2>=0.000
       9 -> 24         0.21653
      12 -> 29         0.59471
      13 -> 38         0.25190

 Excited State  90:      Singlet-A     14.5433 eV   85.25 nm  f=0.0425  <S**2>=0.000
       6 -> 14        -0.12618
       9 -> 24         0.47347
      10 -> 28         0.10155
      11 -> 28         0.21226
      13 -> 38        -0.41417

 Excited State  91:      Singlet-A     14.5553 eV   85.18 nm  f=0.0212  <S**2>=0.000
       7 -> 18        -0.18214
       8 -> 20         0.28298
       8 -> 21         0.13821
       9 -> 24         0.28612
      12 -> 29        -0.20366
      13 -> 37         0.24533
      13 -> 38         0.27048
      13 -> 40         0.10094

 Excited State  92:      Singlet-A     14.6084 eV   84.87 nm  f=0.1022  <S**2>=0.000
       6 -> 14        -0.15847
       7 -> 17        -0.11172
       8 -> 21         0.31745
       9 -> 23        -0.18808
      10 -> 28        -0.20008
      11 -> 28         0.27663
      12 -> 28        -0.13038
      13 -> 36         0.12387
      13 -> 37        -0.14678
      13 -> 38         0.25832
      13 -> 40        -0.11656

 Excited State  93:      Singlet-A     14.6324 eV   84.73 nm  f=0.0036  <S**2>=0.000
       6 -> 14         0.20127

 The electronic state is 1-A.
 Alpha  occ. eigenvalues --  -13.84565  -9.80531  -9.77238  -0.79386  -0.65273
 Alpha  occ. eigenvalues --   -0.53582  -0.44477  -0.42069  -0.38298  -0.32814
 Alpha  occ. eigenvalues --   -0.32345  -0.30328  -0.19986
 Alpha virt. eigenvalues --    0.00158   0.03245   0.04330   0.06444   0.07930
 Alpha virt. eigenvalues --    0.09756   0.10736   0.11213   0.13670   0.14338
 Alpha virt. eigenvalues --    0.14882   0.16526   0.18089   0.18854   0.20887

 Mulliken charges:
               1
     1  C    0.295476
     2  C    0.059941
     3  N   -0.171737
     4  H   -0.006160
     5  H   -0.014658
     6  H    0.030899
     7  H   -0.097341
     8  H   -0.140327
     9  H    0.057710
    10  H   -0.013804
 Sum of Mulliken charges =  -0.00000

 Dipole moment (field-independent basis, Debye):
    X=              0.1600    Y=              0.5998    Z=              1.1036  Tot=              1.2662
 Quadrupole moment (field-independent basis, Debye-Ang):
   XX=            -19.7606   YY=            -21.1485   ZZ=            -21.8552
   XY=              0.7350   XZ=              1.5771   YZ=             -1.7464

 Normal termination of Gaussian 16 at Mon Mar 21 04:01:53 2022.
