 Gaussian 16, Revision C.01,
 Gaussian 16:  EM64L-G16RevC.01  3-Jul-2019

 ---------------------------------------------------------------------
 #P TD(Nstates=10000) svwn5/Gen SCF(maxcycles=100) Int(Grid=ultrafine)
 ---------------------------------------------------------------------

 ---------------------
 xGDB7_00001_tier4.com
 ---------------------
 Symbolic Z-matrix:
 Charge =  0 Multiplicity = 1

                         Standard orientation:
 ---------------------------------------------------------------------
 Center     Atomic      Atomic             Coordinates (Angstroms)
 Number     Number       Type             X           Y           Z
 ---------------------------------------------------------------------
      1          6           0        0.046419    0.658432    0.000000
      2          8           0        0.046419   -0.751929    0.000000
      3          1           0       -0.438905    1.073261    0.890797
      4          1           0       -0.438905    1.073261   -0.890797
      5          1           0        1.087855    0.977571    0.000000
      6          1           0       -0.859911   -1.059251    0.000000
 ---------------------------------------------------------------------

 SCF Done:  E(RS-VWN5) =  -114.713046533     A.U. after   12 cycles

 Excitation energies and oscillator strengths:

 Excited State   1:      Singlet-A"     6.2936 eV  197.00 nm  f=0.0007  <S**2>=0.000
       9 -> 10         0.70500
 This state for optimization and/or second-order correction.
 Total Energy, E(TD-HF/TD-DFT) =  -114.481760580
 Copying the excited state density for this state as the 1-particle RhoCI density.

 Excited State   2:      Singlet-A"     7.2547 eV  170.90 nm  f=0.0307  <S**2>=0.000
       9 -> 11         0.70418

 Excited State   3:      Singlet-A'     7.8912 eV  157.12 nm  f=0.0007  <S**2>=0.000
       8 -> 10         0.70303

 Excited State   4:      Singlet-A"     8.4097 eV  147.43 nm  f=0.0109  <S**2>=0.000
       9 -> 12         0.70539

 Excited State   5:      Singlet-A'     8.4112 eV  147.40 nm  f=0.0622  <S**2>=0.000
       9 -> 13         0.70263

 Excited State   6:      Singlet-A'     8.8763 eV  139.68 nm  f=0.0511  <S**2>=0.000
       8 -> 11         0.70310

 Excited State   7:      Singlet-A"     9.2497 eV  134.04 nm  f=0.0071  <S**2>=0.000
       9 -> 14         0.67011
       9 -> 15         0.22117

 Excited State   8:      Singlet-A"     9.4296 eV  131.48 nm  f=0.0022  <S**2>=0.000
       9 -> 14        -0.21899
       9 -> 15         0.66899

 Excited State   9:      Singlet-A'     9.8919 eV  125.34 nm  f=0.0039  <S**2>=0.000
       9 -> 16         0.68214
       9 -> 18         0.16371

 Excited State  10:      Singlet-A"     9.9961 eV  124.03 nm  f=0.0242  <S**2>=0.000
       8 -> 13         0.70326

 Excited State  11:      Singlet-A'    10.0459 eV  123.42 nm  f=0.0810  <S**2>=0.000
       8 -> 12         0.70098

 Excited State  12:      Singlet-A"    10.4479 eV  118.67 nm  f=0.0003  <S**2>=0.000
       9 -> 17         0.70561

 Excited State  13:      Singlet-A'    10.4723 eV  118.39 nm  f=0.0407  <S**2>=0.000
       7 -> 10         0.69916

 Excited State  14:      Singlet-A"    10.6706 eV  116.19 nm  f=0.0739  <S**2>=0.000
       6 -> 10         0.70330

 Excited State  15:      Singlet-A'    10.6926 eV  115.95 nm  f=0.0332  <S**2>=0.000
       8 -> 15         0.24389
       9 -> 16        -0.13528
       9 -> 18         0.63109

 Excited State  16:      Singlet-A'    10.8934 eV  113.82 nm  f=0.0040  <S**2>=0.000
       8 -> 14         0.69273

 Excited State  17:      Singlet-A'    11.2699 eV  110.01 nm  f=0.0096  <S**2>=0.000
       7 -> 11        -0.30285
       8 -> 15         0.59243
       9 -> 18        -0.16546

 Excited State  18:      Singlet-A"    11.3682 eV  109.06 nm  f=0.0053  <S**2>=0.000
       8 -> 16         0.36249
       9 -> 19         0.59921

 Excited State  19:      Singlet-A"    11.4212 eV  108.56 nm  f=0.0071  <S**2>=0.000
       8 -> 16         0.59516
       9 -> 19        -0.36767

 Excited State  20:      Singlet-A'    11.5063 eV  107.75 nm  f=0.0977  <S**2>=0.000
       7 -> 11         0.62215
       8 -> 15         0.24646
       8 -> 17         0.14737
       9 -> 18        -0.11329

 Excited State  21:      Singlet-A"    11.6658 eV  106.28 nm  f=0.0354  <S**2>=0.000
       6 -> 11         0.69918

 Excited State  22:      Singlet-A"    12.0905 eV  102.55 nm  f=0.0000  <S**2>=0.000
       8 -> 18         0.69976

 Excited State  23:      Singlet-A'    12.1555 eV  102.00 nm  f=0.0135  <S**2>=0.000
       5 -> 10        -0.10246
       6 -> 13        -0.14518
       8 -> 17         0.66340

 Excited State  24:      Singlet-A"    12.3166 eV  100.66 nm  f=0.0460  <S**2>=0.000
       9 -> 20         0.68869

 Excited State  25:      Singlet-A"    12.5527 eV   98.77 nm  f=0.0006  <S**2>=0.000
       7 -> 13         0.70253

 Excited State  26:      Singlet-A'    12.7152 eV   97.51 nm  f=0.0572  <S**2>=0.000
       5 -> 10         0.18246
       6 -> 13        -0.38937
       7 -> 12         0.54117

 Excited State  27:      Singlet-A'    12.7282 eV   97.41 nm  f=0.0725  <S**2>=0.000
       5 -> 10         0.58970
       6 -> 13        -0.16978
       7 -> 12        -0.29339
       8 -> 19         0.14817

 Excited State  28:      Singlet-A"    12.8196 eV   96.71 nm  f=0.0004  <S**2>=0.000
       6 -> 12         0.70112

 Excited State  29:      Singlet-A'    13.1643 eV   94.18 nm  f=0.0314  <S**2>=0.000
       5 -> 11        -0.16832
       6 -> 13         0.25303
       7 -> 12         0.19466
       7 -> 14         0.25426
       7 -> 15        -0.13281
       8 -> 19         0.51517

 Excited State  30:      Singlet-A"    13.3447 eV   92.91 nm  f=0.0022  <S**2>=0.000
       9 -> 21         0.68968
       9 -> 23        -0.12484

 Excited State  31:      Singlet-A'    13.3448 eV   92.91 nm  f=0.0462  <S**2>=0.000
       5 -> 10        -0.22437
       6 -> 13        -0.32230
       6 -> 16         0.11285
       7 -> 12        -0.16577
       7 -> 14        -0.30486
       7 -> 15        -0.16286
       8 -> 19         0.34452
       9 -> 24        -0.18850

 Excited State  32:      Singlet-A'    13.5531 eV   91.48 nm  f=0.0131  <S**2>=0.000
       5 -> 11        -0.13616
       7 -> 15         0.35299
       9 -> 22         0.55418
       9 -> 24        -0.14251

 Excited State  33:      Singlet-A'    13.5538 eV   91.48 nm  f=0.0294  <S**2>=0.000
       5 -> 11         0.48214
       6 -> 13        -0.13176
       7 -> 14         0.41115
       7 -> 15        -0.18721
       9 -> 22         0.12756

 Excited State  34:      Singlet-A"    13.6554 eV   90.79 nm  f=0.0000  <S**2>=0.000
       6 -> 14         0.54266
       6 -> 15         0.21309
       9 -> 23         0.38753

 Excited State  35:      Singlet-A'    13.7395 eV   90.24 nm  f=0.0558  <S**2>=0.000
       5 -> 10         0.10535
       5 -> 11         0.40554
       5 -> 12        -0.14519
       6 -> 13         0.23911
       7 -> 12         0.11205
       7 -> 14        -0.36195
       9 -> 22         0.17574
       9 -> 24        -0.11811

 Excited State  36:      Singlet-A"    13.7458 eV   90.20 nm  f=0.0119  <S**2>=0.000
       6 -> 14        -0.20155
       6 -> 15        -0.43913
       9 -> 23         0.50269

 Excited State  37:      Singlet-A'    13.7577 eV   90.12 nm  f=0.0711  <S**2>=0.000
       5 -> 11         0.17542
       6 -> 16         0.21288
       7 -> 15         0.45641
       8 -> 19         0.10786
       8 -> 20        -0.23738
       9 -> 22        -0.30886
       9 -> 24        -0.12434

 Excited State  38:      Singlet-A"    13.8505 eV   89.52 nm  f=0.0035  <S**2>=0.000
       6 -> 14         0.20869
       6 -> 15        -0.29138
       7 -> 16         0.56164
       9 -> 23        -0.21838

 Excited State  39:      Singlet-A'    13.8787 eV   89.33 nm  f=0.0038  <S**2>=0.000
       7 -> 15         0.13933
       8 -> 20         0.61742
       8 -> 21         0.11923
       9 -> 22        -0.15984
       9 -> 24        -0.20970

 Excited State  40:      Singlet-A'    14.0555 eV   88.21 nm  f=0.3875  <S**2>=0.000
       5 -> 11         0.11276
       6 -> 16         0.12476
       7 -> 15         0.14540
       8 -> 19         0.16316
       8 -> 20         0.20140
       9 -> 24         0.59080

 Excited State  41:      Singlet-A"    14.2114 eV   87.24 nm  f=0.2135  <S**2>=0.000
       6 -> 14        -0.29776
       6 -> 15         0.38750
       6 -> 17        -0.13228
       7 -> 16         0.40252
       7 -> 18        -0.12683
       9 -> 23         0.15454

 Excited State  42:      Singlet-A'    14.4009 eV   86.09 nm  f=0.1978  <S**2>=0.000
       6 -> 16         0.56534
       7 -> 15        -0.11449
       7 -> 17         0.33007
       8 -> 19        -0.10722

 Excited State  43:      Singlet-A"    14.6226 eV   84.79 nm  f=0.0145  <S**2>=0.000
       5 -> 13        -0.13036
       7 -> 18         0.38543
       9 -> 25         0.57546

 Excited State  44:      Singlet-A"    14.6631 eV   84.56 nm  f=0.0397  <S**2>=0.000
       6 -> 17        -0.14893
       7 -> 18         0.55613
       9 -> 25        -0.38916

 Excited State  45:      Singlet-A'    14.7504 eV   84.05 nm  f=0.1523  <S**2>=0.000
       5 -> 12         0.17918
       6 -> 16        -0.26659
       7 -> 17         0.56757
       7 -> 19         0.11615

 Excited State  46:      Singlet-A"    14.7788 eV   83.89 nm  f=0.0403  <S**2>=0.000
       5 -> 13         0.66485
       6 -> 17        -0.18919
       9 -> 25         0.10357

 Excited State  47:      Singlet-A'    14.8554 eV   83.46 nm  f=0.0243  <S**2>=0.000
       5 -> 12         0.44157
       6 -> 18         0.40270
       7 -> 17        -0.13634
       8 -> 21        -0.32924

 Excited State  48:      Singlet-A"    14.8866 eV   83.29 nm  f=0.0821  <S**2>=0.000
       5 -> 13         0.14524
       6 -> 17         0.62927
       7 -> 18         0.11147
       8 -> 22        -0.20649

 Excited State  49:      Singlet-A'    15.0434 eV   82.42 nm  f=0.0540  <S**2>=0.000
       5 -> 12         0.15987
       5 -> 14        -0.13183
       6 -> 18         0.29074
       7 -> 19        -0.16541
       8 -> 21         0.54457

 Excited State  50:      Singlet-A'    15.0706 eV   82.27 nm  f=0.1233  <S**2>=0.000
       5 -> 12        -0.41889
       5 -> 14         0.11439
       6 -> 18         0.44779
       7 -> 17         0.15250
       7 -> 19        -0.10635
       8 -> 21        -0.11495
       9 -> 28         0.13410

 Excited State  51:      Singlet-A"    15.2765 eV   81.16 nm  f=0.1708  <S**2>=0.000
       6 -> 17         0.13512
       8 -> 22         0.64650
       8 -> 24        -0.13871

 Excited State  52:      Singlet-A'    15.3512 eV   80.76 nm  f=0.0064  <S**2>=0.000
       7 -> 19        -0.13365
       8 -> 23         0.62040
       9 -> 27        -0.26080

 Excited State  53:      Singlet-A'    15.4104 eV   80.46 nm  f=0.0135  <S**2>=0.000
       8 -> 23         0.22161
       9 -> 27         0.64539

 Excited State  54:      Singlet-A"    15.4320 eV   80.34 nm  f=0.0115  <S**2>=0.000
       8 -> 24        -0.34727
       9 -> 26         0.60940

 Excited State  55:      Singlet-A"    15.5116 eV   79.93 nm  f=0.0000  <S**2>=0.000
       8 -> 24         0.59535
       9 -> 26         0.35193

 Excited State  56:      Singlet-A'    15.7182 eV   78.88 nm  f=0.0189  <S**2>=0.000
       5 -> 14         0.43409
       5 -> 15         0.45510
       7 -> 19         0.24053
       7 -> 20         0.12466

 Excited State  57:      Singlet-A"    15.7753 eV   78.59 nm  f=0.0011  <S**2>=0.000
       6 -> 19         0.69106
       9 -> 29        -0.11857

 Excited State  58:      Singlet-A'    15.7939 eV   78.50 nm  f=0.0419  <S**2>=0.000
       5 -> 12        -0.12352
       5 -> 14        -0.28115
       6 -> 18         0.11652
       7 -> 19         0.43315
       8 -> 23         0.10587
       9 -> 28        -0.39798

 Excited State  59:      Singlet-A'    15.9411 eV   77.78 nm  f=0.0036  <S**2>=0.000
       5 -> 14        -0.35512
       5 -> 15         0.34469
       7 -> 19         0.11379
       8 -> 23         0.16715
       9 -> 28         0.40604

 Excited State  60:      Singlet-A"    16.0366 eV   77.31 nm  f=0.0174  <S**2>=0.000
       5 -> 16         0.38634
       6 -> 19         0.11694
       9 -> 29         0.57118

 Excited State  61:      Singlet-A'    16.0730 eV   77.14 nm  f=0.1574  <S**2>=0.000
       4 -> 10         0.12146
       5 -> 14        -0.11018
       5 -> 15         0.33273
       7 -> 19        -0.31296
       7 -> 20        -0.21465
       8 -> 21        -0.10699
       8 -> 25         0.23881
       9 -> 28        -0.31810

 Excited State  62:      Singlet-A"    16.2175 eV   76.45 nm  f=0.1535  <S**2>=0.000
       5 -> 16         0.56076
       6 -> 20         0.17806
       9 -> 29        -0.33925

 Excited State  63:      Singlet-A'    16.3030 eV   76.05 nm  f=0.0648  <S**2>=0.000
       5 -> 15        -0.12362
       8 -> 25         0.65561

 Excited State  64:      Singlet-A"    16.4946 eV   75.17 nm  f=0.0026  <S**2>=0.000
       5 -> 18         0.10304
       9 -> 30         0.68566

 Excited State  65:      Singlet-A'    16.5215 eV   75.04 nm  f=0.0989  <S**2>=0.000
       4 -> 10         0.46686
       7 -> 20         0.49833

 Excited State  66:      Singlet-A"    16.6536 eV   74.45 nm  f=0.0055  <S**2>=0.000
       5 -> 16        -0.10041
       6 -> 20         0.66051
       8 -> 28         0.11045
       9 -> 30        -0.10449

 Excited State  67:      Singlet-A'    16.8130 eV   73.74 nm  f=0.0859  <S**2>=0.000
       4 -> 10        -0.29143
       5 -> 17         0.58930
       7 -> 20         0.17576

 Excited State  68:      Singlet-A"    16.8530 eV   73.57 nm  f=0.0004  <S**2>=0.000
       5 -> 18         0.69360

 Excited State  69:      Singlet-A'    16.9775 eV   73.03 nm  f=0.0175  <S**2>=0.000
       4 -> 10         0.36772
       5 -> 14         0.11759
       5 -> 17         0.35375
       5 -> 19         0.19330
       7 -> 20        -0.29124
       7 -> 21        -0.18247
       9 -> 32         0.10845

 Excited State  70:      Singlet-A"    16.9993 eV   72.93 nm  f=0.0080  <S**2>=0.000
       8 -> 27         0.69189
       8 -> 28        -0.10828

 Excited State  71:      Singlet-A'    17.1515 eV   72.29 nm  f=0.0165  <S**2>=0.000
       8 -> 26         0.67425

 Excited State  72:      Singlet-A"    17.3540 eV   71.44 nm  f=0.0029  <S**2>=0.000
       8 -> 28         0.18177
       9 -> 31         0.67845

 Excited State  73:      Singlet-A"    17.4955 eV   70.87 nm  f=0.0483  <S**2>=0.000
       6 -> 21         0.14942
       7 -> 22         0.10792
       8 -> 28         0.61695
       9 -> 31        -0.18266

 Excited State  74:      Singlet-A'    17.4957 eV   70.87 nm  f=0.0040  <S**2>=0.000
       5 -> 19         0.14167
       7 -> 21         0.61791
       7 -> 23        -0.19177
       9 -> 32         0.13900

 Excited State  75:      Singlet-A'    17.5879 eV   70.49 nm  f=0.0028  <S**2>=0.000
       4 -> 11        -0.36607
       8 -> 29         0.57877

 Excited State  76:      Singlet-A"    17.7037 eV   70.03 nm  f=0.0122  <S**2>=0.000
       6 -> 21         0.65522
       6 -> 23        -0.21126
       8 -> 28        -0.11675

 Excited State  77:      Singlet-A"    17.7479 eV   69.86 nm  f=0.0028  <S**2>=0.000
       7 -> 22         0.69355
       8 -> 28        -0.10576

 Excited State  78:      Singlet-A'    17.8076 eV   69.62 nm  f=0.0360  <S**2>=0.000
       4 -> 11         0.52214
       5 -> 20        -0.12924
       8 -> 29         0.30162
       8 -> 30        -0.22828
       9 -> 32         0.12800

 Excited State  79:      Singlet-A'    17.9214 eV   69.18 nm  f=0.0701  <S**2>=0.000
       5 -> 19        -0.33051
       6 -> 22        -0.17431
       6 -> 24         0.14468
       7 -> 23         0.34878
       8 -> 29        -0.13204
       9 -> 32         0.42217

 Excited State  80:      Singlet-A'    17.9753 eV   68.97 nm  f=0.0819  <S**2>=0.000
       5 -> 19         0.39726
       6 -> 22        -0.21420
       7 -> 23         0.46125
       8 -> 30        -0.13782
       9 -> 32        -0.11546

 Excited State  81:      Singlet-A'    18.0188 eV   68.81 nm  f=0.0103  <S**2>=0.000
       6 -> 22         0.59621
       6 -> 24        -0.15652
       7 -> 23         0.23735
       8 -> 30         0.18255
       9 -> 32         0.10679

 Excited State  82:      Singlet-A"    18.0366 eV   68.74 nm  f=0.0288  <S**2>=0.000
       7 -> 24         0.69154
       9 -> 33         0.11957

 Excited State  83:      Singlet-A'    18.1572 eV   68.28 nm  f=0.0003  <S**2>=0.000
       4 -> 12         0.11083
       5 -> 19         0.23254
       5 -> 20         0.16512
       6 -> 24        -0.24268
       7 -> 21        -0.15361
       7 -> 23        -0.17630
       9 -> 32         0.45118
       9 -> 35         0.19134

 Excited State  84:      Singlet-A"    18.1843 eV   68.18 nm  f=0.0091  <S**2>=0.000
       6 -> 23        -0.36712
       9 -> 33         0.58102

 Excited State  85:      Singlet-A'    18.2401 eV   67.97 nm  f=0.0100  <S**2>=0.000
       4 -> 11         0.10789
       5 -> 19         0.10956
       5 -> 20        -0.21258
       6 -> 22        -0.18817
       8 -> 29         0.13465
       8 -> 30         0.58968

 Excited State  86:      Singlet-A"    18.2475 eV   67.95 nm  f=0.0561  <S**2>=0.000
       4 -> 13        -0.11228
       6 -> 21         0.15949
       6 -> 23         0.52611
       8 -> 28        -0.10873
       9 -> 33         0.37940

 Excited State  87:      Singlet-A'    18.3783 eV   67.46 nm  f=0.0346  <S**2>=0.000
       5 -> 19         0.20592
       5 -> 20         0.11496
       6 -> 22         0.11604
       6 -> 24         0.60116
       9 -> 35         0.15676

 Excited State  88:      Singlet-A"    18.6222 eV   66.58 nm  f=0.0015  <S**2>=0.000
       9 -> 34         0.70042

 Excited State  89:      Singlet-A'    18.7472 eV   66.13 nm  f=0.0523  <S**2>=0.000
       4 -> 12        -0.10542
       5 -> 20         0.39345
       7 -> 25         0.51294
       8 -> 31        -0.15361
       9 -> 35        -0.12754

 Excited State  90:      Singlet-A'    18.8578 eV   65.75 nm  f=0.0226  <S**2>=0.000
       4 -> 12         0.55185
       5 -> 20         0.24864
       7 -> 25        -0.19629
       7 -> 26        -0.10429
       9 -> 35        -0.11703

 Excited State  91:      Singlet-A"    18.8911 eV   65.63 nm  f=0.0016  <S**2>=0.000
       4 -> 13         0.65043
       6 -> 23         0.11378
       6 -> 25        -0.18475

 Excited State  92:      Singlet-A'    18.9428 eV   65.45 nm  f=0.0283  <S**2>=0.000
       4 -> 12         0.26679
       7 -> 25         0.30241
       8 -> 31         0.53802
       9 -> 35         0.10221

 Excited State  93:      Singlet-A"    19.0599 eV   65.05 nm  f=0.0671  <S**2>=0.000
       4 -> 13         0.16406
       6 -> 25         0.67275

 Excited State  94:      Singlet-A'    19.0934 eV   64.94 nm  f=0.0523  <S**2>=0.000
       4 -> 12        -0.25352
       4 -> 14         0.10877
       5 -> 20         0.30572
       5 -> 21         0.14467
       6 -> 28        -0.11801
       7 -> 25        -0.27248
       8 -> 31         0.38713
       8 -> 34         0.10097
       9 -> 35        -0.10413

 Excited State  95:      Singlet-A'    19.4150 eV   63.86 nm  f=0.0816  <S**2>=0.000
       4 -> 14        -0.12718
       5 -> 21         0.34140
       5 -> 23         0.11445
       7 -> 26        -0.11732
       7 -> 29        -0.14565
       9 -> 35         0.49909

 Excited State  96:      Singlet-A"    19.4261 eV   63.82 nm  f=0.0007  <S**2>=0.000
       7 -> 27        -0.13966
       9 -> 36         0.68111

 Excited State  97:      Singlet-A"    19.4611 eV   63.71 nm  f=0.0038  <S**2>=0.000
       7 -> 27        -0.13221
       8 -> 32         0.67859
       9 -> 36        -0.12547

 Excited State  98:      Singlet-A"    19.5661 eV   63.37 nm  f=0.0027  <S**2>=0.000
       7 -> 27         0.66491
       7 -> 28        -0.11383
       8 -> 32         0.15015
       9 -> 36         0.10908

 Excited State  99:      Singlet-A'    19.6612 eV   63.06 nm  f=0.0072  <S**2>=0.000
       4 -> 14         0.47486
       4 -> 15         0.38134
       5 -> 21        -0.19515
       5 -> 23         0.18588
       9 -> 35         0.13736

 Excited State 100:      Singlet-A'    19.7534 eV   62.77 nm  f=0.0138  <S**2>=0.000
       4 -> 15        -0.11275
       5 -> 21        -0.15864
       6 -> 27         0.63317
       6 -> 28        -0.14862
       8 -> 33         0.12408

 Excited State 101:      Singlet-A'    19.7681 eV   62.72 nm  f=0.0902  <S**2>=0.000
       4 -> 14        -0.36125
       4 -> 15         0.20162
       5 -> 21        -0.33949
       6 -> 27        -0.13067
       8 -> 33         0.38877

 Excited State 102:      Singlet-A'    19.8139 eV   62.57 nm  f=0.0592  <S**2>=0.000
       4 -> 14         0.11742
       5 -> 21         0.29949
       7 -> 26         0.29543
       7 -> 29         0.16939
       8 -> 33         0.49611

 Excited State 103:      Singlet-A'    19.8413 eV   62.49 nm  f=0.0026  <S**2>=0.000
       4 -> 14        -0.17053
       4 -> 15         0.48554
       5 -> 21         0.17129
       5 -> 23        -0.25064
       6 -> 27         0.21747
       7 -> 26         0.15654
       8 -> 33        -0.21130

 Excited State 104:      Singlet-A"    19.8439 eV   62.48 nm  f=0.0035  <S**2>=0.000
       6 -> 26         0.63181
       7 -> 28        -0.28491

 Excited State 105:      Singlet-A"    19.9277 eV   62.22 nm  f=0.0135  <S**2>=0.000
       4 -> 16        -0.16354
       5 -> 22         0.49978
       6 -> 26        -0.19866
       7 -> 28        -0.41753

 Excited State 106:      Singlet-A"    19.9861 eV   62.04 nm  f=0.0030  <S**2>=0.000
       5 -> 22         0.46796
       5 -> 24        -0.16907
       6 -> 26         0.13282
       6 -> 29         0.14670
       7 -> 28         0.44636

 Excited State 107:      Singlet-A'    20.0504 eV   61.84 nm  f=0.0560  <S**2>=0.000
       4 -> 14        -0.11078
       5 -> 21        -0.15247
       5 -> 23         0.27353
       5 -> 25        -0.11060
       6 -> 28        -0.12118
       7 -> 26         0.42651
       7 -> 29         0.22043
       8 -> 33        -0.17042
       8 -> 36        -0.15834
       9 -> 35         0.10475

 Excited State 108:      Singlet-A"    20.2246 eV   61.30 nm  f=0.0002  <S**2>=0.000
       4 -> 16         0.63584
       5 -> 22         0.11516
       5 -> 24         0.22841

 The electronic state is 1-A'.
 Alpha  occ. eigenvalues --  -18.61686  -9.82669  -0.92543  -0.61335  -0.46827
 Alpha  occ. eigenvalues --   -0.39644  -0.38791  -0.29431  -0.23575
 Alpha virt. eigenvalues --   -0.00729   0.02837   0.07245   0.07268   0.10365
 Alpha virt. eigenvalues --    0.10907   0.12210   0.14913   0.15009   0.18118
 Alpha virt. eigenvalues --    0.21094   0.25092   0.26514   0.26712   0.27570

 Mulliken charges:
               1
     1  C    0.466958
     2  O   -0.397574
     3  H   -0.051120
     4  H   -0.051120
     5  H   -0.133628
     6  H    0.166484
 Sum of Mulliken charges =  -0.00000

 Dipole moment (field-independent basis, Debye):
    X=             -1.3815    Y=              0.9322    Z=             -0.0000  Tot=              1.6666
 Quadrupole moment (field-independent basis, Debye-Ang):
   XX=            -12.0734   YY=            -13.6760   ZZ=            -14.1529
   XY=              2.1463   XZ=              0.0000   YZ=             -0.0000

 Normal termination of Gaussian 16 at Mon Mar 21 20:06:00 2022.
