 Gaussian 16, Revision C.01,
 Gaussian 16:  EM64L-G16RevC.01  3-Jul-2019

 ---------------------------------------------------------------------
 #P TD(Nstates=10000) svwn5/Gen SCF(maxcycles=100) Int(Grid=ultrafine)
 ---------------------------------------------------------------------

 ---------------------
 xGDB7_00001_tier4.com
 ---------------------
 Symbolic Z-matrix:
 Charge =  0 Multiplicity = 1

                         Standard orientation:
 ---------------------------------------------------------------------
 Center     Atomic      Atomic             Coordinates (Angstroms)
 Number     Number       Type             X           Y           Z
 ---------------------------------------------------------------------
      1          6           0        0.000000    1.163894   -0.193136
      2          8           0       -0.000000   -0.000000    0.585449
      3          6           0       -0.000000   -1.163894   -0.193136
      4          1           0        0.000000    2.015478    0.485827
      5          1           0       -0.890390    1.219204   -0.834404
      6          1           0        0.890390    1.219204   -0.834404
      7          1           0       -0.000000   -2.015478    0.485827
      8          1           0        0.890390   -1.219204   -0.834404
      9          1           0       -0.890390   -1.219204   -0.834404
 ---------------------------------------------------------------------

 SCF Done:  E(RS-VWN5) =  -153.615501470     A.U. after   12 cycles

 Excitation energies and oscillator strengths:

 Excited State   1:      Singlet-B1     6.0637 eV  204.47 nm  f=0.0286  <S**2>=0.000
      13 -> 14         0.70620
 This state for optimization and/or second-order correction.
 Total Energy, E(TD-HF/TD-DFT) =  -153.392663117
 Copying the excited state density for this state as the 1-particle RhoCI density.

 Excited State   2:      Singlet-A2     6.9553 eV  178.26 nm  f=0.0000  <S**2>=0.000
      13 -> 15         0.70690

 Excited State   3:      Singlet-B1     7.2432 eV  171.17 nm  f=0.0150  <S**2>=0.000
      13 -> 16         0.70406

 Excited State   4:      Singlet-A1     7.7126 eV  160.76 nm  f=0.0097  <S**2>=0.000
      12 -> 14         0.42950
      13 -> 17         0.55993

 Excited State   5:      Singlet-B1     7.7390 eV  160.21 nm  f=0.0258  <S**2>=0.000
      13 -> 18         0.70561

 Excited State   6:      Singlet-A1     7.8607 eV  157.73 nm  f=0.0680  <S**2>=0.000
      12 -> 14         0.55770
      13 -> 17        -0.42003

 Excited State   7:      Singlet-A2     8.4232 eV  147.19 nm  f=0.0000  <S**2>=0.000
      13 -> 19         0.70678

 Excited State   8:      Singlet-B2     8.6658 eV  143.07 nm  f=0.0054  <S**2>=0.000
      12 -> 15         0.70474

 Excited State   9:      Singlet-B1     8.7043 eV  142.44 nm  f=0.0023  <S**2>=0.000
      13 -> 20         0.70543

 Excited State  10:      Singlet-A1     8.8541 eV  140.03 nm  f=0.0292  <S**2>=0.000
      12 -> 16         0.64604
      13 -> 21         0.27327

 Excited State  11:      Singlet-A1     9.0376 eV  137.19 nm  f=0.0417  <S**2>=0.000
      12 -> 16        -0.27348
      13 -> 21         0.63680

 Excited State  12:      Singlet-B2     9.1136 eV  136.04 nm  f=0.1046  <S**2>=0.000
      13 -> 22         0.69801

 Excited State  13:      Singlet-B2     9.3035 eV  133.27 nm  f=0.0540  <S**2>=0.000
      11 -> 14         0.70317

 Excited State  14:      Singlet-B1     9.4142 eV  131.70 nm  f=0.0553  <S**2>=0.000
      12 -> 17         0.70494

 Excited State  15:      Singlet-A1     9.4817 eV  130.76 nm  f=0.0182  <S**2>=0.000
      12 -> 18         0.69923

 Excited State  16:      Singlet-A2     9.7269 eV  127.47 nm  f=0.0000  <S**2>=0.000
      10 -> 14         0.70013

 Excited State  17:      Singlet-A2     9.9014 eV  125.22 nm  f=0.0000  <S**2>=0.000
      13 -> 23         0.69750

 Excited State  18:      Singlet-B1    10.0494 eV  123.38 nm  f=0.0019  <S**2>=0.000
      13 -> 24         0.70645

 Excited State  19:      Singlet-B2    10.1218 eV  122.49 nm  f=0.0606  <S**2>=0.000
      12 -> 19         0.67984
      13 -> 25        -0.17722

 Excited State  20:      Singlet-B2    10.1999 eV  121.55 nm  f=0.0130  <S**2>=0.000
      11 -> 16         0.16994
      12 -> 19         0.17527
      13 -> 25         0.65737

 Excited State  21:      Singlet-A1    10.2253 eV  121.25 nm  f=0.0361  <S**2>=0.000
      11 -> 15         0.70184

 Excited State  22:      Singlet-B2    10.3908 eV  119.32 nm  f=0.0396  <S**2>=0.000
      11 -> 16         0.68145
      13 -> 25        -0.16569

 Excited State  23:      Singlet-A1    10.4729 eV  118.39 nm  f=0.0397  <S**2>=0.000
      12 -> 20         0.69876

 Excited State  24:      Singlet-B1    10.5002 eV  118.08 nm  f=0.0033  <S**2>=0.000
      12 -> 21         0.70153

 Excited State  25:      Singlet-B1    10.6430 eV  116.49 nm  f=0.0741  <S**2>=0.000
      10 -> 15         0.70145

 Excited State  26:      Singlet-A2    10.7237 eV  115.62 nm  f=0.0000  <S**2>=0.000
      10 -> 16        -0.36679
      12 -> 22         0.60003

 Excited State  27:      Singlet-A2    10.8008 eV  114.79 nm  f=0.0000  <S**2>=0.000
      10 -> 16         0.56979
      11 -> 17        -0.11743
      12 -> 22         0.35974
      13 -> 26         0.15699

 Excited State  28:      Singlet-A2    10.9368 eV  113.36 nm  f=0.0000  <S**2>=0.000
      10 -> 16         0.15008
      11 -> 17         0.68191
      13 -> 26        -0.10202

 Excited State  29:      Singlet-A2    10.9563 eV  113.16 nm  f=0.0000  <S**2>=0.000
      10 -> 16        -0.11541
      11 -> 17         0.13095
      13 -> 26         0.67822

 Excited State  30:      Singlet-B2    11.0452 eV  112.25 nm  f=0.1430  <S**2>=0.000
      10 -> 17         0.13515
      11 -> 18         0.68274

 Excited State  31:      Singlet-A1    11.2172 eV  110.53 nm  f=0.0115  <S**2>=0.000
      12 -> 24         0.20028
      13 -> 27         0.66924

 Excited State  32:      Singlet-A2    11.4077 eV  108.68 nm  f=0.0000  <S**2>=0.000
      10 -> 18         0.69254

 Excited State  33:      Singlet-B2    11.5563 eV  107.29 nm  f=0.0012  <S**2>=0.000
      10 -> 17         0.50701
      12 -> 23         0.47265

 Excited State  34:      Singlet-B2    11.6085 eV  106.80 nm  f=0.0327  <S**2>=0.000
       7 -> 14        -0.15063
      10 -> 17        -0.42540
      11 -> 18         0.12156
      12 -> 23         0.51569

 Excited State  35:      Singlet-A1    11.7665 eV  105.37 nm  f=0.0060  <S**2>=0.000
       8 -> 14         0.30479
      11 -> 19         0.61241
      12 -> 24        -0.12062

 Excited State  36:      Singlet-B1    11.8092 eV  104.99 nm  f=0.1154  <S**2>=0.000
       9 -> 14         0.69997

 Excited State  37:      Singlet-A2    11.8197 eV  104.90 nm  f=0.0000  <S**2>=0.000
      11 -> 21         0.15829
      12 -> 25         0.67597

 Excited State  38:      Singlet-A1    11.8292 eV  104.81 nm  f=0.0373  <S**2>=0.000
       8 -> 14         0.54435
      11 -> 19        -0.18253
      12 -> 24         0.38778

 Excited State  39:      Singlet-A2    11.9754 eV  103.53 nm  f=0.0000  <S**2>=0.000
      11 -> 21         0.11296
      13 -> 28         0.69370

 Excited State  40:      Singlet-B2    12.0337 eV  103.03 nm  f=0.0022  <S**2>=0.000
      10 -> 21        -0.14909
      11 -> 20         0.68140

 Excited State  41:      Singlet-A2    12.0612 eV  102.80 nm  f=0.0000  <S**2>=0.000
      10 -> 20         0.21643
      11 -> 21         0.64786
      12 -> 25        -0.12160
      13 -> 28        -0.10079

 Excited State  42:      Singlet-A1    12.0799 eV  102.64 nm  f=0.0867  <S**2>=0.000
       8 -> 14        -0.32533
      10 -> 22         0.11077
      11 -> 19         0.24012
      12 -> 24         0.51389
      13 -> 27        -0.14727

 Excited State  43:      Singlet-B1    12.0848 eV  102.60 nm  f=0.0011  <S**2>=0.000
      10 -> 19         0.69513
      11 -> 22         0.10051

 Excited State  44:      Singlet-B1    12.2754 eV  101.00 nm  f=0.0064  <S**2>=0.000
      11 -> 22         0.68697
      13 -> 29        -0.11407

 Excited State  45:      Singlet-B2    12.3642 eV  100.28 nm  f=0.0155  <S**2>=0.000
       7 -> 14         0.63822
      10 -> 17        -0.10100
      10 -> 21        -0.19835
      12 -> 26         0.12306

 Excited State  46:      Singlet-A2    12.4886 eV   99.28 nm  f=0.0000  <S**2>=0.000
      10 -> 20         0.65557
      11 -> 21        -0.17633
      12 -> 25         0.12035

 Excited State  47:      Singlet-B2    12.5524 eV   98.77 nm  f=0.0254  <S**2>=0.000
       7 -> 14         0.14310
       8 -> 15         0.17884
      10 -> 21         0.63205
      11 -> 20         0.10772
      12 -> 26         0.10018

 Excited State  48:      Singlet-B1    12.5630 eV   98.69 nm  f=0.0073  <S**2>=0.000
       9 -> 16         0.14616
      11 -> 22         0.10713
      13 -> 29         0.66941

 Excited State  49:      Singlet-A2    12.6659 eV   97.89 nm  f=0.0000  <S**2>=0.000
       9 -> 15         0.70105

 Excited State  50:      Singlet-B2    12.7173 eV   97.49 nm  f=0.0316  <S**2>=0.000
       7 -> 14        -0.11411
       7 -> 16         0.12364
      12 -> 26         0.65879
      12 -> 28         0.10764

 Excited State  51:      Singlet-B1    12.7416 eV   97.31 nm  f=0.0017  <S**2>=0.000
      12 -> 27         0.70108

 Excited State  52:      Singlet-B2    12.7954 eV   96.90 nm  f=0.0588  <S**2>=0.000
       8 -> 15         0.67051
      10 -> 21        -0.12916
      12 -> 26        -0.12886

 Excited State  53:      Singlet-A1    12.8698 eV   96.34 nm  f=0.0129  <S**2>=0.000
       7 -> 15         0.19686
       9 -> 17        -0.17390
      10 -> 22         0.60814
      11 -> 23        -0.20013

 Excited State  54:      Singlet-B1    12.9125 eV   96.02 nm  f=0.0003  <S**2>=0.000
       9 -> 16         0.66906
      13 -> 29        -0.15175

 Excited State  55:      Singlet-A1    12.9931 eV   95.42 nm  f=0.0202  <S**2>=0.000
       8 -> 16         0.61609
      11 -> 23         0.29327

 Excited State  56:      Singlet-A1    13.0986 eV   94.65 nm  f=0.0000  <S**2>=0.000
       7 -> 15         0.48098
       8 -> 16        -0.26608
      11 -> 23         0.43341

 Excited State  57:      Singlet-B1    13.1353 eV   94.39 nm  f=0.0235  <S**2>=0.000
      10 -> 23         0.13933
      11 -> 25        -0.17215
      13 -> 30         0.66164

 Excited State  58:      Singlet-A1    13.2371 eV   93.66 nm  f=0.0505  <S**2>=0.000
       7 -> 15         0.41459
       8 -> 16         0.13365
       8 -> 18        -0.23925
       9 -> 17         0.25534
      10 -> 22        -0.13977
      11 -> 23        -0.36848

 Excited State  59:      Singlet-B1    13.3130 eV   93.13 nm  f=0.0159  <S**2>=0.000
       8 -> 17         0.11464
       9 -> 18        -0.25152
      10 -> 23         0.20346
      11 -> 25         0.60822

 Excited State  60:      Singlet-B2    13.3188 eV   93.09 nm  f=0.0489  <S**2>=0.000
       7 -> 16        -0.15233
       8 -> 19         0.10912
      11 -> 24         0.66598

 Excited State  61:      Singlet-B1    13.4066 eV   92.48 nm  f=0.0011  <S**2>=0.000
       9 -> 18         0.60591
      10 -> 23         0.33595
      11 -> 25         0.12303

 Excited State  62:      Singlet-B2    13.4464 eV   92.21 nm  f=0.1935  <S**2>=0.000
       7 -> 16         0.61283
      11 -> 24         0.12631
      12 -> 28        -0.27979

 Excited State  63:      Singlet-B1    13.4797 eV   91.98 nm  f=0.0006  <S**2>=0.000
       8 -> 17         0.68560
      10 -> 23        -0.12218

 Excited State  64:      Singlet-A2    13.4835 eV   91.95 nm  f=0.0000  <S**2>=0.000
      13 -> 31         0.69993

 Excited State  65:      Singlet-A1    13.4896 eV   91.91 nm  f=0.0298  <S**2>=0.000
       8 -> 18         0.47749
       9 -> 17         0.49908

 Excited State  66:      Singlet-B1    13.5602 eV   91.43 nm  f=0.0324  <S**2>=0.000
      10 -> 23        -0.16356
      13 -> 32         0.67440

 Excited State  67:      Singlet-A1    13.6225 eV   91.01 nm  f=0.0526  <S**2>=0.000
      10 -> 25        -0.20479
      13 -> 33         0.66723

 Excited State  68:      Singlet-A2    13.6869 eV   90.59 nm  f=0.0000  <S**2>=0.000
      10 -> 24         0.70396

 Excited State  69:      Singlet-B2    13.8346 eV   89.62 nm  f=0.0357  <S**2>=0.000
       7 -> 18         0.55177
      12 -> 28        -0.40769

 Excited State  70:      Singlet-B1    13.8641 eV   89.43 nm  f=0.0880  <S**2>=0.000
       8 -> 21         0.10495
       9 -> 18        -0.14553
       9 -> 20        -0.14017
      10 -> 23         0.31105
      11 -> 25        -0.16397
      13 -> 30        -0.10284
      13 -> 32         0.15390
      13 -> 34         0.51129

 Excited State  71:      Singlet-A2    13.8654 eV   89.42 nm  f=0.0000  <S**2>=0.000
       7 -> 17         0.70342

 Excited State  72:      Singlet-A1    13.8958 eV   89.22 nm  f=0.0311  <S**2>=0.000
       8 -> 18         0.17499
       8 -> 20        -0.13084
       9 -> 17        -0.18314
      10 -> 22        -0.14399
      10 -> 25         0.51518
      11 -> 26         0.22254
      13 -> 33         0.11821
      13 -> 36         0.13947

 Excited State  73:      Singlet-B1    13.9105 eV   89.13 nm  f=0.1193  <S**2>=0.000
       8 -> 21        -0.12491
       9 -> 18         0.16087
       9 -> 20         0.16887
      10 -> 23        -0.35815
      11 -> 25         0.14838
      13 -> 30         0.12926
      13 -> 34         0.48058

 Excited State  74:      Singlet-A1    14.0128 eV   88.48 nm  f=0.0668  <S**2>=0.000
       7 -> 15        -0.11164
       7 -> 19         0.12876
       8 -> 18        -0.30515
       9 -> 17         0.23185
       9 -> 21        -0.10588
      10 -> 22         0.10527
      10 -> 25         0.35946
      11 -> 23         0.10762
      11 -> 26        -0.28373
      12 -> 29         0.16264
      13 -> 33         0.11996

 Excited State  75:      Singlet-B2    14.0642 eV   88.16 nm  f=0.2970  <S**2>=0.000
       7 -> 16         0.18589
       7 -> 18         0.40207
       8 -> 19        -0.15633
       9 -> 22         0.11528
      12 -> 28         0.43998

 Excited State  76:      Singlet-A2    14.1259 eV   87.77 nm  f=0.0000  <S**2>=0.000
       9 -> 19         0.70140

 Excited State  77:      Singlet-A1    14.1968 eV   87.33 nm  f=0.0315  <S**2>=0.000
       7 -> 19         0.12516
       8 -> 20         0.10595
      11 -> 26         0.45174
      12 -> 29         0.47244
      13 -> 36        -0.15070

 Excited State  78:      Singlet-A2    14.2553 eV   86.97 nm  f=0.0000  <S**2>=0.000
      11 -> 27         0.70055

 Excited State  79:      Singlet-A1    14.2814 eV   86.82 nm  f=0.0001  <S**2>=0.000
       7 -> 19        -0.15056
       8 -> 18         0.19370
       9 -> 17        -0.16004
       9 -> 21        -0.13580
      10 -> 22        -0.10575
      11 -> 26        -0.37459
      12 -> 29         0.43351

 Excited State  80:      Singlet-B2    14.3539 eV   86.38 nm  f=0.0074  <S**2>=0.000
       8 -> 19         0.64411
       9 -> 22         0.16870

 Excited State  81:      Singlet-B1    14.4376 eV   85.88 nm  f=0.0306  <S**2>=0.000
       8 -> 21         0.33723
       9 -> 20         0.59226
      10 -> 26         0.11573

 Excited State  82:      Singlet-A1    14.5037 eV   85.48 nm  f=0.0062  <S**2>=0.000
       7 -> 19        -0.19558
       8 -> 20         0.48276
       9 -> 21        -0.42729
      12 -> 29        -0.12152

 Excited State  83:      Singlet-B1    14.5874 eV   84.99 nm  f=0.0136  <S**2>=0.000
       8 -> 21        -0.36756
      10 -> 26         0.58624

 Excited State  84:      Singlet-A1    14.5904 eV   84.98 nm  f=0.0373  <S**2>=0.000
       7 -> 19         0.34959
       8 -> 20         0.26932
       9 -> 21         0.21341
      13 -> 36         0.48734

 Excited State  85:      Singlet-B1    14.6008 eV   84.92 nm  f=0.0244  <S**2>=0.000
       8 -> 21        -0.19906
      13 -> 35         0.67492

 Excited State  86:      Singlet-A1    14.7086 eV   84.29 nm  f=0.0572  <S**2>=0.000
       7 -> 19        -0.18823
       8 -> 20         0.28669
       9 -> 21         0.35698
      10 -> 25         0.10732
      11 -> 28         0.20294
      12 -> 30        -0.25225
      13 -> 36        -0.26170
      13 -> 37         0.23992

 Excited State  87:      Singlet-B2    14.7210 eV   84.22 nm  f=0.1312  <S**2>=0.000
       7 -> 20         0.17901
       9 -> 22         0.12418
      10 -> 27         0.65680

 Excited State  88:      Singlet-A1    14.7949 eV   83.80 nm  f=0.0192  <S**2>=0.000
      12 -> 30         0.61321
      13 -> 37         0.30190

 Excited State  89:      Singlet-A1    14.8157 eV   83.68 nm  f=0.0009  <S**2>=0.000
       7 -> 19         0.43844
       9 -> 21        -0.22855
      12 -> 32         0.16597
      13 -> 36        -0.27902
      13 -> 37         0.28691

 Excited State  90:      Singlet-A2    14.8271 eV   83.62 nm  f=0.0000  <S**2>=0.000
       8 -> 22         0.69888

 Excited State  91:      Singlet-B2    14.8282 eV   83.61 nm  f=0.0534  <S**2>=0.000
       7 -> 20         0.57153
       9 -> 22         0.26934
      10 -> 27        -0.16019
      13 -> 38         0.25414

 Excited State  92:      Singlet-B1    14.8747 eV   83.35 nm  f=0.2875  <S**2>=0.000
       7 -> 22         0.24676
       8 -> 21         0.39814
       9 -> 20        -0.25909
      10 -> 23        -0.14417
      10 -> 26         0.34501
      12 -> 33        -0.10361
      13 -> 35         0.13995

 Excited State  93:      Singlet-A2    14.9418 eV   82.98 nm  f=0.0000  <S**2>=0.000
       7 -> 21         0.70025

 Excited State  94:      Singlet-B2    14.9878 eV   82.72 nm  f=0.0072  <S**2>=0.000
       7 -> 20        -0.24623
       9 -> 22         0.54801
      11 -> 29         0.12801
      12 -> 31        -0.22713
      13 -> 38        -0.14458

 Excited State  95:      Singlet-B2    15.0238 eV   82.53 nm  f=0.2148  <S**2>=0.000
       7 -> 20        -0.18437
      10 -> 27         0.12768
      11 -> 29         0.10155
      12 -> 31        -0.32535
      13 -> 38         0.55804

 Excited State  96:      Singlet-A1    15.0253 eV   82.52 nm  f=0.0368  <S**2>=0.000
       6 -> 14        -0.14364
       7 -> 19        -0.12074
       8 -> 20        -0.10698
       9 -> 21        -0.10706
      11 -> 28        -0.21696
      12 -> 30        -0.17434
      12 -> 32        -0.20412
      13 -> 36         0.19455
      13 -> 37         0.47989

 Excited State  97:      Singlet-B1    15.2466 eV   81.32 nm  f=0.0862  <S**2>=0.000
       7 -> 22         0.51255
      12 -> 33         0.46550

 Excited State  98:      Singlet-A2    15.2708 eV   81.19 nm  f=0.0000  <S**2>=0.000
      13 -> 39         0.70465

 Excited State  99:      Singlet-B2    15.2941 eV   81.07 nm  f=0.0344  <S**2>=0.000
       7 -> 20        -0.15180
       9 -> 22         0.14343
      11 -> 29         0.14969
      12 -> 31         0.55904
      13 -> 38         0.22872
      13 -> 40         0.11974

 Excited State 100:      Singlet-B1    15.3537 eV   80.75 nm  f=0.2617  <S**2>=0.000
       7 -> 22        -0.39374
       9 -> 20        -0.11081
      12 -> 33         0.50464
      12 -> 36         0.10222

 Excited State 101:      Singlet-A1    15.3784 eV   80.62 nm  f=0.0069  <S**2>=0.000
       6 -> 14        -0.17211
      11 -> 28        -0.19137
      12 -> 32         0.60306
      12 -> 34        -0.13089

 Excited State 102:      Singlet-A1    15.5363 eV   79.80 nm  f=0.1222  <S**2>=0.000
       6 -> 14         0.17477
       8 -> 24         0.12112
      12 -> 32         0.14786
      12 -> 34         0.63104

 Excited State 103:      Singlet-A2    15.5881 eV   79.54 nm  f=0.0000  <S**2>=0.000
       8 -> 25         0.12818
       9 -> 23         0.63376
      13 -> 41        -0.26105

 Excited State 104:      Singlet-B1    15.6163 eV   79.39 nm  f=0.0208  <S**2>=0.000
       9 -> 24         0.15125
      10 -> 28         0.68207

 Excited State 105:      Singlet-B2    15.6199 eV   79.38 nm  f=0.0072  <S**2>=0.000
       8 -> 23        -0.13474
       9 -> 25         0.17180
      13 -> 40         0.65267

 Excited State 106:      Singlet-A1    15.6201 eV   79.37 nm  f=0.1809  <S**2>=0.000
       6 -> 14        -0.14752
       8 -> 20        -0.15474
       8 -> 24         0.40157
      11 -> 28         0.47296
      12 -> 34        -0.13955

 Excited State 107:      Singlet-B2    15.6734 eV   79.10 nm  f=0.0293  <S**2>=0.000
       8 -> 23         0.67423
      13 -> 40         0.12720

 Excited State 108:      Singlet-B1    15.7554 eV   78.69 nm  f=0.0127  <S**2>=0.000
       9 -> 24         0.68107
      10 -> 28        -0.15939

 Excited State 109:      Singlet-A2    15.7769 eV   78.59 nm  f=0.0000  <S**2>=0.000
       8 -> 25         0.30449
       9 -> 23         0.18171
      13 -> 41         0.60638

 Excited State 110:      Singlet-A1    15.8023 eV   78.46 nm  f=0.0478  <S**2>=0.000
       6 -> 14         0.54233
       7 -> 23        -0.28312
      12 -> 32         0.10958
      12 -> 34        -0.20877

 Excited State 111:      Singlet-B2    15.8615 eV   78.17 nm  f=0.1864  <S**2>=0.000
       6 -> 15         0.12171
       9 -> 25        -0.13634
      11 -> 29         0.61167
      11 -> 30        -0.17160

 Excited State 112:      Singlet-B2    15.9299 eV   77.83 nm  f=0.0869  <S**2>=0.000
       9 -> 25         0.65272
      11 -> 29         0.13479
      13 -> 40        -0.13826

 Excited State 113:      Singlet-A2    15.9441 eV   77.76 nm  f=0.0000  <S**2>=0.000
       8 -> 25         0.56880
       9 -> 23        -0.16055
      10 -> 29         0.28486
      13 -> 41        -0.21902

 Excited State 114:      Singlet-A1    16.0307 eV   77.34 nm  f=0.1529  <S**2>=0.000
       7 -> 23        -0.25718
       7 -> 26         0.10303
       8 -> 20         0.12472
       8 -> 24         0.49694
       9 -> 27         0.12706
      11 -> 28        -0.27399
      12 -> 32        -0.10611

 Excited State 115:      Singlet-A2    16.0737 eV   77.14 nm  f=0.0000  <S**2>=0.000
       8 -> 25        -0.22678
       9 -> 23         0.12195
       9 -> 26         0.11338
      10 -> 29         0.63277

 Excited State 116:      Singlet-B2    16.2049 eV   76.51 nm  f=0.0000  <S**2>=0.000
       7 -> 24         0.68974
      11 -> 30        -0.11334

 Excited State 117:      Singlet-A1    16.2244 eV   76.42 nm  f=0.0045  <S**2>=0.000
       6 -> 14         0.20723
       6 -> 16        -0.13551
       7 -> 23         0.48742
       7 -> 26         0.11730
       8 -> 24         0.14891
      12 -> 34        -0.10368
      12 -> 35         0.33329

 Excited State 118:      Singlet-B1    16.2575 eV   76.26 nm  f=0.0020  <S**2>=0.000
       7 -> 25         0.55698
      12 -> 36         0.43186

 Excited State 119:      Singlet-B2    16.3679 eV   75.75 nm  f=0.0623  <S**2>=0.000
       6 -> 15         0.13118
      11 -> 30         0.64387
      11 -> 32         0.10441
      13 -> 42         0.12707

 Excited State 120:      Singlet-A1    16.3808 eV   75.69 nm  f=0.0177  <S**2>=0.000
       6 -> 14        -0.15089
       7 -> 23        -0.23728

 The electronic state is 1-A1.
 Alpha  occ. eigenvalues --  -18.62235  -9.82602  -9.82600  -0.94361  -0.65417
 Alpha  occ. eigenvalues --   -0.56617  -0.44394  -0.43064  -0.42781  -0.35287
 Alpha  occ. eigenvalues --   -0.33673  -0.28103  -0.21934
 Alpha virt. eigenvalues --    0.00269   0.03629   0.04001   0.06424   0.06455
 Alpha virt. eigenvalues --    0.08992   0.10023   0.10403   0.11301   0.14229
 Alpha virt. eigenvalues --    0.14988   0.15220   0.18326   0.18746   0.21879

 Mulliken charges:
               1
     1  C    0.517213
     2  O   -0.735022
     3  C    0.517213
     4  H   -0.184561
     5  H    0.017430
     6  H    0.017430
     7  H   -0.184561
     8  H    0.017430
     9  H    0.017430
 Sum of Mulliken charges =  -0.00000

 Dipole moment (field-independent basis, Debye):
    X=              0.0000    Y=             -0.0000    Z=             -1.2444  Tot=              1.2444
 Quadrupole moment (field-independent basis, Debye-Ang):
   XX=            -20.6338   YY=            -17.6986   ZZ=            -21.7434
   XY=             -0.0000   XZ=             -0.0000   YZ=             -0.0000

 Normal termination of Gaussian 16 at Mon Mar 21 20:09:27 2022.
