 Gaussian 16, Revision C.01,
 Gaussian 16:  EM64L-G16RevC.01  3-Jul-2019

 ---------------------------------------------------------------------
 #P TD(Nstates=10000) svwn5/Gen SCF(maxcycles=100) Int(Grid=ultrafine)
 ---------------------------------------------------------------------

 ---------------------
 xGDB7_00001_tier4.com
 ---------------------
 Symbolic Z-matrix:
 Charge =  0 Multiplicity = 1

                         Standard orientation:
 ---------------------------------------------------------------------
 Center     Atomic      Atomic             Coordinates (Angstroms)
 Number     Number       Type             X           Y           Z
 ---------------------------------------------------------------------
      1          6           0       -1.208422   -0.239069   -0.021917
      2          6           0        0.083893    0.553452    0.046734
      3          8           0        1.233467   -0.256002   -0.105864
      4          1           0       -2.071999    0.425135    0.051700
      5          1           0       -1.270670   -0.957756    0.799731
      6          1           0       -1.270625   -0.788280   -0.962327
      7          1           0        0.130030    1.119197    0.986112
      8          1           0        0.125951    1.277026   -0.768547
      9          1           0        1.236751   -0.913605    0.591341
 ---------------------------------------------------------------------

 SCF Done:  E(RS-VWN5) =  -153.634939439     A.U. after   13 cycles

 Excitation energies and oscillator strengths:

 Excited State   1:      Singlet-A      6.2652 eV  197.89 nm  f=0.0129  <S**2>=0.000
      13 -> 14         0.70605
 This state for optimization and/or second-order correction.
 Total Energy, E(TD-HF/TD-DFT) =  -153.404698595
 Copying the excited state density for this state as the 1-particle RhoCI density.

 Excited State   2:      Singlet-A      7.1891 eV  172.46 nm  f=0.0144  <S**2>=0.000
      13 -> 15         0.70217

 Excited State   3:      Singlet-A      7.5060 eV  165.18 nm  f=0.0264  <S**2>=0.000
      12 -> 14         0.12921
      13 -> 16         0.69353

 Excited State   4:      Singlet-A      7.6272 eV  162.55 nm  f=0.0186  <S**2>=0.000
      12 -> 14         0.69249
      13 -> 16        -0.12607

 Excited State   5:      Singlet-A      8.0576 eV  153.87 nm  f=0.0519  <S**2>=0.000
      13 -> 17         0.70306

 Excited State   6:      Singlet-A      8.5317 eV  145.32 nm  f=0.0202  <S**2>=0.000
      12 -> 15         0.70345

 Excited State   7:      Singlet-A      8.6080 eV  144.03 nm  f=0.0155  <S**2>=0.000
      13 -> 18         0.70093

 Excited State   8:      Singlet-A      8.8709 eV  139.77 nm  f=0.0332  <S**2>=0.000
      12 -> 16         0.18478
      13 -> 19         0.66199

 Excited State   9:      Singlet-A      8.9003 eV  139.30 nm  f=0.0404  <S**2>=0.000
      12 -> 16         0.67319
      13 -> 19        -0.15445
      13 -> 20        -0.10931

 Excited State  10:      Singlet-A      8.9286 eV  138.86 nm  f=0.0237  <S**2>=0.000
      10 -> 14         0.10245
      11 -> 14         0.68232
      13 -> 19         0.11346

 Excited State  11:      Singlet-A      9.0958 eV  136.31 nm  f=0.0022  <S**2>=0.000
      13 -> 19        -0.12354
      13 -> 20         0.68144

 Excited State  12:      Singlet-A      9.1865 eV  134.96 nm  f=0.0352  <S**2>=0.000
      10 -> 14         0.69108
      11 -> 14        -0.10253

 Excited State  13:      Singlet-A      9.4290 eV  131.49 nm  f=0.0446  <S**2>=0.000
      12 -> 17         0.69959

 Excited State  14:      Singlet-A      9.4836 eV  130.74 nm  f=0.0024  <S**2>=0.000
      13 -> 21         0.70065

 Excited State  15:      Singlet-A      9.7896 eV  126.65 nm  f=0.0117  <S**2>=0.000
      11 -> 15         0.21830
      13 -> 22         0.66047

 Excited State  16:      Singlet-A      9.8322 eV  126.10 nm  f=0.0069  <S**2>=0.000
      11 -> 15         0.66214
      13 -> 22        -0.21421

 Excited State  17:      Singlet-A      9.9828 eV  124.20 nm  f=0.0225  <S**2>=0.000
      12 -> 18         0.67876
      13 -> 23         0.16951

 Excited State  18:      Singlet-A     10.0035 eV  123.94 nm  f=0.0017  <S**2>=0.000
      12 -> 18        -0.16714
      13 -> 23         0.67335

 Excited State  19:      Singlet-A     10.0722 eV  123.10 nm  f=0.0272  <S**2>=0.000
      10 -> 15         0.69518

 Excited State  20:      Singlet-A     10.1863 eV  121.72 nm  f=0.0545  <S**2>=0.000
      11 -> 16         0.69673

 Excited State  21:      Singlet-A     10.2611 eV  120.83 nm  f=0.0382  <S**2>=0.000
      12 -> 19         0.68499

 Excited State  22:      Singlet-A     10.4462 eV  118.69 nm  f=0.0803  <S**2>=0.000
      10 -> 16         0.67290
      13 -> 24         0.12305

 Excited State  23:      Singlet-A     10.4922 eV  118.17 nm  f=0.0205  <S**2>=0.000
       9 -> 14         0.21304
      12 -> 20         0.16759
      13 -> 24         0.63458

 Excited State  24:      Singlet-A     10.5272 eV  117.77 nm  f=0.0155  <S**2>=0.000
       9 -> 14        -0.13149
      12 -> 20         0.64300
      13 -> 24        -0.12736
      13 -> 25        -0.15315

 Excited State  25:      Singlet-A     10.5795 eV  117.19 nm  f=0.0325  <S**2>=0.000
       9 -> 14         0.64767
      13 -> 24        -0.21344

 Excited State  26:      Singlet-A     10.7263 eV  115.59 nm  f=0.0882  <S**2>=0.000
      11 -> 17         0.68179

 Excited State  27:      Singlet-A     10.8691 eV  114.07 nm  f=0.0085  <S**2>=0.000
      10 -> 17         0.24484
      12 -> 21         0.39407
      13 -> 25         0.50793

 Excited State  28:      Singlet-A     10.9186 eV  113.55 nm  f=0.0141  <S**2>=0.000
      10 -> 17        -0.22474
      12 -> 21         0.56716
      13 -> 25        -0.29767

 Excited State  29:      Singlet-A     10.9810 eV  112.91 nm  f=0.0298  <S**2>=0.000
      10 -> 17         0.61194
      12 -> 22        -0.10959
      13 -> 25        -0.29026

 Excited State  30:      Singlet-A     11.1483 eV  111.21 nm  f=0.0101  <S**2>=0.000
       8 -> 14         0.43158
      12 -> 22         0.54099

 Excited State  31:      Singlet-A     11.1678 eV  111.02 nm  f=0.0460  <S**2>=0.000
       8 -> 14         0.54350
      12 -> 22        -0.40589

 Excited State  32:      Singlet-A     11.3385 eV  109.35 nm  f=0.0486  <S**2>=0.000
       9 -> 15         0.12614
      11 -> 18         0.59987
      12 -> 23         0.29599

 Excited State  33:      Singlet-A     11.3954 eV  108.80 nm  f=0.0026  <S**2>=0.000
      11 -> 18        -0.25050
      12 -> 23         0.62405

 Excited State  34:      Singlet-A     11.4400 eV  108.38 nm  f=0.0052  <S**2>=0.000
      11 -> 19        -0.22213
      13 -> 26         0.63949

 Excited State  35:      Singlet-A     11.4779 eV  108.02 nm  f=0.0189  <S**2>=0.000
       9 -> 15         0.62578
      10 -> 18        -0.17938
      11 -> 20         0.12143
      13 -> 27         0.19279

 Excited State  36:      Singlet-A     11.5038 eV  107.78 nm  f=0.0328  <S**2>=0.000
       9 -> 15        -0.11805
      10 -> 18         0.12126
      11 -> 19        -0.29243
      13 -> 27         0.59943

 Excited State  37:      Singlet-A     11.5270 eV  107.56 nm  f=0.0162  <S**2>=0.000
       9 -> 15        -0.13412
      11 -> 19         0.56629
      13 -> 26         0.23190
      13 -> 27         0.25992

 Excited State  38:      Singlet-A     11.6480 eV  106.44 nm  f=0.0374  <S**2>=0.000
       9 -> 15         0.19574
      10 -> 18         0.60389
      10 -> 20         0.12258
      11 -> 18        -0.13202
      11 -> 20        -0.11928

 Excited State  39:      Singlet-A     11.7473 eV  105.54 nm  f=0.0006  <S**2>=0.000
       9 -> 16         0.16977
      10 -> 19         0.65997
      11 -> 20         0.11977

 Excited State  40:      Singlet-A     11.7960 eV  105.11 nm  f=0.0429  <S**2>=0.000
       9 -> 16        -0.40340
      10 -> 18         0.12875
      11 -> 20         0.54214

 Excited State  41:      Singlet-A     11.8376 eV  104.74 nm  f=0.0225  <S**2>=0.000
       9 -> 16         0.50854
      10 -> 19        -0.18703
      10 -> 20        -0.15253
      11 -> 20         0.33041
      12 -> 24        -0.20438

 Excited State  42:      Singlet-A     11.8923 eV  104.26 nm  f=0.0030  <S**2>=0.000
      13 -> 28         0.68333

 Excited State  43:      Singlet-A     11.9485 eV  103.77 nm  f=0.0812  <S**2>=0.000
       8 -> 15        -0.22614
       9 -> 16         0.15757
      10 -> 20        -0.14743
      12 -> 24         0.59571

 Excited State  44:      Singlet-A     12.0484 eV  102.91 nm  f=0.0738  <S**2>=0.000
       8 -> 15         0.63281
      11 -> 21         0.17279
      12 -> 24         0.21482

 Excited State  45:      Singlet-A     12.0929 eV  102.53 nm  f=0.0296  <S**2>=0.000
      10 -> 20         0.59802
      11 -> 20         0.10506
      11 -> 21        -0.20928
      12 -> 24         0.10343

 Excited State  46:      Singlet-A     12.1877 eV  101.73 nm  f=0.0110  <S**2>=0.000
       9 -> 17        -0.19337
      10 -> 20         0.12901
      11 -> 21         0.45139
      12 -> 25         0.44268

 Excited State  47:      Singlet-A     12.2473 eV  101.23 nm  f=0.0296  <S**2>=0.000
       8 -> 15         0.15660
      10 -> 20        -0.10681
      10 -> 22         0.12796
      11 -> 21        -0.39100
      11 -> 22         0.15919
      12 -> 25         0.45937

 Excited State  48:      Singlet-A     12.3631 eV  100.29 nm  f=0.0120  <S**2>=0.000
       9 -> 17         0.58854
      10 -> 21         0.24283
      11 -> 22        -0.20178
      12 -> 25         0.15988

 Excited State  49:      Singlet-A     12.4032 eV   99.96 nm  f=0.0200  <S**2>=0.000
       8 -> 16         0.19794
      10 -> 21         0.51434
      11 -> 22         0.40346

 Excited State  50:      Singlet-A     12.4179 eV   99.84 nm  f=0.0176  <S**2>=0.000
       7 -> 14         0.13258
       8 -> 16         0.61873
       9 -> 17         0.11964
      10 -> 21        -0.26302

 Excited State  51:      Singlet-A     12.4728 eV   99.40 nm  f=0.0566  <S**2>=0.000
       7 -> 14         0.53265
       9 -> 17        -0.12372
      10 -> 21         0.17592
      11 -> 22        -0.32618

 Excited State  52:      Singlet-A     12.5262 eV   98.98 nm  f=0.0219  <S**2>=0.000
       7 -> 14         0.35363
       8 -> 16        -0.23197
       8 -> 17         0.12806
       9 -> 17         0.20267
      10 -> 21        -0.18125
      10 -> 22        -0.28862
      11 -> 22         0.32233

 Excited State  53:      Singlet-A     12.7226 eV   97.45 nm  f=0.0024  <S**2>=0.000
       8 -> 17         0.11633
      10 -> 22         0.28691
      10 -> 23         0.14000
      11 -> 23         0.56867
      12 -> 26        -0.10300

 Excited State  54:      Singlet-A     12.7450 eV   97.28 nm  f=0.0352  <S**2>=0.000
      12 -> 27        -0.11303
      13 -> 29         0.65001
      13 -> 30         0.15747

 Excited State  55:      Singlet-A     12.7788 eV   97.02 nm  f=0.0260  <S**2>=0.000
       8 -> 17         0.18773
       9 -> 18        -0.18197
       9 -> 19        -0.10168
      10 -> 22         0.46761
      10 -> 23        -0.15246
      11 -> 23        -0.25602
      12 -> 26         0.23716

 Excited State  56:      Singlet-A     12.8412 eV   96.55 nm  f=0.0128  <S**2>=0.000
       8 -> 17        -0.12225
       9 -> 18         0.14323
      11 -> 23         0.18480
      12 -> 26         0.59364
      12 -> 27        -0.13988

 Excited State  57:      Singlet-A     12.9235 eV   95.94 nm  f=0.0222  <S**2>=0.000
       8 -> 17        -0.19605
      10 -> 23         0.21942
      11 -> 24         0.10873
      12 -> 26         0.11000
      12 -> 27         0.57418
      12 -> 28        -0.14898

 Excited State  58:      Singlet-A     12.9614 eV   95.66 nm  f=0.0169  <S**2>=0.000
       8 -> 17         0.33798
       9 -> 18         0.51561
      10 -> 23        -0.18398
      11 -> 24        -0.11217
      12 -> 27         0.19750

 Excited State  59:      Singlet-A     13.0302 eV   95.15 nm  f=0.0342  <S**2>=0.000
       9 -> 18         0.23329
       9 -> 19        -0.19601
      10 -> 22         0.10289
      10 -> 23         0.48246
      10 -> 24         0.11119
      11 -> 23        -0.13869
      11 -> 24        -0.11806
      12 -> 27        -0.13755
      13 -> 30         0.24490

 Excited State  60:      Singlet-A     13.1193 eV   94.51 nm  f=0.0189  <S**2>=0.000
       8 -> 17         0.34211
       9 -> 19         0.38268
      10 -> 23         0.11951
      11 -> 24         0.22517
      12 -> 26         0.11688
      13 -> 30         0.28741

 Excited State  61:      Singlet-A     13.1668 eV   94.16 nm  f=0.0148  <S**2>=0.000
       7 -> 15         0.16843
       8 -> 17        -0.14290
       9 -> 19        -0.17221
       9 -> 20         0.12136
      10 -> 23        -0.23415
      13 -> 29        -0.12835
      13 -> 30         0.52455

 Excited State  62:      Singlet-A     13.2372 eV   93.66 nm  f=0.0131  <S**2>=0.000
       7 -> 15        -0.15640
       9 -> 19        -0.17306
      11 -> 24         0.49651
      11 -> 25        -0.18771
      12 -> 28         0.32318
      13 -> 30        -0.12750

 Excited State  63:      Singlet-A     13.3007 eV   93.22 nm  f=0.0522  <S**2>=0.000
       7 -> 15         0.57258
       9 -> 19         0.16533
      10 -> 23         0.10436
      10 -> 25         0.10422
      12 -> 28         0.24998

 Excited State  64:      Singlet-A     13.3355 eV   92.97 nm  f=0.0048  <S**2>=0.000
       7 -> 15        -0.13264
       7 -> 16        -0.12131
       8 -> 17        -0.19053
       8 -> 18        -0.23564
       9 -> 18         0.13534
       9 -> 19         0.32019
       9 -> 20         0.33085
      11 -> 24         0.11764
      11 -> 25        -0.16225
      12 -> 28        -0.16809
      13 -> 31        -0.10867

 Excited State  65:      Singlet-A     13.4056 eV   92.49 nm  f=0.0102  <S**2>=0.000
       9 -> 20         0.50161
      11 -> 25         0.36575
      12 -> 28         0.24687

 Excited State  66:      Singlet-A     13.4246 eV   92.36 nm  f=0.0478  <S**2>=0.000
       7 -> 15         0.21666
       8 -> 18         0.35809
       9 -> 20         0.25444
      10 -> 24        -0.31942
      11 -> 25        -0.12003
      12 -> 28        -0.28927

 Excited State  67:      Singlet-A     13.5481 eV   91.51 nm  f=0.0457  <S**2>=0.000
       7 -> 16        -0.22351
       8 -> 17        -0.10407
       8 -> 18         0.22210
       9 -> 18         0.15599
       9 -> 20        -0.12694
      10 -> 24         0.11357
      11 -> 24         0.22264
      11 -> 25         0.43629
      12 -> 28        -0.12660

 Excited State  68:      Singlet-A     13.6156 eV   91.06 nm  f=0.0963  <S**2>=0.000
       7 -> 15         0.10491
       7 -> 16         0.30558
       8 -> 18        -0.25158
       8 -> 19         0.11754
       9 -> 19        -0.17881
       9 -> 21        -0.17543
      10 -> 24         0.30308
      11 -> 24         0.14284
      12 -> 28        -0.23564
      13 -> 31         0.13233

 Excited State  69:      Singlet-A     13.6641 eV   90.74 nm  f=0.0513  <S**2>=0.000
       7 -> 16        -0.14366
       8 -> 18         0.31248
       8 -> 20        -0.17520
      10 -> 24         0.33296
      10 -> 25         0.29483
      11 -> 25        -0.23610
      13 -> 31         0.17066

 Excited State  70:      Singlet-A     13.7326 eV   90.28 nm  f=0.0118  <S**2>=0.000
       7 -> 16        -0.24369
       8 -> 19         0.46663
      10 -> 25        -0.19343
      13 -> 31         0.35738

 Excited State  71:      Singlet-A     13.7548 eV   90.14 nm  f=0.0168  <S**2>=0.000
       7 -> 16         0.34867
       8 -> 19         0.11685
       9 -> 21         0.46347
      10 -> 25         0.26585
      13 -> 31         0.17073

 Excited State  72:      Singlet-A     13.8385 eV   89.59 nm  f=0.0204  <S**2>=0.000
       7 -> 16        -0.11452
       8 -> 18        -0.15288
       8 -> 19        -0.14843
       9 -> 21        -0.18778
       9 -> 22        -0.13122
      10 -> 24        -0.21383
      10 -> 25         0.41264
      11 -> 26         0.23001
      13 -> 31         0.24148
      13 -> 32         0.12169

 Excited State  73:      Singlet-A     13.9085 eV   89.14 nm  f=0.0729  <S**2>=0.000
       8 -> 19         0.36917
       8 -> 20        -0.15867
       8 -> 21        -0.10995
       9 -> 21        -0.18416
       9 -> 22        -0.14933
      10 -> 25         0.19732
      11 -> 26        -0.12251
      11 -> 27        -0.13455
      12 -> 29        -0.16130
      13 -> 31        -0.31406

 Excited State  74:      Singlet-A     13.9262 eV   89.03 nm  f=0.0324  <S**2>=0.000
       7 -> 16        -0.26242
       7 -> 17        -0.27729
       8 -> 17         0.12216
       8 -> 18        -0.10616
       9 -> 19        -0.15845
       9 -> 21         0.34483
      10 -> 25         0.13668
      13 -> 31        -0.22009

 Excited State  75:      Singlet-A     13.9990 eV   88.57 nm  f=0.0322  <S**2>=0.000
       8 -> 20        -0.40427
      11 -> 26        -0.17051
      13 -> 32         0.49580

 Excited State  76:      Singlet-A     14.0559 eV   88.21 nm  f=0.0653  <S**2>=0.000
       8 -> 19         0.10214
       8 -> 20         0.27566
       9 -> 22         0.37653
       9 -> 23        -0.15613
      12 -> 29        -0.12842
      13 -> 32         0.40809

 Excited State  77:      Singlet-A     14.1057 eV   87.90 nm  f=0.0425  <S**2>=0.000
       7 -> 17         0.13331
       8 -> 20        -0.33590
       9 -> 22         0.36088
      11 -> 26         0.31368
      11 -> 27        -0.11675
      12 -> 29        -0.22800
      13 -> 32        -0.18099

 Excited State  78:      Singlet-A     14.1138 eV   87.85 nm  f=0.0437  <S**2>=0.000
       7 -> 17        -0.16454
       8 -> 19         0.10573
       9 -> 22         0.18403
      11 -> 26         0.12102
      11 -> 27        -0.28198
      12 -> 29         0.54889

 Excited State  79:      Singlet-A     14.1326 eV   87.73 nm  f=0.0104  <S**2>=0.000
       7 -> 17         0.13591
       8 -> 19         0.10849
       9 -> 22        -0.24950
      11 -> 26         0.43120
      11 -> 27         0.34842
      11 -> 28        -0.12061
      12 -> 29         0.16266

 Excited State  80:      Singlet-A     14.2558 eV   86.97 nm  f=0.0847  <S**2>=0.000
       7 -> 17         0.16722
       8 -> 18        -0.10383
       8 -> 20        -0.10928
       9 -> 22         0.17429
       9 -> 23        -0.15175
      10 -> 26         0.31860
      11 -> 26        -0.18609
      11 -> 27         0.34910
      12 -> 29         0.13249
      13 -> 32        -0.10719
      13 -> 33         0.21495

 Excited State  81:      Singlet-A     14.3221 eV   86.57 nm  f=0.0263  <S**2>=0.000
       7 -> 17         0.44119
       8 -> 20         0.11080
       8 -> 21         0.16975
       9 -> 22        -0.11789
       9 -> 23        -0.25592
      10 -> 26         0.13060
      11 -> 27        -0.27281

 Excited State  82:      Singlet-A     14.3711 eV   86.27 nm  f=0.0020  <S**2>=0.000
       7 -> 17         0.17186
       9 -> 23         0.42546
      10 -> 26        -0.10891
      10 -> 27         0.45276
      13 -> 33         0.18741

 Excited State  83:      Singlet-A     14.4177 eV   85.99 nm  f=0.0413  <S**2>=0.000
       7 -> 17        -0.11208
       8 -> 21         0.42511
       8 -> 22        -0.11082
       9 -> 23         0.16691
      10 -> 26         0.20454
      10 -> 27        -0.25862
      12 -> 30        -0.18828
      13 -> 33         0.28368

 Excited State  84:      Singlet-A     14.4401 eV   85.86 nm  f=0.0366  <S**2>=0.000
       8 -> 21        -0.33387
      10 -> 26        -0.16144
      10 -> 27        -0.29355
      11 -> 28        -0.13351
      13 -> 33         0.42575

 Excited State  85:      Singlet-A     14.4757 eV   85.65 nm  f=0.0902  <S**2>=0.000
       7 -> 18         0.10534
       8 -> 21         0.23226
      10 -> 26        -0.16371
      10 -> 27        -0.10067
      11 -> 28        -0.29146
      12 -> 30         0.44771
      13 -> 34         0.22827

 Excited State  86:      Singlet-A     14.4850 eV   85.59 nm  f=0.0492  <S**2>=0.000
       7 -> 18        -0.11653
       8 -> 21        -0.13400
       9 -> 24        -0.10474
      10 -> 26         0.40484
      10 -> 27         0.12342
      11 -> 26         0.15107
      12 -> 29        -0.14572
      12 -> 30         0.35606

 Excited State  87:      Singlet-A     14.5881 eV   84.99 nm  f=0.0153  <S**2>=0.000
       7 -> 18        -0.13475
       9 -> 23         0.10907
      10 -> 27        -0.16024
      11 -> 28         0.31734
      13 -> 34         0.52942

 Excited State  88:      Singlet-A     14.6588 eV   84.58 nm  f=0.1277  <S**2>=0.000
       7 -> 18        -0.22347
       8 -> 22         0.41444
       9 -> 23         0.22660
      10 -> 26         0.11666
      10 -> 27        -0.16838
      13 -> 33        -0.16559
      13 -> 34        -0.26629
      13 -> 35         0.14026

 Excited State  89:      Singlet-A     14.6880 eV   84.41 nm  f=0.1249  <S**2>=0.000
       7 -> 18         0.16617
       7 -> 19         0.15249
       8 -> 22        -0.28471
       9 -> 23         0.10232
       9 -> 24         0.20649
      10 -> 27        -0.10015
      11 -> 28         0.37351
      12 -> 30         0.17340
      13 -> 34        -0.22835

 Excited State  90:      Singlet-A     14.7340 eV   84.15 nm  f=0.0422  <S**2>=0.000
       7 -> 18         0.41292
       8 -> 22         0.41486
      11 -> 28         0.18806
      13 -> 33         0.13497
      13 -> 35        -0.19045

 Excited State  91:      Singlet-A     14.7835 eV   83.87 nm  f=0.0439  <S**2>=0.000
       7 -> 18        -0.11225
       9 -> 24        -0.13359
      10 -> 28         0.59071
      11 -> 28         0.13750
      13 -> 35        -0.24059

 Excited State  92:      Singlet-A     14.7967 eV   83.79 nm  f=0.0103  <S**2>=0.000
       7 -> 18        -0.22355
       9 -> 24         0.49729
      13 -> 35        -0.40005

 Excited State  93:      Singlet-A     14.8945 eV   83.24 nm  f=0.0515  <S**2>=0.000
       7 -> 18         0.15740
       8 -> 21        -0.10098
       8 -> 23         0.35502
       9 -> 24         0.33686
      10 -> 28         0.26805
      13 -> 35         0.26807
      13 -> 36        -0.11974

 Excited State  94:      Singlet-A     14.9478 eV   82.94 nm  f=0.1483  <S**2>=0.000
       6 -> 14         0.11878

 The electronic state is 1-A.
 Alpha  occ. eigenvalues --  -18.61464  -9.83107  -9.78133  -0.92458  -0.67233
 Alpha  occ. eigenvalues --   -0.56356  -0.46021  -0.41443  -0.39283  -0.34198
 Alpha  occ. eigenvalues --   -0.33251  -0.28542  -0.23520
 Alpha virt. eigenvalues --   -0.00765   0.02584   0.04017   0.05884   0.08034
 Alpha virt. eigenvalues --    0.08816   0.09673   0.11267   0.12352   0.13245
 Alpha virt. eigenvalues --    0.14920   0.16008   0.18400   0.18723   0.20104

 Mulliken charges:
               1
     1  C    0.286512
     2  C    0.139831
     3  O   -0.370704
     4  H    0.021162
     5  H   -0.024204
     6  H    0.002810
     7  H   -0.082885
     8  H   -0.167528
     9  H    0.195006
 Sum of Mulliken charges =   0.00000

 Dipole moment (field-independent basis, Debye):
    X=             -1.2992    Y=             -0.1703    Z=              1.1349  Tot=              1.7335
 Quadrupole moment (field-independent basis, Debye-Ang):
   XX=            -22.7564   YY=            -19.0735   ZZ=            -19.6910
   XY=             -0.9839   XZ=              1.7368   YZ=             -1.5026

 Normal termination of Gaussian 16 at Mon Mar 21 19:59:02 2022.
