 Gaussian 16, Revision C.01,
 Gaussian 16:  EM64L-G16RevC.01  3-Jul-2019

 ---------------------------------------------------------------------
 #P TD(Nstates=10000) svwn5/Gen SCF(maxcycles=100) Int(Grid=ultrafine)
 ---------------------------------------------------------------------

 ---------------------
 xGDB7_00001_tier4.com
 ---------------------
 Symbolic Z-matrix:
 Charge =  0 Multiplicity = 1

                         Standard orientation:
 ---------------------------------------------------------------------
 Center     Atomic      Atomic             Coordinates (Angstroms)
 Number     Number       Type             X           Y           Z
 ---------------------------------------------------------------------
      1          9           0        0.000000    0.000000    0.091801
      2          1           0        0.000000    0.000000   -0.826212
 ---------------------------------------------------------------------

 SCF Done:  E(RS-VWN5) =  -99.7275191905     A.U. after    9 cycles

 Excitation energies and oscillator strengths:

 Excited state symmetry could not be determined.
 Excited State   1:      Singlet-?Sym    9.6710 eV  128.20 nm  f=0.0341  <S**2>=0.000
       4 ->  6         0.70664
 This state for optimization and/or second-order correction.
 Total Energy, E(TD-HF/TD-DFT) =  -99.3721170851
 Copying the excited state density for this state as the 1-particle RhoCI density.

 Excited state symmetry could not be determined.
 Excited State   2:      Singlet-?Sym    9.6710 eV  128.20 nm  f=0.0341  <S**2>=0.000
       5 ->  6         0.70664

 Excited State   3:      Singlet-SG    13.5643 eV   91.40 nm  f=0.1361  <S**2>=0.000
       3 ->  6         0.64511
       4 ->  7         0.19965
       5 ->  8         0.19965

 Excited state symmetry could not be determined.
 Excited State   4:      Singlet-?Sym   13.6746 eV   90.67 nm  f=0.0000  <S**2>=0.000
       4 ->  8         0.49992
       5 ->  7         0.49992

 Excited state symmetry could not be determined.
 Excited State   5:      Singlet-?Sym   13.6746 eV   90.67 nm  f=0.0000  <S**2>=0.000
       4 ->  7        -0.49992
       5 ->  8         0.49992

 Excited state symmetry could not be determined.
 Excited State   6:      Singlet-?Sym   13.6927 eV   90.55 nm  f=0.0000  <S**2>=0.000
       4 ->  8        -0.50000
       5 ->  7         0.50000

 Excited state symmetry could not be determined.
 Excited State   7:      Singlet-?Sym   13.7286 eV   90.31 nm  f=0.0223  <S**2>=0.000
       4 ->  9         0.69025
       5 ->  9         0.15058

 Excited state symmetry could not be determined.
 Excited State   8:      Singlet-?Sym   13.7286 eV   90.31 nm  f=0.0223  <S**2>=0.000
       4 ->  9        -0.15058
       5 ->  9         0.69025

 Excited state symmetry could not be determined.
 Excited State   9:      Singlet-?Sym   15.1771 eV   81.69 nm  f=0.0116  <S**2>=0.000
       3 ->  6        -0.24676
       3 ->  9        -0.17531
       3 -> 10         0.10681
       4 ->  7         0.42032
       4 -> 12        -0.13791
       5 ->  8         0.42032
       5 -> 11        -0.13791

 Excited state symmetry could not be determined.
 Excited State  10:      Singlet-?Sym   15.4806 eV   80.09 nm  f=0.0787  <S**2>=0.000
       4 -> 10         0.67719
       5 -> 10         0.20018

 Excited state symmetry could not be determined.
 Excited State  11:      Singlet-?Sym   15.4806 eV   80.09 nm  f=0.0787  <S**2>=0.000
       4 -> 10        -0.20018
       5 -> 10         0.67719

 Excited state symmetry could not be determined.
 Excited State  12:      Singlet-?Sym   16.2161 eV   76.46 nm  f=0.0000  <S**2>=0.000
       4 -> 12        -0.49994
       5 -> 11         0.49994

 Excited state symmetry could not be determined.
 Excited State  13:      Singlet-?Sym   16.2161 eV   76.46 nm  f=0.0000  <S**2>=0.000
       4 -> 11         0.49994
       5 -> 12         0.49994

 Excited state symmetry could not be determined.
 Excited State  14:      Singlet-?Sym   16.3537 eV   75.81 nm  f=0.0000  <S**2>=0.000
       4 -> 11         0.50000
       5 -> 12        -0.50000

 Excited state symmetry could not be determined.
 Excited State  15:      Singlet-?Sym   16.3878 eV   75.66 nm  f=0.2027  <S**2>=0.000
       3 ->  9        -0.10740
       3 -> 10         0.11352
       4 -> 12         0.47431
       5 -> 11         0.47431

 Excited state symmetry could not be determined.
 Excited State  16:      Singlet-?Sym   17.4540 eV   71.04 nm  f=0.0000  <S**2>=0.000
       3 ->  7         0.70668

 Excited state symmetry could not be determined.
 Excited State  17:      Singlet-?Sym   17.4540 eV   71.04 nm  f=0.0000  <S**2>=0.000
       3 ->  8         0.70668

 Excited State  18:      Singlet-SG    17.8697 eV   69.38 nm  f=0.0457  <S**2>=0.000
       3 ->  9         0.65786
       3 -> 10         0.20006
       4 ->  7         0.10382
       5 ->  8         0.10382

 Excited state symmetry could not be determined.
 Excited State  19:      Singlet-?Sym   18.7094 eV   66.27 nm  f=0.0145  <S**2>=0.000
       4 -> 13         0.66155
       5 -> 13         0.24490

 Excited state symmetry could not be determined.
 Excited State  20:      Singlet-?Sym   18.7094 eV   66.27 nm  f=0.0145  <S**2>=0.000
       4 -> 13        -0.24490
       5 -> 13         0.66155

 Excited state symmetry could not be determined.
 Excited State  21:      Singlet-?Sym   20.0195 eV   61.93 nm  f=0.0758  <S**2>=0.000
       3 -> 12         0.69882

 Excited state symmetry could not be determined.
 Excited State  22:      Singlet-?Sym   20.0195 eV   61.93 nm  f=0.0758  <S**2>=0.000
       3 -> 11         0.69882

 Excited State  23:      Singlet-SG    20.1748 eV   61.46 nm  f=0.0967  <S**2>=0.000
       3 ->  9        -0.13984
       3 -> 10         0.61982
       3 -> 13        -0.25463

 Excited State  24:      Singlet-SG    23.0926 eV   53.69 nm  f=0.0634  <S**2>=0.000
       3 -> 10         0.20453
       3 -> 13         0.64858

 Excited state symmetry could not be determined.
 Excited State  25:      Singlet-?Sym   24.0712 eV   51.51 nm  f=0.0000  <S**2>=0.000
       4 -> 14         0.48642
       4 -> 15         0.11574
       5 -> 14        -0.11574
       5 -> 15         0.48642

 Excited state symmetry could not be determined.
 Excited State  26:      Singlet-?Sym   24.0712 eV   51.51 nm  f=0.0000  <S**2>=0.000
       4 -> 14         0.11574
       4 -> 15        -0.48642
       5 -> 14         0.48642
       5 -> 15         0.11574

 Excited state symmetry could not be determined.
 Excited State  27:      Singlet-?Sym   25.1109 eV   49.37 nm  f=0.4301  <S**2>=0.000
       4 -> 14        -0.27345
       4 -> 15         0.39244
       4 -> 16        -0.15737
       5 -> 14         0.39244
       5 -> 15         0.27345
       5 -> 16         0.10965

 Excited state symmetry could not be determined.
 Excited State  28:      Singlet-?Sym   25.1109 eV   49.37 nm  f=0.4301  <S**2>=0.000
       4 -> 14         0.39244
       4 -> 15         0.27345
       4 -> 16        -0.10965
       5 -> 14         0.27345
       5 -> 15        -0.39244
       5 -> 16        -0.15737

 Excited state symmetry could not be determined.
 Excited State  29:      Singlet-?Sym   26.7395 eV   46.37 nm  f=0.1698  <S**2>=0.000
       4 -> 15         0.10640
       4 -> 16         0.55356
       5 -> 14         0.10640
       5 -> 16        -0.39236

 Excited state symmetry could not be determined.
 Excited State  30:      Singlet-?Sym   26.7395 eV   46.37 nm  f=0.1698  <S**2>=0.000
       4 -> 14         0.10640
       4 -> 16         0.39236
       5 -> 15        -0.10640
       5 -> 16         0.55356

 Excited state symmetry could not be determined.
 Excited State  31:      Singlet-?Sym   27.9632 eV   44.34 nm  f=0.0000  <S**2>=0.000
       3 -> 14         0.70426

 Excited state symmetry could not be determined.
 Excited State  32:      Singlet-?Sym   27.9632 eV   44.34 nm  f=0.0000  <S**2>=0.000
       3 -> 15         0.70426

 Excited state symmetry could not be determined.
 Excited State  33:      Singlet-?Sym   28.6278 eV   43.31 nm  f=0.0000  <S**2>=0.000
       4 -> 17         0.49799
       5 -> 18         0.49799

 Excited state symmetry could not be determined.
 Excited State  34:      Singlet-?Sym   28.6278 eV   43.31 nm  f=0.0000  <S**2>=0.000
       4 -> 18        -0.49799
       5 -> 17         0.49799

 Excited state symmetry could not be determined.
 Excited State  35:      Singlet-?Sym   28.7273 eV   43.16 nm  f=0.0000  <S**2>=0.000
       4 -> 17         0.50000
       5 -> 18        -0.50000

 Excited state symmetry could not be determined.
 Excited State  36:      Singlet-?Sym   29.2000 eV   42.46 nm  f=0.1690  <S**2>=0.000
       2 ->  6         0.19195
       3 -> 16         0.31477
       4 -> 18         0.42450
       5 -> 17         0.42450

 Excited State  37:      Singlet-SG    29.9737 eV   41.36 nm  f=0.0416  <S**2>=0.000
       2 ->  6         0.65403
       3 -> 16        -0.19668

 Excited State  38:      Singlet-SG    31.7568 eV   39.04 nm  f=0.5470  <S**2>=0.000
       2 ->  6         0.12311
       3 -> 16         0.59190
       4 -> 18        -0.24038
       5 -> 17        -0.24038

 Excited state symmetry could not be determined.
 Excited State  39:      Singlet-?Sym   32.8543 eV   37.74 nm  f=0.2769  <S**2>=0.000
       2 ->  7        -0.22930
       2 ->  8        -0.11414
       3 -> 17         0.29192
       3 -> 18         0.58644

 Excited state symmetry could not be determined.
 Excited State  40:      Singlet-?Sym   32.8543 eV   37.74 nm  f=0.2769  <S**2>=0.000
       2 ->  7         0.11414
       2 ->  8        -0.22930
       3 -> 17         0.58644
       3 -> 18        -0.29192

 Excited State  41:      Singlet-SG    33.4560 eV   37.06 nm  f=0.0098  <S**2>=0.000
       2 ->  9         0.69645

 Excited state symmetry could not be determined.
 Excited State  42:      Singlet-?Sym   33.6661 eV   36.83 nm  f=0.0162  <S**2>=0.000
       2 ->  7         0.56043
       2 ->  8         0.34333
       3 -> 17         0.13090
       3 -> 18         0.21366

 Excited state symmetry could not be determined.
 Excited State  43:      Singlet-?Sym   33.6661 eV   36.83 nm  f=0.0162  <S**2>=0.000
       2 ->  7        -0.34333
       2 ->  8         0.56043
       3 -> 17         0.21366
       3 -> 18        -0.13090

 Excited State  44:      Singlet-SG    35.2853 eV   35.14 nm  f=0.0124  <S**2>=0.000
       2 -> 10         0.69942

 Excited state symmetry could not be determined.
 Excited State  45:      Singlet-?Sym   35.9088 eV   34.53 nm  f=0.0038  <S**2>=0.000
       2 -> 11         0.51872
       2 -> 12        -0.48006

 Excited state symmetry could not be determined.
 Excited State  46:      Singlet-?Sym   35.9088 eV   34.53 nm  f=0.0038  <S**2>=0.000
       2 -> 11         0.48006
       2 -> 12         0.51872

 Excited state symmetry could not be determined.
 Excited State  47:      Singlet-?Sym   36.8802 eV   33.62 nm  f=0.0045  <S**2>=0.000
       4 -> 19         0.57064
       5 -> 19        -0.41669

 Excited state symmetry could not be determined.
 Excited State  48:      Singlet-?Sym   36.8802 eV   33.62 nm  f=0.0045  <S**2>=0.000
       4 -> 19         0.41669
       5 -> 19         0.57064

 Excited State  49:      Singlet-SG    38.8087 eV   31.95 nm  f=0.0262  <S**2>=0.000
       2 -> 13         0.67878
       3 -> 19         0.13918

 Excited State  50:      Singlet-SG    41.3054 eV   30.02 nm  f=0.0020  <S**2>=0.000
       2 -> 13        -0.10342
       3 -> 19         0.66593
       4 -> 20        -0.13698
       5 -> 21        -0.13698

 Excited state symmetry could not be determined.
 Excited State  51:      Singlet-?Sym   43.9811 eV   28.19 nm  f=0.0000  <S**2>=0.000
       2 -> 14         0.70614

 Excited state symmetry could not be determined.
 Excited State  52:      Singlet-?Sym   43.9811 eV   28.19 nm  f=0.0000  <S**2>=0.000
       2 -> 15         0.70614

 Excited state symmetry could not be determined.
 Excited State  53:      Singlet-?Sym   44.0450 eV   28.15 nm  f=0.0000  <S**2>=0.000
       4 -> 21        -0.50000
       5 -> 20         0.50000

 Excited state symmetry could not be determined.
 Excited State  54:      Singlet-?Sym   44.4486 eV   27.89 nm  f=0.0000  <S**2>=0.000
       4 -> 21         0.49932
       5 -> 20         0.49932

 Excited state symmetry could not be determined.
 Excited State  55:      Singlet-?Sym   44.4486 eV   27.89 nm  f=0.0000  <S**2>=0.000
       4 -> 20        -0.49932
       5 -> 21         0.49932

 Excited State  56:      Singlet-SG    46.4322 eV   26.70 nm  f=0.0007  <S**2>=0.000
       2 -> 16         0.69954

 Excited state symmetry could not be determined.
 Excited State  57:      Singlet-?Sym   48.0081 eV   25.83 nm  f=0.0001  <S**2>=0.000
       3 -> 20         0.52892
       3 -> 21         0.44858

 Excited state symmetry could not be determined.
 Excited State  58:      Singlet-?Sym   48.0081 eV   25.83 nm  f=0.0001  <S**2>=0.000
       3 -> 20        -0.44858
       3 -> 21         0.52892

 Excited state symmetry could not be determined.
 Excited State  59:      Singlet-?Sym   48.5606 eV   25.53 nm  f=0.0046  <S**2>=0.000
       2 -> 17         0.69598

 Excited state symmetry could not be determined.
 Excited State  60:      Singlet-?Sym   48.5606 eV   25.53 nm  f=0.0046  <S**2>=0.000
       2 -> 18         0.69598

 Excited state symmetry could not be determined.
 Excited State  61:      Singlet-?Sym   50.0284 eV   24.78 nm  f=0.0400  <S**2>=0.000
       4 -> 22         0.55817
       5 -> 22         0.41477

 Excited state symmetry could not be determined.
 Excited State  62:      Singlet-?Sym   50.0284 eV   24.78 nm  f=0.0400  <S**2>=0.000
       4 -> 22        -0.41477
       5 -> 22         0.55817

 Excited State  63:      Singlet-SG    50.5188 eV   24.54 nm  f=0.0739  <S**2>=0.000
       2 -> 19         0.11897
       3 -> 19        -0.11331
       3 -> 22         0.43619
       4 -> 20        -0.35722
       5 -> 21        -0.35722

 Excited State  64:      Singlet-SG    56.8291 eV   21.82 nm  f=0.0494  <S**2>=0.000
       2 -> 19         0.59333
       3 -> 22        -0.32905

 Excited state symmetry could not be determined.
 Excited State  65:      Singlet-?Sym   58.0286 eV   21.37 nm  f=0.0000  <S**2>=0.000
       4 -> 24        -0.49999
       5 -> 23         0.49999

 Excited state symmetry could not be determined.
 Excited State  66:      Singlet-?Sym   58.0286 eV   21.37 nm  f=0.0000  <S**2>=0.000
       4 -> 23         0.49999
       5 -> 24         0.49999

 Excited state symmetry could not be determined.
 Excited State  67:      Singlet-?Sym   58.1360 eV   21.33 nm  f=0.0000  <S**2>=0.000
       4 -> 23         0.50000
       5 -> 24        -0.50000

 Excited State  68:      Singlet-SG    58.1707 eV   21.31 nm  f=0.0850  <S**2>=0.000
       2 -> 19         0.33501
       2 -> 22         0.12440
       3 -> 22         0.29012
       4 -> 20         0.17074
       4 -> 24         0.32107
       5 -> 21         0.17074
       5 -> 23         0.32107

 Excited state symmetry could not be determined.
 Excited State  69:      Singlet-?Sym   59.5997 eV   20.80 nm  f=0.0389  <S**2>=0.000
       2 -> 19        -0.12797
       2 -> 22        -0.16782
       3 -> 22        -0.30272
       3 -> 25         0.16751
       4 -> 20        -0.17387
       4 -> 24         0.36219
       5 -> 21        -0.17387
       5 -> 23         0.36219

 Excited state symmetry could not be determined.
 Excited State  70:      Singlet-?Sym   61.2952 eV   20.23 nm  f=0.0025  <S**2>=0.000
       2 -> 20        -0.10016
       3 -> 24        -0.26059
       4 -> 25         0.64830

 Excited state symmetry could not be determined.
 Excited State  71:      Singlet-?Sym   61.2952 eV   20.23 nm  f=0.0025  <S**2>=0.000
       2 -> 21        -0.10016
       3 -> 23        -0.26059
       5 -> 25         0.64830

 Excited state symmetry could not be determined.
 Excited State  72:      Singlet-?Sym   62.3747 eV   19.88 nm  f=0.1089  <S**2>=0.000
       2 -> 21        -0.10476
       3 -> 23         0.62026
       3 -> 24        -0.20232
       5 -> 25         0.23316

 Excited state symmetry could not be determined.
 Excited State  73:      Singlet-?Sym   62.3747 eV   19.88 nm  f=0.1089  <S**2>=0.000
       2 -> 20        -0.10476
       3 -> 23         0.20232
       3 -> 24         0.62026
       4 -> 25         0.23316

 Excited state symmetry could not be determined.
 Excited State  74:      Singlet-?Sym   64.7134 eV   19.16 nm  f=0.2697  <S**2>=0.000
       2 -> 20        -0.25017
       2 -> 21         0.64207
       5 -> 25         0.12351

 Excited state symmetry could not be determined.
 Excited State  75:      Singlet-?Sym   64.7134 eV   19.16 nm  f=0.2697  <S**2>=0.000
       2 -> 20         0.64207
       2 -> 21         0.25017
       4 -> 25         0.12351

 Excited State  76:      Singlet-SG    65.7024 eV   18.87 nm  f=0.0188  <S**2>=0.000
       2 -> 22         0.16731
       3 -> 25         0.67163

 Excited State  77:      Singlet-SG    71.8325 eV   17.26 nm  f=0.0841  <S**2>=0.000
       2 -> 22         0.63003
       2 -> 25         0.16266
       3 -> 22        -0.12435
       3 -> 25        -0.11069
       3 -> 26        -0.12530
       4 -> 20        -0.11256
       5 -> 21        -0.11256

 Excited state symmetry could not be determined.
 Excited State  78:      Singlet-?Sym   72.3435 eV   17.14 nm  f=0.0184  <S**2>=0.000
       4 -> 26         0.25343
       5 -> 26         0.65775

 Excited state symmetry could not be determined.
 Excited State  79:      Singlet-?Sym   72.3435 eV   17.14 nm  f=0.0184  <S**2>=0.000
       4 -> 26         0.65775
       5 -> 26        -0.25343

 Excited State  80:      Singlet-SG    77.3058 eV   16.04 nm  f=0.0202  <S**2>=0.000
       2 -> 25         0.11791
       3 -> 26         0.68285

 Excited state symmetry could not be determined.
 Excited State  81:      Singlet-?Sym   78.0289 eV   15.89 nm  f=0.0028  <S**2>=0.000
       2 -> 23         0.70063

 Excited state symmetry could not be determined.
 Excited State  82:      Singlet-?Sym   78.0289 eV   15.89 nm  f=0.0028  <S**2>=0.000
       2 -> 24         0.70063

 Excited State  83:      Singlet-SG    83.9048 eV   14.78 nm  f=0.0339  <S**2>=0.000
       2 -> 22        -0.12293
       2 -> 25         0.66815

 Excited State  84:      Singlet-SG    93.0434 eV   13.33 nm  f=0.0255  <S**2>=0.000
       2 -> 26         0.70204

 Excited state symmetry could not be determined.
 Excited State  85:      Singlet-?Sym   97.6571 eV   12.70 nm  f=0.0000  <S**2>=0.000
       4 -> 27         0.49414
       5 -> 28         0.49414

 Excited state symmetry could not be determined.
 Excited State  86:      Singlet-?Sym   97.6571 eV   12.70 nm  f=0.0000  <S**2>=0.000
       4 -> 28        -0.49414
       5 -> 27         0.49414

 Excited state symmetry could not be determined.
 Excited State  87:      Singlet-?Sym  101.0999 eV   12.26 nm  f=0.0000  <S**2>=0.000
       3 -> 27         0.69151
       4 -> 30        -0.10273
       5 -> 29        -0.10273

 Excited state symmetry could not be determined.
 Excited State  88:      Singlet-?Sym  101.0999 eV   12.26 nm  f=0.0000  <S**2>=0.000
       3 -> 28         0.69151
       4 -> 29        -0.10273
       5 -> 30         0.10273

 Excited state symmetry could not be determined.
 Excited State  89:      Singlet-?Sym  101.6350 eV   12.20 nm  f=0.2622  <S**2>=0.000
       3 -> 29         0.19247
       3 -> 30        -0.30726
       4 -> 27         0.36221
       4 -> 28        -0.22690
       5 -> 27        -0.22690
       5 -> 28        -0.36221

 Excited state symmetry could not be determined.
 Excited State  90:      Singlet-?Sym  101.6350 eV   12.20 nm  f=0.2622  <S**2>=0.000
       3 -> 29        -0.30726
       3 -> 30        -0.19247
       4 -> 27         0.22690
       4 -> 28         0.36221
       5 -> 27         0.36221
       5 -> 28        -0.22690

 Excited state symmetry could not be determined.
 Excited State  91:      Singlet-?Sym  101.7841 eV   12.18 nm  f=0.0000  <S**2>=0.000
       4 -> 30        -0.50000
       5 -> 29         0.50000

 Excited state symmetry could not be determined.
 Excited State  92:      Singlet-?Sym  102.1643 eV   12.14 nm  f=0.0000  <S**2>=0.000
       3 -> 28        -0.14535
       4 -> 29        -0.48932
       5 -> 30         0.48932

 Excited state symmetry could not be determined.
 Excited State  93:      Singlet-?Sym  102.1643 eV   12.14 nm  f=0.0000  <S**2>=0.000
       3 -> 27         0.14535
       4 -> 30         0.48932
       5 -> 29         0.48932

 Excited state symmetry could not be determined.
 Excited State  94:      Singlet-?Sym  108.1090 eV   11.47 nm  f=0.5575  <S**2>=0.000
       4 -> 29         0.49212
       5 -> 30         0.49212

 Excited state symmetry could not be determined.
 Excited State  95:      Singlet-?Sym  110.4997 eV   11.22 nm  f=0.6497  <S**2>=0.000
       3 -> 29        -0.30048
       3 -> 30         0.52390
       4 -> 27         0.21713
       4 -> 28        -0.12453
       5 -> 27        -0.12453
       5 -> 28        -0.21713

 Excited state symmetry could not be determined.
 Excited State  96:      Singlet-?Sym  110.4997 eV   11.22 nm  f=0.6497  <S**2>=0.000
       3 -> 29         0.52390
       3 -> 30         0.30048
       4 -> 27         0.12453
       4 -> 28         0.21713
       5 -> 27         0.21713
       5 -> 28        -0.12453

 Excited state symmetry could not be determined.
 Excited State  97:      Singlet-?Sym  118.6851 eV   10.45 nm  f=0.0000  <S**2>=0.000
       2 -> 27         0.70661

 Excited state symmetry could not be determined.
 Excited State  98:      Singlet-?Sym  118.6851 eV   10.45 nm  f=0.0000  <S**2>=0.000
       2 -> 28         0.70661

 Excited state symmetry could not be determined.
 Excited State  99:      Singlet-?Sym  123.3325 eV   10.05 nm  f=0.0139  <S**2>=0.000
       2 -> 29         0.35958
       2 -> 30         0.60763

 Excited state symmetry could not be determined.
 Excited State 100:      Singlet-?Sym  123.3325 eV   10.05 nm  f=0.0139  <S**2>=0.000
       2 -> 29         0.60763
       2 -> 30        -0.35958

 Excited state symmetry could not be determined.
 Excited State 101:      Singlet-?Sym  127.8878 eV    9.69 nm  f=0.1139  <S**2>=0.000
       4 -> 31         0.61591
       5 -> 31         0.33346

 Excited state symmetry could not be determined.
 Excited State 102:      Singlet-?Sym  127.8878 eV    9.69 nm  f=0.1139  <S**2>=0.000
       4 -> 31        -0.33346
       5 -> 31         0.61591

 Excited State 103:      Singlet-SG   133.3433 eV    9.30 nm  f=0.2321  <S**2>=0.000
       3 -> 31         0.69974

 Excited State 104:      Singlet-SG   147.5227 eV    8.40 nm  f=0.0000  <S**2>=0.000
       2 -> 31         0.70681

 The electronic state is 1-SG.
 Alpha  occ. eigenvalues --  -24.10002  -1.08027  -0.49945  -0.36276  -0.36276
 Alpha virt. eigenvalues --   -0.01395   0.14044   0.14044   0.14098   0.20506
 Alpha virt. eigenvalues --    0.23823   0.23823   0.31912   0.52982   0.52982
 Alpha virt. eigenvalues --    0.61043   0.69295   0.69295   0.99230   1.25586

 Mulliken charges:
               1
     1  F   -0.249432
     2  H    0.249432
 Sum of Mulliken charges =   0.00000

 Dipole moment (field-independent basis, Debye):
    X=              0.0000    Y=              0.0000    Z=             -1.8212  Tot=              1.8212
 Quadrupole moment (field-independent basis, Debye-Ang):
   XX=             -6.0151   YY=             -6.0151   ZZ=             -3.8917
   XY=              0.0000   XZ=              0.0000   YZ=              0.0000

 Normal termination of Gaussian 16 at Mon Mar 21 19:57:56 2022.
