 Gaussian 16, Revision C.01,
 Gaussian 16:  EM64L-G16RevC.01  3-Jul-2019

 ---------------------------------------------------------------------
 #P TD(Nstates=10000) svwn5/Gen SCF(maxcycles=100) Int(Grid=ultrafine)
 ---------------------------------------------------------------------

 ---------------------
 xGDB7_00001_tier4.com
 ---------------------
 Symbolic Z-matrix:
 Charge =  0 Multiplicity = 1

                         Standard orientation:
 ---------------------------------------------------------------------
 Center     Atomic      Atomic             Coordinates (Angstroms)
 Number     Number       Type             X           Y           Z
 ---------------------------------------------------------------------
      1          9           0        0.000000    0.000000    0.688193
      2          9           0        0.000000    0.000000   -0.688193
 ---------------------------------------------------------------------

 SCF Done:  E(RS-VWN5) =  -198.102541621     A.U. after   10 cycles

 Excitation energies and oscillator strengths:

 Excited state symmetry could not be determined.
 Excited State   1:      Singlet-?Sym    4.6187 eV  268.44 nm  f=0.0001  <S**2>=0.000
       8 -> 10        -0.11428
       9 -> 10         0.70057
 This state for optimization and/or second-order correction.
 Total Energy, E(TD-HF/TD-DFT) =  -197.932809289
 Copying the excited state density for this state as the 1-particle RhoCI density.

 Excited state symmetry could not be determined.
 Excited State   2:      Singlet-?Sym    4.6187 eV  268.44 nm  f=0.0001  <S**2>=0.000
       8 -> 10         0.70057
       9 -> 10         0.11428

 Excited state symmetry could not be determined.
 Excited State   3:      Singlet-?Sym    8.3359 eV  148.74 nm  f=0.0000  <S**2>=0.000
       6 -> 10         0.48340
       7 -> 10         0.51663

 Excited state symmetry could not be determined.
 Excited State   4:      Singlet-?Sym    8.3359 eV  148.74 nm  f=0.0000  <S**2>=0.000
       6 -> 10         0.51663
       7 -> 10        -0.48340

 Excited state symmetry could not be determined.
 Excited State   5:      Singlet-?Sym   11.9867 eV  103.43 nm  f=0.0000  <S**2>=0.000
       8 -> 11        -0.16652
       9 -> 11         0.68703

 Excited state symmetry could not be determined.
 Excited State   6:      Singlet-?Sym   11.9867 eV  103.43 nm  f=0.0000  <S**2>=0.000
       8 -> 11         0.68703
       9 -> 11         0.16652

 Excited state symmetry could not be determined.
 Excited State   7:      Singlet-?Sym   12.1962 eV  101.66 nm  f=0.0234  <S**2>=0.000
       8 -> 12         0.38563
       9 -> 12         0.59251

 Excited state symmetry could not be determined.
 Excited State   8:      Singlet-?Sym   12.1962 eV  101.66 nm  f=0.0234  <S**2>=0.000
       8 -> 12         0.59251
       9 -> 12        -0.38563

 Excited state symmetry could not be determined.
 Excited State   9:      Singlet-?Sym   12.9668 eV   95.62 nm  f=0.2445  <S**2>=0.000
       5 -> 10        -0.35951
       8 -> 14         0.43030
       9 -> 13         0.43030

 Excited state symmetry could not be determined.
 Excited State  10:      Singlet-?Sym   13.1989 eV   93.94 nm  f=0.0000  <S**2>=0.000
       8 -> 13         0.49998
       9 -> 14         0.49998

 Excited state symmetry could not be determined.
 Excited State  11:      Singlet-?Sym   13.1989 eV   93.94 nm  f=0.0000  <S**2>=0.000
       8 -> 14        -0.49998
       9 -> 13         0.49998

 Excited state symmetry could not be determined.
 Excited State  12:      Singlet-?Sym   13.2027 eV   93.91 nm  f=0.0000  <S**2>=0.000
       8 -> 13        -0.50000
       9 -> 14         0.50000

 Excited state symmetry could not be determined.
 Excited State  13:      Singlet-?Sym   14.8536 eV   83.47 nm  f=0.0000  <S**2>=0.000
       8 -> 15         0.53800
       9 -> 15        -0.45866

 Excited state symmetry could not be determined.
 Excited State  14:      Singlet-?Sym   14.8536 eV   83.47 nm  f=0.0000  <S**2>=0.000
       8 -> 15         0.45866
       9 -> 15         0.53800

 Excited state symmetry could not be determined.
 Excited State  15:      Singlet-?Sym   14.9862 eV   82.73 nm  f=0.0000  <S**2>=0.000
       8 -> 17        -0.49998
       9 -> 16         0.49998

 Excited state symmetry could not be determined.
 Excited State  16:      Singlet-?Sym   14.9862 eV   82.73 nm  f=0.0000  <S**2>=0.000
       8 -> 16         0.49998
       9 -> 17         0.49998

 Excited state symmetry could not be determined.
 Excited State  17:      Singlet-?Sym   15.0448 eV   82.41 nm  f=0.0000  <S**2>=0.000
       8 -> 16         0.50000
       9 -> 17        -0.50000

 Excited state symmetry could not be determined.
 Excited State  18:      Singlet-?Sym   15.3142 eV   80.96 nm  f=0.0000  <S**2>=0.000
       6 -> 13        -0.12777
       7 -> 14        -0.12777
       8 -> 17         0.48178
       9 -> 16         0.48178

 Excited State  19:      Singlet-SGU   15.6061 eV   79.45 nm  f=0.3907  <S**2>=0.000
       5 -> 10         0.55259
       5 -> 12         0.21842
       6 -> 16        -0.11071
       7 -> 17        -0.11071
       8 -> 14         0.24007
       9 -> 13         0.24007
       5 <- 10        -0.11350

 Excited state symmetry could not be determined.
 Excited State  20:      Singlet-?Sym   15.8498 eV   78.22 nm  f=0.1056  <S**2>=0.000
       6 -> 11         0.17206
       7 -> 11         0.68526

 Excited state symmetry could not be determined.
 Excited State  21:      Singlet-?Sym   15.8498 eV   78.22 nm  f=0.1056  <S**2>=0.000
       6 -> 11         0.68526
       7 -> 11        -0.17206

 Excited state symmetry could not be determined.
 Excited State  22:      Singlet-?Sym   16.0079 eV   77.45 nm  f=0.0000  <S**2>=0.000
       7 -> 12         0.70301

 Excited state symmetry could not be determined.
 Excited State  23:      Singlet-?Sym   16.0079 eV   77.45 nm  f=0.0000  <S**2>=0.000
       6 -> 12         0.70301

 Excited state symmetry could not be determined.
 Excited State  24:      Singlet-?Sym   16.9368 eV   73.20 nm  f=0.0000  <S**2>=0.000
       6 -> 13        -0.49997
       7 -> 14         0.49997

 Excited state symmetry could not be determined.
 Excited State  25:      Singlet-?Sym   16.9368 eV   73.20 nm  f=0.0000  <S**2>=0.000
       6 -> 14         0.49997
       7 -> 13         0.49997

 Excited state symmetry could not be determined.
 Excited State  26:      Singlet-?Sym   16.9907 eV   72.97 nm  f=0.0000  <S**2>=0.000
       6 -> 14        -0.50000
       7 -> 13         0.50000

 Excited state symmetry could not be determined.
 Excited State  27:      Singlet-?Sym   17.6603 eV   70.20 nm  f=0.0000  <S**2>=0.000
       5 -> 11        -0.29318
       6 -> 13         0.43789
       7 -> 14         0.43789
       8 -> 17         0.10025
       9 -> 16         0.10025

 Excited state symmetry could not be determined.
 Excited State  28:      Singlet-?Sym   18.6950 eV   66.32 nm  f=0.0483  <S**2>=0.000
       6 -> 15         0.19434
       7 -> 15         0.67827

 Excited state symmetry could not be determined.
 Excited State  29:      Singlet-?Sym   18.6950 eV   66.32 nm  f=0.0483  <S**2>=0.000
       6 -> 15         0.67827
       7 -> 15        -0.19434

 Excited State  30:      Singlet-SGU   18.7508 eV   66.12 nm  f=0.0066  <S**2>=0.000
       5 -> 12         0.48062
       6 -> 16         0.36544
       7 -> 17         0.36544

 Excited state symmetry could not be determined.
 Excited State  31:      Singlet-?Sym   18.7924 eV   65.98 nm  f=0.0000  <S**2>=0.000
       6 -> 17         0.49997
       7 -> 16         0.49997

 Excited state symmetry could not be determined.
 Excited State  32:      Singlet-?Sym   18.7924 eV   65.98 nm  f=0.0000  <S**2>=0.000
       6 -> 16        -0.49997
       7 -> 17         0.49997

 Excited state symmetry could not be determined.
 Excited State  33:      Singlet-?Sym   18.8328 eV   65.83 nm  f=0.0000  <S**2>=0.000
       6 -> 17        -0.50000
       7 -> 16         0.50000

 Excited State  34:      Singlet-SGG   18.8432 eV   65.80 nm  f=0.0000  <S**2>=0.000
       5 -> 11         0.63897
       6 -> 13         0.19196
       7 -> 14         0.19196

 Excited state symmetry could not be determined.
 Excited State  35:      Singlet-?Sym   19.6519 eV   63.09 nm  f=0.0162  <S**2>=0.000
       5 -> 13         0.68359
       5 -> 14         0.17338

 Excited state symmetry could not be determined.
 Excited State  36:      Singlet-?Sym   19.6519 eV   63.09 nm  f=0.0162  <S**2>=0.000
       5 -> 13        -0.17338
       5 -> 14         0.68359

 Excited State  37:      Singlet-SGU   19.6559 eV   63.08 nm  f=0.0026  <S**2>=0.000
       5 -> 10        -0.22096
       5 -> 12         0.46251
       6 -> 16        -0.31827
       7 -> 17        -0.31827

 Excited state symmetry could not be determined.
 Excited State  38:      Singlet-?Sym   20.1468 eV   61.54 nm  f=0.0847  <S**2>=0.000
       8 -> 18         0.51687
       9 -> 18         0.47830

 Excited state symmetry could not be determined.
 Excited State  39:      Singlet-?Sym   20.1468 eV   61.54 nm  f=0.0847  <S**2>=0.000
       8 -> 18        -0.47830
       9 -> 18         0.51687

 Excited State  40:      Singlet-SGG   21.3470 eV   58.08 nm  f=0.0000  <S**2>=0.000
       4 -> 10        -0.12996
       5 -> 15         0.69225

 Excited state symmetry could not be determined.
 Excited State  41:      Singlet-?Sym   21.4475 eV   57.81 nm  f=0.0000  <S**2>=0.000
       5 -> 16         0.24101
       5 -> 17         0.66439

 Excited state symmetry could not be determined.
 Excited State  42:      Singlet-?Sym   21.4475 eV   57.81 nm  f=0.0000  <S**2>=0.000
       5 -> 16         0.66439
       5 -> 17        -0.24101

 Excited state symmetry could not be determined.
 Excited State  43:      Singlet-?Sym   21.6301 eV   57.32 nm  f=0.0000  <S**2>=0.000
       8 -> 19         0.30571
       8 -> 20         0.39562
       9 -> 19         0.39562
       9 -> 20        -0.30571

 Excited state symmetry could not be determined.
 Excited State  44:      Singlet-?Sym   21.6301 eV   57.32 nm  f=0.0000  <S**2>=0.000
       8 -> 19         0.39562
       8 -> 20        -0.30571
       9 -> 19        -0.30571
       9 -> 20        -0.39562

 Excited state symmetry could not be determined.
 Excited State  45:      Singlet-?Sym   21.9655 eV   56.45 nm  f=0.0000  <S**2>=0.000
       8 -> 20         0.49047
       9 -> 19        -0.49047

 Excited state symmetry could not be determined.
 Excited State  46:      Singlet-?Sym   21.9655 eV   56.45 nm  f=0.0000  <S**2>=0.000
       8 -> 19         0.49047
       9 -> 20         0.49047

 Excited State  47:      Singlet-SGG   23.4713 eV   52.82 nm  f=0.0000  <S**2>=0.000
       4 -> 10         0.67277
       5 -> 15         0.12276

 Excited state symmetry could not be determined.
 Excited State  48:      Singlet-?Sym   23.8867 eV   51.91 nm  f=0.0000  <S**2>=0.000
       6 -> 18         0.70090

 Excited state symmetry could not be determined.
 Excited State  49:      Singlet-?Sym   23.8867 eV   51.91 nm  f=0.0000  <S**2>=0.000
       7 -> 18         0.70090

 Excited state symmetry could not be determined.
 Excited State  50:      Singlet-?Sym   25.3601 eV   48.89 nm  f=0.0000  <S**2>=0.000
       6 -> 19         0.48338
       6 -> 20         0.12713
       7 -> 19        -0.12713
       7 -> 20         0.48337

 Excited state symmetry could not be determined.
 Excited State  51:      Singlet-?Sym   25.3601 eV   48.89 nm  f=0.0000  <S**2>=0.000
       6 -> 19         0.12713
       6 -> 20        -0.48337
       7 -> 19         0.48338
       7 -> 20         0.12713

 Excited state symmetry could not be determined.
 Excited State  52:      Singlet-?Sym   25.6561 eV   48.33 nm  f=0.0000  <S**2>=0.000
       8 -> 22         0.49993
       9 -> 21         0.49993

 Excited state symmetry could not be determined.
 Excited State  53:      Singlet-?Sym   25.6561 eV   48.33 nm  f=0.0000  <S**2>=0.000
       8 -> 21         0.49993
       9 -> 22        -0.49993

 Excited state symmetry could not be determined.
 Excited State  54:      Singlet-?Sym   25.7041 eV   48.24 nm  f=0.0000  <S**2>=0.000
       8 -> 22        -0.50000
       9 -> 21         0.50000

 Excited state symmetry could not be determined.
 Excited State  55:      Singlet-?Sym   26.0803 eV   47.54 nm  f=0.2613  <S**2>=0.000
       6 -> 19        -0.37110
       6 -> 20        -0.30152
       7 -> 19        -0.30151
       7 -> 20         0.37111
       8 -> 25        -0.10540
       9 -> 24         0.10540

 Excited state symmetry could not be determined.
 Excited State  56:      Singlet-?Sym   26.0803 eV   47.54 nm  f=0.2613  <S**2>=0.000
       6 -> 19        -0.30151
       6 -> 20         0.37111
       7 -> 19         0.37110
       7 -> 20         0.30152
       8 -> 24        -0.10540
       9 -> 25        -0.10540

 Excited State  57:      Singlet-SGU   26.4190 eV   46.93 nm  f=0.4645  <S**2>=0.000
       5 -> 18         0.57169
       8 -> 21         0.29209
       9 -> 22         0.29209

 Excited State  58:      Singlet-SGU   27.4423 eV   45.18 nm  f=0.6394  <S**2>=0.000
       4 -> 11         0.26789
       5 -> 10         0.11724
       5 -> 18         0.38706
       8 -> 21        -0.35774
       9 -> 22        -0.35774

 Excited state symmetry could not be determined.
 Excited State  59:      Singlet-?Sym   27.6122 eV   44.90 nm  f=0.0090  <S**2>=0.000
       8 -> 23        -0.19511
       8 -> 25         0.10196
       9 -> 23         0.66245
       9 -> 24        -0.10196

 Excited state symmetry could not be determined.
 Excited State  60:      Singlet-?Sym   27.6122 eV   44.90 nm  f=0.0090  <S**2>=0.000
       8 -> 23         0.66245
       8 -> 24         0.10196
       9 -> 23         0.19511
       9 -> 25         0.10196

 Excited state symmetry could not be determined.
 Excited State  61:      Singlet-?Sym   27.6699 eV   44.81 nm  f=0.0000  <S**2>=0.000
       8 -> 24         0.18477
       8 -> 25         0.46441
       9 -> 24         0.46441
       9 -> 25        -0.18477

 Excited state symmetry could not be determined.
 Excited State  62:      Singlet-?Sym   27.6699 eV   44.81 nm  f=0.0000  <S**2>=0.000
       8 -> 24         0.46441
       8 -> 25        -0.18477
       9 -> 24        -0.18477
       9 -> 25        -0.46441

 Excited state symmetry could not be determined.
 Excited State  63:      Singlet-?Sym   28.1282 eV   44.08 nm  f=0.0000  <S**2>=0.000
       5 -> 19         0.70667

 Excited state symmetry could not be determined.
 Excited State  64:      Singlet-?Sym   28.1282 eV   44.08 nm  f=0.0000  <S**2>=0.000
       5 -> 20         0.70667

 Excited state symmetry could not be determined.
 Excited State  65:      Singlet-?Sym   28.4336 eV   43.60 nm  f=0.6515  <S**2>=0.000
       6 -> 19        -0.11511
       7 -> 20         0.11511
       8 -> 24        -0.23550
       8 -> 25         0.40037
       9 -> 23        -0.11799
       9 -> 24        -0.40037
       9 -> 25        -0.23550

 Excited state symmetry could not be determined.
 Excited State  66:      Singlet-?Sym   28.4336 eV   43.60 nm  f=0.6515  <S**2>=0.000
       6 -> 20         0.11511
       7 -> 19         0.11511
       8 -> 23        -0.11799
       8 -> 24         0.40037
       8 -> 25         0.23550
       9 -> 24        -0.23550
       9 -> 25         0.40037

 Excited State  67:      Singlet-SGG   29.3497 eV   42.24 nm  f=0.0000  <S**2>=0.000
       4 -> 12         0.66506
       6 -> 22         0.16485
       7 -> 21         0.16485

 Excited state symmetry could not be determined.
 Excited State  68:      Singlet-?Sym   29.4183 eV   42.15 nm  f=0.0000  <S**2>=0.000
       6 -> 22        -0.48423
       7 -> 21         0.48423
       8 -> 27        -0.12368
       9 -> 28         0.12368

 Excited state symmetry could not be determined.
 Excited State  69:      Singlet-?Sym   29.4183 eV   42.15 nm  f=0.0000  <S**2>=0.000
       6 -> 21         0.48423
       7 -> 22         0.48423
       8 -> 28        -0.12369
       9 -> 27        -0.12369

 Excited state symmetry could not be determined.
 Excited State  70:      Singlet-?Sym   29.4921 eV   42.04 nm  f=0.0000  <S**2>=0.000
       6 -> 21         0.50000
       7 -> 22        -0.50000

 Excited State  71:      Singlet-SGU   29.6164 eV   41.86 nm  f=0.1075  <S**2>=0.000
       3 -> 10         0.14118
       4 -> 11         0.64013
       5 -> 18        -0.12462
       8 -> 21         0.13936
       9 -> 22         0.13936

 Excited state symmetry could not be determined.
 Excited State  72:      Singlet-?Sym   29.6983 eV   41.75 nm  f=0.0000  <S**2>=0.000
       8 -> 26         0.66856
       9 -> 26         0.20455

 Excited state symmetry could not be determined.
 Excited State  73:      Singlet-?Sym   29.6983 eV   41.75 nm  f=0.0000  <S**2>=0.000
       8 -> 26        -0.20455
       9 -> 26         0.66856

 Excited state symmetry could not be determined.
 Excited State  74:      Singlet-?Sym   29.7251 eV   41.71 nm  f=0.0000  <S**2>=0.000
       6 -> 22        -0.12397
       7 -> 21         0.12397
       8 -> 27         0.48426
       9 -> 28        -0.48426

 Excited state symmetry could not be determined.
 Excited State  75:      Singlet-?Sym   29.7251 eV   41.71 nm  f=0.0000  <S**2>=0.000
       6 -> 21         0.12397
       7 -> 22         0.12397
       8 -> 28         0.48426
       9 -> 27         0.48426

 Excited state symmetry could not be determined.
 Excited State  76:      Singlet-?Sym   29.7453 eV   41.68 nm  f=0.0000  <S**2>=0.000
       8 -> 28        -0.50000
       9 -> 27         0.50000

 Excited state symmetry could not be determined.
 Excited State  77:      Singlet-?Sym   30.3800 eV   40.81 nm  f=0.0000  <S**2>=0.000
       4 -> 13         0.48787
       4 -> 14         0.49423

 Excited state symmetry could not be determined.
 Excited State  78:      Singlet-?Sym   30.3800 eV   40.81 nm  f=0.0000  <S**2>=0.000
       4 -> 13         0.49423
       4 -> 14        -0.48787

 Excited state symmetry could not be determined.
 Excited State  79:      Singlet-?Sym   30.4116 eV   40.77 nm  f=0.0000  <S**2>=0.000
       4 -> 12        -0.22216
       6 -> 22         0.40396
       7 -> 21         0.40396
       8 -> 27         0.23444
       9 -> 28         0.23444

 Excited state symmetry could not be determined.
 Excited State  80:      Singlet-?Sym   30.9933 eV   40.00 nm  f=0.0000  <S**2>=0.000
       4 -> 10        -0.13436
       5 -> 26        -0.11176
       6 -> 22        -0.22696
       7 -> 21        -0.22696
       8 -> 27         0.42158
       9 -> 28         0.42158

 Excited State  81:      Singlet-SGU   31.1168 eV   39.84 nm  f=0.1003  <S**2>=0.000
       3 -> 10         0.61576
       4 -> 15        -0.18197
       5 -> 23        -0.12065
       6 -> 28         0.15869
       7 -> 27         0.15869

 Excited state symmetry could not be determined.
 Excited State  82:      Singlet-?Sym   31.4049 eV   39.48 nm  f=0.0000  <S**2>=0.000
       6 -> 23        -0.14076
       7 -> 23         0.68875

 Excited state symmetry could not be determined.
 Excited State  83:      Singlet-?Sym   31.4049 eV   39.48 nm  f=0.0000  <S**2>=0.000
       6 -> 23         0.68875
       7 -> 23         0.14076

 Excited state symmetry could not be determined.
 Excited State  84:      Singlet-?Sym   31.4402 eV   39.43 nm  f=0.0000  <S**2>=0.000
       6 -> 24         0.17601
       6 -> 25        -0.46796
       7 -> 24         0.46797
       7 -> 25         0.17601

 Excited state symmetry could not be determined.
 Excited State  85:      Singlet-?Sym   31.4402 eV   39.43 nm  f=0.0000  <S**2>=0.000
       6 -> 24         0.46797
       6 -> 25         0.17601
       7 -> 24        -0.17601
       7 -> 25         0.46796

 Excited state symmetry could not be determined.
 Excited State  86:      Singlet-?Sym   31.8731 eV   38.90 nm  f=0.0000  <S**2>=0.000
       6 -> 24        -0.48744
       7 -> 25         0.48744

 Excited state symmetry could not be determined.
 Excited State  87:      Singlet-?Sym   31.8731 eV   38.90 nm  f=0.0000  <S**2>=0.000
       6 -> 25         0.48744
       7 -> 24         0.48744

 Excited State  88:      Singlet-SGU   32.0040 eV   38.74 nm  f=0.0670  <S**2>=0.000
       3 -> 10         0.14327
       4 -> 15         0.68146

 Excited state symmetry could not be determined.
 Excited State  89:      Singlet-?Sym   32.1169 eV   38.60 nm  f=0.0610  <S**2>=0.000
       4 -> 16        -0.19885
       4 -> 17         0.64756
       5 -> 21        -0.19314

 Excited state symmetry could not be determined.
 Excited State  90:      Singlet-?Sym   32.1169 eV   38.60 nm  f=0.0610  <S**2>=0.000
       4 -> 16         0.64756
       4 -> 17         0.19885
       5 -> 22        -0.19314

 Excited state symmetry could not be determined.
 Excited State  91:      Singlet-?Sym   32.5982 eV   38.03 nm  f=0.2443  <S**2>=0.000
       4 -> 17         0.16631
       5 -> 21         0.55143
       5 -> 22         0.32297
       6 -> 26        -0.10473
       7 -> 26        -0.17881

 Excited state symmetry could not be determined.
 Excited State  92:      Singlet-?Sym   32.5982 eV   38.03 nm  f=0.2443  <S**2>=0.000
       4 -> 16         0.16631
       5 -> 21        -0.32297
       5 -> 22         0.55143
       6 -> 26        -0.17881
       7 -> 26         0.10473

 Excited state symmetry could not be determined.
 Excited State  93:      Singlet-?Sym   33.5189 eV   36.99 nm  f=0.0000  <S**2>=0.000
       6 -> 27         0.49801
       7 -> 28         0.49801

 Excited state symmetry could not be determined.
 Excited State  94:      Singlet-?Sym   33.5189 eV   36.99 nm  f=0.0000  <S**2>=0.000
       6 -> 28        -0.49801
       7 -> 27         0.49801

 Excited state symmetry could not be determined.
 Excited State  95:      Singlet-?Sym   33.5333 eV   36.97 nm  f=0.0000  <S**2>=0.000
       6 -> 27         0.50000
       7 -> 28        -0.50000

 Excited state symmetry could not be determined.
 Excited State  96:      Singlet-?Sym   33.6434 eV   36.85 nm  f=0.1394  <S**2>=0.000
       5 -> 21         0.16225
       6 -> 26         0.35221
       7 -> 26         0.57558

 Excited state symmetry could not be determined.
 Excited State  97:      Singlet-?Sym   33.6434 eV   36.85 nm  f=0.1394  <S**2>=0.000
       5 -> 22         0.16225
       6 -> 26         0.57558
       7 -> 26        -0.35221

 Excited State  98:      Singlet-SGU   33.7742 eV   36.71 nm  f=0.0021  <S**2>=0.000
       5 -> 23         0.54140
       6 -> 28         0.31847
       7 -> 27         0.31847

 Excited state symmetry could not be determined.
 Excited State  99:      Singlet-?Sym   34.1917 eV   36.26 nm  f=0.0000  <S**2>=0.000
       5 -> 24         0.70438

 Excited state symmetry could not be determined.
 Excited State 100:      Singlet-?Sym   34.1917 eV   36.26 nm  f=0.0000  <S**2>=0.000
       5 -> 25         0.70438

 Excited State 101:      Singlet-SGU   34.9603 eV   35.46 nm  f=0.0895  <S**2>=0.000
       3 -> 10         0.21972
       5 -> 23         0.42544
       6 -> 28        -0.33096
       7 -> 27        -0.33096
       8 -> 29        -0.13096
       9 -> 30        -0.13096

 Excited state symmetry could not be determined.
 Excited State 102:      Singlet-?Sym   36.1804 eV   34.27 nm  f=0.0000  <S**2>=0.000
       5 -> 27         0.52843
       5 -> 28        -0.46822

 Excited state symmetry could not be determined.
 Excited State 103:      Singlet-?Sym   36.1804 eV   34.27 nm  f=0.0000  <S**2>=0.000
       5 -> 27         0.46822
       5 -> 28         0.52843

 Excited State 104:      Singlet-SGG   36.4238 eV   34.04 nm  f=0.0000  <S**2>=0.000
       3 -> 11        -0.41805
       5 -> 26         0.56350

 Excited State 105:      Singlet-SGG   36.6926 eV   33.79 nm  f=0.0000  <S**2>=0.000
       3 -> 11         0.52979
       4 -> 18        -0.25816
       5 -> 26         0.37677

 The electronic state is 1-SGG.
 Alpha  occ. eigenvalues --  -24.21518 -24.21485  -1.25611  -0.98066  -0.59089
 Alpha  occ. eigenvalues --   -0.49380  -0.49380  -0.35459  -0.35459
 Alpha virt. eigenvalues --   -0.21282   0.08466   0.09434   0.13060   0.13060
 Alpha virt. eigenvalues --    0.19323   0.19830   0.19830   0.38360   0.44342
 Alpha virt. eigenvalues --    0.44342   0.59002   0.59002   0.66111   0.66644

 Mulliken charges:
               1
     1  F   -0.000000
     2  F   -0.000000
 Sum of Mulliken charges =  -0.00000

 Dipole moment (field-independent basis, Debye):
    X=             -0.0000    Y=              0.0000    Z=              0.0000  Tot=              0.0000
 Quadrupole moment (field-independent basis, Debye-Ang):
   XX=             -9.9232   YY=             -9.9232   ZZ=             -9.0604
   XY=              0.0000   XZ=              0.0000   YZ=              0.0000

 Normal termination of Gaussian 16 at Mon Mar 21 20:05:53 2022.
