 Gaussian 16, Revision C.01,
 Gaussian 16:  EM64L-G16RevC.01  3-Jul-2019

 ---------------------------------------------------------------------
 #P TD(Nstates=10000) svwn5/Gen SCF(maxcycles=100) Int(Grid=ultrafine)
 ---------------------------------------------------------------------

 ---------------------
 xGDB7_00001_tier4.com
 ---------------------
 Symbolic Z-matrix:
 Charge =  0 Multiplicity = 1

                         Standard orientation:
 ---------------------------------------------------------------------
 Center     Atomic      Atomic             Coordinates (Angstroms)
 Number     Number       Type             X           Y           Z
 ---------------------------------------------------------------------
      1          9           0        0.000000    1.098813   -0.289120
      2          6           0       -0.000000   -0.000000    0.499944
      3          9           0       -0.000000   -1.098813   -0.289120
      4          1           0       -0.911346    0.000000    1.102246
      5          1           0        0.911346   -0.000000    1.102246
 ---------------------------------------------------------------------

 SCF Done:  E(RS-VWN5) =  -237.192213449     A.U. after   11 cycles

 Excitation energies and oscillator strengths:

 Excited State   1:      Singlet-B1     8.4902 eV  146.03 nm  f=0.0260  <S**2>=0.000
      13 -> 14         0.70618
 This state for optimization and/or second-order correction.
 Total Energy, E(TD-HF/TD-DFT) =  -236.880204769
 Copying the excited state density for this state as the 1-particle RhoCI density.

 Excited State   2:      Singlet-A2     9.2332 eV  134.28 nm  f=0.0000  <S**2>=0.000
      13 -> 15         0.70581

 Excited State   3:      Singlet-B1     9.7682 eV  126.93 nm  f=0.0156  <S**2>=0.000
      13 -> 16         0.70430

 Excited State   4:      Singlet-A1    10.0048 eV  123.92 nm  f=0.0650  <S**2>=0.000
      11 -> 14        -0.11536
      13 -> 17         0.69093

 Excited State   5:      Singlet-B2    10.0949 eV  122.82 nm  f=0.0355  <S**2>=0.000
      12 -> 14         0.70243

 Excited State   6:      Singlet-A2    10.5185 eV  117.87 nm  f=0.0000  <S**2>=0.000
      10 -> 14         0.70680

 Excited State   7:      Singlet-A1    10.5451 eV  117.58 nm  f=0.0029  <S**2>=0.000
      11 -> 14         0.68993
      13 -> 17         0.10443

 Excited State   8:      Singlet-A1    10.9339 eV  113.39 nm  f=0.0177  <S**2>=0.000
      12 -> 15         0.69173

 Excited State   9:      Singlet-B1    11.2624 eV  110.09 nm  f=0.0004  <S**2>=0.000
      10 -> 15         0.59072
      13 -> 18        -0.38288

 Excited State  10:      Singlet-B1    11.3239 eV  109.49 nm  f=0.0799  <S**2>=0.000
      10 -> 15         0.38263
      13 -> 18         0.58603

 Excited State  11:      Singlet-B2    11.3928 eV  108.83 nm  f=0.0065  <S**2>=0.000
      11 -> 15         0.47337
      12 -> 16         0.51994

 Excited State  12:      Singlet-A2    11.4605 eV  108.18 nm  f=0.0000  <S**2>=0.000
      12 -> 17         0.70693

 Excited State  13:      Singlet-B2    11.7006 eV  105.96 nm  f=0.0655  <S**2>=0.000
      10 -> 17         0.13696
      11 -> 15         0.46009
      12 -> 16        -0.43961
      13 -> 22         0.21599

 Excited State  14:      Singlet-A1    11.7385 eV  105.62 nm  f=0.1045  <S**2>=0.000
      11 -> 16         0.69940

 Excited State  15:      Singlet-A2    11.8000 eV  105.07 nm  f=0.0000  <S**2>=0.000
      10 -> 16         0.68957
      13 -> 19        -0.14903

 Excited State  16:      Singlet-B1    11.8366 eV  104.75 nm  f=0.0455  <S**2>=0.000
      11 -> 17         0.70292

 Excited State  17:      Singlet-A2    11.9268 eV  103.95 nm  f=0.0000  <S**2>=0.000
      10 -> 16         0.14661
      13 -> 19         0.68889

 Excited State  18:      Singlet-B2    11.9359 eV  103.88 nm  f=0.0553  <S**2>=0.000
      10 -> 17         0.69009
      13 -> 22        -0.10336

 Excited State  19:      Singlet-B1    12.3277 eV  100.57 nm  f=0.0129  <S**2>=0.000
      13 -> 21         0.70146

 Excited State  20:      Singlet-B2    12.4051 eV   99.95 nm  f=0.0279  <S**2>=0.000
      11 -> 15        -0.15442
      12 -> 16         0.11340
      13 -> 22         0.65534

 Excited State  21:      Singlet-A1    12.5206 eV   99.02 nm  f=0.0578  <S**2>=0.000
      13 -> 20         0.67543

 Excited State  22:      Singlet-B2    12.7796 eV   97.02 nm  f=0.0000  <S**2>=0.000
      12 -> 18         0.69734

 Excited State  23:      Singlet-A2    12.9414 eV   95.80 nm  f=0.0000  <S**2>=0.000
      13 -> 23         0.70176

 Excited State  24:      Singlet-A1    13.1642 eV   94.18 nm  f=0.0261  <S**2>=0.000
      11 -> 18         0.70095

 Excited State  25:      Singlet-A2    13.2011 eV   93.92 nm  f=0.0000  <S**2>=0.000
      10 -> 18         0.70509

 Excited State  26:      Singlet-A1    13.4932 eV   91.89 nm  f=0.0033  <S**2>=0.000
      12 -> 19         0.70395

 Excited State  27:      Singlet-B1    13.7477 eV   90.19 nm  f=0.0044  <S**2>=0.000
      10 -> 19        -0.12942
      12 -> 22        -0.18658
      13 -> 24         0.65896

 Excited State  28:      Singlet-A2    13.7843 eV   89.95 nm  f=0.0000  <S**2>=0.000
      12 -> 20         0.70646

 Excited State  29:      Singlet-B2    13.8679 eV   89.40 nm  f=0.0628  <S**2>=0.000
      11 -> 19        -0.38435
      12 -> 21         0.58579

 Excited State  30:      Singlet-B1    13.9132 eV   89.11 nm  f=0.0069  <S**2>=0.000
      12 -> 22         0.67654
      13 -> 24         0.17775

 Excited State  31:      Singlet-B1    13.9626 eV   88.80 nm  f=0.0004  <S**2>=0.000
       9 -> 14        -0.19276
      10 -> 19         0.65803
      11 -> 20        -0.13522

 Excited State  32:      Singlet-B2    13.9929 eV   88.60 nm  f=0.0058  <S**2>=0.000
      10 -> 20        -0.26582
      11 -> 19         0.52774
      12 -> 21         0.37194

 Excited State  33:      Singlet-B1    14.0643 eV   88.16 nm  f=0.1420  <S**2>=0.000
       9 -> 14         0.65390
      10 -> 19         0.17139
      13 -> 24         0.12519
      13 -> 25         0.10386

 Excited State  34:      Singlet-B2    14.0798 eV   88.06 nm  f=0.0002  <S**2>=0.000
       7 -> 14         0.70200

 Excited State  35:      Singlet-B1    14.1456 eV   87.65 nm  f=0.0060  <S**2>=0.000
      10 -> 19         0.13706
      11 -> 20         0.68182

 Excited State  36:      Singlet-A1    14.1654 eV   87.53 nm  f=0.0399  <S**2>=0.000
       7 -> 15         0.11845
       8 -> 14         0.66222
      11 -> 21         0.16223

 Excited State  37:      Singlet-A2    14.2557 eV   86.97 nm  f=0.0000  <S**2>=0.000
      11 -> 22         0.70612

 Excited State  38:      Singlet-A1    14.2867 eV   86.78 nm  f=0.0012  <S**2>=0.000
       8 -> 14        -0.10508
      10 -> 22         0.41246
      11 -> 21         0.55655

 Excited State  39:      Singlet-A2    14.3706 eV   86.28 nm  f=0.0000  <S**2>=0.000
      10 -> 21         0.70102

 Excited State  40:      Singlet-A1    14.5219 eV   85.38 nm  f=0.0051  <S**2>=0.000
      10 -> 22        -0.38792
      11 -> 21         0.32440
      12 -> 23         0.47006

 Excited State  41:      Singlet-B2    14.5556 eV   85.18 nm  f=0.0044  <S**2>=0.000
       7 -> 16         0.10981
      10 -> 20         0.59840
      11 -> 19         0.17656
      11 -> 23        -0.16760
      12 -> 21         0.10527
      12 -> 24         0.19266

 Excited State  42:      Singlet-A1    14.6740 eV   84.49 nm  f=0.0029  <S**2>=0.000
       7 -> 15        -0.16368
       8 -> 14         0.11501
       8 -> 16         0.11603
       9 -> 17        -0.14414
      10 -> 22         0.36700
      11 -> 21        -0.17066
      12 -> 23         0.49639

 Excited State  43:      Singlet-A2    14.7424 eV   84.10 nm  f=0.0000  <S**2>=0.000
       9 -> 15         0.69907

 Excited State  44:      Singlet-B1    14.7772 eV   83.90 nm  f=0.0857  <S**2>=0.000
      13 -> 25         0.67324

 Excited State  45:      Singlet-B2    14.8411 eV   83.54 nm  f=0.0291  <S**2>=0.000
       8 -> 15         0.55729
      11 -> 23        -0.41123

 Excited State  46:      Singlet-B2    14.9530 eV   82.92 nm  f=0.0820  <S**2>=0.000
       7 -> 16         0.13503
       8 -> 15         0.39741
      11 -> 23         0.52774
      13 -> 26         0.14547

 Excited State  47:      Singlet-B1    15.0212 eV   82.54 nm  f=0.0016  <S**2>=0.000
      10 -> 23         0.69694

 Excited State  48:      Singlet-A1    15.0233 eV   82.53 nm  f=0.0157  <S**2>=0.000
       7 -> 15         0.57931
       8 -> 16         0.33386
       9 -> 17         0.11436
      10 -> 22         0.10249

 Excited State  49:      Singlet-B2    15.3616 eV   80.71 nm  f=0.0631  <S**2>=0.000
       7 -> 16         0.64368
      12 -> 24        -0.25330

 Excited State  50:      Singlet-B1    15.3981 eV   80.52 nm  f=0.0154  <S**2>=0.000
       8 -> 17         0.57935
       9 -> 16        -0.38377
      13 -> 28         0.10123

 Excited State  51:      Singlet-A2    15.4718 eV   80.14 nm  f=0.0000  <S**2>=0.000
       7 -> 17         0.70457

 Excited State  52:      Singlet-A1    15.4779 eV   80.10 nm  f=0.1236  <S**2>=0.000
       7 -> 15        -0.24399
       7 -> 19         0.10817
       8 -> 16         0.58260
       8 -> 18         0.10426
      10 -> 22        -0.10691
      13 -> 27        -0.16712

 Excited State  53:      Singlet-B1    15.5149 eV   79.91 nm  f=0.1124  <S**2>=0.000
       8 -> 17         0.38192
       9 -> 16         0.55713
       9 -> 18         0.14765

 Excited State  54:      Singlet-B2    15.6011 eV   79.47 nm  f=0.1606  <S**2>=0.000
       8 -> 15        -0.10901
      12 -> 24        -0.16749
      13 -> 26         0.67019

 Excited State  55:      Singlet-A1    15.6928 eV   79.01 nm  f=0.0018  <S**2>=0.000
       9 -> 17        -0.47635
      11 -> 24         0.49077

 Excited State  56:      Singlet-B2    15.8894 eV   78.03 nm  f=0.0855  <S**2>=0.000
       7 -> 16         0.17756
       7 -> 18         0.17694
      10 -> 20        -0.13007
      12 -> 24         0.52107
      12 -> 25        -0.30652
      13 -> 26         0.11050

 Excited State  57:      Singlet-A2    15.8938 eV   78.01 nm  f=0.0000  <S**2>=0.000
      10 -> 24         0.66449
      13 -> 29         0.22845

 Excited State  58:      Singlet-A1    15.8993 eV   77.98 nm  f=0.0657  <S**2>=0.000
       9 -> 17         0.42387
      11 -> 24         0.46838
      13 -> 27        -0.16048
      13 -> 30         0.15932

 Excited State  59:      Singlet-A2    16.0333 eV   77.33 nm  f=0.0000  <S**2>=0.000
      10 -> 24        -0.22300
      13 -> 29         0.66704

 Excited State  60:      Singlet-A1    16.0516 eV   77.24 nm  f=0.0463  <S**2>=0.000
       8 -> 18         0.10337
      11 -> 24         0.15018
      11 -> 25        -0.11279
      13 -> 27         0.64227

 Excited State  61:      Singlet-B1    16.1227 eV   76.90 nm  f=0.0044  <S**2>=0.000
       9 -> 18        -0.10928
      13 -> 28         0.67996

 Excited State  62:      Singlet-B2    16.3741 eV   75.72 nm  f=0.0691  <S**2>=0.000
       7 -> 18         0.21092
      12 -> 24         0.20181
      12 -> 25         0.62254

 Excited State  63:      Singlet-A1    16.6530 eV   74.45 nm  f=0.0301  <S**2>=0.000
      11 -> 25         0.65287
      13 -> 30        -0.23078

 Excited State  64:      Singlet-A2    16.7402 eV   74.06 nm  f=0.0000  <S**2>=0.000
      10 -> 25         0.70233

 Excited State  65:      Singlet-A1    16.8081 eV   73.76 nm  f=0.0367  <S**2>=0.000
       6 -> 14         0.11903
       7 -> 19        -0.14613
       8 -> 18         0.65976

 Excited State  66:      Singlet-B2    16.9187 eV   73.28 nm  f=0.0278  <S**2>=0.000
       7 -> 18         0.61301
       8 -> 19        -0.21626
      11 -> 29         0.10555
      12 -> 24        -0.11680

 Excited State  67:      Singlet-B1    16.9188 eV   73.28 nm  f=0.1168  <S**2>=0.000
       8 -> 20        -0.12529
       9 -> 16        -0.10411
       9 -> 18         0.65327
      12 -> 26         0.12517

 Excited State  68:      Singlet-A1    17.1105 eV   72.46 nm  f=0.0027  <S**2>=0.000
       6 -> 14         0.11074
       7 -> 19         0.17065
       9 -> 20        -0.12417
      11 -> 25         0.18003
      13 -> 30         0.60292

 Excited State  69:      Singlet-B1    17.1825 eV   72.16 nm  f=0.0190  <S**2>=0.000
       9 -> 18        -0.10621
      12 -> 26         0.69475

 Excited State  70:      Singlet-A2    17.4152 eV   71.19 nm  f=0.0000  <S**2>=0.000
       9 -> 19         0.69511

 Excited State  71:      Singlet-A2    17.5179 eV   70.78 nm  f=0.0000  <S**2>=0.000
       9 -> 19        -0.10136
      11 -> 26         0.66481
      12 -> 27        -0.20999

 Excited State  72:      Singlet-A2    17.5349 eV   70.71 nm  f=0.0000  <S**2>=0.000
      11 -> 26         0.21203
      12 -> 27         0.67097

 Excited State  73:      Singlet-B2    17.5372 eV   70.70 nm  f=0.0022  <S**2>=0.000
       6 -> 15        -0.10284
       7 -> 21         0.17829
       8 -> 19         0.61067
       8 -> 23        -0.11076
      11 -> 29         0.14579
      12 -> 28         0.14830

 Excited State  74:      Singlet-A1    17.6188 eV   70.37 nm  f=0.0022  <S**2>=0.000
       7 -> 19        -0.26837
      10 -> 26         0.53382
      12 -> 29         0.35364

 Excited State  75:      Singlet-A1    17.6475 eV   70.26 nm  f=0.0369  <S**2>=0.000
       6 -> 14        -0.21617
       7 -> 19        -0.16089
      10 -> 26        -0.43005
      12 -> 29         0.46721

 Excited State  76:      Singlet-B2    17.6660 eV   70.18 nm  f=0.0047  <S**2>=0.000
       8 -> 19        -0.12109
       9 -> 22         0.18166
      12 -> 28         0.66848

 Excited State  77:      Singlet-A1    17.6939 eV   70.07 nm  f=0.0339  <S**2>=0.000
       6 -> 14         0.37749
       7 -> 19         0.26723
       9 -> 20        -0.27473
      11 -> 28         0.25778
      12 -> 29         0.30738
      13 -> 30        -0.13361

 Excited State  78:      Singlet-B1    17.7501 eV   69.85 nm  f=0.0257  <S**2>=0.000
       8 -> 20         0.64513
       9 -> 21        -0.14507
      11 -> 27        -0.19684

 Excited State  79:      Singlet-A2    17.7686 eV   69.78 nm  f=0.0000  <S**2>=0.000
       7 -> 20         0.70022

 Excited State  80:      Singlet-A1    17.8054 eV   69.63 nm  f=0.0263  <S**2>=0.000
       6 -> 14         0.27436
       9 -> 20         0.58476
      12 -> 29         0.16062
      13 -> 31        -0.15482

 Excited State  81:      Singlet-A2    17.8116 eV   69.61 nm  f=0.0000  <S**2>=0.000
       8 -> 22         0.70273

 Excited State  82:      Singlet-B1    17.8166 eV   69.59 nm  f=0.0164  <S**2>=0.000
       9 -> 21         0.67113
      11 -> 27        -0.16806

 Excited State  83:      Singlet-B2    17.8182 eV   69.58 nm  f=0.0627  <S**2>=0.000
       7 -> 21         0.10006
       9 -> 22         0.66260
      11 -> 29         0.12076
      12 -> 28        -0.16557

 Excited State  84:      Singlet-B1    17.8790 eV   69.35 nm  f=0.0022  <S**2>=0.000
       7 -> 22         0.63971
      11 -> 27        -0.28495

 Excited State  85:      Singlet-A1    17.8807 eV   69.34 nm  f=0.0080  <S**2>=0.000
       6 -> 14         0.13173
       7 -> 23         0.13554
       8 -> 21         0.65674
      10 -> 26        -0.10421

 Excited State  86:      Singlet-B2    17.9131 eV   69.21 nm  f=0.0299  <S**2>=0.000
       7 -> 21         0.58333
      10 -> 27         0.24351
      11 -> 29        -0.29634

 Excited State  87:      Singlet-B1    17.9543 eV   69.06 nm  f=0.0124  <S**2>=0.000
       7 -> 22         0.28956
       8 -> 20         0.21378
       9 -> 21         0.10543
      11 -> 27         0.58436

 Excited State  88:      Singlet-B2    17.9899 eV   68.92 nm  f=0.0812  <S**2>=0.000
       7 -> 21        -0.11696
      10 -> 27         0.63582
      11 -> 29         0.28096

 Excited State  89:      Singlet-A1    18.0048 eV   68.86 nm  f=0.0014  <S**2>=0.000
       6 -> 14        -0.33407
       7 -> 19         0.37657
       7 -> 23        -0.25136
       8 -> 21         0.16914
      11 -> 28         0.11972
      12 -> 29         0.11691
      13 -> 31        -0.26260

 Excited State  90:      Singlet-A2    18.1172 eV   68.43 nm  f=0.0000  <S**2>=0.000
      10 -> 28         0.70273

 Excited State  91:      Singlet-B1    18.1576 eV   68.28 nm  f=0.0368  <S**2>=0.000
      10 -> 29         0.68368
      13 -> 32         0.14082

 Excited State  92:      Singlet-A1    18.1830 eV   68.19 nm  f=0.0153  <S**2>=0.000
       6 -> 14        -0.12110
       7 -> 19        -0.20018
      11 -> 28         0.61941

 Excited State  93:      Singlet-B2    18.2481 eV   67.94 nm  f=0.0147  <S**2>=0.000
       7 -> 21         0.23985
       7 -> 24        -0.14866
       8 -> 23         0.35045
      10 -> 27        -0.14959
      11 -> 29         0.47399

 Excited State  94:      Singlet-A1    18.2985 eV   67.76 nm  f=0.1067  <S**2>=0.000
       6 -> 14        -0.10272
       7 -> 19         0.10423
       7 -> 23        -0.15799
       9 -> 20         0.18021
      13 -> 31         0.61854

 Excited State  95:      Singlet-B1    18.3338 eV   67.63 nm  f=0.0148  <S**2>=0.000
      10 -> 29        -0.13663
      13 -> 32         0.68756

 Excited State  96:      Singlet-A2    18.4546 eV   67.18 nm  f=0.0000  <S**2>=0.000
       9 -> 23         0.70050

 Excited State  97:      Singlet-B2    18.5360 eV   66.89 nm  f=0.0014  <S**2>=0.000
       6 -> 15         0.46899
       7 -> 21         0.12386
       7 -> 24        -0.15467
       8 -> 23        -0.42407
      11 -> 29         0.13150

 Excited State  98:      Singlet-A2    18.5467 eV   66.85 nm  f=0.0000  <S**2>=0.000
      12 -> 30         0.70611

 Excited State  99:      Singlet-A2    18.6887 eV   66.34 nm  f=0.0000  <S**2>=0.000
      13 -> 33         0.70482

 Excited State 100:      Singlet-B2    18.7781 eV   66.03 nm  f=0.0019  <S**2>=0.000
       6 -> 15         0.48058
       7 -> 24         0.17772
       8 -> 19         0.13051
       8 -> 23         0.38709
      10 -> 30        -0.14374
      11 -> 29        -0.10692

 Excited State 101:      Singlet-A1    18.8159 eV   65.89 nm  f=0.0982  <S**2>=0.000
       6 -> 14        -0.12298
       6 -> 16        -0.30025
       7 -> 19         0.15262
       7 -> 23         0.52462
       8 -> 24         0.25862

 Excited State 102:      Singlet-B1    18.8859 eV   65.65 nm  f=0.0028  <S**2>=0.000
       6 -> 17         0.12783
       9 -> 24         0.10350
      11 -> 30         0.67518

 Excited State 103:      Singlet-B2    19.0337 eV   65.14 nm  f=0.0117  <S**2>=0.000
       7 -> 24         0.19727
      10 -> 30         0.66862

 Excited State 104:      Singlet-B1    19.0733 eV   65.00 nm  f=0.0222  <S**2>=0.000
       9 -> 24         0.15244
      11 -> 30        -0.11294
      13 -> 34         0.67776

 Excited State 105:      Singlet-A1    19.0969 eV   64.92 nm  f=0.0107  <S**2>=0.000
       6 -> 16         0.56779
       7 -> 23         0.17109
       8 -> 24         0.33570

 Excited State 106:      Singlet-B1    19.1348 eV   64.80 nm  f=0.0072  <S**2>=0.000
       6 -> 17         0.60717
       9 -> 24         0.29986
      11 -> 30        -0.13970
      13 -> 34        -0.11634

 Excited State 107:      Singlet-A2    19.3603 eV   64.04 nm  f=0.0000  <S**2>=0.000
      13 -> 35         0.70514

 Excited State 108:      Singlet-B1    19.4529 eV   63.74 nm  f=0.0067  <S**2>=0.000
       6 -> 17        -0.31018
       9 -> 24         0.59993
      13 -> 34        -0.12120

 Excited State 109:      Singlet-B2    19.8182 eV   62.56 nm  f=0.0734  <S**2>=0.000
       7 -> 24         0.50379
       7 -> 25        -0.18810
      10 -> 31        -0.21687
      12 -> 32        -0.28362
      13 -> 36         0.11415

 Excited State 110:      Singlet-A2    19.8228 eV   62.55 nm  f=0.0000  <S**2>=0.000
      12 -> 31         0.70548

 Excited State 111:      Singlet-B2    19.9712 eV   62.08 nm  f=0.0910  <S**2>=0.000
       7 -> 24         0.17472
      10 -> 31        -0.19798
      12 -> 32         0.63358

 Excited State 112:      Singlet-A1    20.0968 eV   61.69 nm  f=0.0019  <S**2>=0.000
       6 -> 16         0.15318
       6 -> 21        -0.10892
       7 -> 23         0.16630
       7 -> 29         0.13947
       8 -> 24        -0.39875
       8 -> 25         0.14634
       9 -> 30        -0.10485
      11 -> 32         0.40694

 Excited State 113:      Singlet-B1    20.1434 eV   61.55 nm  f=0.0257  <S**2>=0.000
       9 -> 25        -0.34942
      11 -> 31         0.60512

 Excited State 114:      Singlet-A1    20.1977 eV   61.39 nm  f=0.0045  <S**2>=0.000
       6 -> 18        -0.25064
       8 -> 25         0.62477
      11 -> 32        -0.13467
      12 -> 33        -0.15427

 Excited State 115:      Singlet-B2    20.2428 eV   61.25 nm  f=0.0201  <S**2>=0.000
       7 -> 25         0.57932
      10 -> 31        -0.39380

 Excited State 116:      Singlet-B1    20.2451 eV   61.24 nm  f=0.0194  <S**2>=0.000
       9 -> 25         0.59618
      11 -> 31         0.35076

 Excited State 117:      Singlet-A1    20.3736 eV   60.86 nm  f=0.0044  <S**2>=0.000
       8 -> 25         0.11149
      11 -> 32        -0.28770
      12 -> 33         0.62446

 Excited State 118:      Singlet-B2    20.4307 eV   60.69 nm  f=0.0376  <S**2>=0.000
       7 -> 24         0.17430
       7 -> 25         0.32319
      10 -> 31         0.45532
      11 -> 33        -0.22089
      12 -> 34        -0.18655
      13 -> 36         0.18096

 Excited State 119:      Singlet-A2    20.4498 eV   60.63 nm  f=0.0000  <S**2>=0.000
      10 -> 32         0.70266

 Excited State 120:      Singlet-A1    20.4665 eV   60.58 nm  f=0.1500  <S**2>=0.000
       6 -> 18        -0.35990
       7 -> 23        -0.11986
       7 -> 29        -0.14894
       8 -> 24         0.21164
      11 -> 32         0.39930
      12 -> 33         0.26583

 Excited State 121:      Singlet-A1    20.5499 eV   60.33 nm  f=0.0005  <S**2>=0.000
       6 -> 18         0.51968
       7 -> 29        -0.11295
       8 -> 24         0.15099
       8 -> 25         0.24715
       8 -> 28        -0.11721
      11 -> 32         0.22597
      11 -> 34         0.11763

 Excited State 122:      Singlet-B2    20.6929 eV   59.92 nm  f=0.0087  <S**2>=0.000
      11 -> 33         0.50119
      12 -> 34        -0.49043

 Excited State 123:      Singlet-B2    20.7624 eV   59.72 nm  f=0.0696  <S**2>=0.000
       9 -> 26        -0.10649
      10 -> 31         0.14776
      11 -> 33         0.43287
      12 -> 34         0.44471
      13 -> 36         0.21237

 Excited State 124:      Singlet-B1    20.8556 eV   59.45 nm  f=0.0857  <S**2>=0.000
       7 -> 26         0.13684
      10 -> 33         0.68013

 Excited State 125:      Singlet-B2    21.0396 eV   58.93 nm  f=0.0009  <S**2>=0.000
       6 -> 19         0.37081
       9 -> 26         0.54652
      13 -> 36         0.22712

 The electronic state is 1-A1.
 Alpha  occ. eigenvalues --  -24.12438 -24.12434  -9.94834  -1.14624  -1.08580
 Alpha  occ. eigenvalues --   -0.63916  -0.51001  -0.50770  -0.50666  -0.38084
 Alpha  occ. eigenvalues --   -0.37695  -0.36400  -0.30494
 Alpha virt. eigenvalues --    0.00572   0.02837   0.04926   0.05750   0.10415
 Alpha virt. eigenvalues --    0.13148   0.14156   0.14674   0.14738   0.16990
 Alpha virt. eigenvalues --    0.19875   0.23372   0.26800   0.28078   0.28428

 Mulliken charges:
               1
     1  F   -0.332843
     2  C    0.946689
     3  F   -0.332843
     4  H   -0.140501
     5  H   -0.140501
 Sum of Mulliken charges =   0.00000

 Dipole moment (field-independent basis, Debye):
    X=              0.0000    Y=             -0.0000    Z=              1.8832  Tot=              1.8832
 Quadrupole moment (field-independent basis, Debye-Ang):
   XX=            -15.6665   YY=            -19.3289   ZZ=            -15.7139
   XY=             -0.0000   XZ=              0.0000   YZ=              0.0000

 Normal termination of Gaussian 16 at Mon Mar 21 19:57:39 2022.
