 Gaussian 16, Revision C.01,
 Gaussian 16:  EM64L-G16RevC.01  3-Jul-2019

 ---------------------------------------------------------------------
 #P TD(Nstates=10000) svwn5/Gen SCF(maxcycles=100) Int(Grid=ultrafine)
 ---------------------------------------------------------------------

 ---------------------
 xGDB7_00001_tier4.com
 ---------------------
 Symbolic Z-matrix:
 Charge =  0 Multiplicity = 1

                         Standard orientation:
 ---------------------------------------------------------------------
 Center     Atomic      Atomic             Coordinates (Angstroms)
 Number     Number       Type             X           Y           Z
 ---------------------------------------------------------------------
      1          7           0        1.111035   -0.177046   -0.052467
      2          6           0       -0.122009    0.419593    0.001774
      3          7           0       -1.267607   -0.121443    0.008098
      4          1           0        1.920558    0.367802    0.180104
      5          1           0        1.180700   -1.165617    0.115308
      6          1           0       -0.065701    1.508813    0.004046
      7          1           0       -1.207497   -1.139126    0.000481
 ---------------------------------------------------------------------

 SCF Done:  E(RS-VWN5) =  -148.647359508     A.U. after   14 cycles

 Excitation energies and oscillator strengths:

 Excited State   1:      Singlet-A      5.8312 eV  212.62 nm  f=0.0060  <S**2>=0.000
      11 -> 13         0.29652
      12 -> 13         0.56972
      12 -> 14        -0.29220
 This state for optimization and/or second-order correction.
 Total Energy, E(TD-HF/TD-DFT) =  -148.433066227
 Copying the excited state density for this state as the 1-particle RhoCI density.

 Excited State   2:      Singlet-A      6.0212 eV  205.91 nm  f=0.0034  <S**2>=0.000
      11 -> 13         0.32977
      11 -> 14        -0.12605
      12 -> 13         0.13208
      12 -> 14         0.59645

 Excited State   3:      Singlet-A      6.1105 eV  202.90 nm  f=0.0200  <S**2>=0.000
      11 -> 14         0.69438

 Excited State   4:      Singlet-A      6.7706 eV  183.12 nm  f=0.0224  <S**2>=0.000
      11 -> 15        -0.18456
      12 -> 15         0.67714

 Excited State   5:      Singlet-A      6.8714 eV  180.44 nm  f=0.0712  <S**2>=0.000
      11 -> 13        -0.24595
      11 -> 15         0.58543
      12 -> 13         0.19339
      12 -> 14         0.11760
      12 -> 15         0.19308

 Excited State   6:      Singlet-A      7.0763 eV  175.21 nm  f=0.2400  <S**2>=0.000
      11 -> 13         0.43540
      11 -> 15         0.33714
      11 -> 16         0.10221
      12 -> 13        -0.30083
      12 -> 14        -0.16670
      12 -> 16         0.19875

 Excited State   7:      Singlet-A      7.4984 eV  165.35 nm  f=0.0382  <S**2>=0.000
      11 -> 13        -0.10044
      11 -> 16        -0.22747
      12 -> 16         0.64644

 Excited State   8:      Singlet-A      7.5956 eV  163.23 nm  f=0.0313  <S**2>=0.000
      11 -> 13        -0.10207
      11 -> 16         0.66008
      12 -> 16         0.19084

 Excited State   9:      Singlet-A      8.5035 eV  145.80 nm  f=0.0053  <S**2>=0.000
      12 -> 17         0.70183

 Excited State  10:      Singlet-A      8.6341 eV  143.60 nm  f=0.0118  <S**2>=0.000
      11 -> 17         0.70122

 Excited State  11:      Singlet-A      8.9193 eV  139.01 nm  f=0.0013  <S**2>=0.000
      11 -> 18        -0.23622
      12 -> 18         0.66134

 Excited State  12:      Singlet-A      9.0726 eV  136.66 nm  f=0.0014  <S**2>=0.000
      11 -> 18         0.65893
      12 -> 18         0.23318

 Excited State  13:      Singlet-A      9.3398 eV  132.75 nm  f=0.0566  <S**2>=0.000
      10 -> 13        -0.16128
      10 -> 14         0.68186

 Excited State  14:      Singlet-A      9.5928 eV  129.25 nm  f=0.0172  <S**2>=0.000
      11 -> 19         0.26921
      12 -> 19         0.64480

 Excited State  15:      Singlet-A      9.7084 eV  127.71 nm  f=0.0008  <S**2>=0.000
       9 -> 13         0.60374
       9 -> 14        -0.11322
      11 -> 19         0.13324
      12 -> 20         0.28031

 Excited State  16:      Singlet-A      9.7437 eV  127.25 nm  f=0.0043  <S**2>=0.000
       9 -> 13        -0.27756
      10 -> 13        -0.12726
      11 -> 19         0.48535
      11 -> 20         0.20437
      12 -> 19        -0.18320
      12 -> 20         0.25106

 Excited State  17:      Singlet-A      9.7760 eV  126.83 nm  f=0.0072  <S**2>=0.000
       9 -> 13        -0.17272
      11 -> 19        -0.29950
      11 -> 20        -0.12067
      12 -> 20         0.58980

 Excited State  18:      Singlet-A      9.9314 eV  124.84 nm  f=0.0280  <S**2>=0.000
       9 -> 14         0.19414
      10 -> 13         0.13115
      11 -> 19        -0.11651
      11 -> 20         0.62632
      11 -> 21        -0.10898
      12 -> 19         0.10226

 Excited State  19:      Singlet-A      9.9647 eV  124.42 nm  f=0.0035  <S**2>=0.000
       9 -> 14         0.59336
      10 -> 13         0.17971
      10 -> 15        -0.12734
      11 -> 19         0.18555
      11 -> 20        -0.19035
      12 -> 19        -0.10892

 Excited State  20:      Singlet-A     10.1188 eV  122.53 nm  f=0.0043  <S**2>=0.000
       9 -> 13         0.10227
       9 -> 14         0.18758
      10 -> 13        -0.10431
      10 -> 15         0.64537
      12 -> 21        -0.13060

 Excited State  21:      Singlet-A     10.2890 eV  120.50 nm  f=0.0539  <S**2>=0.000
       9 -> 14        -0.18882
      10 -> 13         0.43073
      10 -> 15         0.21616
      11 -> 19         0.13571
      12 -> 21         0.39933

 Excited State  22:      Singlet-A     10.3918 eV  119.31 nm  f=0.0400  <S**2>=0.000
       9 -> 14         0.12384
      10 -> 13        -0.27914
      11 -> 21         0.42756
      12 -> 21         0.43608

 Excited State  23:      Singlet-A     10.7038 eV  115.83 nm  f=0.1214  <S**2>=0.000
      10 -> 13         0.22825
      10 -> 16        -0.17696
      11 -> 21         0.50104
      12 -> 21        -0.28580

 Excited State  24:      Singlet-A     10.8199 eV  114.59 nm  f=0.0257  <S**2>=0.000
       9 -> 15        -0.13540
      10 -> 16         0.65331
      11 -> 22         0.12887

 Excited State  25:      Singlet-A     10.8236 eV  114.55 nm  f=0.0072  <S**2>=0.000
       9 -> 15        -0.33268
      10 -> 16        -0.11435
      12 -> 22         0.59602

 Excited State  26:      Singlet-A     10.9138 eV  113.60 nm  f=0.0702  <S**2>=0.000
       9 -> 15         0.52515
      10 -> 13         0.10209
      11 -> 21         0.10332
      11 -> 22        -0.30394
      12 -> 22         0.28726

 Excited State  27:      Singlet-A     10.9975 eV  112.74 nm  f=0.1173  <S**2>=0.000
       9 -> 15         0.26987
      11 -> 22         0.59495
      11 -> 23         0.11763
      12 -> 22         0.16134
      12 -> 23         0.11325

 Excited State  28:      Singlet-A     11.2429 eV  110.28 nm  f=0.0667  <S**2>=0.000
       9 -> 16        -0.10134
      11 -> 23        -0.10986
      12 -> 23         0.66357
      12 -> 24        -0.10342

 Excited State  29:      Singlet-A     11.3782 eV  108.97 nm  f=0.0549  <S**2>=0.000
       9 -> 16        -0.19145
      11 -> 23         0.64761
      12 -> 24        -0.12049

 Excited State  30:      Singlet-A     11.5539 eV  107.31 nm  f=0.0763  <S**2>=0.000
       9 -> 16         0.63916
      11 -> 23         0.12516
      12 -> 24        -0.23764

 Excited State  31:      Singlet-A     11.7436 eV  105.58 nm  f=0.0232  <S**2>=0.000
       9 -> 16         0.11336
      11 -> 24         0.46615
      12 -> 24         0.50176

 Excited State  32:      Singlet-A     11.8679 eV  104.47 nm  f=0.0062  <S**2>=0.000
      10 -> 17         0.70221

 Excited State  33:      Singlet-A     11.9943 eV  103.37 nm  f=0.0388  <S**2>=0.000
       9 -> 16        -0.13537
      10 -> 19         0.15189
      11 -> 23        -0.12173
      11 -> 24         0.50400
      12 -> 24        -0.37902

 Excited State  34:      Singlet-A     12.3305 eV  100.55 nm  f=0.0510  <S**2>=0.000
       8 -> 13         0.24923
      10 -> 18         0.64091

 Excited State  35:      Singlet-A     12.4432 eV   99.64 nm  f=0.0261  <S**2>=0.000
       8 -> 13         0.60249
       9 -> 17        -0.14013
      10 -> 18        -0.24941
      12 -> 25        -0.17469

 Excited State  36:      Singlet-A     12.5222 eV   99.01 nm  f=0.0191  <S**2>=0.000
       8 -> 13         0.19659
       9 -> 17         0.11240
      11 -> 25        -0.30301
      12 -> 25         0.57971

 Excited State  37:      Singlet-A     12.5619 eV   98.70 nm  f=0.0800  <S**2>=0.000
       8 -> 13         0.10915
       9 -> 17         0.65323
      11 -> 25         0.14041

 Excited State  38:      Singlet-A     12.6710 eV   97.85 nm  f=0.0387  <S**2>=0.000
       8 -> 13         0.10781
       8 -> 14         0.17699
      11 -> 25         0.47024
      12 -> 25         0.19381
      12 -> 26         0.40908

 Excited State  39:      Singlet-A     12.7507 eV   97.24 nm  f=0.0201  <S**2>=0.000
       8 -> 14         0.49548
      11 -> 25         0.17309
      12 -> 26        -0.44686

 Excited State  40:      Singlet-A     12.8275 eV   96.66 nm  f=0.1637  <S**2>=0.000
       8 -> 14        -0.34444
       9 -> 18         0.10127
      11 -> 25         0.27868
      11 -> 26         0.38370
      12 -> 25         0.13218
      12 -> 26        -0.30999

 Excited State  41:      Singlet-A     12.8651 eV   96.37 nm  f=0.0035  <S**2>=0.000
       8 -> 14         0.22430
       9 -> 18         0.48812
      10 -> 19        -0.17239
      11 -> 25        -0.10924
      11 -> 26         0.34360
      11 -> 27        -0.10622
      12 -> 26         0.13370
      12 -> 27        -0.11947

 Excited State  42:      Singlet-A     12.9505 eV   95.74 nm  f=0.0624  <S**2>=0.000
       7 -> 13        -0.12151
       8 -> 14        -0.10946
       9 -> 18         0.46561
      11 -> 26        -0.40696
      11 -> 27         0.13060
      12 -> 25         0.10227
      12 -> 27         0.18971

 Excited State  43:      Singlet-A     13.1091 eV   94.58 nm  f=0.0048  <S**2>=0.000
       7 -> 13         0.64951
      10 -> 19         0.17671
      10 -> 20         0.12994

 Excited State  44:      Singlet-A     13.1305 eV   94.42 nm  f=0.0218  <S**2>=0.000
       7 -> 13        -0.16391
      10 -> 19         0.38718
      10 -> 20         0.46030
      11 -> 27        -0.21136
      12 -> 27         0.13162

 Excited State  45:      Singlet-A     13.2405 eV   93.64 nm  f=0.0053  <S**2>=0.000
       7 -> 14        -0.13769
       9 -> 20         0.12420
      10 -> 19         0.43372
      10 -> 20        -0.40377
      11 -> 27         0.12299
      12 -> 27        -0.17090

 Excited State  46:      Singlet-A     13.3684 eV   92.74 nm  f=0.0634  <S**2>=0.000
       7 -> 13         0.13378
       9 -> 19         0.23917
      10 -> 20        -0.24902
      11 -> 27        -0.40410
      12 -> 27         0.40679

 Excited State  47:      Singlet-A     13.4983 eV   91.85 nm  f=0.0544  <S**2>=0.000
       8 -> 15         0.49565
      10 -> 21         0.22441
      11 -> 27        -0.32052
      12 -> 27        -0.24053

 Excited State  48:      Singlet-A     13.5698 eV   91.37 nm  f=0.0936  <S**2>=0.000
       7 -> 14         0.16480
       9 -> 19         0.63379
      10 -> 20         0.12670
      11 -> 27         0.12301
      12 -> 27        -0.11067

 Excited State  49:      Singlet-A     13.6635 eV   90.74 nm  f=0.0753  <S**2>=0.000
       7 -> 14         0.60040
       7 -> 15         0.12905
       8 -> 15         0.12369
       9 -> 20         0.13796
      10 -> 19         0.10350
      10 -> 21        -0.19981

 Excited State  50:      Singlet-A     13.7045 eV   90.47 nm  f=0.0893  <S**2>=0.000
       7 -> 14         0.18828
       8 -> 15        -0.36690
       9 -> 20         0.11135
      10 -> 21         0.48551
      11 -> 27        -0.13506
      12 -> 27        -0.11239

 Excited State  51:      Singlet-A     13.8503 eV   89.52 nm  f=0.0161  <S**2>=0.000
       8 -> 15         0.22095
       8 -> 16         0.23013
       9 -> 20         0.39070
      10 -> 21         0.27126
      11 -> 27         0.19867
      12 -> 27         0.22839

 Excited State  52:      Singlet-A     13.9096 eV   89.14 nm  f=0.0387  <S**2>=0.000
       7 -> 14        -0.11103
       7 -> 15        -0.20082
       8 -> 16        -0.19952
       9 -> 20         0.50351
      10 -> 21        -0.24313
      11 -> 27        -0.10599
      12 -> 27        -0.12970

 Excited State  53:      Singlet-A     14.2006 eV   87.31 nm  f=0.0094  <S**2>=0.000
       9 -> 21         0.69843

 Excited State  54:      Singlet-A     14.2055 eV   87.28 nm  f=0.0039  <S**2>=0.000
      10 -> 22         0.69260

 Excited State  55:      Singlet-A     14.3003 eV   86.70 nm  f=0.0612  <S**2>=0.000
       8 -> 16         0.22716
      11 -> 29        -0.18454
      12 -> 28         0.54398
      12 -> 29        -0.30803

 Excited State  56:      Singlet-A     14.3667 eV   86.30 nm  f=0.0218  <S**2>=0.000
       7 -> 15        -0.12246
       8 -> 16         0.26966
      11 -> 28         0.39709
      12 -> 28        -0.33615
      12 -> 29        -0.32192

 Excited State  57:      Singlet-A     14.4151 eV   86.01 nm  f=0.0577  <S**2>=0.000
       8 -> 16         0.46797
       9 -> 22         0.12868
      11 -> 28        -0.31306
      11 -> 29         0.13896
      12 -> 27        -0.10745
      12 -> 29         0.23014

 Excited State  58:      Singlet-A     14.4715 eV   85.67 nm  f=0.0140  <S**2>=0.000
       7 -> 15         0.35248
      10 -> 23        -0.20877
      11 -> 28        -0.25561
      11 -> 29         0.25041
      11 -> 30        -0.10502
      12 -> 29        -0.34161
      12 -> 30        -0.18963

 Excited State  59:      Singlet-A     14.4984 eV   85.52 nm  f=0.0898  <S**2>=0.000
       7 -> 15         0.43361
       8 -> 16         0.12610
      10 -> 23         0.15763
      11 -> 28         0.26818
      11 -> 29        -0.21198
      12 -> 29         0.21148
      12 -> 30        -0.16979

 Excited State  60:      Singlet-A     14.5693 eV   85.10 nm  f=0.0108  <S**2>=0.000
      10 -> 23         0.41461
      11 -> 28        -0.24735
      11 -> 29        -0.28652
      11 -> 30        -0.14665
      12 -> 28        -0.12674
      12 -> 29        -0.21150
      12 -> 30        -0.24038
      12 -> 31         0.10851

 Excited State  61:      Singlet-A     14.5933 eV   84.96 nm  f=0.0050  <S**2>=0.000
      10 -> 23         0.48353
      11 -> 29         0.38089
      12 -> 28         0.11321
      12 -> 30         0.24021

 Excited State  62:      Singlet-A     14.6636 eV   84.55 nm  f=0.0081  <S**2>=0.000
       7 -> 15         0.12196
      11 -> 29        -0.24959
      11 -> 30        -0.21829
      12 -> 28        -0.13135
      12 -> 30         0.54498

 Excited State  63:      Singlet-A     14.7816 eV   83.88 nm  f=0.0197  <S**2>=0.000
      11 -> 30         0.59813
      12 -> 31         0.25299

 Excited State  64:      Singlet-A     14.9139 eV   83.13 nm  f=0.0232  <S**2>=0.000
       9 -> 22         0.51047
      10 -> 24        -0.16907
      11 -> 31         0.30624
      12 -> 31         0.22679
      12 -> 32        -0.13811

 Excited State  65:      Singlet-A     14.9230 eV   83.08 nm  f=0.0455  <S**2>=0.000
       7 -> 16        -0.15925
       9 -> 22        -0.31946
      10 -> 24         0.16245
      11 -> 30        -0.12011
      11 -> 31         0.25590
      12 -> 31         0.47543

 Excited State  66:      Singlet-A     15.0017 eV   82.65 nm  f=0.0332  <S**2>=0.000
       7 -> 16         0.64380
       8 -> 17        -0.10895
       9 -> 22        -0.11620
      12 -> 32        -0.17689

 Excited State  67:      Singlet-A     15.0458 eV   82.40 nm  f=0.0446  <S**2>=0.000
       7 -> 16         0.12254
       9 -> 23         0.14875
      10 -> 24        -0.10478
      11 -> 31         0.12010
      12 -> 32         0.63076

 Excited State  68:      Singlet-A     15.1211 eV   81.99 nm  f=0.0205  <S**2>=0.000
       6 -> 14        -0.12681
       9 -> 23        -0.26528
      10 -> 24         0.20231
      11 -> 30         0.11264
      11 -> 31         0.39790
      11 -> 32        -0.37158
      12 -> 31        -0.15350

 Excited State  69:      Singlet-A     15.1599 eV   81.78 nm  f=0.0601  <S**2>=0.000
       6 -> 14        -0.21610
       9 -> 23         0.10934
      10 -> 24         0.24785
      11 -> 31         0.21108
      11 -> 32         0.49665
      12 -> 31        -0.23343

 Excited State  70:      Singlet-A     15.1812 eV   81.67 nm  f=0.0102  <S**2>=0.000
       6 -> 13         0.10722
       6 -> 14        -0.14150
       8 -> 17         0.25026
       9 -> 23         0.52944
      10 -> 24         0.14677
      11 -> 32        -0.28072

 Excited State  71:      Singlet-A     15.3288 eV   80.88 nm  f=0.0372  <S**2>=0.000
       6 -> 13        -0.11411
       8 -> 18         0.23543
       9 -> 22         0.19932
       9 -> 23        -0.11210
      10 -> 24         0.48363
      11 -> 31        -0.17234
      12 -> 31         0.11634

 Excited State  72:      Singlet-A     15.3997 eV   80.51 nm  f=0.0261  <S**2>=0.000
       6 -> 13         0.35746
       6 -> 14        -0.33512
       8 -> 17         0.30685
       9 -> 23        -0.25163
      11 -> 31        -0.11924
      12 -> 31         0.10763

 Excited State  73:      Singlet-A     15.5395 eV   79.79 nm  f=0.0517  <S**2>=0.000
       6 -> 13         0.38117
       6 -> 15         0.15832
       8 -> 17        -0.35385
       8 -> 18         0.10958
       9 -> 24        -0.30469
      10 -> 24         0.10520

 Excited State  74:      Singlet-A     15.5606 eV   79.68 nm  f=0.0547  <S**2>=0.000
       6 -> 13         0.12406
       6 -> 14         0.45212
       6 -> 15        -0.19505
       7 -> 17         0.14936
       8 -> 17         0.29841
       9 -> 24        -0.26118
      11 -> 31         0.10139

 Excited State  75:      Singlet-A     15.6550 eV   79.20 nm  f=0.0165  <S**2>=0.000
       8 -> 18        -0.22762
       9 -> 24        -0.27114
      12 -> 33         0.58085

 Excited State  76:      Singlet-A     15.7257 eV   78.84 nm  f=0.0858  <S**2>=0.000
       6 -> 13         0.27869
       6 -> 14         0.19021
       8 -> 18        -0.22350
       9 -> 24         0.43290
      10 -> 25        -0.14977
      11 -> 33         0.17632
      11 -> 34        -0.13059
      12 -> 33         0.15529
      12 -> 34         0.14149

 Excited State  77:      Singlet-A     15.7818 eV   78.56 nm  f=0.0303  <S**2>=0.000
       6 -> 13        -0.10191
       8 -> 18        -0.32348
       9 -> 24        -0.14890
      10 -> 25         0.13752
      12 -> 33        -0.19519
      12 -> 34         0.50924

 Excited State  78:      Singlet-A     15.8074 eV   78.43 nm  f=0.0474  <S**2>=0.000
       8 -> 18         0.19117
      10 -> 25         0.34497
      11 -> 33         0.53630

 Excited State  79:      Singlet-A     15.8441 eV   78.25 nm  f=0.0443  <S**2>=0.000
       7 -> 17        -0.10225
       8 -> 18         0.36267
      10 -> 24        -0.10218
      11 -> 33        -0.19411
      11 -> 34         0.13047
      12 -> 33         0.20630
      12 -> 34         0.40572

 Excited State  80:      Singlet-A     15.8920 eV   78.02 nm  f=0.0516  <S**2>=0.000
      10 -> 25         0.49878
      11 -> 33        -0.30180
      11 -> 34        -0.33791

 Excited State  81:      Singlet-A     15.9601 eV   77.68 nm  f=0.0747  <S**2>=0.000
       7 -> 17        -0.16631
       8 -> 18        -0.11341
       9 -> 24         0.11990
      10 -> 25         0.27831
      11 -> 34         0.53436
      12 -> 34        -0.19152

 Excited State  82:      Singlet-A     16.1359 eV   76.84 nm  f=0.0161  <S**2>=0.000
      10 -> 26         0.67604

 Excited State  83:      Singlet-A     16.2081 eV   76.50 nm  f=0.0533  <S**2>=0.000
       6 -> 15         0.46037
       7 -> 17         0.42502
       7 -> 18        -0.18388
       9 -> 25         0.10869
      11 -> 34         0.15518

 Excited State  84:      Singlet-A     16.3005 eV   76.06 nm  f=0.0033  <S**2>=0.000
       8 -> 19         0.70026

 Excited State  85:      Singlet-A     16.4248 eV   75.49 nm  f=0.0296  <S**2>=0.000
       6 -> 15        -0.28475
       7 -> 17         0.24151
       8 -> 17        -0.10787
       8 -> 20         0.52571
       9 -> 25         0.14625

 Excited State  86:      Singlet-A     16.5650 eV   74.85 nm  f=0.0252  <S**2>=0.000
       6 -> 15         0.10467
       7 -> 18         0.54528
       8 -> 20         0.13243
       9 -> 25        -0.25126
       9 -> 26        -0.16882
      10 -> 27         0.16057

 Excited State  87:      Singlet-A     16.5989 eV   74.69 nm  f=0.0691  <S**2>=0.000
       6 -> 15         0.18973
       6 -> 16        -0.14446
       7 -> 17        -0.19683
       7 -> 18         0.20020
       8 -> 17         0.10946
       8 -> 20         0.20591
       9 -> 25         0.27978
       9 -> 26         0.28740
      10 -> 27        -0.25608
      11 -> 35        -0.11824
      12 -> 35        -0.16437

 Excited State  88:      Singlet-A     16.6218 eV   74.59 nm  f=0.0130  <S**2>=0.000
       6 -> 16        -0.10803
       7 -> 17        -0.12190
       8 -> 20         0.17885
       9 -> 25         0.10726
      12 -> 35         0.62839

 Excited State  89:      Singlet-A     16.6640 eV   74.40 nm  f=0.0272  <S**2>=0.000
       7 -> 18         0.15784
       8 -> 20        -0.21557
       9 -> 25         0.12085
       9 -> 26         0.49507
      10 -> 27         0.29430
      12 -> 35         0.17046

 Excited State  90:      Singlet-A     16.7235 eV   74.14 nm  f=0.0364  <S**2>=0.000
       7 -> 17        -0.20178
       7 -> 18        -0.11767
       8 -> 20         0.12536
       9 -> 25         0.18910
       9 -> 26        -0.15959
      10 -> 27         0.50485
      12 -> 35        -0.15578
      12 -> 36        -0.10099

 Excited State  91:      Singlet-A     16.8089 eV   73.76 nm  f=0.0112  <S**2>=0.000
       8 -> 21         0.10148
       9 -> 26         0.10156
      11 -> 35         0.64611

 The electronic state is 1-A.
 Alpha  occ. eigenvalues --  -13.89390 -13.83039  -9.85230  -0.85871  -0.76730
 Alpha  occ. eigenvalues --   -0.56376  -0.49794  -0.46887  -0.36791  -0.34537
 Alpha  occ. eigenvalues --   -0.22641  -0.22179
 Alpha virt. eigenvalues --   -0.02119  -0.00404   0.02545   0.05066   0.08915
 Alpha virt. eigenvalues --    0.10434   0.12988   0.13752   0.15443   0.17608
 Alpha virt. eigenvalues --    0.18744   0.20835   0.23647   0.24614   0.26051

 Mulliken charges:
               1
     1  N    0.098360
     2  C    0.525161
     3  N   -0.125477
     4  H   -0.058975
     5  H   -0.083000
     6  H   -0.339517
     7  H   -0.016553
 Sum of Mulliken charges =  -0.00000

 Dipole moment (field-independent basis, Debye):
    X=              3.4598    Y=             -0.8074    Z=              0.5520  Tot=              3.5954
 Quadrupole moment (field-independent basis, Debye-Ang):
   XX=            -20.7510   YY=            -15.0165   ZZ=            -20.9038
   XY=              1.2523   XZ=              1.1390   YZ=             -0.1576

 Normal termination of Gaussian 16 at Mon Mar 21 20:03:18 2022.
