 Gaussian 16, Revision C.01,
 Gaussian 16:  EM64L-G16RevC.01  3-Jul-2019

 ---------------------------------------------------------------------
 #P TD(Nstates=10000) svwn5/Gen SCF(maxcycles=100) Int(Grid=ultrafine)
 ---------------------------------------------------------------------

 ---------------------
 xGDB7_00001_tier4.com
 ---------------------
 Symbolic Z-matrix:
 Charge =  0 Multiplicity = 1

                         Standard orientation:
 ---------------------------------------------------------------------
 Center     Atomic      Atomic             Coordinates (Angstroms)
 Number     Number       Type             X           Y           Z
 ---------------------------------------------------------------------
      1          8           0       -1.028621   -0.395177   -0.000000
      2          7           0       -0.000000    0.526228   -0.000000
      3          6           0        1.132746   -0.030907    0.000000
      4          1           0       -1.816572    0.151791   -0.000000
      5          1           0        1.994262    0.623439    0.000000
      6          1           0        1.254802   -1.111965    0.000000
 ---------------------------------------------------------------------

 SCF Done:  E(RS-VWN5) =  -168.358708712     A.U. after   14 cycles

 Excitation energies and oscillator strengths:

 Excited State   1:      Singlet-A"     5.5648 eV  222.80 nm  f=0.0006  <S**2>=0.000
      12 -> 13         0.70575
 This state for optimization and/or second-order correction.
 Total Energy, E(TD-HF/TD-DFT) =  -168.154206336
 Copying the excited state density for this state as the 1-particle RhoCI density.

 Excited State   2:      Singlet-A'     6.4478 eV  192.29 nm  f=0.1208  <S**2>=0.000
       9 -> 13         0.14250
      11 -> 13         0.65251
      12 -> 14         0.17211
      12 -> 15        -0.10232

 Excited State   3:      Singlet-A"     6.7590 eV  183.43 nm  f=0.0017  <S**2>=0.000
      11 -> 14         0.70529

 Excited State   4:      Singlet-A'     6.7923 eV  182.54 nm  f=0.0421  <S**2>=0.000
      11 -> 13        -0.15230
      12 -> 14         0.68033

 Excited State   5:      Singlet-A"     7.6232 eV  162.64 nm  f=0.0172  <S**2>=0.000
      11 -> 15         0.70530

 Excited State   6:      Singlet-A'     7.6445 eV  162.19 nm  f=0.0342  <S**2>=0.000
      12 -> 15         0.68348
      12 -> 16         0.13960

 Excited State   7:      Singlet-A"     8.5843 eV  144.43 nm  f=0.0020  <S**2>=0.000
      11 -> 16         0.69687

 Excited State   8:      Singlet-A'     8.8045 eV  140.82 nm  f=0.0981  <S**2>=0.000
      11 -> 18        -0.12905
      12 -> 15        -0.10276
      12 -> 16         0.63255
      12 -> 17        -0.21710

 Excited State   9:      Singlet-A"     8.8126 eV  140.69 nm  f=0.0025  <S**2>=0.000
      10 -> 13         0.67093
      11 -> 17         0.21361

 Excited State  10:      Singlet-A'     8.9622 eV  138.34 nm  f=0.1139  <S**2>=0.000
      12 -> 16         0.20056
      12 -> 17         0.67078

 Excited State  11:      Singlet-A"     9.0133 eV  137.56 nm  f=0.0062  <S**2>=0.000
      10 -> 13        -0.21776
      11 -> 17         0.66718

 Excited State  12:      Singlet-A"     9.4598 eV  131.06 nm  f=0.0370  <S**2>=0.000
      12 -> 18         0.70321

 Excited State  13:      Singlet-A'     9.6700 eV  128.21 nm  f=0.0132  <S**2>=0.000
      11 -> 18         0.33648
      12 -> 19         0.60842

 Excited State  14:      Singlet-A"     9.7401 eV  127.29 nm  f=0.0000  <S**2>=0.000
      11 -> 19         0.70187

 Excited State  15:      Singlet-A'     9.7947 eV  126.58 nm  f=0.0048  <S**2>=0.000
      11 -> 18         0.57980
      12 -> 19        -0.35260
      12 -> 21         0.11329

 Excited State  16:      Singlet-A'     9.9213 eV  124.97 nm  f=0.0059  <S**2>=0.000
      10 -> 14        -0.10655
      12 -> 20         0.68190

 Excited State  17:      Singlet-A"     9.9309 eV  124.85 nm  f=0.0157  <S**2>=0.000
       8 -> 13         0.10210
      11 -> 20         0.68722

 Excited State  18:      Singlet-A'    10.2588 eV  120.86 nm  f=0.0283  <S**2>=0.000
       9 -> 13        -0.43415
      10 -> 14         0.51104
      12 -> 20         0.14560

 Excited State  19:      Singlet-A"    10.3834 eV  119.41 nm  f=0.0008  <S**2>=0.000
       8 -> 13         0.67475
      11 -> 20        -0.10318
      11 -> 21         0.15494

 Excited State  20:      Singlet-A'    10.5145 eV  117.92 nm  f=0.2494  <S**2>=0.000
       9 -> 13         0.45469
      10 -> 14         0.46008
      11 -> 13        -0.10889
      11 -> 23        -0.10865
      12 -> 21         0.14522

 Excited State  21:      Singlet-A"    10.5857 eV  117.12 nm  f=0.0318  <S**2>=0.000
       8 -> 13        -0.10135
       9 -> 14         0.67961
      11 -> 21         0.15647

 Excited State  22:      Singlet-A"    10.7889 eV  114.92 nm  f=0.0106  <S**2>=0.000
       8 -> 13        -0.12652
       9 -> 14        -0.17120
      11 -> 21         0.66646

 Excited State  23:      Singlet-A'    10.8964 eV  113.78 nm  f=0.0627  <S**2>=0.000
       9 -> 13        -0.10047
      10 -> 15         0.10481
      12 -> 16        -0.10995
      12 -> 21         0.64351

 Excited State  24:      Singlet-A'    11.2498 eV  110.21 nm  f=0.0785  <S**2>=0.000
      10 -> 15         0.69044

 Excited State  25:      Singlet-A"    11.4312 eV  108.46 nm  f=0.0093  <S**2>=0.000
       9 -> 15         0.70267

 Excited State  26:      Singlet-A"    11.5891 eV  106.98 nm  f=0.0007  <S**2>=0.000
      12 -> 22         0.70297

 Excited State  27:      Singlet-A'    11.6671 eV  106.27 nm  f=0.0263  <S**2>=0.000
       8 -> 14         0.32830
      11 -> 22         0.62030

 Excited State  28:      Singlet-A'    11.7793 eV  105.26 nm  f=0.1071  <S**2>=0.000
       8 -> 14         0.61112
      11 -> 22        -0.31074

 Excited State  29:      Singlet-A"    11.9073 eV  104.12 nm  f=0.0003  <S**2>=0.000
       7 -> 13        -0.22210
      12 -> 23         0.66792

 Excited State  30:      Singlet-A'    12.1267 eV  102.24 nm  f=0.1002  <S**2>=0.000
      10 -> 16         0.45052
      10 -> 17        -0.11661
      11 -> 23         0.44167
      12 -> 24         0.24927

 Excited State  31:      Singlet-A"    12.1332 eV  102.19 nm  f=0.0110  <S**2>=0.000
       6 -> 13        -0.10548
       7 -> 13         0.56368
       9 -> 16         0.10903
      11 -> 24         0.29543
      11 -> 25         0.17870
      12 -> 23         0.17608

 Excited State  32:      Singlet-A"    12.1802 eV  101.79 nm  f=0.0002  <S**2>=0.000
       7 -> 13        -0.24455
       9 -> 16        -0.12674
      11 -> 24         0.63508
      12 -> 23        -0.10062

 Excited State  33:      Singlet-A'    12.2876 eV  100.90 nm  f=0.0307  <S**2>=0.000
       9 -> 13        -0.10548
      10 -> 16         0.11244
      10 -> 17         0.16154
      11 -> 23        -0.36964
      12 -> 24         0.52419

 Excited State  34:      Singlet-A'    12.3556 eV  100.35 nm  f=0.0110  <S**2>=0.000
      10 -> 16         0.31085
      11 -> 23        -0.21289
      12 -> 24        -0.20639
      12 -> 25         0.53220

 Excited State  35:      Singlet-A"    12.4511 eV   99.58 nm  f=0.0035  <S**2>=0.000
       9 -> 16         0.65010
       9 -> 17        -0.15518
      11 -> 25        -0.15938

 Excited State  36:      Singlet-A"    12.4584 eV   99.52 nm  f=0.0575  <S**2>=0.000
       6 -> 13         0.12717
       7 -> 13        -0.17423
       9 -> 16         0.12710
      11 -> 25         0.65205

 Excited State  37:      Singlet-A'    12.4921 eV   99.25 nm  f=0.0018  <S**2>=0.000
       7 -> 14         0.10849
       8 -> 15         0.24455
      10 -> 16        -0.34990
      11 -> 23         0.20192
      12 -> 24         0.20882
      12 -> 25         0.42884

 Excited State  38:      Singlet-A'    12.6126 eV   98.30 nm  f=0.0213  <S**2>=0.000
       8 -> 15         0.37017
      10 -> 16         0.10429
      10 -> 17         0.53854
      12 -> 24        -0.13525
      12 -> 25        -0.11189

 Excited State  39:      Singlet-A'    12.8085 eV   96.80 nm  f=0.0102  <S**2>=0.000
       8 -> 15         0.51018
      10 -> 17        -0.36741
      11 -> 23        -0.16752
      12 -> 26         0.11963

 Excited State  40:      Singlet-A"    12.8434 eV   96.54 nm  f=0.0099  <S**2>=0.000
       9 -> 16         0.13903
       9 -> 17         0.68433

 Excited State  41:      Singlet-A"    13.0876 eV   94.73 nm  f=0.0017  <S**2>=0.000
      10 -> 18         0.70104

 Excited State  42:      Singlet-A'    13.2916 eV   93.28 nm  f=0.0152  <S**2>=0.000
       7 -> 14         0.35398
       8 -> 16        -0.13770
       9 -> 18         0.21965
      10 -> 20        -0.27286
      12 -> 26         0.47228

 Excited State  43:      Singlet-A"    13.2970 eV   93.24 nm  f=0.0001  <S**2>=0.000
      11 -> 26         0.70393

 Excited State  44:      Singlet-A'    13.3454 eV   92.90 nm  f=0.0073  <S**2>=0.000
       7 -> 14        -0.27820
       9 -> 18         0.46754
      10 -> 19        -0.43260
      12 -> 26        -0.10083

 Excited State  45:      Singlet-A'    13.4511 eV   92.17 nm  f=0.0055  <S**2>=0.000
       7 -> 14        -0.33768
       8 -> 16        -0.23141
       9 -> 18         0.24082
      10 -> 19         0.40808
      10 -> 20         0.17287
      12 -> 26         0.22187

 Excited State  46:      Singlet-A"    13.5755 eV   91.33 nm  f=0.0011  <S**2>=0.000
       9 -> 19         0.69629
       9 -> 20        -0.10750

 Excited State  47:      Singlet-A'    13.6743 eV   90.67 nm  f=0.0281  <S**2>=0.000
       7 -> 14        -0.28388
       7 -> 15        -0.10222
       8 -> 17        -0.24263
       9 -> 18        -0.25727
      10 -> 19        -0.19083
      11 -> 27         0.21514
      12 -> 26         0.36835

 Excited State  48:      Singlet-A"    13.7031 eV   90.48 nm  f=0.0625  <S**2>=0.000
       6 -> 13         0.27497
       9 -> 19         0.10323
       9 -> 20         0.63950

 Excited State  49:      Singlet-A'    13.7229 eV   90.35 nm  f=0.0674  <S**2>=0.000
       7 -> 14         0.23984
       8 -> 16         0.15930
       8 -> 19         0.13033
       9 -> 18         0.13430
      10 -> 19        -0.10175
      10 -> 20         0.56525
      12 -> 26         0.10410

 Excited State  50:      Singlet-A"    13.7636 eV   90.08 nm  f=0.0024  <S**2>=0.000
       6 -> 13        -0.11464
      12 -> 27         0.69372

 Excited State  51:      Singlet-A'    13.8404 eV   89.58 nm  f=0.0475  <S**2>=0.000
       8 -> 17         0.23450
      11 -> 27         0.63950

 Excited State  52:      Singlet-A'    13.9477 eV   88.89 nm  f=0.1167  <S**2>=0.000
       7 -> 15         0.11587
       8 -> 16         0.51276
       8 -> 17        -0.21883
       9 -> 18         0.18852
      10 -> 19         0.20934
      10 -> 20        -0.13789
      10 -> 21         0.11665

 Excited State  53:      Singlet-A'    14.1411 eV   87.68 nm  f=0.1445  <S**2>=0.000
       7 -> 15        -0.21968
       8 -> 16         0.27133
       8 -> 17         0.52786
      11 -> 27        -0.12848
      12 -> 26         0.11208

 Excited State  54:      Singlet-A'    14.3614 eV   86.33 nm  f=0.0556  <S**2>=0.000
       7 -> 15         0.48903
       8 -> 20        -0.13863
      10 -> 21         0.42492

 Excited State  55:      Singlet-A"    14.3969 eV   86.12 nm  f=0.0932  <S**2>=0.000
       6 -> 13         0.54060
       7 -> 13         0.11632
       9 -> 20        -0.23373
      10 -> 22         0.20458
      11 -> 28         0.23243

 Excited State  56:      Singlet-A"    14.5124 eV   85.43 nm  f=0.0017  <S**2>=0.000
       8 -> 18         0.70171

 Excited State  57:      Singlet-A'    14.5442 eV   85.25 nm  f=0.0805  <S**2>=0.000
       7 -> 15        -0.36718
       7 -> 16        -0.15480
       8 -> 17        -0.14013
      10 -> 21         0.50122
      12 -> 29        -0.12397

 Excited State  58:      Singlet-A"    14.5938 eV   84.96 nm  f=0.0001  <S**2>=0.000
       9 -> 21         0.69635

 Excited State  59:      Singlet-A'    14.7683 eV   83.95 nm  f=0.0562  <S**2>=0.000
       7 -> 16        -0.12766
       8 -> 19        -0.36550
      12 -> 28         0.57920

 Excited State  60:      Singlet-A"    14.7799 eV   83.89 nm  f=0.0190  <S**2>=0.000
       6 -> 13        -0.15345
      10 -> 22        -0.17597
      11 -> 28         0.65535

 Excited State  61:      Singlet-A'    14.9175 eV   83.11 nm  f=0.0058  <S**2>=0.000
       8 -> 19        -0.12509
       8 -> 20         0.66260

 Excited State  62:      Singlet-A'    14.9732 eV   82.80 nm  f=0.0985  <S**2>=0.000
       7 -> 16        -0.16182
       8 -> 19         0.54299
       8 -> 20         0.12315
      11 -> 30        -0.12331
      12 -> 28         0.30563

 Excited State  63:      Singlet-A'    15.1634 eV   81.77 nm  f=0.0261  <S**2>=0.000
       7 -> 16        -0.20667
      12 -> 29         0.65303

 Excited State  64:      Singlet-A"    15.2105 eV   81.51 nm  f=0.0288  <S**2>=0.000
      11 -> 29         0.69727

 Excited State  65:      Singlet-A"    15.3170 eV   80.95 nm  f=0.0646  <S**2>=0.000
       6 -> 13        -0.15105
      10 -> 22         0.55873
      10 -> 23         0.14508
      12 -> 30         0.34049

 Excited State  66:      Singlet-A'    15.3362 eV   80.84 nm  f=0.0432  <S**2>=0.000
       6 -> 14         0.34804
       7 -> 16         0.43701
       7 -> 17        -0.10196
       8 -> 21        -0.12552
       9 -> 23        -0.10301
      10 -> 24         0.17319
      11 -> 30        -0.15529
      12 -> 29         0.16950
      12 -> 31         0.14283

 Excited State  67:      Singlet-A'    15.4138 eV   80.44 nm  f=0.1167  <S**2>=0.000
       6 -> 14         0.43910
       7 -> 16        -0.26441
       9 -> 22         0.14688
      10 -> 24        -0.14260
      11 -> 30        -0.34561
      12 -> 29        -0.10360
      12 -> 31        -0.13530

 Excited State  68:      Singlet-A"    15.4275 eV   80.37 nm  f=0.1559  <S**2>=0.000
       6 -> 13         0.10953
      10 -> 22        -0.29268
      11 -> 29        -0.10240
      12 -> 30         0.60352

 Excited State  69:      Singlet-A'    15.5051 eV   79.96 nm  f=0.0312  <S**2>=0.000
       9 -> 22         0.55808
       9 -> 23        -0.13568
      10 -> 24        -0.11616
      11 -> 30         0.34767

 Excited State  70:      Singlet-A"    15.5077 eV   79.95 nm  f=0.0004  <S**2>=0.000
      10 -> 22        -0.11449
      10 -> 23         0.68910

 Excited State  71:      Singlet-A'    15.5544 eV   79.71 nm  f=0.0743  <S**2>=0.000
       6 -> 14        -0.26021
       7 -> 16         0.11689
       7 -> 17         0.41557
       9 -> 22         0.29802
      11 -> 30        -0.34718

 Excited State  72:      Singlet-A'    15.6916 eV   79.01 nm  f=0.0078  <S**2>=0.000
       7 -> 17         0.19495
       8 -> 21         0.10981
      10 -> 24        -0.29695
      10 -> 25         0.11357
      12 -> 31         0.57821

 Excited State  73:      Singlet-A'    15.7145 eV   78.90 nm  f=0.0389  <S**2>=0.000
       7 -> 17        -0.27164
       8 -> 21         0.38884
       9 -> 22         0.15981
       9 -> 23         0.20101
      10 -> 24         0.29168
      10 -> 25        -0.12729
      11 -> 30        -0.17162
      12 -> 31         0.21117

 Excited State  74:      Singlet-A"    15.7560 eV   78.69 nm  f=0.0081  <S**2>=0.000
      11 -> 31         0.70182

 Excited State  75:      Singlet-A'    15.7766 eV   78.59 nm  f=0.0444  <S**2>=0.000
       6 -> 14         0.15395
       6 -> 15        -0.11305
       7 -> 17         0.37300
       9 -> 23         0.17248
      10 -> 24         0.40853
      10 -> 25         0.10862
      11 -> 30         0.19643

 Excited State  76:      Singlet-A'    15.8860 eV   78.05 nm  f=0.0776  <S**2>=0.000
       8 -> 21         0.46611
       9 -> 23        -0.19725
      10 -> 25         0.35170
      12 -> 31        -0.21395

 Excited State  77:      Singlet-A'    15.9463 eV   77.75 nm  f=0.0238  <S**2>=0.000
       6 -> 15         0.23541
       9 -> 23         0.51830
      10 -> 24        -0.14316
      10 -> 25         0.28163
      12 -> 32        -0.17603

 Excited State  78:      Singlet-A"    16.0153 eV   77.42 nm  f=0.0000  <S**2>=0.000
       7 -> 18         0.14997
       9 -> 24         0.68292

 Excited State  79:      Singlet-A"    16.1369 eV   76.83 nm  f=0.0006  <S**2>=0.000
       7 -> 18         0.68432
       9 -> 24        -0.15576

 Excited State  80:      Singlet-A'    16.2008 eV   76.53 nm  f=0.1033  <S**2>=0.000
       6 -> 15         0.25673
       7 -> 20         0.15249
       8 -> 21        -0.10340
      10 -> 24         0.11734
      10 -> 25         0.31981
      12 -> 32         0.49443

 Excited State  81:      Singlet-A"    16.2364 eV   76.36 nm  f=0.0064  <S**2>=0.000
       9 -> 25         0.69015

 Excited State  82:      Singlet-A'    16.3091 eV   76.02 nm  f=0.0409  <S**2>=0.000
       6 -> 14        -0.10100
       6 -> 15        -0.28385
       7 -> 20         0.30491
       8 -> 21        -0.17839
      10 -> 24         0.11131
      10 -> 25         0.29158
      12 -> 32        -0.29980
      12 -> 34         0.11666

 Excited State  83:      Singlet-A"    16.3096 eV   76.02 nm  f=0.0022  <S**2>=0.000
      11 -> 32         0.69864

 Excited State  84:      Singlet-A'    16.4942 eV   75.17 nm  f=0.0563  <S**2>=0.000
       6 -> 15         0.33659
       7 -> 19         0.45497
       7 -> 20         0.18891
      12 -> 32        -0.22200
      12 -> 33         0.18269
      12 -> 34         0.12832

 Excited State  85:      Singlet-A'    16.5667 eV   74.84 nm  f=0.0593  <S**2>=0.000
       6 -> 15        -0.22855
       7 -> 19         0.43398
       9 -> 23         0.14380
      12 -> 32         0.12474
      12 -> 33        -0.42188

 Excited State  86:      Singlet-A"    16.6124 eV   74.63 nm  f=0.0211  <S**2>=0.000
       8 -> 22         0.64994
      11 -> 33         0.26243

 Excited State  87:      Singlet-A'    16.6602 eV   74.42 nm  f=0.0151  <S**2>=0.000
       6 -> 15        -0.18931
       7 -> 17        -0.11028
       7 -> 19         0.24238
       7 -> 20        -0.36581
      10 -> 25         0.12236
      10 -> 26         0.12445
      12 -> 33         0.38914

 Excited State  88:      Singlet-A'    16.7568 eV   73.99 nm  f=0.0030  <S**2>=0.000
       6 -> 15         0.17353
       7 -> 20        -0.28393
      10 -> 26         0.45630
      12 -> 32        -0.15820
      12 -> 33        -0.30647

 Excited State  89:      Singlet-A"    16.8423 eV   73.61 nm  f=0.1113  <S**2>=0.000
       8 -> 22        -0.24587
      11 -> 33         0.62574

 Excited State  90:      Singlet-A"    16.9213 eV   73.27 nm  f=0.0048  <S**2>=0.000
       8 -> 23        -0.11891
      11 -> 34         0.69102

 Excited State  91:      Singlet-A"    16.9689 eV   73.07 nm  f=0.0012  <S**2>=0.000
       8 -> 23         0.69516
      11 -> 34         0.11425

 Excited State  92:      Singlet-A'    16.9917 eV   72.97 nm  f=0.1151  <S**2>=0.000
       6 -> 16         0.18495
       7 -> 16         0.10597
       7 -> 20         0.24705
       8 -> 24        -0.18696
      10 -> 25        -0.10658
      10 -> 26         0.48710
      11 -> 35         0.13725
      12 -> 33         0.13761

 Excited State  93:      Singlet-A'    17.0836 eV   72.57 nm  f=0.0085  <S**2>=0.000
       6 -> 16        -0.27785
       8 -> 24         0.22435
      12 -> 34         0.56090

 Excited State  94:      Singlet-A"    17.1466 eV   72.31 nm  f=0.0275  <S**2>=0.000
       9 -> 26         0.68030
      10 -> 27        -0.14043

 Excited State  95:      Singlet-A'    17.1893 eV   72.13 nm  f=0.0531  <S**2>=0.000
       6 -> 16        -0.21832
       7 -> 20         0.16231
       8 -> 24         0.47136
       8 -> 25        -0.25917
      10 -> 26         0.11867
      12 -> 34        -0.26316

 Excited State  96:      Singlet-A"    17.3732 eV   71.37 nm  f=0.0900  <S**2>=0.000
       9 -> 26         0.12724
      10 -> 27         0.68598

 Excited State  97:      Singlet-A'    17.4090 eV   71.22 nm  f=0.0045  <S**2>=0.000
       6 -> 16        -0.22998
       6 -> 17         0.13798
       7 -> 21         0.46142
       8 -> 24        -0.30339
       8 -> 25        -0.28880
      11 -> 35         0.11822

 Excited State  98:      Singlet-A'    17.4621 eV   71.00 nm  f=0.0328  <S**2>=0.000
       6 -> 17         0.19745
       7 -> 21         0.30547
       8 -> 25         0.55389
       9 -> 27         0.12600

 Excited State  99:      Singlet-A'    17.5112 eV   70.80 nm  f=0.0530  <S**2>=0.000
       6 -> 16        -0.18749
       6 -> 17         0.39342
       7 -> 21        -0.37742
       8 -> 24        -0.14732
      11 -> 35         0.35933

 Excited State 100:      Singlet-A"    17.5671 eV   70.58 nm  f=0.0141  <S**2>=0.000
      12 -> 35         0.70065

 Excited State 101:      Singlet-A'    17.6234 eV   70.35 nm  f=0.0048  <S**2>=0.000
       6 -> 16        -0.11409
       6 -> 17        -0.35028
       9 -> 27         0.53532
      11 -> 35         0.20332

 Excited State 102:      Singlet-A'    17.7487 eV   69.86 nm  f=0.0409  <S**2>=0.000
       6 -> 17         0.34997
       8 -> 25        -0.10863
       9 -> 27         0.40300
      11 -> 35        -0.32887
      12 -> 36        -0.19814

 Excited State 103:      Singlet-A"    18.0844 eV   68.56 nm  f=0.0042  <S**2>=0.000
       6 -> 18         0.69650

 Excited State 104:      Singlet-A"    18.1708 eV   68.23 nm  f=0.0004  <S**2>=0.000
      11 -> 36         0.69502

 Excited State 105:      Singlet-A'    18.1862 eV   68.18 nm  f=0.0202  <S**2>=0.000
       6 -> 16         0.10376
       8 -> 26         0.11905
       9 -> 27         0.10769
      12 -> 36         0.63291

 Excited State 106:      Singlet-A'    18.2573 eV   67.91 nm  f=0.0429  <S**2>=0.000
       6 -> 16        -0.26096
       6 -> 19         0.13079
       6 -> 20         0.13719
       6 -> 21        -0.11603
       7 -> 24        -0.18594
       8 -> 24        -0.12658
       8 -> 26         0.25388
      10 -> 28         0.28619
      11 -> 35        -0.26331
      12 -> 36         0.14229

 Excited State 107:      Singlet-A'    18.2840 eV   67.81 nm  f=0.0722  <S**2>=0.000
       6 -> 16         0.10810
       6 -> 19         0.37706
       6 -> 20        -0.10667
       8 -> 26        -0.15840
      10 -> 28         0.49811
      11 -> 35         0.11778

 Excited State 108:      Singlet-A"    18.3141 eV   67.70 nm  f=0.0465  <S**2>=0.000
       7 -> 22         0.68355

 Excited State 109:      Singlet-A'    18.3441 eV   67.59 nm  f=0.0493  <S**2>=0.000

 The electronic state is 1-A'.
 Alpha  occ. eigenvalues --  -18.66728 -13.92823  -9.82051  -1.00614  -0.78558
 Alpha  occ. eigenvalues --   -0.56140  -0.49036  -0.43069  -0.38824  -0.37790
 Alpha  occ. eigenvalues --   -0.24800  -0.24652
 Alpha virt. eigenvalues --   -0.06079  -0.00259   0.03132   0.06086   0.08172
 Alpha virt. eigenvalues --    0.10225   0.11007   0.11460   0.14452   0.17963
 Alpha virt. eigenvalues --    0.19308   0.19757   0.20791   0.24105   0.26022

 Mulliken charges:
               1
     1  O   -0.323210
     2  N   -0.047933
     3  C    0.501900
     4  H    0.218911
     5  H   -0.219017
     6  H   -0.130651
 Sum of Mulliken charges =  -0.00000

 Dipole moment (field-independent basis, Debye):
    X=              0.1130    Y=             -0.1695    Z=              0.0000  Tot=              0.2037
 Quadrupole moment (field-independent basis, Debye-Ang):
   XX=            -12.1861   YY=            -19.7747   ZZ=            -19.3908
   XY=             -1.4002   XZ=              0.0000   YZ=              0.0000

 1\1\GINC-HEL12\SP\RSVWN5 TD-FC\Gen\C1H3N1O1\SABYASACHI\21-Mar-2022\0\\
 #P TD(Nstates=10000) svwn5/Gen SCF(maxcycles=100) Int(Grid=ultrafine)\
 \xGDB7_00001_tier4.com\\0,1\O,0,-1.028621,-0.395177,0.\N,0,0.,0.526228
 ,0.\C,0,1.132746,-0.030907,0.\H,0,-1.816572,0.151791,0.\H,0,1.994262,0
 .623439,0.\H,0,1.254802,-1.111965,0.\\Version=EM64L-G16RevC.01\State=1
 -A'\HF=-168.3587087\RMSD=5.418e-09\PG=CS [SG(C1H3N1O1)]\\@
 The archive entry for this job was punched.

 Normal termination of Gaussian 16 at Mon Mar 21 19:55:37 2022.
