 Gaussian 16, Revision C.01,
 Gaussian 16:  EM64L-G16RevC.01  3-Jul-2019

 ---------------------------------------------------------------------
 #P TD(Nstates=10000) svwn5/Gen SCF(maxcycles=100) Int(Grid=ultrafine)
 ---------------------------------------------------------------------

 ---------------------
 xGDB7_00001_tier4.com
 ---------------------
 Symbolic Z-matrix:
 Charge =  0 Multiplicity = 1

                         Standard orientation:
 ---------------------------------------------------------------------
 Center     Atomic      Atomic             Coordinates (Angstroms)
 Number     Number       Type             X           Y           Z
 ---------------------------------------------------------------------
      1          6           0        0.000000    0.865978    0.000000
      2          6           0        0.749967   -0.432983    0.000000
      3          6           0       -0.749954   -0.432999    0.000000
      4          1           0       -0.000033    1.451806   -0.909176
      5          1           0       -0.000033    1.451806    0.909176
      6          1           0        1.257295   -0.725894    0.909177
      7          1           0        1.257295   -0.725894   -0.909177
      8          1           0       -1.257302   -0.725899    0.909179
      9          1           0       -1.257302   -0.725899   -0.909179
 ---------------------------------------------------------------------

 SCF Done:  E(RS-VWN5) =  -116.692908460     A.U. after   10 cycles

 Excitation energies and oscillator strengths:

 Excited State   1:      Singlet-A'     7.6731 eV  161.58 nm  f=0.0017  <S**2>=0.000
      12 -> 13         0.70477
 This state for optimization and/or second-order correction.
 Total Energy, E(TD-HF/TD-DFT) =  -116.410925440
 Copying the excited state density for this state as the 1-particle RhoCI density.

 Excited State   2:      Singlet-A'     7.6733 eV  161.58 nm  f=0.0017  <S**2>=0.000
      11 -> 13         0.70477

 Excited State   3:      Singlet-A'     8.3439 eV  148.59 nm  f=0.0000  <S**2>=0.000
      11 -> 14         0.46277
      11 -> 15        -0.18728
      12 -> 14         0.18789
      12 -> 15         0.46360

 Excited State   4:      Singlet-A'     8.3474 eV  148.53 nm  f=0.0000  <S**2>=0.000
      11 -> 14        -0.18736
      11 -> 15        -0.46219
      12 -> 14         0.46380
      12 -> 15        -0.18765

 Excited State   5:      Singlet-A'     8.4087 eV  147.45 nm  f=0.0863  <S**2>=0.000
      11 -> 14         0.22138
      11 -> 15         0.44577
      12 -> 14         0.44425
      12 -> 15        -0.22096

 Excited State   6:      Singlet-A'     8.4087 eV  147.45 nm  f=0.0863  <S**2>=0.000
      11 -> 14         0.44539
      11 -> 15        -0.22157
      12 -> 14        -0.22077
      12 -> 15        -0.44462

 Excited State   7:      Singlet-A"     8.4756 eV  146.28 nm  f=0.0000  <S**2>=0.000
      12 -> 16         0.70557

 Excited State   8:      Singlet-A"     8.4757 eV  146.28 nm  f=0.0000  <S**2>=0.000
      11 -> 16         0.70557

 Excited State   9:      Singlet-A"     9.0406 eV  137.14 nm  f=0.0000  <S**2>=0.000
      10 -> 13         0.70569

 Excited State  10:      Singlet-A"     9.0407 eV  137.14 nm  f=0.0000  <S**2>=0.000
       9 -> 13         0.70569

 Excited State  11:      Singlet-A'     9.6854 eV  128.01 nm  f=0.0013  <S**2>=0.000
      12 -> 17         0.70160

 Excited State  12:      Singlet-A'     9.6856 eV  128.01 nm  f=0.0013  <S**2>=0.000
      11 -> 17         0.70159

 Excited State  13:      Singlet-A"     9.7156 eV  127.61 nm  f=0.0000  <S**2>=0.000
       9 -> 14         0.12397
       9 -> 15         0.48291
      10 -> 14         0.48550
      10 -> 15        -0.12417

 Excited State  14:      Singlet-A"     9.7405 eV  127.29 nm  f=0.0000  <S**2>=0.000
       9 -> 14         0.48488
       9 -> 15        -0.11839
      10 -> 14         0.11806
      10 -> 15         0.48526

 Excited State  15:      Singlet-A"     9.7405 eV  127.29 nm  f=0.0000  <S**2>=0.000
       9 -> 14         0.11861
       9 -> 15         0.48630
      10 -> 14        -0.48384
      10 -> 15         0.11784

 Excited State  16:      Singlet-A"     9.8224 eV  126.23 nm  f=0.1506  <S**2>=0.000
       9 -> 14         0.48354
       9 -> 15        -0.12397
      10 -> 14        -0.12377
      10 -> 15        -0.48330

 Excited State  17:      Singlet-A'    10.0145 eV  123.80 nm  f=0.1284  <S**2>=0.000
      10 -> 16         0.69692

 Excited State  18:      Singlet-A'    10.0146 eV  123.80 nm  f=0.1284  <S**2>=0.000
       9 -> 16         0.69693

 Excited State  19:      Singlet-A'    10.5685 eV  117.31 nm  f=0.1806  <S**2>=0.000
      12 -> 18         0.66555

 Excited State  20:      Singlet-A'    10.5687 eV  117.31 nm  f=0.1806  <S**2>=0.000
      11 -> 18         0.66555

 Excited State  21:      Singlet-A"    10.7390 eV  115.45 nm  f=0.0149  <S**2>=0.000
      11 -> 20         0.49659
      12 -> 19         0.50261

 Excited State  22:      Singlet-A"    10.7503 eV  115.33 nm  f=0.0000  <S**2>=0.000
      11 -> 19        -0.49406
      12 -> 20         0.50505

 Excited State  23:      Singlet-A"    10.7558 eV  115.27 nm  f=0.0000  <S**2>=0.000
      11 -> 19        -0.24421
      11 -> 20         0.43557
      12 -> 19        -0.43025
      12 -> 20        -0.23874

 Excited State  24:      Singlet-A"    10.7558 eV  115.27 nm  f=0.0000  <S**2>=0.000
      11 -> 19         0.43770
      11 -> 20         0.24295
      12 -> 19        -0.24003
      12 -> 20         0.42808

 Excited State  25:      Singlet-A"    11.1311 eV  111.39 nm  f=0.0000  <S**2>=0.000
      10 -> 17         0.69959

 Excited State  26:      Singlet-A"    11.1312 eV  111.38 nm  f=0.0000  <S**2>=0.000
       9 -> 17         0.69959

 Excited State  27:      Singlet-A"    11.2498 eV  110.21 nm  f=0.0000  <S**2>=0.000
      10 -> 18         0.70133

 Excited State  28:      Singlet-A"    11.2499 eV  110.21 nm  f=0.0000  <S**2>=0.000
       9 -> 18         0.70134

 Excited State  29:      Singlet-A'    11.2678 eV  110.03 nm  f=0.0000  <S**2>=0.000
      11 -> 21         0.10007
      11 -> 22        -0.48613
      12 -> 21         0.49242
      12 -> 22         0.10054

 Excited State  30:      Singlet-A'    11.2845 eV  109.87 nm  f=0.0107  <S**2>=0.000
      11 -> 21        -0.49636
      12 -> 22         0.49636

 Excited State  31:      Singlet-A'    11.2845 eV  109.87 nm  f=0.0107  <S**2>=0.000
      11 -> 22         0.49942
      12 -> 21         0.49328

 Excited State  32:      Singlet-A'    11.5871 eV  107.00 nm  f=0.0000  <S**2>=0.000
       8 -> 13        -0.14514
       9 -> 19         0.17059
      10 -> 20         0.17060
      11 -> 21         0.44161
      12 -> 22         0.44145

 Excited State  33:      Singlet-A'    11.9091 eV  104.11 nm  f=0.0000  <S**2>=0.000
       8 -> 13         0.27698
       9 -> 19         0.12512
      10 -> 20         0.12532
      11 -> 23        -0.11678
      11 -> 24        -0.42482
      12 -> 23         0.42581
      12 -> 24        -0.11694

 Excited State  34:      Singlet-A'    11.9245 eV  103.97 nm  f=0.0000  <S**2>=0.000
      11 -> 23         0.48040
      11 -> 24        -0.13191
      12 -> 23         0.13230
      12 -> 24         0.48120

 Excited State  35:      Singlet-A'    11.9940 eV  103.37 nm  f=0.0321  <S**2>=0.000
       9 -> 19        -0.10107
      10 -> 20         0.10053
      11 -> 23         0.21002
      11 -> 24         0.43234
      12 -> 23         0.43190
      12 -> 24        -0.20990

 Excited State  36:      Singlet-A'    11.9940 eV  103.37 nm  f=0.0321  <S**2>=0.000
       9 -> 20        -0.10080
      10 -> 19        -0.10080
      11 -> 23         0.43254
      11 -> 24        -0.21015
      12 -> 23        -0.20977
      12 -> 24        -0.43170

 Excited State  37:      Singlet-A'    12.0400 eV  102.98 nm  f=0.0000  <S**2>=0.000
       8 -> 13         0.58374
       9 -> 19         0.15775
      10 -> 20         0.15803
      11 -> 24         0.22228
      12 -> 23        -0.22141

 Excited State  38:      Singlet-A"    12.0406 eV  102.97 nm  f=0.0000  <S**2>=0.000
      12 -> 25         0.69739

 Excited State  39:      Singlet-A"    12.0408 eV  102.97 nm  f=0.0000  <S**2>=0.000
      11 -> 25         0.69739

 Excited State  40:      Singlet-A'    12.1429 eV  102.10 nm  f=0.0000  <S**2>=0.000
       9 -> 20        -0.49411
      10 -> 19         0.49460

 Excited State  41:      Singlet-A'    12.2591 eV  101.14 nm  f=0.0125  <S**2>=0.000
       9 -> 19         0.22026
       9 -> 20         0.42337
      10 -> 19         0.42291
      10 -> 20        -0.22017

 Excited State  42:      Singlet-A'    12.2591 eV  101.14 nm  f=0.0125  <S**2>=0.000
       9 -> 19        -0.42313
       9 -> 20         0.22032
      10 -> 19         0.22011
      10 -> 20         0.42315

 Excited State  43:      Singlet-A"    12.3088 eV  100.73 nm  f=0.0000  <S**2>=0.000
      11 -> 26        -0.27866
      11 -> 27         0.40695
      12 -> 26         0.41057
      12 -> 27         0.27882

 Excited State  44:      Singlet-A"    12.3088 eV  100.73 nm  f=0.0000  <S**2>=0.000
      11 -> 26        -0.40853
      11 -> 27        -0.27746
      12 -> 26        -0.28002
      12 -> 27         0.40901

 Excited State  45:      Singlet-A"    12.3305 eV  100.55 nm  f=0.0000  <S**2>=0.000
      11 -> 27         0.50076
      12 -> 26        -0.49634

 Excited State  46:      Singlet-A"    12.4273 eV   99.77 nm  f=0.0206  <S**2>=0.000
       8 -> 16        -0.17073
      11 -> 26         0.46659
      12 -> 27         0.46611

 Excited State  47:      Singlet-A"    12.5963 eV   98.43 nm  f=0.0041  <S**2>=0.000
       7 -> 13         0.39776
       9 -> 21         0.13598
       9 -> 22        -0.38863
      10 -> 21        -0.38995
      10 -> 22        -0.13606

 Excited State  48:      Singlet-A"    12.5981 eV   98.41 nm  f=0.0000  <S**2>=0.000
       9 -> 21        -0.47065
       9 -> 22        -0.16424
      10 -> 21        -0.16479
      10 -> 22         0.47107

 Excited State  49:      Singlet-A"    12.6372 eV   98.11 nm  f=0.0000  <S**2>=0.000
       9 -> 21         0.49509
      10 -> 22         0.49465

 Excited State  50:      Singlet-A"    12.6372 eV   98.11 nm  f=0.0000  <S**2>=0.000
       9 -> 22         0.49504
      10 -> 21        -0.49470

 Excited State  51:      Singlet-A'    12.6449 eV   98.05 nm  f=0.0417  <S**2>=0.000
       8 -> 14         0.63124
      12 -> 28        -0.27398

 Excited State  52:      Singlet-A'    12.6449 eV   98.05 nm  f=0.0418  <S**2>=0.000
       8 -> 15         0.63128
      11 -> 28         0.27387

 Excited State  53:      Singlet-A"    12.6541 eV   97.98 nm  f=0.0392  <S**2>=0.000
       7 -> 13         0.51173
       8 -> 16        -0.33405
       9 -> 22         0.23105
      10 -> 21         0.22920

 Excited State  54:      Singlet-A'    12.6828 eV   97.76 nm  f=0.0000  <S**2>=0.000
       7 -> 16         0.31949
       8 -> 13        -0.21909
       9 -> 19         0.37442
      10 -> 20         0.37440
      11 -> 21        -0.14274
      12 -> 22        -0.14274

 Excited State  55:      Singlet-A'    12.8422 eV   96.54 nm  f=0.2497  <S**2>=0.000
       8 -> 14         0.26941
       9 -> 25         0.13941
      12 -> 28         0.60079

 Excited State  56:      Singlet-A'    12.8423 eV   96.54 nm  f=0.2496  <S**2>=0.000
       8 -> 15        -0.26929
      10 -> 25         0.13943
      11 -> 28         0.60085

 Excited State  57:      Singlet-A"    12.8501 eV   96.48 nm  f=0.1429  <S**2>=0.000
       7 -> 13         0.21313
       8 -> 16         0.56882
       9 -> 22         0.10334
       9 -> 23         0.19981
      10 -> 21         0.10329
      10 -> 24        -0.19981
      11 -> 26         0.10516
      12 -> 27         0.10503

 Excited State  58:      Singlet-A"    13.3136 eV   93.13 nm  f=0.0000  <S**2>=0.000
       9 -> 24         0.49490
      10 -> 23         0.49575

 Excited State  59:      Singlet-A"    13.3450 eV   92.91 nm  f=0.0000  <S**2>=0.000
       7 -> 14         0.68871
       9 -> 23        -0.10179
      10 -> 24        -0.10182

 Excited State  60:      Singlet-A"    13.3450 eV   92.91 nm  f=0.0000  <S**2>=0.000
       7 -> 15         0.68868
       9 -> 24         0.10211
      10 -> 23        -0.10170

 Excited State  61:      Singlet-A"    13.3910 eV   92.59 nm  f=0.0000  <S**2>=0.000
       7 -> 14        -0.11720
       9 -> 23        -0.26359
       9 -> 24         0.39642
      10 -> 23        -0.39579
      10 -> 24        -0.26371

 Excited State  62:      Singlet-A"    13.3910 eV   92.59 nm  f=0.0000  <S**2>=0.000
       7 -> 15        -0.11730
       9 -> 23         0.39614
       9 -> 24         0.26385
      10 -> 23        -0.26341
      10 -> 24         0.39609

 Excited State  63:      Singlet-A'    13.5865 eV   91.26 nm  f=0.0068  <S**2>=0.000
       9 -> 26        -0.26110
      10 -> 25         0.57777
      10 -> 27        -0.26129

 Excited State  64:      Singlet-A'    13.5866 eV   91.25 nm  f=0.0068  <S**2>=0.000
       9 -> 25         0.57773
       9 -> 27         0.26102
      10 -> 26        -0.26146

 Excited State  65:      Singlet-A'    13.6672 eV   90.72 nm  f=0.0000  <S**2>=0.000
       7 -> 16        -0.31002
       8 -> 17         0.13379
       9 -> 27         0.42718
      10 -> 26         0.42693

 Excited State  66:      Singlet-A'    13.6915 eV   90.56 nm  f=0.0000  <S**2>=0.000
       8 -> 18         0.15820
       9 -> 26         0.48459
      10 -> 27        -0.48449

 Excited State  67:      Singlet-A"    13.8653 eV   89.42 nm  f=0.7032  <S**2>=0.000
       7 -> 13        -0.13025
       7 -> 17        -0.27394
       8 -> 16        -0.15434
       9 -> 23         0.40670
      10 -> 24        -0.40667
      11 -> 26        -0.10754
      12 -> 27        -0.10751

 Excited State  68:      Singlet-A'    13.8876 eV   89.28 nm  f=0.0000  <S**2>=0.000
       7 -> 16        -0.33628
       8 -> 17         0.50476
       9 -> 27        -0.22312
      10 -> 26        -0.22307

 Excited State  69:      Singlet-A'    14.0376 eV   88.32 nm  f=0.5751  <S**2>=0.000
       9 -> 25        -0.31464
       9 -> 27         0.39491
      10 -> 26        -0.39488
      12 -> 28         0.14783

 Excited State  70:      Singlet-A'    14.0376 eV   88.32 nm  f=0.5751  <S**2>=0.000
       9 -> 26         0.39492
      10 -> 25         0.31457
      10 -> 27         0.39491
      11 -> 28        -0.14785

 Excited State  71:      Singlet-A"    14.0749 eV   88.09 nm  f=0.0000  <S**2>=0.000
      10 -> 28         0.69062

 Excited State  72:      Singlet-A"    14.0749 eV   88.09 nm  f=0.0000  <S**2>=0.000
       9 -> 28         0.69062

 Excited State  73:      Singlet-A'    14.2630 eV   86.93 nm  f=0.0000  <S**2>=0.000
       5 -> 14        -0.14693
       6 -> 15         0.14693
       7 -> 16         0.37903
       8 -> 17         0.46465
       9 -> 19        -0.11294
       9 -> 27         0.11085
      10 -> 20        -0.11293
      10 -> 26         0.11087

 Excited State  74:      Singlet-A'    14.2692 eV   86.89 nm  f=0.0000  <S**2>=0.000
       8 -> 18         0.67915
       9 -> 26        -0.10706
      10 -> 27         0.10704

 Excited State  75:      Singlet-A'    14.7426 eV   84.10 nm  f=0.0000  <S**2>=0.000
      11 -> 29         0.28026
      11 -> 30         0.40660
      12 -> 29         0.40689
      12 -> 30        -0.28043

 Excited State  76:      Singlet-A'    14.7694 eV   83.95 nm  f=0.0000  <S**2>=0.000
      11 -> 29        -0.40229
      11 -> 30         0.27723
      12 -> 29         0.27753
      12 -> 30         0.40259

 Excited State  77:      Singlet-A"    14.7869 eV   83.85 nm  f=0.0000  <S**2>=0.000
       7 -> 18         0.70503

 Excited State  78:      Singlet-A'    14.8272 eV   83.62 nm  f=0.0779  <S**2>=0.000
       6 -> 13         0.63244
      11 -> 29        -0.18885
      12 -> 30        -0.18851

 Excited State  79:      Singlet-A'    14.8273 eV   83.62 nm  f=0.0780  <S**2>=0.000
       5 -> 13         0.63240
      11 -> 30        -0.18901
      12 -> 29         0.18848

 Excited State  80:      Singlet-A'    14.9692 eV   82.83 nm  f=0.1934  <S**2>=0.000
       6 -> 13         0.23446
      10 -> 25         0.11947
      11 -> 29         0.25640
      11 -> 30         0.28157
      11 -> 31         0.15839
      12 -> 29        -0.28142
      12 -> 30         0.25632
      12 -> 32         0.22323

 Excited State  81:      Singlet-A'    14.9692 eV   82.83 nm  f=0.1934  <S**2>=0.000
       5 -> 13        -0.23455
       9 -> 25        -0.11948
      11 -> 29         0.28157
      11 -> 30        -0.25639
      11 -> 32         0.22318
      12 -> 29         0.25626
      12 -> 30         0.28143
      12 -> 31        -0.15844

 Excited State  82:      Singlet-A"    14.9877 eV   82.72 nm  f=0.4903  <S**2>=0.000
       7 -> 17         0.63835
       8 -> 25        -0.12119
       9 -> 23         0.13747
      10 -> 24        -0.13746

 Excited State  83:      Singlet-A"    15.0391 eV   82.44 nm  f=0.0000  <S**2>=0.000
       8 -> 19         0.70541

 Excited State  84:      Singlet-A"    15.0392 eV   82.44 nm  f=0.0000  <S**2>=0.000
       8 -> 20         0.70541

 Excited State  85:      Singlet-A'    15.3219 eV   80.92 nm  f=0.0191  <S**2>=0.000
       5 -> 14         0.11493
       6 -> 15         0.11493
      12 -> 31         0.66898

 Excited State  86:      Singlet-A'    15.3221 eV   80.92 nm  f=0.0191  <S**2>=0.000
       5 -> 15         0.11496
       6 -> 14        -0.11506
      11 -> 31         0.66897

 Excited State  87:      Singlet-A'    15.4637 eV   80.18 nm  f=0.0004  <S**2>=0.000
       5 -> 15        -0.42516
       6 -> 14         0.42732
      11 -> 31         0.11747
      12 -> 32        -0.33148

 Excited State  88:      Singlet-A'    15.4638 eV   80.18 nm  f=0.0004  <S**2>=0.000
       5 -> 14         0.42624
       6 -> 15         0.42646
      11 -> 32        -0.33126
      12 -> 31        -0.11738

 Excited State  89:      Singlet-A'    15.4868 eV   80.06 nm  f=0.0000  <S**2>=0.000
       5 -> 14         0.17441
       5 -> 15         0.46545
       6 -> 14         0.46347
       6 -> 15        -0.17412

 Excited State  90:      Singlet-A'    15.5403 eV   79.78 nm  f=0.0156  <S**2>=0.000
       5 -> 15        -0.14688
       6 -> 14         0.14659
       8 -> 21         0.57754
      12 -> 32         0.31532

 Excited State  91:      Singlet-A'    15.5404 eV   79.78 nm  f=0.0156  <S**2>=0.000
       5 -> 14        -0.14649
       6 -> 15        -0.14652
       8 -> 22         0.57758
      11 -> 32        -0.31549

 Excited State  92:      Singlet-A"    15.6008 eV   79.47 nm  f=0.0000  <S**2>=0.000
       6 -> 16         0.68147
       9 -> 30         0.10014
      10 -> 29         0.10017

 Excited State  93:      Singlet-A"    15.6009 eV   79.47 nm  f=0.0000  <S**2>=0.000
       5 -> 16         0.68147
       9 -> 29        -0.10015
      10 -> 30         0.10017

 Excited State  94:      Singlet-A'    15.7195 eV   78.87 nm  f=0.0935  <S**2>=0.000
       7 -> 19         0.59705
       8 -> 22         0.24153
       8 -> 23         0.10818
      11 -> 32         0.22948

 Excited State  95:      Singlet-A'    15.7195 eV   78.87 nm  f=0.0935  <S**2>=0.000
       7 -> 20         0.59703
       8 -> 21         0.24157
       8 -> 24        -0.10820
      12 -> 32        -0.22945

 Excited State  96:      Singlet-A"    15.8716 eV   78.12 nm  f=0.0000  <S**2>=0.000
      12 -> 33         0.70488

 Excited State  97:      Singlet-A"    15.8718 eV   78.12 nm  f=0.0000  <S**2>=0.000
      11 -> 33         0.70488

 Excited State  98:      Singlet-A"    15.9246 eV   77.86 nm  f=0.0000  <S**2>=0.000
      12 -> 34         0.69854

 Excited State  99:      Singlet-A"    15.9248 eV   77.86 nm  f=0.0000  <S**2>=0.000
      11 -> 34         0.69853

 Excited State 100:      Singlet-A'    15.9911 eV   77.53 nm  f=0.0000  <S**2>=0.000
       5 -> 14         0.41318
       5 -> 15        -0.15504
       6 -> 14        -0.15502
       6 -> 15        -0.41316
       7 -> 16         0.13092
       8 -> 28        -0.13781

 Excited State 101:      Singlet-A"    16.0152 eV   77.42 nm  f=0.0000  <S**2>=0.000
       9 -> 29         0.36902
       9 -> 30        -0.33514
      10 -> 29         0.33540
      10 -> 30         0.36916

 Excited State 102:      Singlet-A"    16.1330 eV   76.85 nm  f=0.0000  <S**2>=0.000
       5 -> 16        -0.15084
       9 -> 29        -0.43183
       9 -> 30        -0.18986
      10 -> 29        -0.19007
      10 -> 30         0.43198

 Excited State 103:      Singlet-A"    16.1330 eV   76.85 nm  f=0.0000  <S**2>=0.000
       6 -> 16        -0.15083
       9 -> 29        -0.19015
       9 -> 30         0.43193
      10 -> 29         0.43187
      10 -> 30         0.18979

 Excited State 104:      Singlet-A'    16.1649 eV   76.70 nm  f=0.0000  <S**2>=0.000
       7 -> 19        -0.28392
       8 -> 22         0.13779
       8 -> 23         0.52204
       8 -> 24        -0.14944
      11 -> 32         0.23734

 Excited State 105:      Singlet-A'    16.1649 eV   76.70 nm  f=0.0000  <S**2>=0.000
       7 -> 20         0.28397
       8 -> 21        -0.13780
       8 -> 23         0.14945
       8 -> 24         0.52200
      12 -> 32         0.23731

 Excited State 106:      Singlet-A"    16.2331 eV   76.38 nm  f=0.0000  <S**2>=0.000
       7 -> 21         0.69338

 Excited State 107:      Singlet-A"    16.2332 eV   76.38 nm  f=0.0000  <S**2>=0.000
       7 -> 22         0.69339

 Excited State 108:      Singlet-A"    16.2363 eV   76.36 nm  f=0.0222  <S**2>=0.000
       8 -> 25         0.15958
       9 -> 29         0.32259
       9 -> 30         0.35516
      10 -> 29        -0.35479
      10 -> 30         0.32230

 Excited State 109:      Singlet-A'    16.4837 eV   75.22 nm  f=0.0729  <S**2>=0.000
       7 -> 20        -0.15780
       8 -> 21         0.19659
       8 -> 23         0.24309
       8 -> 24         0.32842
      11 -> 35         0.21346
      12 -> 32        -0.24217
      12 -> 36         0.21349

 Excited State 110:      Singlet-A'    16.4837 eV   75.22 nm  f=0.0729  <S**2>=0.000
       7 -> 19         0.15779
       8 -> 22        -0.19660
       8 -> 23         0.32837
       8 -> 24        -0.24313
      11 -> 32        -0.24221
      11 -> 36        -0.21346
      12 -> 35         0.21350

 Excited State 111:      Singlet-A"    16.5021 eV   75.13 nm  f=0.1034  <S**2>=0.000
       8 -> 25         0.66047

 Excited State 112:      Singlet-A"    16.6160 eV   74.62 nm  f=0.0000  <S**2>=0.000
       8 -> 26         0.66451
       9 -> 32         0.14359
      10 -> 31         0.17666

 Excited State 113:      Singlet-A"    16.6161 eV   74.62 nm  f=0.0000  <S**2>=0.000
       8 -> 27         0.66453
       9 -> 31         0.17653
      10 -> 32        -0.14365

 The electronic state is 1-A'.
 Alpha  occ. eigenvalues --   -9.78693  -9.78693  -9.78691  -0.77351  -0.52808
 Alpha  occ. eigenvalues --   -0.52807  -0.44931  -0.42390  -0.31786  -0.31786
 Alpha  occ. eigenvalues --   -0.26666  -0.26666
 Alpha virt. eigenvalues --    0.01323   0.03914   0.03914   0.04231   0.08941
 Alpha virt. eigenvalues --    0.08956   0.12847   0.12847   0.14658   0.14658
 Alpha virt. eigenvalues --    0.17158   0.17158   0.17366   0.18661   0.18662

 Mulliken charges:
               1
     1  C    0.466988
     2  C    0.467078
     3  C    0.466990
     4  H   -0.233502
     5  H   -0.233502
     6  H   -0.233517
     7  H   -0.233517
     8  H   -0.233510
     9  H   -0.233510
 Sum of Mulliken charges =  -0.00000

 Dipole moment (field-independent basis, Debye):
    X=             -0.0000    Y=              0.0000    Z=             -0.0000  Tot=              0.0000
 Quadrupole moment (field-independent basis, Debye-Ang):
   XX=            -20.9636   YY=            -20.9636   ZZ=            -18.6686
   XY=             -0.0001   XZ=              0.0000   YZ=              0.0000

 Normal termination of Gaussian 16 at Mon Mar 21 19:55:53 2022.
