 Gaussian 16, Revision C.01,
 Gaussian 16:  EM64L-G16RevC.01  3-Jul-2019

 ---------------------------------------------------------------------
 #P TD(Nstates=10000) svwn5/Gen SCF(maxcycles=100) Int(Grid=ultrafine)
 ---------------------------------------------------------------------

 ---------------------
 xGDB7_00001_tier4.com
 ---------------------
 Symbolic Z-matrix:
 Charge =  0 Multiplicity = 1

                         Standard orientation:
 ---------------------------------------------------------------------
 Center     Atomic      Atomic             Coordinates (Angstroms)
 Number     Number       Type             X           Y           Z
 ---------------------------------------------------------------------
      1          6           0        0.926251   -0.719055    0.000000
      2          6           0        0.000000    0.459276    0.000000
      3          8           0       -1.196998    0.387136    0.000000
      4          1           0        1.575965   -0.668678    0.877698
      5          1           0        1.575965   -0.668678   -0.877698
      6          1           0        0.366733   -1.652236    0.000000
      7          1           0        0.499813    1.451182    0.000000
 ---------------------------------------------------------------------

 SCF Done:  E(RS-VWN5) =  -152.447795143     A.U. after   14 cycles

 Excitation energies and oscillator strengths:

 Excited State   1:      Singlet-A"     4.1225 eV  300.75 nm  f=0.0001  <S**2>=0.000
      12 -> 13         0.70742
 This state for optimization and/or second-order correction.
 Total Energy, E(TD-HF/TD-DFT) =  -152.296294787
 Copying the excited state density for this state as the 1-particle RhoCI density.

 Excited State   2:      Singlet-A'     6.2722 eV  197.67 nm  f=0.0221  <S**2>=0.000
      12 -> 14         0.70314

 Excited State   3:      Singlet-A'     7.0066 eV  176.95 nm  f=0.0764  <S**2>=0.000
      12 -> 15         0.70451

 Excited State   4:      Singlet-A"     7.7045 eV  160.92 nm  f=0.0002  <S**2>=0.000
      10 -> 13         0.69026
      12 -> 16        -0.11940

 Excited State   5:      Singlet-A"     7.8717 eV  157.51 nm  f=0.0180  <S**2>=0.000
      10 -> 13         0.11296
      12 -> 16         0.69521

 Excited State   6:      Singlet-A'     8.0865 eV  153.32 nm  f=0.0576  <S**2>=0.000
      11 -> 13        -0.21916
      12 -> 17         0.66041

 Excited State   7:      Singlet-A'     8.2029 eV  151.15 nm  f=0.0274  <S**2>=0.000
      12 -> 18         0.69992

 Excited State   8:      Singlet-A'     8.4849 eV  146.12 nm  f=0.1861  <S**2>=0.000
       8 -> 13        -0.30345
      11 -> 13         0.56342
      12 -> 17         0.22480
      12 -> 20        -0.11096

 Excited State   9:      Singlet-A"     8.7549 eV  141.62 nm  f=0.0010  <S**2>=0.000
      12 -> 19         0.70448

 Excited State  10:      Singlet-A'     8.7980 eV  140.92 nm  f=0.0861  <S**2>=0.000
      11 -> 13         0.10563
      12 -> 20         0.69615

 Excited State  11:      Singlet-A"     9.0556 eV  136.91 nm  f=0.0001  <S**2>=0.000
       9 -> 13         0.69094

 Excited State  12:      Singlet-A'     9.3660 eV  132.38 nm  f=0.0101  <S**2>=0.000
      12 -> 21         0.70455

 Excited State  13:      Singlet-A"     9.5051 eV  130.44 nm  f=0.0099  <S**2>=0.000
      11 -> 14         0.70574

 Excited State  14:      Singlet-A"     9.9114 eV  125.09 nm  f=0.0014  <S**2>=0.000
       7 -> 13        -0.13913
      12 -> 22         0.69239

 Excited State  15:      Singlet-A'     9.9903 eV  124.11 nm  f=0.0315  <S**2>=0.000
       8 -> 13         0.11591
      10 -> 14         0.69459

 Excited State  16:      Singlet-A"    10.0331 eV  123.58 nm  f=0.0073  <S**2>=0.000
       7 -> 13         0.67676
      12 -> 22         0.13456

 Excited State  17:      Singlet-A"    10.2686 eV  120.74 nm  f=0.0119  <S**2>=0.000
      11 -> 15         0.69991

 Excited State  18:      Singlet-A'    10.3840 eV  119.40 nm  f=0.0698  <S**2>=0.000
       8 -> 13        -0.42511
      10 -> 14         0.10003
      11 -> 13        -0.16671
      12 -> 23         0.48253
      12 -> 24        -0.16369

 Excited State  19:      Singlet-A'    10.5328 eV  117.71 nm  f=0.0064  <S**2>=0.000
       8 -> 13         0.27967
      11 -> 13         0.10128
      12 -> 23         0.45191
      12 -> 24         0.43835

 Excited State  20:      Singlet-A'    10.7913 eV  114.89 nm  f=0.0664  <S**2>=0.000
       8 -> 13        -0.10926
      10 -> 15         0.68228

 Excited State  21:      Singlet-A'    10.8909 eV  113.84 nm  f=0.0572  <S**2>=0.000
       8 -> 13        -0.24529
       9 -> 14        -0.40584
      10 -> 15        -0.10674
      11 -> 13        -0.13227
      12 -> 23        -0.19984
      12 -> 24         0.41112
      12 -> 25        -0.10695

 Excited State  22:      Singlet-A'    11.0413 eV  112.29 nm  f=0.0575  <S**2>=0.000
       8 -> 13        -0.12521
       9 -> 14         0.50730
      10 -> 15        -0.11567
      11 -> 16        -0.12063
      12 -> 23        -0.10250
      12 -> 24         0.18163
      12 -> 25        -0.37540

 Excited State  23:      Singlet-A'    11.1976 eV  110.72 nm  f=0.0557  <S**2>=0.000
       9 -> 14         0.15413
      11 -> 16        -0.44440
      11 -> 19         0.10614
      12 -> 24         0.13509
      12 -> 25         0.47472

 Excited State  24:      Singlet-A'    11.2961 eV  109.76 nm  f=0.0175  <S**2>=0.000
       8 -> 13        -0.11114
       9 -> 14         0.21192
      11 -> 13        -0.10320
      11 -> 16         0.51534
      12 -> 24         0.18159
      12 -> 25         0.30799

 Excited State  25:      Singlet-A"    11.3574 eV  109.17 nm  f=0.0092  <S**2>=0.000
       8 -> 14        -0.12590
      11 -> 17         0.66492
      11 -> 18         0.17972

 Excited State  26:      Singlet-A"    11.4743 eV  108.05 nm  f=0.0905  <S**2>=0.000
       8 -> 14         0.62191
      11 -> 17         0.19045
      11 -> 18        -0.26663

 Excited State  27:      Singlet-A"    11.4898 eV  107.91 nm  f=0.0428  <S**2>=0.000
       8 -> 14         0.27651
      10 -> 16        -0.21881
      11 -> 18         0.60476

 Excited State  28:      Singlet-A"    11.6593 eV  106.34 nm  f=0.0179  <S**2>=0.000
       8 -> 14         0.11518
      10 -> 16         0.65919
      11 -> 18         0.16422

 Excited State  29:      Singlet-A'    11.7605 eV  105.42 nm  f=0.0222  <S**2>=0.000
       9 -> 15         0.68336
      10 -> 18         0.13925

 Excited State  30:      Singlet-A'    11.8477 eV  104.65 nm  f=0.0097  <S**2>=0.000
       9 -> 15        -0.11190
      10 -> 17         0.67088
      10 -> 18         0.12462

 Excited State  31:      Singlet-A"    12.0110 eV  103.23 nm  f=0.0120  <S**2>=0.000
      12 -> 26         0.69972

 Excited State  32:      Singlet-A"    12.1028 eV  102.44 nm  f=0.0140  <S**2>=0.000
      11 -> 20         0.68729

 Excited State  33:      Singlet-A'    12.1425 eV  102.11 nm  f=0.0655  <S**2>=0.000
       7 -> 14         0.62052
      10 -> 17         0.12735
      10 -> 18        -0.27074

 Excited State  34:      Singlet-A"    12.1998 eV  101.63 nm  f=0.0027  <S**2>=0.000
       6 -> 13         0.13021
       8 -> 15         0.68654

 Excited State  35:      Singlet-A'    12.2032 eV  101.60 nm  f=0.0217  <S**2>=0.000
       7 -> 14        -0.11362
       9 -> 18         0.12739
      10 -> 18        -0.30400
      11 -> 19         0.59062

 Excited State  36:      Singlet-A'    12.2429 eV  101.27 nm  f=0.0677  <S**2>=0.000
       7 -> 14         0.24525
       8 -> 16         0.10395
       9 -> 15        -0.10274
       9 -> 17         0.11015
      10 -> 18         0.49239
      10 -> 20         0.18384
      11 -> 19         0.31299

 Excited State  37:      Singlet-A"    12.4513 eV   99.58 nm  f=0.0015  <S**2>=0.000
      10 -> 19        -0.12003
      12 -> 27         0.68474

 Excited State  38:      Singlet-A"    12.5889 eV   98.49 nm  f=0.0110  <S**2>=0.000
       6 -> 13        -0.16374
       9 -> 16        -0.44653
      10 -> 19         0.46635
      11 -> 21        -0.20233

 Excited State  39:      Singlet-A'    12.5981 eV   98.41 nm  f=0.0042  <S**2>=0.000
       8 -> 16        -0.14341
      10 -> 20         0.65713

 Excited State  40:      Singlet-A"    12.6365 eV   98.12 nm  f=0.0111  <S**2>=0.000
       9 -> 16         0.51893
      10 -> 19         0.32570
      11 -> 21        -0.33428

 Excited State  41:      Singlet-A"    12.6814 eV   97.77 nm  f=0.0215  <S**2>=0.000
       9 -> 16         0.11678
      10 -> 19         0.34387
      11 -> 21         0.57319
      12 -> 27         0.10159

 Excited State  42:      Singlet-A"    12.7180 eV   97.49 nm  f=0.0135  <S**2>=0.000
       6 -> 13         0.60965
       8 -> 15        -0.11160
       8 -> 17        -0.19211
       9 -> 16        -0.11971
      11 -> 21        -0.11738

 Excited State  43:      Singlet-A'    12.8498 eV   96.49 nm  f=0.0641  <S**2>=0.000
       7 -> 15         0.31081
       9 -> 17         0.58982
       9 -> 18         0.12922
      12 -> 28        -0.12530

 Excited State  44:      Singlet-A'    12.8671 eV   96.36 nm  f=0.0903  <S**2>=0.000
       7 -> 15         0.60022
       9 -> 17        -0.32676
      12 -> 28        -0.10511

 Excited State  45:      Singlet-A'    12.9863 eV   95.47 nm  f=0.0064  <S**2>=0.000
       9 -> 18         0.39170
      12 -> 28         0.57413

 Excited State  46:      Singlet-A'    13.1082 eV   94.58 nm  f=0.0275  <S**2>=0.000
       8 -> 16        -0.33394
      10 -> 21         0.61021

 Excited State  47:      Singlet-A'    13.1124 eV   94.56 nm  f=0.0140  <S**2>=0.000
       7 -> 15        -0.13122
       9 -> 18         0.46843
      10 -> 21        -0.15266
      11 -> 22         0.23337
      12 -> 28        -0.27785
      12 -> 29         0.28370

 Excited State  48:      Singlet-A'    13.2785 eV   93.37 nm  f=0.0615  <S**2>=0.000
       8 -> 16        -0.27129
       8 -> 19         0.10962
       9 -> 18        -0.12961
      10 -> 21        -0.16571
      11 -> 22         0.54452
      12 -> 29        -0.20649

 Excited State  49:      Singlet-A"    13.3185 eV   93.09 nm  f=0.0209  <S**2>=0.000
       8 -> 17         0.58494
       8 -> 18         0.33878
      11 -> 23        -0.11663

 Excited State  50:      Singlet-A"    13.4658 eV   92.07 nm  f=0.0234  <S**2>=0.000
       7 -> 16        -0.13398
       8 -> 17        -0.24672
       8 -> 18         0.58185
       9 -> 19         0.17626
      11 -> 23         0.17268

 Excited State  51:      Singlet-A'    13.5092 eV   91.78 nm  f=0.0198  <S**2>=0.000
       8 -> 16        -0.31393
       9 -> 20         0.50077
      10 -> 21        -0.15523
      11 -> 22        -0.22973
      12 -> 29        -0.11499

 Excited State  52:      Singlet-A"    13.5367 eV   91.59 nm  f=0.0001  <S**2>=0.000
       8 -> 18        -0.14267
       9 -> 19         0.68259

 Excited State  53:      Singlet-A'    13.6418 eV   90.89 nm  f=0.0468  <S**2>=0.000
       7 -> 17        -0.15981
       7 -> 18        -0.21034
       8 -> 16         0.29629
       9 -> 20         0.45924
       9 -> 21        -0.14440
      10 -> 21         0.15271
      11 -> 22         0.19132

 Excited State  54:      Singlet-A"    13.6629 eV   90.75 nm  f=0.0026  <S**2>=0.000
       7 -> 16        -0.16029
      10 -> 22         0.52228
      11 -> 23        -0.43982

 Excited State  55:      Singlet-A"    13.6921 eV   90.55 nm  f=0.0084  <S**2>=0.000
       7 -> 16         0.41617
      10 -> 22         0.43494
      11 -> 23         0.35739

 Excited State  56:      Singlet-A'    13.7092 eV   90.44 nm  f=0.1592  <S**2>=0.000
       9 -> 18        -0.18779
       9 -> 20         0.11927
       9 -> 21         0.11165
      10 -> 24        -0.10275
      12 -> 28         0.17629
      12 -> 29         0.54837
      12 -> 33         0.11880

 Excited State  57:      Singlet-A"    13.8095 eV   89.78 nm  f=0.0535  <S**2>=0.000
       7 -> 16         0.48238
       8 -> 17        -0.13328
       8 -> 20         0.30699
      10 -> 22        -0.14145
      11 -> 23        -0.29587
      11 -> 25         0.13039

 Excited State  58:      Singlet-A'    13.9427 eV   88.92 nm  f=0.0342  <S**2>=0.000
       7 -> 17         0.65746
       8 -> 19        -0.10017
      12 -> 30         0.12665

 Excited State  59:      Singlet-A"    13.9584 eV   88.82 nm  f=0.0024  <S**2>=0.000
      11 -> 24         0.70347

 Excited State  60:      Singlet-A'    14.1037 eV   87.91 nm  f=0.0634  <S**2>=0.000
       7 -> 18         0.25005
       8 -> 19         0.55940
      10 -> 23         0.10357
      10 -> 24         0.15715
      12 -> 30         0.21787

 Excited State  61:      Singlet-A"    14.1126 eV   87.85 nm  f=0.0362  <S**2>=0.000
       7 -> 16        -0.11696
       8 -> 20         0.57504
      11 -> 23         0.12493
      11 -> 25        -0.32248

 Excited State  62:      Singlet-A'    14.1220 eV   87.80 nm  f=0.0057  <S**2>=0.000
       7 -> 18        -0.41713
       8 -> 19         0.25668
       9 -> 21         0.43273
      10 -> 23        -0.13290
      10 -> 24         0.12938
      12 -> 30        -0.13690

 Excited State  63:      Singlet-A'    14.2364 eV   87.09 nm  f=0.0228  <S**2>=0.000
       6 -> 14        -0.13696
       7 -> 18         0.10758
       8 -> 19        -0.19789
       9 -> 21         0.42375
      10 -> 23         0.36736
      12 -> 30         0.28698

 Excited State  64:      Singlet-A'    14.3543 eV   86.37 nm  f=0.0299  <S**2>=0.000
       6 -> 14        -0.12057
       6 -> 15         0.13239
       7 -> 18         0.36350
       7 -> 20        -0.18573
       9 -> 21         0.20138
      10 -> 23        -0.27210
      12 -> 30        -0.32003
      12 -> 32        -0.15396

 Excited State  65:      Singlet-A"    14.3930 eV   86.14 nm  f=0.0004  <S**2>=0.000
      12 -> 31         0.68963

 Excited State  66:      Singlet-A'    14.4670 eV   85.70 nm  f=0.1718  <S**2>=0.000
       6 -> 14         0.43754
       7 -> 18         0.10283
       9 -> 21         0.13996
      10 -> 23        -0.33128
      12 -> 30         0.32655

 Excited State  67:      Singlet-A'    14.4867 eV   85.58 nm  f=0.0077  <S**2>=0.000
       6 -> 14         0.46626
       7 -> 20         0.12442
       9 -> 23        -0.14797
      10 -> 23         0.31335
      12 -> 30        -0.26967
      12 -> 32        -0.12411
      12 -> 33         0.10636

 Excited State  68:      Singlet-A"    14.4897 eV   85.57 nm  f=0.1169  <S**2>=0.000
       7 -> 19         0.35501
       8 -> 20         0.13967
       8 -> 21         0.19131
       9 -> 22        -0.11579
      11 -> 25         0.50682
      12 -> 31         0.12076

 Excited State  69:      Singlet-A'    14.5820 eV   85.03 nm  f=0.0861  <S**2>=0.000
       8 -> 19        -0.11376
      10 -> 24         0.55064
      12 -> 32        -0.33550

 Excited State  70:      Singlet-A"    14.5876 eV   84.99 nm  f=0.0078  <S**2>=0.000
       7 -> 19        -0.28488
       8 -> 21         0.64024

 Excited State  71:      Singlet-A"    14.6664 eV   84.54 nm  f=0.0008  <S**2>=0.000
       7 -> 19         0.28487
       9 -> 22         0.63145

 Excited State  72:      Singlet-A'    14.6853 eV   84.43 nm  f=0.0982  <S**2>=0.000
       8 -> 19        -0.11248
       8 -> 22         0.13077
      10 -> 24         0.28050
      10 -> 25        -0.13416
      12 -> 32         0.55497
      12 -> 33         0.12759

 Excited State  73:      Singlet-A'    14.7790 eV   83.89 nm  f=0.0009  <S**2>=0.000
       7 -> 20         0.49264
      10 -> 25        -0.43769

 Excited State  74:      Singlet-A"    14.8358 eV   83.57 nm  f=0.2110  <S**2>=0.000
       7 -> 19         0.39225
       8 -> 20        -0.13639
       8 -> 21         0.16747
       9 -> 22        -0.27711
      11 -> 25        -0.24092
      12 -> 34        -0.33311

 Excited State  75:      Singlet-A'    14.8579 eV   83.45 nm  f=0.0065  <S**2>=0.000
       6 -> 15         0.16057
       7 -> 20         0.37270
      10 -> 25         0.49787
      12 -> 33        -0.21043

 Excited State  76:      Singlet-A"    15.0859 eV   82.19 nm  f=0.1109  <S**2>=0.000
       7 -> 19         0.16576
      10 -> 26         0.10309
      11 -> 25        -0.15797
      12 -> 34         0.60818

 Excited State  77:      Singlet-A'    15.1078 eV   82.07 nm  f=0.0931  <S**2>=0.000
       8 -> 22        -0.31386
       9 -> 23         0.24704
      10 -> 25         0.13002
      11 -> 26        -0.18999
      12 -> 33         0.48853
      12 -> 35         0.14077

 Excited State  78:      Singlet-A'    15.2313 eV   81.40 nm  f=0.0444  <S**2>=0.000
       6 -> 15        -0.16001
       7 -> 21         0.57660
       9 -> 23         0.28009
      11 -> 26         0.16523

 Excited State  79:      Singlet-A'    15.2875 eV   81.10 nm  f=0.0642  <S**2>=0.000
       6 -> 15        -0.15514
       7 -> 21        -0.30002
       8 -> 22         0.34687
       9 -> 23         0.34566
      11 -> 26         0.23558
      12 -> 33         0.11288
      12 -> 35         0.17952

 Excited State  80:      Singlet-A'    15.3509 eV   80.77 nm  f=0.0020  <S**2>=0.000
       7 -> 21         0.22963
       8 -> 22         0.39219
       9 -> 23        -0.24412
       9 -> 24         0.30156
      11 -> 26        -0.15921
      12 -> 33         0.18703
      12 -> 35         0.11245
      12 -> 36         0.14765

 Excited State  81:      Singlet-A'    15.4856 eV   80.06 nm  f=0.0519  <S**2>=0.000
       6 -> 15         0.15098
       9 -> 23         0.27161
       9 -> 24         0.34899
      11 -> 26        -0.31904
      11 -> 27        -0.18084
      12 -> 33        -0.11505
      12 -> 35        -0.27329

 Excited State  82:      Singlet-A'    15.5059 eV   79.96 nm  f=0.0747  <S**2>=0.000
       6 -> 15        -0.11869
       8 -> 22        -0.23324
       9 -> 24         0.47344
       9 -> 25        -0.13474
      11 -> 26         0.27995
      11 -> 27        -0.12244
      12 -> 35         0.20332

 Excited State  83:      Singlet-A'    15.6250 eV   79.35 nm  f=0.0260  <S**2>=0.000
       6 -> 15         0.48654
       6 -> 17         0.13536
       7 -> 20        -0.11010
      12 -> 35         0.35811

 Excited State  84:      Singlet-A"    15.6349 eV   79.30 nm  f=0.0008  <S**2>=0.000
       8 -> 23         0.68622

 Excited State  85:      Singlet-A'    15.7083 eV   78.93 nm  f=0.0481  <S**2>=0.000
       6 -> 15        -0.20083
       7 -> 23        -0.10790
       9 -> 25        -0.14783
      11 -> 26        -0.31811
      11 -> 27         0.25978
      12 -> 33        -0.15170
      12 -> 35         0.34018
      12 -> 36        -0.25886

 Excited State  86:      Singlet-A"    15.7920 eV   78.51 nm  f=0.0052  <S**2>=0.000
       7 -> 22         0.51365
      10 -> 26         0.47971

 Excited State  87:      Singlet-A'    15.8235 eV   78.35 nm  f=0.0549  <S**2>=0.000
       9 -> 25         0.49975
      11 -> 26        -0.11698
      11 -> 27        -0.37700
      12 -> 35         0.15239
      12 -> 36        -0.20050

 Excited State  88:      Singlet-A"    15.8842 eV   78.05 nm  f=0.0017  <S**2>=0.000
       6 -> 16         0.11931
       7 -> 22        -0.10450
       8 -> 24         0.67071
      10 -> 26         0.14885

 Excited State  89:      Singlet-A"    15.8967 eV   77.99 nm  f=0.0634  <S**2>=0.000
       6 -> 16        -0.22612
       7 -> 22         0.42785
       8 -> 24         0.20577
      10 -> 26        -0.42577

 Excited State  90:      Singlet-A'    15.9278 eV   77.84 nm  f=0.0694  <S**2>=0.000
       6 -> 17         0.14389
       6 -> 18        -0.14448
       9 -> 24         0.14372
       9 -> 25         0.39514
      11 -> 27         0.43565
      12 -> 37        -0.10971

 Excited State  91:      Singlet-A'    16.0449 eV   77.27 nm  f=0.0274  <S**2>=0.000
       6 -> 17         0.14831
       7 -> 23        -0.27895
      11 -> 26        -0.10068
      12 -> 33        -0.11540
      12 -> 35         0.12103
      12 -> 36         0.54919

 Excited State  92:      Singlet-A"    16.0458 eV   77.27 nm  f=0.0299  <S**2>=0.000
       6 -> 16         0.64188
       7 -> 22         0.11900
       8 -> 25        -0.11250
      10 -> 26        -0.17795

 Excited State  93:      Singlet-A"    16.1800 eV   76.63 nm  f=0.0244  <S**2>=0.000
      10 -> 27         0.69288

 Excited State  94:      Singlet-A"    16.2372 eV   76.36 nm  f=0.0189  <S**2>=0.000
      11 -> 28         0.69803

 Excited State  95:      Singlet-A'    16.2934 eV   76.09 nm  f=0.0052  <S**2>=0.000
       6 -> 17         0.52590
       6 -> 18         0.37815
      12 -> 37         0.17332

 Excited State  96:      Singlet-A"    16.3380 eV   75.89 nm  f=0.0081  <S**2>=0.000
       5 -> 13        -0.15814
       8 -> 25         0.62734
      11 -> 29         0.10905
      12 -> 38        -0.17292

 Excited State  97:      Singlet-A'    16.3606 eV   75.78 nm  f=0.0128  <S**2>=0.000
       6 -> 18        -0.27588
       7 -> 23        -0.35778
      12 -> 37         0.52537

 Excited State  98:      Singlet-A"    16.4162 eV   75.53 nm  f=0.0112  <S**2>=0.000
       8 -> 25         0.16833
      12 -> 38         0.67945

 Excited State  99:      Singlet-A'    16.4409 eV   75.41 nm  f=0.0996  <S**2>=0.000
       6 -> 17        -0.27312
       6 -> 18         0.43662
       7 -> 23        -0.34518
      10 -> 28         0.21553

 Excited State 100:      Singlet-A'    16.5891 eV   74.74 nm  f=0.0418  <S**2>=0.000
       7 -> 23        -0.17023
       7 -> 24         0.56769
      10 -> 28        -0.10648
      12 -> 37        -0.24565

 Excited State 101:      Singlet-A'    16.7165 eV   74.17 nm  f=0.1378  <S**2>=0.000
       6 -> 17        -0.16416
       6 -> 18         0.17245
       7 -> 23         0.25593
       7 -> 24         0.28707
       7 -> 25        -0.28353
      10 -> 28        -0.13821
      12 -> 36         0.11518
      12 -> 37         0.28564

 Excited State 102:      Singlet-A"    16.7294 eV   74.11 nm  f=0.0439  <S**2>=0.000
       5 -> 13         0.38066
       9 -> 26         0.17559
      11 -> 29         0.53568

 Excited State 103:      Singlet-A'    16.7802 eV   73.89 nm  f=0.0954  <S**2>=0.000
       6 -> 17         0.12178
       7 -> 23         0.11979
       7 -> 24         0.13108
      10 -> 28         0.61851
      12 -> 39        -0.15932

 Excited State 104:      Singlet-A"    16.8415 eV   73.62 nm  f=0.0006  <S**2>=0.000
       6 -> 19         0.25043
       9 -> 26         0.59908
      11 -> 29        -0.26183

 The electronic state is 1-A'.
 Alpha  occ. eigenvalues --  -18.62266  -9.88358  -9.80145  -0.95943  -0.68320
 Alpha  occ. eigenvalues --   -0.52124  -0.43768  -0.41458  -0.39751  -0.36032
 Alpha  occ. eigenvalues --   -0.34377  -0.22324
 Alpha virt. eigenvalues --   -0.08236   0.00433   0.03311   0.06556   0.07139
 Alpha virt. eigenvalues --    0.07708   0.09956   0.09993   0.12191   0.14262
 Alpha virt. eigenvalues --    0.15804   0.16875   0.18348   0.22092   0.23494

 Mulliken charges:
               1
     1  C    0.255905
     2  C   -0.031325
     3  O   -0.219056
     4  H    0.077589
     5  H    0.077589
     6  H   -0.015809
     7  H   -0.144893
 Sum of Mulliken charges =  -0.00000

 Dipole moment (field-independent basis, Debye):
    X=              2.8412    Y=             -0.3898    Z=             -0.0000  Tot=              2.8679
 Quadrupole moment (field-independent basis, Debye-Ang):
   XX=            -21.3833   YY=            -18.1965   ZZ=            -18.1604
   XY=              0.6836   XZ=             -0.0000   YZ=              0.0000

 Normal termination of Gaussian 16 at Mon Mar 21 20:03:01 2022.
