 Gaussian 16, Revision C.01,
 Gaussian 16:  EM64L-G16RevC.01  3-Jul-2019

 ---------------------------------------------------------------------
 #P TD(Nstates=10000) svwn5/Gen SCF(maxcycles=100) Int(Grid=ultrafine)
 ---------------------------------------------------------------------

 ---------------------
 xGDB7_00001_tier4.com
 ---------------------
 Symbolic Z-matrix:
 Charge =  0 Multiplicity = 1

                         Standard orientation:
 ---------------------------------------------------------------------
 Center     Atomic      Atomic             Coordinates (Angstroms)
 Number     Number       Type             X           Y           Z
 ---------------------------------------------------------------------
      1          6           0       -1.131573   -0.504386    0.000000
      2          6           0        0.000000    0.472223    0.000000
      3          6           0        1.284136    0.150792    0.000000
      4          1           0       -1.767446   -0.362776    0.877699
      5          1           0       -0.770122   -1.533458    0.000000
      6          1           0       -1.767446   -0.362776   -0.877699
      7          1           0       -0.276551    1.523465    0.000000
      8          1           0        1.608435   -0.884555    0.000000
      9          1           0        2.057749    0.908327    0.000000
 ---------------------------------------------------------------------

 SCF Done:  E(RS-VWN5) =  -116.693330255     A.U. after   14 cycles

 Excitation energies and oscillator strengths:

 Excited State   1:      Singlet-A"     6.7864 eV  182.70 nm  f=0.0071  <S**2>=0.000
      12 -> 14         0.70684
 This state for optimization and/or second-order correction.
 Total Energy, E(TD-HF/TD-DFT) =  -116.443934840
 Copying the excited state density for this state as the 1-particle RhoCI density.

 Excited State   2:      Singlet-A'     7.4004 eV  167.54 nm  f=0.3638  <S**2>=0.000
       9 -> 13        -0.13249
      12 -> 13         0.67864

 Excited State   3:      Singlet-A"     7.5608 eV  163.98 nm  f=0.0110  <S**2>=0.000
      11 -> 13         0.25506
      12 -> 15         0.65122

 Excited State   4:      Singlet-A"     7.5944 eV  163.26 nm  f=0.0301  <S**2>=0.000
      11 -> 13        -0.23410
      12 -> 15         0.18977
      12 -> 16         0.63887

 Excited State   5:      Singlet-A"     7.6741 eV  161.56 nm  f=0.0006  <S**2>=0.000
      11 -> 13         0.61270
      12 -> 15        -0.19824
      12 -> 16         0.28493

 Excited State   6:      Singlet-A"     8.2658 eV  150.00 nm  f=0.0005  <S**2>=0.000
      10 -> 13         0.70165

 Excited State   7:      Singlet-A"     8.6756 eV  142.91 nm  f=0.0005  <S**2>=0.000
      12 -> 17         0.70447

 Excited State   8:      Singlet-A'     8.6836 eV  142.78 nm  f=0.0144  <S**2>=0.000
      11 -> 14         0.69279
      12 -> 18         0.13448

 Excited State   9:      Singlet-A'     8.8569 eV  139.99 nm  f=0.0489  <S**2>=0.000
      11 -> 14        -0.13173
      12 -> 18         0.68958

 Excited State  10:      Singlet-A"     9.1501 eV  135.50 nm  f=0.0178  <S**2>=0.000
      12 -> 19         0.70271

 Excited State  11:      Singlet-A'     9.3815 eV  132.16 nm  f=0.0732  <S**2>=0.000
      10 -> 14         0.69413
      11 -> 16         0.10951

 Excited State  12:      Singlet-A'     9.4423 eV  131.31 nm  f=0.0202  <S**2>=0.000
      11 -> 15         0.51060
      11 -> 16         0.47122

 Excited State  13:      Singlet-A'     9.5297 eV  130.10 nm  f=0.1847  <S**2>=0.000
      11 -> 15        -0.47680
      11 -> 16         0.50913

 Excited State  14:      Singlet-A"     9.6414 eV  128.60 nm  f=0.0066  <S**2>=0.000
       8 -> 13         0.19741
      12 -> 20         0.67453

 Excited State  15:      Singlet-A"     9.7199 eV  127.56 nm  f=0.0011  <S**2>=0.000
       8 -> 13         0.67207
      12 -> 20        -0.19048

 Excited State  16:      Singlet-A'     9.8422 eV  125.97 nm  f=0.0396  <S**2>=0.000
       9 -> 13         0.66978
      12 -> 13         0.10985
      12 -> 21        -0.10214

 Excited State  17:      Singlet-A'     9.9971 eV  124.02 nm  f=0.0502  <S**2>=0.000
      12 -> 21         0.67780

 Excited State  18:      Singlet-A"    10.1205 eV  122.51 nm  f=0.0308  <S**2>=0.000
      12 -> 22         0.69217

 Excited State  19:      Singlet-A'    10.1665 eV  121.95 nm  f=0.0489  <S**2>=0.000
      10 -> 15         0.63122
      10 -> 16        -0.30400

 Excited State  20:      Singlet-A'    10.1850 eV  121.73 nm  f=0.0173  <S**2>=0.000
      10 -> 15         0.30153
      10 -> 16         0.62828

 Excited State  21:      Singlet-A"    10.4247 eV  118.93 nm  f=0.0004  <S**2>=0.000
       9 -> 14        -0.10851
      12 -> 23         0.69190

 Excited State  22:      Singlet-A"    10.5772 eV  117.22 nm  f=0.1041  <S**2>=0.000
       9 -> 14         0.68927
      12 -> 23         0.10026

 Excited State  23:      Singlet-A'    10.6027 eV  116.94 nm  f=0.0375  <S**2>=0.000
       8 -> 14        -0.10540
      11 -> 17         0.67490

 Excited State  24:      Singlet-A"    10.6632 eV  116.27 nm  f=0.0047  <S**2>=0.000
      11 -> 18         0.70174

 Excited State  25:      Singlet-A'    10.7974 eV  114.83 nm  f=0.0105  <S**2>=0.000
       8 -> 14         0.68011
      11 -> 17         0.10322

 Excited State  26:      Singlet-A"    10.8791 eV  113.96 nm  f=0.0012  <S**2>=0.000
       7 -> 13         0.68660

 Excited State  27:      Singlet-A'    11.0084 eV  112.63 nm  f=0.0295  <S**2>=0.000
       8 -> 16        -0.10090
      10 -> 19         0.10333
      11 -> 19         0.29486
      12 -> 24         0.59001

 Excited State  28:      Singlet-A'    11.0345 eV  112.36 nm  f=0.0719  <S**2>=0.000
       8 -> 14         0.10858
      10 -> 17         0.13339
      11 -> 19         0.61134
      12 -> 24        -0.27638

 Excited State  29:      Singlet-A"    11.2794 eV  109.92 nm  f=0.0012  <S**2>=0.000
       9 -> 15         0.61235
       9 -> 16        -0.33054
      10 -> 18        -0.11566

 Excited State  30:      Singlet-A'    11.2816 eV  109.90 nm  f=0.0762  <S**2>=0.000
       8 -> 15        -0.17929
      10 -> 17         0.64793
      11 -> 19        -0.12323
      11 -> 20        -0.11917

 Excited State  31:      Singlet-A"    11.3225 eV  109.50 nm  f=0.0009  <S**2>=0.000
       9 -> 15         0.27786
       9 -> 16         0.54763
      10 -> 18        -0.12462
      12 -> 25        -0.31897

 Excited State  32:      Singlet-A"    11.3487 eV  109.25 nm  f=0.0540  <S**2>=0.000
       9 -> 15         0.19594
       9 -> 16         0.28536
      10 -> 18         0.29063
      12 -> 25         0.53110

 Excited State  33:      Singlet-A"    11.4417 eV  108.36 nm  f=0.0708  <S**2>=0.000
      10 -> 18         0.60317
      11 -> 21        -0.14007
      12 -> 25        -0.28405

 Excited State  34:      Singlet-A'    11.4648 eV  108.14 nm  f=0.0095  <S**2>=0.000
       8 -> 15        -0.24540
       8 -> 16         0.15357
      11 -> 20         0.63361

 Excited State  35:      Singlet-A'    11.5697 eV  107.16 nm  f=0.0797  <S**2>=0.000
       8 -> 15         0.53519
       8 -> 16         0.37991
      10 -> 17         0.16220
      10 -> 19         0.11280
      11 -> 20         0.10926

 Excited State  36:      Singlet-A'    11.6138 eV  106.76 nm  f=0.0236  <S**2>=0.000
       8 -> 15        -0.33455
       8 -> 16         0.52893
      10 -> 19         0.14820
      11 -> 20        -0.22370

 Excited State  37:      Singlet-A"    11.6786 eV  106.16 nm  f=0.0512  <S**2>=0.000
      11 -> 21         0.68740

 Excited State  38:      Singlet-A'    11.7499 eV  105.52 nm  f=0.0486  <S**2>=0.000
       7 -> 14         0.25419
       8 -> 16        -0.13457
      10 -> 19         0.61957

 Excited State  39:      Singlet-A'    11.9276 eV  103.95 nm  f=0.0268  <S**2>=0.000
       7 -> 14         0.62661
      10 -> 19        -0.19635
      11 -> 22        -0.13208
      11 -> 23        -0.14150

 Excited State  40:      Singlet-A'    12.0414 eV  102.96 nm  f=0.0996  <S**2>=0.000
      10 -> 20         0.11471
      11 -> 22         0.50003
      12 -> 26        -0.45306

 Excited State  41:      Singlet-A'    12.1333 eV  102.19 nm  f=0.0996  <S**2>=0.000
      11 -> 22         0.45719
      12 -> 26         0.50063

 Excited State  42:      Singlet-A'    12.2299 eV  101.38 nm  f=0.0068  <S**2>=0.000
       9 -> 18        -0.17843
      10 -> 20         0.66352

 Excited State  43:      Singlet-A"    12.2379 eV  101.31 nm  f=0.0109  <S**2>=0.000
      12 -> 27         0.70083

 Excited State  44:      Singlet-A"    12.3856 eV  100.10 nm  f=0.0084  <S**2>=0.000
       9 -> 17         0.66593
      10 -> 21        -0.21169

 Excited State  45:      Singlet-A'    12.3899 eV  100.07 nm  f=0.0390  <S**2>=0.000
       7 -> 15         0.24802
       9 -> 18        -0.15303
      11 -> 23         0.61683

 Excited State  46:      Singlet-A"    12.4374 eV   99.69 nm  f=0.0008  <S**2>=0.000
       9 -> 17         0.20550
       9 -> 19         0.14494
      10 -> 21         0.64486

 Excited State  47:      Singlet-A"    12.5556 eV   98.75 nm  f=0.0001  <S**2>=0.000
      11 -> 24         0.65339
      12 -> 28         0.24842

 Excited State  48:      Singlet-A"    12.5991 eV   98.41 nm  f=0.0017  <S**2>=0.000
       9 -> 19         0.10038
      11 -> 24        -0.25340
      12 -> 28         0.63686

 Excited State  49:      Singlet-A'    12.6338 eV   98.14 nm  f=0.0493  <S**2>=0.000
       7 -> 16        -0.41288
       8 -> 17         0.32982
      10 -> 22         0.44329

 Excited State  50:      Singlet-A'    12.6849 eV   97.74 nm  f=0.1547  <S**2>=0.000
       7 -> 15         0.46030
       7 -> 16        -0.26023
       8 -> 17        -0.36633
       9 -> 18         0.21727

 Excited State  51:      Singlet-A'    12.7266 eV   97.42 nm  f=0.1438  <S**2>=0.000
       7 -> 15         0.10052
       7 -> 16         0.42015
       8 -> 17        -0.17027
       9 -> 18        -0.21735
      10 -> 22         0.45525

 Excited State  52:      Singlet-A"    12.7323 eV   97.38 nm  f=0.0001  <S**2>=0.000
       8 -> 18         0.69140

 Excited State  53:      Singlet-A'    12.8227 eV   96.69 nm  f=0.0148  <S**2>=0.000
       7 -> 15         0.39839
       7 -> 16         0.23909
       8 -> 17         0.41430
       9 -> 18         0.11818
      11 -> 23        -0.13720
      12 -> 29         0.14309

 Excited State  54:      Singlet-A"    12.9363 eV   95.84 nm  f=0.0303  <S**2>=0.000
       6 -> 13         0.32018
       8 -> 18        -0.10314
       9 -> 19         0.58949
      10 -> 21        -0.12037

 Excited State  55:      Singlet-A'    12.9853 eV   95.48 nm  f=0.0400  <S**2>=0.000
       7 -> 15        -0.10002
       8 -> 19         0.49250
       9 -> 18         0.25389
      10 -> 23        -0.35899
      11 -> 25         0.11414

 Excited State  56:      Singlet-A'    13.0655 eV   94.89 nm  f=0.0554  <S**2>=0.000
       8 -> 19         0.21258
       9 -> 18         0.20441
      10 -> 23         0.54843
      11 -> 25         0.28070
      12 -> 29         0.10080

 Excited State  57:      Singlet-A'    13.1369 eV   94.38 nm  f=0.0234  <S**2>=0.000
       7 -> 15         0.10920
       7 -> 17        -0.12923
       8 -> 19         0.41125
       8 -> 20         0.21681
       9 -> 18        -0.29919
      10 -> 22        -0.19220
      11 -> 23        -0.10965
      11 -> 25        -0.17347
      12 -> 29        -0.16791

 Excited State  58:      Singlet-A"    13.2117 eV   93.84 nm  f=0.0126  <S**2>=0.000
       6 -> 13         0.38603
       9 -> 19        -0.18630
       9 -> 20         0.24007
      10 -> 24         0.47728

 Excited State  59:      Singlet-A'    13.2211 eV   93.78 nm  f=0.0800  <S**2>=0.000
       8 -> 20         0.11187
       9 -> 18        -0.19295
      10 -> 23        -0.14684
      11 -> 25         0.59537
      11 -> 27         0.10878
      12 -> 29        -0.11696

 Excited State  60:      Singlet-A"    13.3201 eV   93.08 nm  f=0.0060  <S**2>=0.000
       9 -> 20         0.59854
      10 -> 24        -0.36826

 Excited State  61:      Singlet-A'    13.4395 eV   92.25 nm  f=0.0207  <S**2>=0.000
       6 -> 14         0.12755
       9 -> 18        -0.15519
      12 -> 29         0.59865

 Excited State  62:      Singlet-A"    13.4830 eV   91.96 nm  f=0.1540  <S**2>=0.000
       6 -> 13         0.37186
       7 -> 18         0.24291
       9 -> 19        -0.18843
       9 -> 20        -0.27678
      10 -> 24        -0.35460
      12 -> 30         0.12923

 Excited State  63:      Singlet-A"    13.6278 eV   90.98 nm  f=0.0018  <S**2>=0.000
       6 -> 13        -0.10551
      12 -> 30         0.68261

 Excited State  64:      Singlet-A'    13.6289 eV   90.97 nm  f=0.0009  <S**2>=0.000
       7 -> 17         0.32545
       8 -> 20         0.55903
      10 -> 25         0.21157

 Excited State  65:      Singlet-A'    13.7069 eV   90.45 nm  f=0.0085  <S**2>=0.000
       7 -> 17        -0.25329
       8 -> 20         0.10824
       9 -> 21         0.60691
      12 -> 31        -0.11789

 Excited State  66:      Singlet-A"    13.7425 eV   90.22 nm  f=0.0003  <S**2>=0.000
       8 -> 21         0.65827
       9 -> 22        -0.23817

 Excited State  67:      Singlet-A"    13.8084 eV   89.79 nm  f=0.0008  <S**2>=0.000
       7 -> 18         0.12823
       8 -> 21         0.24453
       9 -> 22         0.58745
      11 -> 26         0.25520

 Excited State  68:      Singlet-A'    13.8291 eV   89.65 nm  f=0.0076  <S**2>=0.000
       6 -> 14         0.49097
       7 -> 17        -0.35259
       8 -> 22        -0.14117
      10 -> 25         0.27425
      11 -> 27         0.10033

 Excited State  69:      Singlet-A"    13.8766 eV   89.35 nm  f=0.0140  <S**2>=0.000
       9 -> 22        -0.26291
      11 -> 26         0.63885

 Excited State  70:      Singlet-A'    13.8918 eV   89.25 nm  f=0.0194  <S**2>=0.000
       6 -> 14        -0.25044
       7 -> 17        -0.10383
       8 -> 22        -0.14581
      10 -> 25         0.38617
      12 -> 31         0.48930

 Excited State  71:      Singlet-A'    13.9368 eV   88.96 nm  f=0.0119  <S**2>=0.000
       6 -> 14         0.25637
       6 -> 15         0.10758
       7 -> 19         0.11449
       8 -> 20         0.10529
       8 -> 22         0.15895
      10 -> 25        -0.33226
      11 -> 27         0.15561
      12 -> 31         0.44995

 Excited State  72:      Singlet-A"    13.9719 eV   88.74 nm  f=0.1523  <S**2>=0.000
       6 -> 13        -0.15172
       7 -> 18         0.60840
       9 -> 23         0.22137

 Excited State  73:      Singlet-A'    14.0514 eV   88.24 nm  f=0.0123  <S**2>=0.000
       6 -> 14         0.15416
       7 -> 17         0.21512
       7 -> 19        -0.30733
       8 -> 20        -0.16739
       8 -> 22         0.37624
       9 -> 18        -0.10184
       9 -> 21         0.13950
      10 -> 25         0.23486
      11 -> 27         0.15570
      11 -> 28         0.12614

 Excited State  74:      Singlet-A'    14.1182 eV   87.82 nm  f=0.0784  <S**2>=0.000
       6 -> 14        -0.21790
       6 -> 16        -0.16169
       7 -> 17        -0.26321
       8 -> 20         0.12791
       8 -> 22         0.37934
       9 -> 21        -0.19634
      11 -> 27         0.30832
      12 -> 31        -0.10746

 Excited State  75:      Singlet-A"    14.2045 eV   87.28 nm  f=0.0619  <S**2>=0.000
       7 -> 18        -0.14423
       9 -> 23         0.63800
      12 -> 32         0.20062

 Excited State  76:      Singlet-A'    14.3720 eV   86.27 nm  f=0.0113  <S**2>=0.000
       6 -> 15        -0.11883
       6 -> 16         0.25117
       7 -> 17         0.13344
       7 -> 19         0.46702
       8 -> 23         0.20699
       9 -> 24         0.16447
      11 -> 27         0.19282
      11 -> 28         0.16685

 Excited State  77:      Singlet-A"    14.3818 eV   86.21 nm  f=0.0198  <S**2>=0.000
       9 -> 23        -0.16344
      12 -> 32         0.67012

 Excited State  78:      Singlet-A'    14.3970 eV   86.12 nm  f=0.0102  <S**2>=0.000
       6 -> 15         0.11604
       7 -> 19        -0.13991
       8 -> 23         0.61194
       9 -> 24         0.10267
      11 -> 27        -0.17941
      11 -> 28         0.10682

 Excited State  79:      Singlet-A'    14.5060 eV   85.47 nm  f=0.1344  <S**2>=0.000
       7 -> 20        -0.10080
       8 -> 22         0.21263
       8 -> 23        -0.11148
       9 -> 24         0.47375
      10 -> 27         0.13690
      10 -> 28        -0.12279
      11 -> 27        -0.30417
      11 -> 28        -0.15138

 Excited State  80:      Singlet-A"    14.5345 eV   85.30 nm  f=0.0216  <S**2>=0.000
      10 -> 26         0.69721

 Excited State  81:      Singlet-A'    14.5361 eV   85.29 nm  f=0.1776  <S**2>=0.000
       6 -> 15         0.20183
       7 -> 19        -0.19622
       7 -> 20        -0.10505
       8 -> 22        -0.14826
       8 -> 23        -0.14735
       9 -> 24         0.40371
      10 -> 27        -0.15121
      10 -> 28         0.11949
      11 -> 27         0.14718
      11 -> 28         0.34293

 Excited State  82:      Singlet-A'    14.5918 eV   84.97 nm  f=0.1832  <S**2>=0.000
       6 -> 15         0.36368
       6 -> 16         0.39855
       8 -> 22         0.14583
       9 -> 24        -0.17604
      11 -> 27        -0.20203
      11 -> 28         0.21954

 Excited State  83:      Singlet-A"    14.6815 eV   84.45 nm  f=0.0106  <S**2>=0.000
       8 -> 24         0.69976

 Excited State  84:      Singlet-A'    14.7116 eV   84.28 nm  f=0.0934  <S**2>=0.000
       6 -> 15        -0.17297
       7 -> 20         0.58401
       8 -> 23        -0.12094
      11 -> 27        -0.11881
      11 -> 28         0.23676

 Excited State  85:      Singlet-A"    14.7407 eV   84.11 nm  f=0.0153  <S**2>=0.000
      12 -> 33         0.69923

 Excited State  86:      Singlet-A"    14.8104 eV   83.71 nm  f=0.0039  <S**2>=0.000
      11 -> 29         0.69548
      12 -> 34         0.11076

 Excited State  87:      Singlet-A'    14.8324 eV   83.59 nm  f=0.0907  <S**2>=0.000
       6 -> 15         0.14055
       6 -> 16         0.18541
       7 -> 20         0.24313
       9 -> 24         0.13595
      10 -> 27         0.44117
      11 -> 27         0.21543
      11 -> 28        -0.18380
      12 -> 35         0.13172

 Excited State  88:      Singlet-A'    14.9455 eV   82.96 nm  f=0.0161  <S**2>=0.000
       6 -> 15         0.37890
       6 -> 16        -0.10359
       7 -> 20         0.17650
       7 -> 22        -0.15458
       8 -> 25         0.17866
      10 -> 27        -0.30875
      10 -> 28        -0.20664
      11 -> 28        -0.18567

 Excited State  89:      Singlet-A"    14.9459 eV   82.96 nm  f=0.0029  <S**2>=0.000
       7 -> 21         0.60608
       9 -> 25         0.32140
      12 -> 34        -0.10962

 Excited State  90:      Singlet-A"    14.9738 eV   82.80 nm  f=0.0174  <S**2>=0.000
       9 -> 25         0.11970
      11 -> 29        -0.10941
      12 -> 34         0.68338

 Excited State  91:      Singlet-A'    14.9969 eV   82.67 nm  f=0.0480  <S**2>=0.000
       6 -> 15        -0.12106
       6 -> 16         0.38842
       7 -> 19        -0.18074
       8 -> 20         0.10703
       8 -> 25        -0.14788
      10 -> 27        -0.29901
      10 -> 28        -0.12804
      11 -> 28        -0.19916

 Excited State  92:      Singlet-A"    15.1675 eV   81.74 nm  f=0.0849  <S**2>=0.000
       7 -> 21        -0.29644
       9 -> 25         0.54760
      10 -> 29        -0.10250
      12 -> 36        -0.22133

 Excited State  93:      Singlet-A'    15.1854 eV   81.65 nm  f=0.0225  <S**2>=0.000
       7 -> 22         0.54263
       8 -> 25         0.16369
      10 -> 28        -0.37865

 Excited State  94:      Singlet-A'    15.2130 eV   81.50 nm  f=0.0224  <S**2>=0.000
       8 -> 25         0.20434
      12 -> 35         0.64532

 Excited State  95:      Singlet-A'    15.3112 eV   80.98 nm  f=0.0298  <S**2>=0.000
       6 -> 15        -0.13171
       7 -> 22        -0.17168
       8 -> 25         0.58072
      11 -> 30        -0.12852
      12 -> 35        -0.16245

 Excited State  96:      Singlet-A"    15.3833 eV   80.60 nm  f=0.0172  <S**2>=0.000
       9 -> 25         0.16376
      10 -> 29        -0.14045
      12 -> 36         0.65517

 Excited State  97:      Singlet-A'    15.4622 eV   80.19 nm  f=0.0020  <S**2>=0.000
       7 -> 23        -0.10190
      10 -> 28         0.18930
      11 -> 28        -0.10358
      11 -> 30         0.60329
      12 -> 35        -0.11758

 Excited State  98:      Singlet-A'    15.5090 eV   79.94 nm  f=0.0944  <S**2>=0.000
       7 -> 22        -0.28988
       7 -> 23         0.34001
      10 -> 27         0.10231
      10 -> 28        -0.30367
      11 -> 28         0.11410
      11 -> 30         0.29026

 Excited State  99:      Singlet-A"    15.5714 eV   79.62 nm  f=0.0076  <S**2>=0.000
      10 -> 29         0.67570

 Excited State 100:      Singlet-A'    15.6866 eV   79.04 nm  f=0.0614  <S**2>=0.000
       7 -> 22        -0.10936
       7 -> 23        -0.44293
       9 -> 26         0.46925
      10 -> 28        -0.15798

 Excited State 101:      Singlet-A"    15.7258 eV   78.84 nm  f=0.0649  <S**2>=0.000
       6 -> 18         0.31367
      11 -> 31         0.61735

 Excited State 102:      Singlet-A'    15.7282 eV   78.83 nm  f=0.0480  <S**2>=0.000
       6 -> 17         0.65534
       9 -> 26        -0.10591

 Excited State 103:      Singlet-A"    15.8039 eV   78.45 nm  f=0.0034  <S**2>=0.000
       6 -> 18         0.56239
       7 -> 24        -0.30435
       8 -> 26        -0.17024
      11 -> 31        -0.23453

 Excited State 104:      Singlet-A'    15.8259 eV   78.34 nm  f=0.2667  <S**2>=0.000
       7 -> 23         0.32909
       9 -> 26         0.48538
      10 -> 28         0.22877

 Excited State 105:      Singlet-A"    15.8301 eV   78.32 nm  f=0.0207  <S**2>=0.000
       6 -> 18         0.21517
       7 -> 24         0.60690
       8 -> 26        -0.22015
      11 -> 31        -0.12027
      12 -> 39         0.10131

 Excited State 106:      Singlet-A"    15.9038 eV   77.96 nm  f=0.0140  <S**2>=0.000
       5 -> 13        -0.11878
       8 -> 26        -0.29076
       9 -> 27         0.60218
      12 -> 39        -0.15572

 Excited State 107:      Singlet-A"    16.0010 eV   77.49 nm  f=0.0823  <S**2>=0.000
       5 -> 13         0.20201
       6 -> 18         0.10804
       8 -> 26         0.33578
      12 -> 38         0.51737
      12 -> 39        -0.19813

 Excited State 108:      Singlet-A'    16.0219 eV   77.38 nm  f=0.0032  <S**2>=0.000
       6 -> 19         0.24461
      10 -> 30        -0.12438
      11 -> 32        -0.13968
      12 -> 37         0.61365

 Excited State 109:      Singlet-A"    16.0579 eV   77.21 nm  f=0.0675  <S**2>=0.000

 The electronic state is 1-A'.
 Alpha  occ. eigenvalues --   -9.79229  -9.78267  -9.77581  -0.70612  -0.61126
 Alpha  occ. eigenvalues --   -0.49169  -0.42177  -0.37955  -0.37244  -0.32918
 Alpha  occ. eigenvalues --   -0.30354  -0.23626
 Alpha virt. eigenvalues --   -0.03009   0.01300   0.04184   0.04280   0.08103
 Alpha virt. eigenvalues --    0.08708   0.09784   0.11808   0.12588   0.13347
 Alpha virt. eigenvalues --    0.14734   0.15962   0.17918   0.20559   0.21276

 Mulliken charges:
               1
     1  C    0.507130
     2  C   -0.322620
     3  C   -0.031628
     4  H    0.030248
     5  H    0.055951
     6  H    0.030248
     7  H   -0.194139
     8  H   -0.058165
     9  H   -0.017023
 Sum of Mulliken charges =   0.00000

 Dipole moment (field-independent basis, Debye):
    X=             -0.4549    Y=             -0.0562    Z=              0.0000  Tot=              0.4583
 Quadrupole moment (field-independent basis, Debye-Ang):
   XX=            -19.4204   YY=            -19.3825   ZZ=            -21.9310
   XY=             -0.1565   XZ=             -0.0000   YZ=             -0.0000

 Normal termination of Gaussian 16 at Mon Mar 21 20:09:39 2022.
