 Gaussian 16, Revision C.01,
 Gaussian 16:  EM64L-G16RevC.01  3-Jul-2019

 ---------------------------------------------------------------------
 #P TD(Nstates=10000) svwn5/Gen SCF(maxcycles=100) Int(Grid=ultrafine)
 ---------------------------------------------------------------------

 ---------------------
 xGDB7_00001_tier4.com
 ---------------------
 Symbolic Z-matrix:
 Charge =  0 Multiplicity = 1

                         Standard orientation:
 ---------------------------------------------------------------------
 Center     Atomic      Atomic             Coordinates (Angstroms)
 Number     Number       Type             X           Y           Z
 ---------------------------------------------------------------------
      1          8           0        0.000000   -0.000000    0.116015
      2          1           0        0.000000    0.761895   -0.464058
      3          1           0       -0.000000   -0.761895   -0.464058
 ---------------------------------------------------------------------

 SCF Done:  E(RS-VWN5) =  -75.8195901028     A.U. after   10 cycles

 Excitation energies and oscillator strengths:

 Excited State   1:      Singlet-B1     7.1300 eV  173.89 nm  f=0.0588  <S**2>=0.000
       5 ->  6         0.70640
 This state for optimization and/or second-order correction.
 Total Energy, E(TD-HF/TD-DFT) =  -75.5575657533
 Copying the excited state density for this state as the 1-particle RhoCI density.

 Excited State   2:      Singlet-A2     8.9380 eV  138.72 nm  f=0.0000  <S**2>=0.000
       5 ->  7         0.70654

 Excited State   3:      Singlet-A1     9.0917 eV  136.37 nm  f=0.0993  <S**2>=0.000
       4 ->  6         0.69925

 Excited State   4:      Singlet-B1    10.4118 eV  119.08 nm  f=0.0036  <S**2>=0.000
       5 ->  9         0.70669

 Excited State   5:      Singlet-A1    10.7397 eV  115.44 nm  f=0.0004  <S**2>=0.000
       4 ->  9        -0.15100
       5 ->  8         0.67683

 Excited State   6:      Singlet-B2    10.9379 eV  113.35 nm  f=0.0129  <S**2>=0.000
       4 ->  7         0.70258

 Excited State   7:      Singlet-A2    11.4413 eV  108.37 nm  f=0.0000  <S**2>=0.000
       5 -> 10         0.70639

 Excited State   8:      Singlet-B1    12.1416 eV  102.12 nm  f=0.0509  <S**2>=0.000
       4 ->  8         0.20020
       5 -> 11         0.67614

 Excited State   9:      Singlet-B1    12.2900 eV  100.88 nm  f=0.0004  <S**2>=0.000
       4 ->  8         0.67769
       5 -> 11        -0.19862

 Excited State  10:      Singlet-A1    12.6583 eV   97.95 nm  f=0.0340  <S**2>=0.000
       3 ->  7        -0.11651
       4 ->  9         0.67060
       5 ->  8         0.11557
       5 -> 14         0.10475

 Excited State  11:      Singlet-B2    13.1716 eV   94.13 nm  f=0.0117  <S**2>=0.000
       3 ->  6         0.56404
       5 -> 12        -0.42562

 Excited State  12:      Singlet-B2    13.1968 eV   93.95 nm  f=0.0852  <S**2>=0.000
       3 ->  6         0.37712
       4 -> 10        -0.33282
       5 -> 12         0.49578

 Excited State  13:      Singlet-B1    13.6608 eV   90.76 nm  f=0.0706  <S**2>=0.000
       5 -> 13         0.70388

 Excited State  14:      Singlet-B2    13.7661 eV   90.06 nm  f=0.3318  <S**2>=0.000
       3 ->  6         0.18926
       4 -> 10         0.61399
       5 -> 12         0.26351

 Excited State  15:      Singlet-A1    14.0407 eV   88.30 nm  f=0.0750  <S**2>=0.000
       4 -> 11         0.69300
       5 -> 14         0.11314

 Excited State  16:      Singlet-A1    14.4785 eV   85.63 nm  f=0.0247  <S**2>=0.000
       3 ->  7         0.22906
       4 -> 13         0.13919
       5 -> 14         0.64626

 Excited State  17:      Singlet-A2    15.1608 eV   81.78 nm  f=0.0000  <S**2>=0.000
       4 -> 12         0.70655

 Excited State  18:      Singlet-A1    15.3054 eV   81.01 nm  f=0.0011  <S**2>=0.000
       3 ->  7         0.52204
       4 -> 13        -0.46239

 Excited State  19:      Singlet-A2    16.3206 eV   75.97 nm  f=0.0000  <S**2>=0.000
       3 ->  8         0.69389
       5 -> 16        -0.13536

 Excited State  20:      Singlet-B1    16.3747 eV   75.72 nm  f=0.0146  <S**2>=0.000
       4 -> 14         0.61433
       5 -> 15         0.34447

 Excited State  21:      Singlet-B2    16.4348 eV   75.44 nm  f=0.0324  <S**2>=0.000
       3 ->  9         0.70478

 Excited State  22:      Singlet-A1    16.5675 eV   74.84 nm  f=0.0491  <S**2>=0.000
       3 ->  7         0.32043
       3 -> 10         0.35499
       4 ->  9         0.11308
       4 -> 13         0.44889
       5 -> 14        -0.17165

 Excited State  23:      Singlet-A2    16.6218 eV   74.59 nm  f=0.0000  <S**2>=0.000
       3 ->  8         0.13496
       5 -> 16         0.69180

 Excited State  24:      Singlet-B1    16.6348 eV   74.53 nm  f=0.1979  <S**2>=0.000
       4 -> 14        -0.34213
       5 -> 15         0.61578

 Excited State  25:      Singlet-A2    17.5918 eV   70.48 nm  f=0.0000  <S**2>=0.000
       5 -> 17         0.70523

 Excited State  26:      Singlet-A1    18.1381 eV   68.36 nm  f=0.2103  <S**2>=0.000
       3 ->  7        -0.15343
       3 -> 10         0.51295
       3 -> 16         0.11587
       4 -> 13        -0.17611
       4 -> 15         0.37311
       5 -> 14         0.10166

 Excited State  27:      Singlet-B2    18.3431 eV   67.59 nm  f=0.1867  <S**2>=0.000
       3 -> 11         0.63280
       4 -> 16        -0.27706

 Excited State  28:      Singlet-A1    18.3879 eV   67.43 nm  f=0.0988  <S**2>=0.000
       3 ->  7         0.10834
       3 -> 10        -0.31015
       4 -> 13         0.12302
       4 -> 15         0.59934

 Excited State  29:      Singlet-B2    18.5658 eV   66.78 nm  f=0.0265  <S**2>=0.000
       3 -> 11         0.23446
       4 -> 16         0.63339
       4 -> 17        -0.17986

 Excited State  30:      Singlet-B1    19.3086 eV   64.21 nm  f=0.1067  <S**2>=0.000
       3 -> 12         0.70036

 Excited State  31:      Singlet-B2    19.5829 eV   63.31 nm  f=0.0007  <S**2>=0.000
       3 -> 13         0.56829
       4 -> 17        -0.41521

 Excited State  32:      Singlet-B2    19.8184 eV   62.56 nm  f=0.0277  <S**2>=0.000
       3 -> 11         0.15926
       3 -> 13         0.40294
       4 -> 16         0.12120
       4 -> 17         0.52599

 Excited State  33:      Singlet-A2    20.3504 eV   60.92 nm  f=0.0000  <S**2>=0.000
       3 -> 14         0.70557

 Excited State  34:      Singlet-A2    20.8207 eV   59.55 nm  f=0.0000  <S**2>=0.000
       5 -> 18         0.70561

 Excited State  35:      Singlet-B1    21.6563 eV   57.25 nm  f=0.2072  <S**2>=0.000
       4 -> 20        -0.13696
       5 -> 19         0.68447

 Excited State  36:      Singlet-A1    22.3736 eV   55.42 nm  f=0.0853  <S**2>=0.000
       3 -> 16         0.11408
       4 -> 19         0.17057
       4 -> 21         0.10007
       5 -> 20         0.65767

 Excited State  37:      Singlet-B2    22.4900 eV   55.13 nm  f=0.0213  <S**2>=0.000
       3 -> 15         0.69430
       4 -> 18         0.10980

 Excited State  38:      Singlet-B2    22.8698 eV   54.21 nm  f=0.0082  <S**2>=0.000
       4 -> 18         0.56146
       5 -> 22        -0.41901

 Excited State  39:      Singlet-A1    22.8791 eV   54.19 nm  f=0.0013  <S**2>=0.000
       3 -> 16         0.51088
       3 -> 17        -0.30899
       4 -> 19        -0.35856

 Excited State  40:      Singlet-B1    23.0127 eV   53.88 nm  f=0.0010  <S**2>=0.000
       5 -> 21         0.70462

 Excited State  41:      Singlet-A1    23.1222 eV   53.62 nm  f=0.0382  <S**2>=0.000
       2 ->  6        -0.12737
       3 -> 16         0.25464
       3 -> 17        -0.18373
       4 -> 19         0.58060
       5 -> 20        -0.18868

 Excited State  42:      Singlet-B2    23.9154 eV   51.84 nm  f=0.3503  <S**2>=0.000
       3 -> 19        -0.12137
       4 -> 18         0.38402
       5 -> 22         0.54976

 Excited State  43:      Singlet-A1    24.0671 eV   51.52 nm  f=0.0135  <S**2>=0.000
       2 ->  6        -0.34334
       3 -> 16         0.25335
       3 -> 17         0.53354
       4 -> 21         0.11439

 Excited State  44:      Singlet-B1    24.3705 eV   50.87 nm  f=0.2702  <S**2>=0.000
       4 -> 20         0.68760
       5 -> 19         0.12564

 Excited State  45:      Singlet-A2    25.0197 eV   49.55 nm  f=0.0000  <S**2>=0.000
       4 -> 22         0.70689

 Excited State  46:      Singlet-A1    25.2698 eV   49.06 nm  f=0.3185  <S**2>=0.000
       2 ->  6        -0.28363
       3 -> 16        -0.12873
       3 -> 17        -0.19370
       3 -> 18        -0.15476
       4 -> 21         0.56945

 Excited State  47:      Singlet-A1    25.9198 eV   47.83 nm  f=0.0001  <S**2>=0.000
       2 ->  6         0.48973
       3 -> 16         0.20489
       3 -> 17         0.14748
       3 -> 18        -0.18805
       4 -> 21         0.31726
       5 -> 20        -0.11186

 Excited State  48:      Singlet-B2    26.7666 eV   46.32 nm  f=0.0336  <S**2>=0.000
       2 ->  7         0.68576
       3 -> 19         0.13280

 Excited State  49:      Singlet-B2    27.4150 eV   45.23 nm  f=0.0878  <S**2>=0.000
       2 ->  7        -0.11071
       3 -> 19         0.66107
       3 -> 21         0.19350

 Excited State  50:      Singlet-A1    27.6628 eV   44.82 nm  f=0.2688  <S**2>=0.000
       2 ->  9         0.30645
       3 -> 18         0.58820
       4 -> 21         0.17342

 Excited State  51:      Singlet-B1    28.0427 eV   44.21 nm  f=0.0126  <S**2>=0.000
       2 ->  8         0.69401
       3 -> 22         0.11708

 Excited State  52:      Singlet-A2    28.0624 eV   44.18 nm  f=0.0000  <S**2>=0.000
       3 -> 20         0.70694

 Excited State  53:      Singlet-A1    28.1512 eV   44.04 nm  f=0.0590  <S**2>=0.000
       2 ->  9         0.63114
       3 -> 18        -0.28090

 Excited State  54:      Singlet-B2    29.1755 eV   42.50 nm  f=0.0178  <S**2>=0.000
       2 -> 10         0.70022

 Excited State  55:      Singlet-B1    29.6429 eV   41.83 nm  f=0.2416  <S**2>=0.000
       2 ->  8        -0.10526
       3 -> 22         0.68841

 Excited State  56:      Singlet-B2    29.7928 eV   41.62 nm  f=0.2842  <S**2>=0.000
       3 -> 19        -0.15640
       3 -> 21         0.66721

 Excited State  57:      Singlet-A1    29.8639 eV   41.52 nm  f=0.0049  <S**2>=0.000
       2 -> 11         0.68855
       2 -> 13        -0.12034

 Excited State  58:      Singlet-A2    30.8366 eV   40.21 nm  f=0.0000  <S**2>=0.000
       2 -> 12         0.70694

 Excited State  59:      Singlet-B1    31.0101 eV   39.98 nm  f=0.0041  <S**2>=0.000
       5 -> 23         0.69469

 Excited State  60:      Singlet-A1    31.4820 eV   39.38 nm  f=0.0154  <S**2>=0.000
       2 -> 13         0.68024
       2 -> 15        -0.10900

 Excited State  61:      Singlet-B1    32.0318 eV   38.71 nm  f=0.0112  <S**2>=0.000
       2 -> 14         0.69983

 Excited State  62:      Singlet-A1    33.1741 eV   37.37 nm  f=0.0147  <S**2>=0.000
       2 -> 15        -0.22352
       4 -> 23         0.66008

 Excited State  63:      Singlet-A2    33.8425 eV   36.64 nm  f=0.0000  <S**2>=0.000
       5 -> 24         0.70683

 Excited State  64:      Singlet-B2    34.3691 eV   36.07 nm  f=0.0182  <S**2>=0.000
       2 -> 16         0.67387
       2 -> 17        -0.18935

 Excited State  65:      Singlet-A1    34.6130 eV   35.82 nm  f=0.0169  <S**2>=0.000
       2 -> 15         0.63754
       4 -> 23         0.17911
       5 -> 25         0.16934

 Excited State  66:      Singlet-B2    35.3502 eV   35.07 nm  f=0.0111  <S**2>=0.000
       2 -> 16         0.16728
       2 -> 17         0.66860
       3 -> 23        -0.12353

 Excited State  67:      Singlet-B2    35.9845 eV   34.45 nm  f=0.0016  <S**2>=0.000
       2 -> 16        -0.10078
       3 -> 23        -0.13001
       4 -> 24         0.68021

 Excited State  68:      Singlet-B2    37.6148 eV   32.96 nm  f=0.0509  <S**2>=0.000
       2 -> 18         0.28211
       3 -> 23         0.62513
       4 -> 24         0.12199

 Excited State  69:      Singlet-B1    38.7473 eV   32.00 nm  f=0.0056  <S**2>=0.000
       4 -> 25        -0.11489
       5 -> 26         0.69462

 Excited State  70:      Singlet-A1    38.8074 eV   31.95 nm  f=0.0023  <S**2>=0.000
       2 -> 19         0.69986

 Excited State  71:      Singlet-B2    38.9190 eV   31.86 nm  f=0.0086  <S**2>=0.000
       2 -> 18         0.64549
       3 -> 23        -0.25732

 Excited State  72:      Singlet-A1    39.2850 eV   31.56 nm  f=0.0069  <S**2>=0.000
       3 -> 24         0.31489
       4 -> 26        -0.30144
       5 -> 25         0.54889

 Excited State  73:      Singlet-B1    39.8341 eV   31.13 nm  f=0.0002  <S**2>=0.000
       2 -> 20         0.65953
       4 -> 25         0.25312

 Excited State  74:      Singlet-B1    40.1999 eV   30.84 nm  f=0.0039  <S**2>=0.000
       2 -> 20        -0.24474
       4 -> 25         0.64952
       5 -> 26         0.12862

 Excited State  75:      Singlet-A1    40.5450 eV   30.58 nm  f=0.0341  <S**2>=0.000
       2 -> 21        -0.13694
       3 -> 24         0.54229
       4 -> 26         0.41225

 Excited State  76:      Singlet-A2    40.8691 eV   30.34 nm  f=0.0000  <S**2>=0.000
       2 -> 22         0.70656

 Excited State  77:      Singlet-A1    40.9243 eV   30.30 nm  f=0.0007  <S**2>=0.000
       2 -> 21         0.68936
       3 -> 24         0.11195

 Excited State  78:      Singlet-A2    44.0206 eV   28.17 nm  f=0.0000  <S**2>=0.000
       3 -> 25         0.70684

 Excited State  79:      Singlet-B2    44.8023 eV   27.67 nm  f=0.0606  <S**2>=0.000
       3 -> 26         0.70340

 Excited State  80:      Singlet-A1    46.3735 eV   26.74 nm  f=0.0023  <S**2>=0.000
       2 -> 23        -0.35087
       3 -> 24        -0.21373
       3 -> 27         0.13489
       4 -> 26         0.41733
       5 -> 25         0.30541

 Excited State  81:      Singlet-A2    47.0042 eV   26.38 nm  f=0.0000  <S**2>=0.000
       5 -> 27         0.70671

 Excited State  82:      Singlet-B2    49.1026 eV   25.25 nm  f=0.0404  <S**2>=0.000
       4 -> 27         0.68721
       5 -> 29         0.15375

 Excited State  83:      Singlet-A1    50.1759 eV   24.71 nm  f=0.1062  <S**2>=0.000
       2 -> 23         0.59042
       3 -> 24        -0.13046
       3 -> 27         0.23584
       4 -> 26         0.15548
       5 -> 25         0.15880

 Excited State  84:      Singlet-B1    50.2969 eV   24.65 nm  f=0.0800  <S**2>=0.000
       5 -> 28         0.70196

 Excited State  85:      Singlet-B2    51.4064 eV   24.12 nm  f=0.0528  <S**2>=0.000
       2 -> 24         0.28946
       4 -> 27        -0.11630
       5 -> 29         0.62643

 Excited State  86:      Singlet-A1    52.0172 eV   23.84 nm  f=0.0116  <S**2>=0.000
       3 -> 27         0.14642
       4 -> 28         0.68583

 Excited State  87:      Singlet-B2    52.0461 eV   23.82 nm  f=0.1432  <S**2>=0.000
       2 -> 24         0.64063
       5 -> 29        -0.27214

 Excited State  88:      Singlet-A2    52.7837 eV   23.49 nm  f=0.0000  <S**2>=0.000
       4 -> 29         0.70655

 Excited State  89:      Singlet-A1    54.8289 eV   22.61 nm  f=0.0112  <S**2>=0.000
       2 -> 23        -0.12280
       2 -> 26         0.27378
       3 -> 27         0.51216
       5 -> 25        -0.10739
       5 -> 30         0.31067

 Excited State  90:      Singlet-A1    55.5728 eV   22.31 nm  f=0.0429  <S**2>=0.000
       2 -> 26        -0.12006
       3 -> 27        -0.27098
       4 -> 32        -0.11209
       5 -> 30         0.62521

 Excited State  91:      Singlet-B1    56.1506 eV   22.08 nm  f=0.1404  <S**2>=0.000
       2 -> 25         0.69745

 Excited State  92:      Singlet-B2    56.3972 eV   21.98 nm  f=0.0103  <S**2>=0.000
       3 -> 28         0.69961

 Excited State  93:      Singlet-B1    56.9122 eV   21.79 nm  f=0.0000  <S**2>=0.000
       3 -> 29        -0.38141
       4 -> 30         0.59189

 Excited State  94:      Singlet-A1    57.1361 eV   21.70 nm  f=0.1182  <S**2>=0.000
       2 -> 26         0.63166
       3 -> 27        -0.22658
       4 -> 28         0.10762

 Excited State  95:      Singlet-B1    57.7727 eV   21.46 nm  f=0.1654  <S**2>=0.000
       3 -> 29         0.48739
       4 -> 30         0.31552
       5 -> 32         0.39702

 Excited State  96:      Singlet-A2    58.1902 eV   21.31 nm  f=0.0000  <S**2>=0.000
       5 -> 31         0.70566

 Excited State  97:      Singlet-B1    58.7584 eV   21.10 nm  f=0.2196  <S**2>=0.000
       3 -> 29        -0.32195
       4 -> 30        -0.21552
       5 -> 32         0.58373

 Excited State  98:      Singlet-B2    60.2615 eV   20.57 nm  f=0.0155  <S**2>=0.000
       4 -> 31         0.70340

 Excited State  99:      Singlet-A1    61.1131 eV   20.29 nm  f=0.2271  <S**2>=0.000
       4 -> 32         0.68940

 Excited State 100:      Singlet-A2    61.2284 eV   20.25 nm  f=0.0000  <S**2>=0.000
       3 -> 30         0.70322

 Excited State 101:      Singlet-A1    64.5801 eV   19.20 nm  f=0.0010  <S**2>=0.000
       2 -> 28         0.11842
       3 -> 31         0.69360

 Excited State 102:      Singlet-B2    64.7896 eV   19.14 nm  f=0.0196  <S**2>=0.000
       2 -> 27        -0.30875
       3 -> 32         0.62874

 Excited State 103:      Singlet-B2    65.2395 eV   19.00 nm  f=0.1291  <S**2>=0.000
       2 -> 27         0.63173
       3 -> 32         0.31040

 Excited State 104:      Singlet-A2    66.4157 eV   18.67 nm  f=0.0000  <S**2>=0.000
       5 -> 33         0.70344

 Excited State 105:      Singlet-A2    68.9470 eV   17.98 nm  f=0.0000  <S**2>=0.000
       2 -> 29         0.70234

 Excited State 106:      Singlet-B2    69.0311 eV   17.96 nm  f=0.0100  <S**2>=0.000
       4 -> 33         0.69863

 Excited State 107:      Singlet-A1    69.8608 eV   17.75 nm  f=0.0036  <S**2>=0.000
       2 -> 28         0.65099
       3 -> 31        -0.11176
       3 -> 33        -0.16051
       4 -> 34        -0.11143

 Excited State 108:      Singlet-B1    71.5026 eV   17.34 nm  f=0.1305  <S**2>=0.000
       5 -> 34         0.69401

 Excited State 109:      Singlet-A1    71.9070 eV   17.24 nm  f=0.0069  <S**2>=0.000
       3 -> 33        -0.24123
       4 -> 34         0.66234

 Excited State 110:      Singlet-B1    72.9085 eV   17.01 nm  f=0.0496  <S**2>=0.000
       2 -> 30         0.70107

 Excited State 111:      Singlet-A1    74.2584 eV   16.70 nm  f=0.0307  <S**2>=0.000
       2 -> 28         0.16958
       3 -> 33         0.63195
       4 -> 34         0.21531

 Excited State 112:      Singlet-B2    75.7785 eV   16.36 nm  f=0.0007  <S**2>=0.000
       2 -> 31         0.68078
       3 -> 34         0.18980

 Excited State 113:      Singlet-B2    76.4908 eV   16.21 nm  f=0.0107  <S**2>=0.000
       2 -> 31        -0.18993
       3 -> 34         0.67296

 Excited State 114:      Singlet-A1    76.5919 eV   16.19 nm  f=0.0050  <S**2>=0.000
       2 -> 32         0.70063

 Excited State 115:      Singlet-B2    84.7861 eV   14.62 nm  f=0.0255  <S**2>=0.000
       2 -> 33         0.70277

 Excited State 116:      Singlet-A1    88.5665 eV   14.00 nm  f=0.0962  <S**2>=0.000
       2 -> 34        -0.27471
       4 -> 37        -0.18983
       5 -> 35         0.62032

 Excited State 117:      Singlet-A1    88.7721 eV   13.97 nm  f=0.0788  <S**2>=0.000
       2 -> 34         0.64728
       5 -> 35         0.25624

 Excited State 118:      Singlet-B1    90.0425 eV   13.77 nm  f=0.0850  <S**2>=0.000
       3 -> 36        -0.19278
       4 -> 35         0.66130
       5 -> 37         0.14199

 Excited State 119:      Singlet-A2    90.3136 eV   13.73 nm  f=0.0000  <S**2>=0.000
       4 -> 36         0.70593

 Excited State 120:      Singlet-B2    90.5059 eV   13.70 nm  f=0.2025  <S**2>=0.000
       3 -> 37         0.13106
       5 -> 36         0.68706

 Excited State 121:      Singlet-B1    92.1762 eV   13.45 nm  f=0.0122  <S**2>=0.000
       3 -> 36         0.18887
       5 -> 37         0.67513

 Excited State 122:      Singlet-A2    92.4075 eV   13.42 nm  f=0.0000  <S**2>=0.000
       3 -> 35         0.70656

 Excited State 123:      Singlet-B1    96.3562 eV   12.87 nm  f=0.1925  <S**2>=0.000
       3 -> 36         0.63550
       4 -> 35         0.19641
       5 -> 37        -0.14384
       5 -> 38         0.17976

 Excited State 124:      Singlet-A1    97.1216 eV   12.77 nm  f=0.2995  <S**2>=0.000
       4 -> 37         0.67114
       5 -> 35         0.20137

 Excited State 125:      Singlet-B2    98.9002 eV   12.54 nm  f=0.0775  <S**2>=0.000
       3 -> 37         0.69082
       5 -> 36        -0.11906

 Excited State 126:      Singlet-B1   105.2148 eV   11.78 nm  f=0.0187  <S**2>=0.000
       2 -> 35         0.64834
       5 -> 38        -0.27496

 Excited State 127:      Singlet-A1   106.0630 eV   11.69 nm  f=0.0078  <S**2>=0.000
       4 -> 38         0.70458

 Excited State 128:      Singlet-B1   106.2636 eV   11.67 nm  f=0.3058  <S**2>=0.000
       2 -> 35         0.28039
       3 -> 36        -0.13760
       5 -> 38         0.62174

 Excited State 129:      Singlet-A2   106.8309 eV   11.61 nm  f=0.0000  <S**2>=0.000
       2 -> 36         0.70598

 Excited State 130:      Singlet-B2   110.5413 eV   11.22 nm  f=0.0534  <S**2>=0.000
       3 -> 38         0.69349
       4 -> 39         0.12056

 Excited State 131:      Singlet-A1   110.6353 eV   11.21 nm  f=0.0079  <S**2>=0.000
       2 -> 37         0.70504

 Excited State 132:      Singlet-A2   114.5827 eV   10.82 nm  f=0.0000  <S**2>=0.000
       5 -> 39         0.70675

 Excited State 133:      Singlet-B2   118.2197 eV   10.49 nm  f=0.1707  <S**2>=0.000
       3 -> 38        -0.11314
       4 -> 39         0.69362

 Excited State 134:      Singlet-A1   121.9188 eV   10.17 nm  f=0.1091  <S**2>=0.000
       2 -> 38        -0.13529
       3 -> 39         0.69013

 Excited State 135:      Singlet-A1   122.0234 eV   10.16 nm  f=0.0012  <S**2>=0.000
       2 -> 38         0.69361
       3 -> 39         0.13503

 Excited State 136:      Singlet-B2   132.8237 eV    9.33 nm  f=0.0020  <S**2>=0.000
       2 -> 39         0.70694

 The electronic state is 1-A1.
 Alpha  occ. eigenvalues --  -18.61945  -0.91462  -0.49204  -0.34308  -0.27298
 Alpha virt. eigenvalues --   -0.01637   0.05502   0.10724   0.11025   0.14918
 Alpha virt. eigenvalues --    0.17346   0.21712   0.22796   0.25731   0.32934
 Alpha virt. eigenvalues --    0.33718   0.37571   0.49426   0.50295   0.54031

 Mulliken charges:
               1
     1  O   -0.264631
     2  H    0.132315
     3  H    0.132315
 Sum of Mulliken charges =   0.00000

 Dipole moment (field-independent basis, Debye):
    X=             -0.0000    Y=             -0.0000    Z=             -1.8769  Tot=              1.8769
 Quadrupole moment (field-independent basis, Debye-Ang):
   XX=             -7.9502   YY=             -4.5858   ZZ=             -6.6359
   XY=              0.0000   XZ=              0.0000   YZ=              0.0000

 Normal termination of Gaussian 16 at Mon Mar 21 20:05:44 2022.
