 Gaussian 16, Revision C.01,
 Gaussian 16:  EM64L-G16RevC.01  3-Jul-2019

 ---------------------------------------------------------------------
 #P TD(Nstates=10000) svwn5/Gen SCF(maxcycles=100) Int(Grid=ultrafine)
 ---------------------------------------------------------------------

 ---------------------
 xGDB7_00001_tier4.com
 ---------------------
 Symbolic Z-matrix:
 Charge =  0 Multiplicity = 1

                         Standard orientation:
 ---------------------------------------------------------------------
 Center     Atomic      Atomic             Coordinates (Angstroms)
 Number     Number       Type             X           Y           Z
 ---------------------------------------------------------------------
      1          6           0        0.000000    1.267731   -0.259082
      2          6           0       -0.000000   -0.000000    0.585552
      3          6           0       -0.000000   -1.267731   -0.259082
      4          1           0        0.000000    2.164308    0.363087
      5          1           0       -0.881453    1.307675   -0.903652
      6          1           0        0.881453    1.307675   -0.903652
      7          1           0       -0.874532    0.000000    1.242055
      8          1           0        0.874532   -0.000000    1.242055
      9          1           0       -0.881453   -1.307675   -0.903652
     10          1           0       -0.000000   -2.164308    0.363087
     11          1           0        0.881453   -1.307675   -0.903652
 ---------------------------------------------------------------------

 SCF Done:  E(RS-VWN5) =  -117.901137238     A.U. after   12 cycles

 Excitation energies and oscillator strengths:

 Excited State   1:      Singlet-B1     7.8624 eV  157.69 nm  f=0.0038  <S**2>=0.000
      13 -> 14         0.70675
 This state for optimization and/or second-order correction.
 Total Energy, E(TD-HF/TD-DFT) =  -117.612201053
 Copying the excited state density for this state as the 1-particle RhoCI density.

 Excited State   2:      Singlet-A1     8.3106 eV  149.19 nm  f=0.0069  <S**2>=0.000
      12 -> 14         0.70417

 Excited State   3:      Singlet-B2     8.3507 eV  148.47 nm  f=0.0450  <S**2>=0.000
      11 -> 14         0.70617

 Excited State   4:      Singlet-A2     8.7204 eV  142.18 nm  f=0.0000  <S**2>=0.000
      13 -> 15         0.70634

 Excited State   5:      Singlet-B1     8.9329 eV  138.80 nm  f=0.0784  <S**2>=0.000
      13 -> 16         0.70571

 Excited State   6:      Singlet-B2     9.1177 eV  135.98 nm  f=0.0241  <S**2>=0.000
      12 -> 15         0.70563

 Excited State   7:      Singlet-A1     9.2434 eV  134.13 nm  f=0.0028  <S**2>=0.000
      11 -> 15         0.70127

 Excited State   8:      Singlet-A1     9.2696 eV  133.75 nm  f=0.0557  <S**2>=0.000
      12 -> 16         0.65566
      13 -> 17        -0.26219

 Excited State   9:      Singlet-A2     9.3089 eV  133.19 nm  f=0.0000  <S**2>=0.000
      10 -> 14         0.70622

 Excited State  10:      Singlet-B2     9.3892 eV  132.05 nm  f=0.0080  <S**2>=0.000
      11 -> 16         0.70314

 Excited State  11:      Singlet-A1     9.5020 eV  130.48 nm  f=0.2040  <S**2>=0.000
      12 -> 16         0.25883
      13 -> 17         0.64943

 Excited State  12:      Singlet-B1     9.7355 eV  127.35 nm  f=0.0057  <S**2>=0.000
      12 -> 17         0.24008
      13 -> 18         0.66388

 Excited State  13:      Singlet-B1     9.7920 eV  126.62 nm  f=0.0699  <S**2>=0.000
      12 -> 17         0.65751
      13 -> 18        -0.23929

 Excited State  14:      Singlet-A2     9.8364 eV  126.05 nm  f=0.0000  <S**2>=0.000
      11 -> 17         0.70574

 Excited State  15:      Singlet-B2     9.9550 eV  124.54 nm  f=0.0118  <S**2>=0.000
       9 -> 14         0.69768

 Excited State  16:      Singlet-A1    10.1661 eV  121.96 nm  f=0.0035  <S**2>=0.000
      12 -> 18         0.70078

 Excited State  17:      Singlet-B1    10.1934 eV  121.63 nm  f=0.0790  <S**2>=0.000
      10 -> 15         0.69701

 Excited State  18:      Singlet-B2    10.2759 eV  120.66 nm  f=0.1623  <S**2>=0.000
      11 -> 18         0.69482

 Excited State  19:      Singlet-A2    10.3424 eV  119.88 nm  f=0.0000  <S**2>=0.000
      10 -> 16         0.70518

 Excited State  20:      Singlet-A1    10.3923 eV  119.30 nm  f=0.0003  <S**2>=0.000
      13 -> 19         0.68528

 Excited State  21:      Singlet-B1    10.4684 eV  118.44 nm  f=0.0104  <S**2>=0.000
      13 -> 20         0.69109

 Excited State  22:      Singlet-A2    10.6152 eV  116.80 nm  f=0.0000  <S**2>=0.000
      13 -> 21         0.69899

 Excited State  23:      Singlet-B1    10.6322 eV  116.61 nm  f=0.0035  <S**2>=0.000
      12 -> 19         0.70192

 Excited State  24:      Singlet-A2    10.7352 eV  115.49 nm  f=0.0000  <S**2>=0.000
      11 -> 19         0.69629

 Excited State  25:      Singlet-A1    10.7951 eV  114.85 nm  f=0.0874  <S**2>=0.000
       9 -> 15         0.69993

 Excited State  26:      Singlet-B2    10.8369 eV  114.41 nm  f=0.0000  <S**2>=0.000
       9 -> 16        -0.26337
      10 -> 17         0.62352
      12 -> 21        -0.10976
      13 -> 22         0.13912

 Excited State  27:      Singlet-B2    10.9088 eV  113.66 nm  f=0.0561  <S**2>=0.000
       9 -> 16        -0.16851
      11 -> 20         0.65023
      12 -> 21         0.17722
      13 -> 22        -0.10326

 Excited State  28:      Singlet-A1    10.9232 eV  113.51 nm  f=0.0241  <S**2>=0.000
       8 -> 14         0.64987
      11 -> 21         0.10435
      12 -> 20         0.22539

 Excited State  29:      Singlet-A1    10.9271 eV  113.46 nm  f=0.0201  <S**2>=0.000
       8 -> 14        -0.22317
      12 -> 20         0.65237

 Excited State  30:      Singlet-B2    10.9323 eV  113.41 nm  f=0.0031  <S**2>=0.000
       9 -> 16         0.54447
      10 -> 17         0.17519
      11 -> 20         0.21871
      12 -> 21        -0.33358

 Excited State  31:      Singlet-B2    11.0207 eV  112.50 nm  f=0.0111  <S**2>=0.000
       9 -> 16         0.21552
      12 -> 21         0.48284
      13 -> 22         0.43699
      13 -> 23        -0.13920

 Excited State  32:      Singlet-A1    11.1931 eV  110.77 nm  f=0.0429  <S**2>=0.000
       8 -> 14        -0.11858
      11 -> 21         0.68063

 Excited State  33:      Singlet-B2    11.2044 eV  110.66 nm  f=0.2930  <S**2>=0.000
       9 -> 16        -0.22350
      10 -> 17        -0.23336
      11 -> 20         0.11900
      12 -> 21        -0.31695
      13 -> 22         0.47554
      13 -> 23        -0.14270

 Excited State  34:      Singlet-A2    11.2178 eV  110.52 nm  f=0.0000  <S**2>=0.000
      10 -> 18         0.65780
      12 -> 22        -0.22309

 Excited State  35:      Singlet-B2    11.3650 eV  109.09 nm  f=0.0233  <S**2>=0.000
      13 -> 22         0.19588
      13 -> 23         0.66228

 Excited State  36:      Singlet-A2    11.3683 eV  109.06 nm  f=0.0000  <S**2>=0.000
       9 -> 17         0.64228
      12 -> 22         0.29221

 Excited State  37:      Singlet-B1    11.4211 eV  108.56 nm  f=0.1149  <S**2>=0.000
       7 -> 14         0.67179
      13 -> 24        -0.20205

 Excited State  38:      Singlet-A2    11.4661 eV  108.13 nm  f=0.0000  <S**2>=0.000
       9 -> 17        -0.27198
      10 -> 18         0.19419
      12 -> 22         0.56431
      12 -> 23        -0.22343

 Excited State  39:      Singlet-B1    11.5013 eV  107.80 nm  f=0.0013  <S**2>=0.000
      11 -> 22         0.64290
      13 -> 24        -0.26546

 Excited State  40:      Singlet-B1    11.5458 eV  107.38 nm  f=0.0218  <S**2>=0.000
       7 -> 14         0.17977
      11 -> 22         0.27935
      13 -> 24         0.62041

 Excited State  41:      Singlet-A2    11.6687 eV  106.25 nm  f=0.0000  <S**2>=0.000
      12 -> 23         0.55345
      13 -> 25        -0.41846

 Excited State  42:      Singlet-B1    11.7192 eV  105.80 nm  f=0.0262  <S**2>=0.000
      11 -> 23         0.69904

 Excited State  43:      Singlet-A2    11.7399 eV  105.61 nm  f=0.0000  <S**2>=0.000
      10 -> 18         0.10221
      10 -> 20         0.18949
      12 -> 22         0.16097
      12 -> 23         0.34907
      13 -> 25         0.54130

 Excited State  44:      Singlet-B2    11.7512 eV  105.51 nm  f=0.0871  <S**2>=0.000
       8 -> 15         0.53460
       9 -> 18         0.17522
      10 -> 19         0.41060

 Excited State  45:      Singlet-B2    11.7851 eV  105.20 nm  f=0.0169  <S**2>=0.000
       9 -> 18         0.62145
      10 -> 19        -0.31659

 Excited State  46:      Singlet-A2    11.8517 eV  104.61 nm  f=0.0000  <S**2>=0.000
      10 -> 20         0.68013
      12 -> 23        -0.11419
      13 -> 25        -0.13238

 Excited State  47:      Singlet-B2    11.8820 eV  104.35 nm  f=0.0329  <S**2>=0.000
       8 -> 15        -0.42756
       9 -> 18         0.24262
       9 -> 20        -0.15719
      10 -> 19         0.43179
      11 -> 24        -0.13862

 Excited State  48:      Singlet-A1    11.9151 eV  104.06 nm  f=0.0200  <S**2>=0.000
       8 -> 16         0.67723
      12 -> 24        -0.18019

 Excited State  49:      Singlet-A1    11.9565 eV  103.70 nm  f=0.0125  <S**2>=0.000
       8 -> 16         0.14186
      11 -> 25        -0.26105
      12 -> 24         0.62684

 Excited State  50:      Singlet-B1    12.0883 eV  102.57 nm  f=0.0320  <S**2>=0.000
      10 -> 21         0.70008

 Excited State  51:      Singlet-B2    12.0916 eV  102.54 nm  f=0.0074  <S**2>=0.000
      11 -> 24         0.61701
      12 -> 25        -0.29198

 Excited State  52:      Singlet-B2    12.1505 eV  102.04 nm  f=0.0944  <S**2>=0.000
      11 -> 24         0.28310
      12 -> 25         0.62589

 Excited State  53:      Singlet-A2    12.2375 eV  101.31 nm  f=0.0000  <S**2>=0.000
       7 -> 15         0.69652
      13 -> 26        -0.11399

 Excited State  54:      Singlet-A1    12.2550 eV  101.17 nm  f=0.0003  <S**2>=0.000
       8 -> 18         0.12075
       9 -> 21         0.13333
      10 -> 22        -0.14555
      11 -> 25         0.60418
      12 -> 24         0.18024
      13 -> 27         0.16759

 Excited State  55:      Singlet-A2    12.2701 eV  101.05 nm  f=0.0000  <S**2>=0.000
       9 -> 19         0.68201
      13 -> 26        -0.17523

 Excited State  56:      Singlet-A2    12.3798 eV  100.15 nm  f=0.0000  <S**2>=0.000
       7 -> 15         0.10369
       9 -> 19         0.17255
      13 -> 26         0.66283

 Excited State  57:      Singlet-B1    12.3847 eV  100.11 nm  f=0.0009  <S**2>=0.000
       8 -> 17         0.69556

 Excited State  58:      Singlet-B1    12.4346 eV   99.71 nm  f=0.0002  <S**2>=0.000
       7 -> 16         0.70261

 Excited State  59:      Singlet-A1    12.4527 eV   99.56 nm  f=0.0121  <S**2>=0.000
       7 -> 17         0.14091
       8 -> 18        -0.11601
       9 -> 21        -0.22712
      10 -> 22        -0.15074
      10 -> 23        -0.11934
      13 -> 27         0.59479

 Excited State  60:      Singlet-B2    12.5488 eV   98.80 nm  f=0.0030  <S**2>=0.000
       9 -> 20         0.61401
      11 -> 28         0.11872
      12 -> 26        -0.29407

 Excited State  61:      Singlet-A1    12.6005 eV   98.40 nm  f=0.0306  <S**2>=0.000
       9 -> 21         0.31140
      10 -> 22         0.48534
      10 -> 23        -0.29635
      11 -> 26         0.10822
      13 -> 27         0.18355
      13 -> 29        -0.12758

 Excited State  62:      Singlet-B1    12.6910 eV   97.69 nm  f=0.0288  <S**2>=0.000
      12 -> 27        -0.45860
      13 -> 28         0.52018

 Excited State  63:      Singlet-A1    12.7009 eV   97.62 nm  f=0.0247  <S**2>=0.000
       7 -> 17         0.27813
       8 -> 18        -0.29226
       9 -> 21         0.47104
      10 -> 22        -0.23789
      13 -> 29         0.19978

 Excited State  64:      Singlet-A1    12.7596 eV   97.17 nm  f=0.0026  <S**2>=0.000
       7 -> 17         0.13932
       8 -> 18         0.45753
      10 -> 23        -0.37692
      11 -> 26        -0.26865
      13 -> 29         0.21600

 Excited State  65:      Singlet-B2    12.8180 eV   96.73 nm  f=0.0854  <S**2>=0.000
       9 -> 20         0.22250
      11 -> 28         0.24392
      12 -> 26         0.60344

 Excited State  66:      Singlet-A1    12.8288 eV   96.65 nm  f=0.0088  <S**2>=0.000
       7 -> 17         0.11911
       8 -> 18         0.13750
      10 -> 22        -0.16040
      10 -> 23        -0.20175
      11 -> 26         0.60073
      12 -> 28         0.11574
      13 -> 27        -0.10593

 Excited State  67:      Singlet-B1    12.8302 eV   96.63 nm  f=0.0248  <S**2>=0.000
       9 -> 22        -0.15883
      12 -> 27         0.50524
      12 -> 29        -0.21801
      13 -> 28         0.36949

 Excited State  68:      Singlet-A2    12.8627 eV   96.39 nm  f=0.0000  <S**2>=0.000
      11 -> 27         0.70042

 Excited State  69:      Singlet-A1    12.9181 eV   95.98 nm  f=0.0001  <S**2>=0.000
       7 -> 17         0.42437
       8 -> 18         0.23422
       9 -> 21         0.12077
      10 -> 23         0.29848
      12 -> 28         0.19143
      13 -> 29        -0.31199

 Excited State  70:      Singlet-A2    12.9813 eV   95.51 nm  f=0.0000  <S**2>=0.000
      10 -> 24         0.70344

 Excited State  71:      Singlet-A1    13.0259 eV   95.18 nm  f=0.0932  <S**2>=0.000
       7 -> 17        -0.16478
       8 -> 18        -0.14853
       8 -> 20        -0.15666
      10 -> 22        -0.14586
      10 -> 23        -0.19561
      11 -> 26        -0.15930
      12 -> 28         0.46411
      13 -> 29        -0.29920

 Excited State  72:      Singlet-B1    13.0681 eV   94.88 nm  f=0.0119  <S**2>=0.000
       7 -> 18         0.10880
       8 -> 19         0.10018
       9 -> 22         0.62627
      10 -> 25        -0.25300

 Excited State  73:      Singlet-A1    13.1628 eV   94.19 nm  f=0.0585  <S**2>=0.000
       8 -> 20         0.16918
       9 -> 25        -0.11220
      10 -> 22         0.12238
      10 -> 23         0.15704
      12 -> 28         0.46896
      13 -> 27         0.12529
      13 -> 29         0.39029

 Excited State  74:      Singlet-B1    13.1698 eV   94.14 nm  f=0.0073  <S**2>=0.000
       7 -> 18         0.24860
       9 -> 22         0.14504
      10 -> 25         0.59269
      12 -> 29        -0.23212

 Excited State  75:      Singlet-B1    13.2065 eV   93.88 nm  f=0.0020  <S**2>=0.000
       7 -> 18         0.37725
       9 -> 23        -0.21735
      12 -> 29         0.53689

 Excited State  76:      Singlet-A2    13.2160 eV   93.81 nm  f=0.0000  <S**2>=0.000
      11 -> 29         0.70475

 Excited State  77:      Singlet-B1    13.2428 eV   93.62 nm  f=0.0015  <S**2>=0.000
       7 -> 18        -0.39451
       8 -> 19         0.41901
       9 -> 23        -0.35620
      10 -> 25         0.13647
      12 -> 29         0.13732

 Excited State  78:      Singlet-B1    13.3046 eV   93.19 nm  f=0.0207  <S**2>=0.000
       7 -> 18         0.13861
       8 -> 19         0.49510
       9 -> 23         0.46676
      12 -> 29         0.11855

 Excited State  79:      Singlet-B2    13.3236 eV   93.06 nm  f=0.0697  <S**2>=0.000
       8 -> 21         0.10072
       9 -> 20        -0.13675
      11 -> 28         0.61151
      11 -> 31         0.12607
      12 -> 26        -0.12940
      12 -> 30        -0.18211

 Excited State  80:      Singlet-A1    13.4557 eV   92.14 nm  f=0.0410  <S**2>=0.000
       7 -> 17         0.18692
       7 -> 19        -0.11427
       8 -> 18        -0.14503
       8 -> 20         0.52775
       9 -> 21        -0.14382
       9 -> 25         0.16602
      10 -> 23        -0.15408
      11 -> 30        -0.14306
      13 -> 27        -0.10662

 Excited State  81:      Singlet-B1    13.5974 eV   91.18 nm  f=0.0618  <S**2>=0.000
       7 -> 18         0.19174
       7 -> 20         0.16503
       8 -> 19         0.15462
       9 -> 22        -0.14061
       9 -> 23        -0.21730
      10 -> 25        -0.15185
      10 -> 26         0.50493
      12 -> 29        -0.18181
      13 -> 28        -0.13603

 Excited State  82:      Singlet-B2    13.5977 eV   91.18 nm  f=0.0518  <S**2>=0.000
       8 -> 21        -0.24019
       9 -> 24         0.64617

 Excited State  83:      Singlet-A2    13.6822 eV   90.62 nm  f=0.0000  <S**2>=0.000
      13 -> 30         0.70171

 Excited State  84:      Singlet-B2    13.7340 eV   90.28 nm  f=0.0119  <S**2>=0.000
       8 -> 21         0.57058
       9 -> 24         0.20959
      10 -> 27         0.32994

 Excited State  85:      Singlet-A1    13.7740 eV   90.01 nm  f=0.0185  <S**2>=0.000
       7 -> 19         0.20816
       8 -> 20        -0.11263
       9 -> 25         0.63423
      11 -> 30         0.12241

 Excited State  86:      Singlet-A1    13.8864 eV   89.28 nm  f=0.1136  <S**2>=0.000
       6 -> 14        -0.17498
       7 -> 17        -0.14608
       7 -> 19         0.51511
       8 -> 20         0.27001
       9 -> 21         0.11194
      10 -> 22        -0.16753
      11 -> 30        -0.10311

 Excited State  87:      Singlet-B2    13.9602 eV   88.81 nm  f=0.0868  <S**2>=0.000
       8 -> 21        -0.26866
       9 -> 24        -0.11428
      10 -> 27         0.59133
      10 -> 29        -0.16387
      12 -> 30         0.10489

 Excited State  88:      Singlet-B1    13.9698 eV   88.75 nm  f=0.0155  <S**2>=0.000
       7 -> 20         0.62721
      10 -> 26        -0.28863

 Excited State  89:      Singlet-A1    14.0471 eV   88.26 nm  f=0.0153  <S**2>=0.000
       6 -> 16        -0.16460
       7 -> 17         0.24167
       7 -> 19         0.34448
       8 -> 18        -0.16870
       8 -> 20        -0.21504
       9 -> 21        -0.17762
       9 -> 25        -0.17617
       9 -> 26         0.14181
      10 -> 22         0.13707
      11 -> 25         0.13544
      11 -> 30        -0.12927
      12 -> 24         0.11859
      12 -> 31        -0.10017
      13 -> 27        -0.10734

 Excited State  90:      Singlet-A2    14.0483 eV   88.26 nm  f=0.0000  <S**2>=0.000
       7 -> 21         0.15425
       8 -> 22         0.67829

 Excited State  91:      Singlet-B1    14.1007 eV   87.93 nm  f=0.0918  <S**2>=0.000
      10 -> 26         0.10059
      13 -> 31         0.69347

 Excited State  92:      Singlet-A2    14.1309 eV   87.74 nm  f=0.0000  <S**2>=0.000
       7 -> 21         0.46530
       8 -> 22        -0.14728
       8 -> 23         0.21857
       9 -> 27        -0.11185
      10 -> 28         0.44083

 Excited State  93:      Singlet-A2    14.1459 eV   87.65 nm  f=0.0000  <S**2>=0.000
       7 -> 21         0.50183
       9 -> 27         0.12811
      10 -> 28        -0.46589

 Excited State  94:      Singlet-B2    14.1491 eV   87.63 nm  f=0.0373  <S**2>=0.000
       7 -> 22        -0.14170
      10 -> 27        -0.12598
      10 -> 29        -0.22422
      11 -> 31         0.19513
      12 -> 30         0.58641

 Excited State  95:      Singlet-A1    14.2842 eV   86.80 nm  f=0.0992  <S**2>=0.000
       6 -> 14         0.27945
       7 -> 19         0.12782
       8 -> 24         0.19335
       9 -> 26        -0.19494
      11 -> 30         0.53946

 Excited State  96:      Singlet-A2    14.3083 eV   86.65 nm  f=0.0000  <S**2>=0.000
       8 -> 22         0.10017
       8 -> 23         0.64223
       9 -> 27         0.21763
      10 -> 28        -0.12824

 Excited State  97:      Singlet-A1    14.3105 eV   86.64 nm  f=0.0950  <S**2>=0.000
       6 -> 14         0.53691
       9 -> 26         0.38580
      11 -> 30        -0.12349

 Excited State  98:      Singlet-B1    14.3108 eV   86.64 nm  f=0.7007  <S**2>=0.000
       7 -> 18        -0.20479
       7 -> 20         0.26027
       7 -> 24        -0.12823
       8 -> 19        -0.16147
       9 -> 22         0.15720
       9 -> 23         0.17733
      10 -> 25         0.13797
      10 -> 26         0.36150
      12 -> 27         0.10757
      12 -> 29         0.14393
      12 -> 36        -0.10303
      13 -> 28         0.17942
      13 -> 31        -0.11471

 Excited State  99:      Singlet-B2    14.3115 eV   86.63 nm  f=0.0997  <S**2>=0.000
      10 -> 29         0.60629
      11 -> 31         0.25251
      12 -> 30         0.17763

 Excited State 100:      Singlet-A2    14.4948 eV   85.54 nm  f=0.0000  <S**2>=0.000
       8 -> 23        -0.14591
       9 -> 27         0.62858
       9 -> 29        -0.19679
      10 -> 28         0.17496

 Excited State 101:      Singlet-A1    14.5024 eV   85.49 nm  f=0.0051  <S**2>=0.000
       6 -> 14        -0.19408
       8 -> 24         0.39982
       9 -> 26         0.36232
      12 -> 31        -0.36705

 Excited State 102:      Singlet-A1    14.6138 eV   84.84 nm  f=0.0759  <S**2>=0.000
       8 -> 24         0.38329
       9 -> 26         0.13410
      12 -> 31         0.55469

 Excited State 103:      Singlet-B2    14.6176 eV   84.82 nm  f=0.0213  <S**2>=0.000
       7 -> 22         0.56753
       7 -> 23        -0.10175
       8 -> 25        -0.33059
       9 -> 28         0.12245
      11 -> 31         0.16116

 Excited State 104:      Singlet-B2    14.6721 eV   84.50 nm  f=0.0009  <S**2>=0.000
       7 -> 23         0.16921
       8 -> 25         0.23851
       9 -> 28         0.63911

 Excited State 105:      Singlet-A2    14.8327 eV   83.59 nm  f=0.0000  <S**2>=0.000
       7 -> 25         0.10936
       9 -> 27         0.13946
       9 -> 29         0.66343
      10 -> 28         0.10160

 Excited State 106:      Singlet-B2    14.8726 eV   83.36 nm  f=0.0101  <S**2>=0.000
       6 -> 15        -0.14488
       7 -> 23         0.58675
       8 -> 25        -0.24654
      11 -> 31         0.16502

 Excited State 107:      Singlet-B2    14.9082 eV   83.16 nm  f=0.0646  <S**2>=0.000
       6 -> 15         0.19026
       7 -> 22         0.27267
       7 -> 23         0.20353
       8 -> 25         0.47489
       9 -> 28        -0.23723
      10 -> 29        -0.11834
      11 -> 31         0.15562

 Excited State 108:      Singlet-B2    14.9893 eV   82.72 nm  f=0.4284  <S**2>=0.000
       6 -> 15        -0.40209
       7 -> 23        -0.21489
       8 -> 25         0.11017
      11 -> 31         0.43844
      12 -> 30        -0.12945
      13 -> 34         0.15448

 Excited State 109:      Singlet-A1    15.0612 eV   82.32 nm  f=0.3953  <S**2>=0.000
       6 -> 14         0.19503
       7 -> 27         0.11500
       8 -> 20        -0.10085
       8 -> 24         0.35347
       9 -> 26        -0.30540
      11 -> 30        -0.29725
      11 -> 42         0.11222
      12 -> 31        -0.12978
      12 -> 32         0.14389
      13 -> 36        -0.10207

 Excited State 110:      Singlet-B1    15.0714 eV   82.26 nm  f=0.0233  <S**2>=0.000
       7 -> 24         0.56357
      10 -> 30         0.41105

 Excited State 111:      Singlet-B1    15.1529 eV   81.82 nm  f=0.0168  <S**2>=0.000
       7 -> 24        -0.39508
      10 -> 30         0.56805

 Excited State 112:      Singlet-B2    15.2194 eV   81.46 nm  f=0.0008  <S**2>=0.000
       6 -> 15         0.45410
       7 -> 22        -0.13349
       8 -> 26        -0.29371
      11 -> 31         0.17048
      13 -> 34         0.34271

 The electronic state is 1-A1.
 Alpha  occ. eigenvalues --   -9.78067  -9.77151  -9.77145  -0.70062  -0.60475
 Alpha  occ. eigenvalues --   -0.51626  -0.41199  -0.39353  -0.35698  -0.33591
 Alpha  occ. eigenvalues --   -0.29974  -0.29671  -0.28303
 Alpha virt. eigenvalues --    0.00491   0.03694   0.04352   0.06025   0.07389
 Alpha virt. eigenvalues --    0.09355   0.09945   0.10685   0.12150   0.13131
 Alpha virt. eigenvalues --    0.14072   0.14672   0.16867   0.17278   0.18062

 Mulliken charges:
               1
     1  C    0.343730
     2  C   -0.516687
     3  C    0.343730
     4  H   -0.032942
     5  H    0.005999
     6  H    0.005999
     7  H   -0.064441
     8  H   -0.064441
     9  H    0.005999
    10  H   -0.032942
    11  H    0.005999
 Sum of Mulliken charges =  -0.00000

 Dipole moment (field-independent basis, Debye):
    X=             -0.0000    Y=             -0.0000    Z=              0.0959  Tot=              0.0959
 Quadrupole moment (field-independent basis, Debye-Ang):
   XX=            -21.7422   YY=            -22.4996   ZZ=            -22.2406
   XY=             -0.0000   XZ=              0.0000   YZ=             -0.0000

 Normal termination of Gaussian 16 at Mon Mar 21 04:00:39 2022.
