 Gaussian 16, Revision C.01,
 Gaussian 16:  EM64L-G16RevC.01  3-Jul-2019

 ----------------------------------------------------------------------
 #P TD(Nstates=10000) pbe1pbe/Gen SCF(maxcycles=100) Int(Grid=ultrafine
 )
 ----------------------------------------------------------------------

 ---------------------
 xGDB7_00001_tier4.com
 ---------------------
 Symbolic Z-matrix:
 Charge =  0 Multiplicity = 1

                         Standard orientation:
 ---------------------------------------------------------------------
 Center     Atomic      Atomic             Coordinates (Angstroms)
 Number     Number       Type             X           Y           Z
 ---------------------------------------------------------------------
      1          6           0       -0.049078    0.702042   -0.000000
      2          7           0       -0.049078   -0.754243    0.000000
      3          1           0        0.946109    1.166603   -0.000000
      4          1           0       -0.587574    1.062597    0.877770
      5          1           0       -0.587574    1.062597   -0.877770
      6          1           0        0.433525   -1.112175    0.812504
      7          1           0        0.433525   -1.112175   -0.812504
 ---------------------------------------------------------------------

 SCF Done:  E(RPBE1PBE) =  -95.6784444599     A.U. after   11 cycles

 Excitation energies and oscillator strengths:

 Excited State   1:      Singlet-A'     6.2130 eV  199.56 nm  f=0.0068  <S**2>=0.000
       9 -> 10         0.69572
       9 -> 11         0.11991
 This state for optimization and/or second-order correction.
 Total Energy, E(TD-HF/TD-DFT) =  -95.4501223497
 Copying the excited state density for this state as the 1-particle RhoCI density.

 Excited State   2:      Singlet-A'     7.3236 eV  169.29 nm  f=0.0406  <S**2>=0.000
       9 -> 10        -0.11952
       9 -> 11         0.69502

 Excited State   3:      Singlet-A"     7.9542 eV  155.87 nm  f=0.0083  <S**2>=0.000
       9 -> 12         0.70206

 Excited State   4:      Singlet-A'     8.6521 eV  143.30 nm  f=0.0846  <S**2>=0.000
       9 -> 13         0.70314

 Excited State   5:      Singlet-A"     9.0296 eV  137.31 nm  f=0.0000  <S**2>=0.000
       9 -> 14         0.70369

 Excited State   6:      Singlet-A'     9.5997 eV  129.15 nm  f=0.0043  <S**2>=0.000
       9 -> 15         0.66907
       9 -> 16         0.21467

 Excited State   7:      Singlet-A'     9.7355 eV  127.35 nm  f=0.0208  <S**2>=0.000
       9 -> 15        -0.21049
       9 -> 16         0.66519

 Excited State   8:      Singlet-A"     9.7413 eV  127.28 nm  f=0.0117  <S**2>=0.000
       8 -> 10         0.70480

 Excited State   9:      Singlet-A"    10.2475 eV  120.99 nm  f=0.0001  <S**2>=0.000
       9 -> 17         0.70096

 Excited State  10:      Singlet-A"    10.7779 eV  115.04 nm  f=0.0943  <S**2>=0.000
       8 -> 11         0.70382

 Excited State  11:      Singlet-A'    10.8255 eV  114.53 nm  f=0.0553  <S**2>=0.000
       7 -> 10         0.68903
       9 -> 18         0.12360

 Excited State  12:      Singlet-A'    11.1523 eV  111.17 nm  f=0.0046  <S**2>=0.000
       7 -> 10        -0.13918
       9 -> 18         0.53253
       9 -> 19         0.40409

 Excited State  13:      Singlet-A'    11.4222 eV  108.55 nm  f=0.0189  <S**2>=0.000
       6 -> 10         0.16105
       8 -> 12         0.20751
       9 -> 18        -0.34852
       9 -> 19         0.53366

 Excited State  14:      Singlet-A"    11.4546 eV  108.24 nm  f=0.0117  <S**2>=0.000
       9 -> 20         0.70072

 Excited State  15:      Singlet-A'    11.7121 eV  105.86 nm  f=0.0752  <S**2>=0.000
       8 -> 12         0.66471
       9 -> 18         0.14796
       9 -> 19        -0.12437

 Excited State  16:      Singlet-A'    11.8130 eV  104.96 nm  f=0.1850  <S**2>=0.000
       6 -> 10        -0.30950
       7 -> 11         0.62935

 Excited State  17:      Singlet-A"    11.9754 eV  103.53 nm  f=0.0289  <S**2>=0.000
       8 -> 13         0.69992

 Excited State  18:      Singlet-A'    11.9824 eV  103.47 nm  f=0.0356  <S**2>=0.000
       6 -> 10         0.58743
       7 -> 11         0.30063
       8 -> 14         0.12825
       9 -> 18         0.13989
       9 -> 19        -0.12098

 Excited State  19:      Singlet-A"    12.5767 eV   98.58 nm  f=0.0205  <S**2>=0.000
       7 -> 12         0.69627

 Excited State  20:      Singlet-A'    12.5955 eV   98.44 nm  f=0.0188  <S**2>=0.000
       6 -> 11        -0.11575
       7 -> 13        -0.12167
       8 -> 14         0.57198
       9 -> 21         0.34146

 Excited State  21:      Singlet-A'    12.8142 eV   96.76 nm  f=0.2255  <S**2>=0.000
       6 -> 11         0.38206
       7 -> 13         0.11133
       8 -> 14        -0.21087
       9 -> 21         0.52147

 Excited State  22:      Singlet-A'    12.8847 eV   96.23 nm  f=0.1025  <S**2>=0.000
       6 -> 11         0.56959
       7 -> 13        -0.10526
       8 -> 14         0.24498
       9 -> 21        -0.28532

 Excited State  23:      Singlet-A"    12.9764 eV   95.55 nm  f=0.0134  <S**2>=0.000
       5 -> 10        -0.19099
       8 -> 15        -0.19812
       8 -> 16        -0.10888
       9 -> 22         0.62757

 Excited State  24:      Singlet-A"    13.0685 eV   94.87 nm  f=0.0094  <S**2>=0.000
       7 -> 14         0.23986
       8 -> 15         0.56230
       8 -> 16        -0.30652
       9 -> 22         0.15128

 Excited State  25:      Singlet-A"    13.1158 eV   94.53 nm  f=0.0659  <S**2>=0.000
       5 -> 10         0.15494
       8 -> 15         0.22814
       8 -> 16         0.58337
       9 -> 22         0.22399

 Excited State  26:      Singlet-A'    13.2343 eV   93.68 nm  f=0.0090  <S**2>=0.000
       7 -> 13         0.63754
       8 -> 14         0.13334
       8 -> 17        -0.18873

 Excited State  27:      Singlet-A"    13.2765 eV   93.39 nm  f=0.0874  <S**2>=0.000
       5 -> 10         0.63339
       7 -> 14         0.10550
       8 -> 15        -0.17583
       8 -> 16        -0.17597
       9 -> 22         0.11868

 Excited State  28:      Singlet-A'    13.4325 eV   92.30 nm  f=0.2366  <S**2>=0.000
       9 -> 23         0.67891

 Excited State  29:      Singlet-A"    13.4601 eV   92.11 nm  f=0.0361  <S**2>=0.000
       6 -> 12         0.36115
       7 -> 14         0.55131
       8 -> 15        -0.19071
       8 -> 16         0.10270

 Excited State  30:      Singlet-A"    13.6897 eV   90.57 nm  f=0.1696  <S**2>=0.000
       5 -> 10         0.12127
       6 -> 12         0.58441
       7 -> 14        -0.31665
       8 -> 15         0.10434
       8 -> 19         0.12667

 Excited State  31:      Singlet-A'    13.7978 eV   89.86 nm  f=0.0078  <S**2>=0.000
       6 -> 13        -0.27383
       7 -> 15        -0.15308
       8 -> 17         0.45855
       9 -> 24        -0.40319

 Excited State  32:      Singlet-A'    13.9156 eV   89.10 nm  f=0.0082  <S**2>=0.000
       6 -> 13        -0.23366
       8 -> 17         0.32622
       9 -> 24         0.55918

 Excited State  33:      Singlet-A'    14.1271 eV   87.76 nm  f=0.0279  <S**2>=0.000
       6 -> 13        -0.42516
       7 -> 15         0.51223
       7 -> 16         0.17724
       8 -> 17        -0.10373

 Excited State  34:      Singlet-A"    14.2922 eV   86.75 nm  f=0.0000  <S**2>=0.000
       5 -> 10        -0.10225
       5 -> 11         0.68419

 Excited State  35:      Singlet-A'    14.3636 eV   86.32 nm  f=0.0136  <S**2>=0.000
       5 -> 12         0.18737
       6 -> 13         0.24681
       7 -> 13         0.13041
       7 -> 15         0.38728
       7 -> 16        -0.34805
       8 -> 14         0.10433
       8 -> 17         0.26511
       9 -> 25        -0.11481

 Excited State  36:      Singlet-A"    14.3944 eV   86.13 nm  f=0.0011  <S**2>=0.000
       6 -> 14         0.33251
       8 -> 18         0.60483

 Excited State  37:      Singlet-A"    14.4611 eV   85.74 nm  f=0.0095  <S**2>=0.000
       6 -> 14         0.58574
       8 -> 18        -0.33292
       8 -> 19        -0.17234

 Excited State  38:      Singlet-A'    14.4671 eV   85.70 nm  f=0.2468  <S**2>=0.000
       5 -> 12         0.16401
       6 -> 13         0.26567
       7 -> 16         0.55122
       8 -> 17         0.18756
       9 -> 25        -0.14023

 Excited State  39:      Singlet-A'    14.6834 eV   84.44 nm  f=0.0085  <S**2>=0.000
       5 -> 12         0.11206
       6 -> 13         0.10620
       9 -> 25         0.66056

 Excited State  40:      Singlet-A"    14.7181 eV   84.24 nm  f=0.0169  <S**2>=0.000
       6 -> 14         0.16251
       7 -> 17         0.59712
       8 -> 19         0.29975

 Excited State  41:      Singlet-A'    15.0738 eV   82.25 nm  f=0.0477  <S**2>=0.000
       5 -> 12         0.27338
       6 -> 15        -0.28314
       6 -> 16        -0.28996
       8 -> 20         0.47696
       9 -> 25        -0.11478

 Excited State  42:      Singlet-A"    15.1101 eV   82.05 nm  f=0.1875  <S**2>=0.000
       7 -> 17        -0.16425
       8 -> 19         0.37421
       9 -> 26         0.51165
       9 -> 27         0.14230
       9 -> 28         0.12692

 Excited State  43:      Singlet-A"    15.1223 eV   81.99 nm  f=0.0726  <S**2>=0.000
       7 -> 17         0.29560
       8 -> 19        -0.40242
       9 -> 26         0.45486

 Excited State  44:      Singlet-A'    15.1848 eV   81.65 nm  f=0.0214  <S**2>=0.000
       5 -> 12        -0.15802
       6 -> 15         0.54279
       6 -> 16        -0.15410
       7 -> 18        -0.17727
       8 -> 20         0.31503

 Excited State  45:      Singlet-A'    15.3697 eV   80.67 nm  f=0.1193  <S**2>=0.000
       5 -> 12        -0.29818
       6 -> 15        -0.26476
       6 -> 16         0.36035
       7 -> 18        -0.28459
       8 -> 20         0.24026
       9 -> 30        -0.18665

 Excited State  46:      Singlet-A'    15.5024 eV   79.98 nm  f=0.2501  <S**2>=0.000
       5 -> 12        -0.14532
       6 -> 16         0.16772
       7 -> 18         0.59897
       8 -> 20         0.22154
       9 -> 29        -0.10943
       9 -> 30        -0.10464

 Excited State  47:      Singlet-A"    15.5298 eV   79.84 nm  f=0.0007  <S**2>=0.000
       5 -> 13        -0.36719
       9 -> 27         0.37253
       9 -> 28         0.43124

 Excited State  48:      Singlet-A"    15.5855 eV   79.55 nm  f=0.0860  <S**2>=0.000
       5 -> 13         0.56246
       7 -> 20        -0.18088
       9 -> 27         0.16718
       9 -> 28         0.28427

 Excited State  49:      Singlet-A"    15.6902 eV   79.02 nm  f=0.0004  <S**2>=0.000
       6 -> 17        -0.30686
       9 -> 27         0.50467
       9 -> 28        -0.37638

 Excited State  50:      Singlet-A'    15.7326 eV   78.81 nm  f=0.0003  <S**2>=0.000
       5 -> 12         0.27943
       5 -> 14        -0.15948
       6 -> 15         0.12635
       6 -> 16         0.37506
       7 -> 15        -0.10236
       7 -> 19        -0.15129
       9 -> 29        -0.36492
       9 -> 30         0.15995

 Excited State  51:      Singlet-A"    15.7924 eV   78.51 nm  f=0.0182  <S**2>=0.000
       6 -> 17         0.60744
       7 -> 20        -0.14291
       9 -> 27         0.21212
       9 -> 28        -0.21445

 Excited State  52:      Singlet-A'    15.8316 eV   78.31 nm  f=0.0024  <S**2>=0.000
       5 -> 12        -0.11385
       5 -> 14        -0.19366
       7 -> 19        -0.30911
       9 -> 29         0.28240
       9 -> 30         0.49061

 Excited State  53:      Singlet-A'    15.9998 eV   77.49 nm  f=0.1328  <S**2>=0.000
       5 -> 12        -0.13523
       6 -> 18         0.16571
       7 -> 19         0.51183
       9 -> 30         0.36429

 Excited State  54:      Singlet-A'    16.0111 eV   77.44 nm  f=0.0775  <S**2>=0.000
       5 -> 12         0.27291
       5 -> 14         0.18756
       6 -> 15         0.12664
       6 -> 16         0.24653
       7 -> 19         0.14652
       8 -> 20         0.12205
       9 -> 29         0.46321

 Excited State  55:      Singlet-A"    16.1113 eV   76.95 nm  f=0.0203  <S**2>=0.000
       5 -> 13         0.12835
       5 -> 15         0.19565
       6 -> 17         0.11589
       7 -> 20         0.56817
       8 -> 21         0.27626

 Excited State  56:      Singlet-A'    16.1434 eV   76.80 nm  f=0.1713  <S**2>=0.000
       5 -> 14         0.59712
       6 -> 18        -0.14247
       6 -> 19        -0.10202
       7 -> 19        -0.17334
       9 -> 29        -0.13398
       9 -> 30         0.17262

 Excited State  57:      Singlet-A"    16.2834 eV   76.14 nm  f=0.0499  <S**2>=0.000
       5 -> 15        -0.12230
       5 -> 16        -0.12589
       7 -> 20        -0.22442
       8 -> 19         0.11050
       8 -> 21         0.61952

 Excited State  58:      Singlet-A'    16.5248 eV   75.03 nm  f=0.0576  <S**2>=0.000
       5 -> 17        -0.12219
       6 -> 18         0.42240
       6 -> 19        -0.20465
       7 -> 19        -0.11802
       8 -> 22         0.48417

 Excited State  59:      Singlet-A"    16.5959 eV   74.71 nm  f=0.0892  <S**2>=0.000
       5 -> 15         0.46999
       5 -> 16         0.23211
       6 -> 20        -0.12418
       7 -> 20        -0.17750
       8 -> 23        -0.39002

 Excited State  60:      Singlet-A'    16.6392 eV   74.51 nm  f=0.0746  <S**2>=0.000
       6 -> 18        -0.46425
       7 -> 19         0.10999
       8 -> 22         0.47733

 Excited State  61:      Singlet-A"    16.7270 eV   74.12 nm  f=0.0032  <S**2>=0.000
       5 -> 15         0.24898
       5 -> 16         0.33120
       8 -> 23         0.54668

 Excited State  62:      Singlet-A"    16.8033 eV   73.79 nm  f=0.0279  <S**2>=0.000
       5 -> 15        -0.27580
       5 -> 16         0.51559
       6 -> 20         0.29962
       8 -> 21         0.10812
       8 -> 23        -0.14545
       9 -> 31         0.14077

 Excited State  63:      Singlet-A'    16.8772 eV   73.46 nm  f=0.0183  <S**2>=0.000
       6 -> 18        -0.10863
       6 -> 19        -0.26255
       9 -> 32         0.61842
       9 -> 33        -0.12221

 Excited State  64:      Singlet-A"    16.9412 eV   73.18 nm  f=0.0232  <S**2>=0.000
       5 -> 15         0.14744
       9 -> 28        -0.11230
       9 -> 31         0.65947

 Excited State  65:      Singlet-A'    16.9989 eV   72.94 nm  f=0.1032  <S**2>=0.000
       6 -> 19         0.51871
       7 -> 19        -0.10019
       7 -> 21        -0.32675
       8 -> 22         0.12772
       9 -> 32         0.25358

 Excited State  66:      Singlet-A"    17.1992 eV   72.09 nm  f=0.1049  <S**2>=0.000
       5 -> 15         0.19995
       5 -> 16        -0.17560
       6 -> 20         0.59250
       7 -> 22        -0.10482
       8 -> 24         0.13899
       9 -> 31        -0.13563

 Excited State  67:      Singlet-A'    17.3518 eV   71.45 nm  f=0.1351  <S**2>=0.000
       5 -> 17         0.63347
       6 -> 19        -0.11009
       7 -> 21        -0.24470

 Excited State  68:      Singlet-A"    17.3655 eV   71.40 nm  f=0.1154  <S**2>=0.000
       6 -> 20        -0.10443
       8 -> 24         0.67764

 Excited State  69:      Singlet-A'    17.4931 eV   70.88 nm  f=0.0569  <S**2>=0.000
       4 -> 10        -0.30433
       5 -> 17         0.23998
       6 -> 19         0.19220
       7 -> 21         0.49208
       9 -> 34        -0.11966

 Excited State  70:      Singlet-A"    17.5779 eV   70.53 nm  f=0.0053  <S**2>=0.000
       5 -> 18        -0.18864
       7 -> 22         0.66160

 Excited State  71:      Singlet-A'    17.7459 eV   69.87 nm  f=0.0079  <S**2>=0.000
       4 -> 10         0.12982
       7 -> 23        -0.16504
       9 -> 32         0.11583
       9 -> 33         0.65281

 Excited State  72:      Singlet-A"    17.7868 eV   69.71 nm  f=0.0006  <S**2>=0.000
       5 -> 18         0.64828
       7 -> 22         0.20083
       8 -> 25         0.13344

 Excited State  73:      Singlet-A'    17.8508 eV   69.46 nm  f=0.0319  <S**2>=0.000
       7 -> 23         0.66014
       9 -> 33         0.16480

 Excited State  74:      Singlet-A'    17.9855 eV   68.94 nm  f=0.0074  <S**2>=0.000
       4 -> 10         0.54216
       6 -> 21         0.11064
       7 -> 21         0.16737
       9 -> 34        -0.34320

 Excited State  75:      Singlet-A"    18.0559 eV   68.67 nm  f=0.0095  <S**2>=0.000
       5 -> 18        -0.14973
       8 -> 25         0.67704

 Excited State  76:      Singlet-A'    18.1373 eV   68.36 nm  f=0.0015  <S**2>=0.000
       4 -> 10         0.18091
       5 -> 20         0.10183
       6 -> 19         0.13647
       6 -> 21         0.16764
       6 -> 23        -0.10917
       7 -> 21         0.12695
       7 -> 24         0.21374
       9 -> 33        -0.10134
       9 -> 34         0.55218

 Excited State  77:      Singlet-A"    18.3062 eV   67.73 nm  f=0.0320  <S**2>=0.000
       5 -> 19         0.67264

 Excited State  78:      Singlet-A'    18.3894 eV   67.42 nm  f=0.0173  <S**2>=0.000
       6 -> 21        -0.47268
       7 -> 24         0.47977

 Excited State  79:      Singlet-A'    18.4655 eV   67.14 nm  f=0.0585  <S**2>=0.000
       4 -> 10        -0.11764
       5 -> 20        -0.37014
       6 -> 21         0.39480
       7 -> 24         0.30588
       8 -> 26         0.15582
       9 -> 34        -0.10586
       9 -> 36        -0.15062

 Excited State  80:      Singlet-A'    18.4913 eV   67.05 nm  f=0.0108  <S**2>=0.000
       5 -> 20         0.23332
       8 -> 26         0.65365

 Excited State  81:      Singlet-A"    18.5824 eV   66.72 nm  f=0.0068  <S**2>=0.000
       6 -> 22         0.68191
       9 -> 35         0.11832

 Excited State  82:      Singlet-A'    18.6899 eV   66.34 nm  f=0.0821  <S**2>=0.000
       5 -> 20         0.50806
       6 -> 21         0.15165
       7 -> 24         0.27188
       7 -> 25         0.10784
       8 -> 26        -0.18015
       9 -> 34        -0.14038
       9 -> 36        -0.14115

 Excited State  83:      Singlet-A"    18.7407 eV   66.16 nm  f=0.0016  <S**2>=0.000
       6 -> 22        -0.10190
       9 -> 35         0.68173
       9 -> 37         0.12833

 Excited State  84:      Singlet-A'    18.8049 eV   65.93 nm  f=0.0214  <S**2>=0.000
       4 -> 11         0.10496
       6 -> 21         0.10157
       6 -> 23         0.43100
       6 -> 24         0.10244
       8 -> 27        -0.12651
       9 -> 36         0.47950

 Excited State  85:      Singlet-A'    18.8682 eV   65.71 nm  f=0.0133  <S**2>=0.000
       4 -> 11         0.62188
       6 -> 23        -0.12951
       8 -> 27         0.18822
       8 -> 28        -0.14427

 Excited State  86:      Singlet-A"    18.9965 eV   65.27 nm  f=0.0069  <S**2>=0.000
       9 -> 35        -0.11901
       9 -> 37         0.67907

 Excited State  87:      Singlet-A'    19.0678 eV   65.02 nm  f=0.0487  <S**2>=0.000
       6 -> 23         0.41424
       6 -> 24        -0.11645
       7 -> 25        -0.40285
       8 -> 28        -0.10808
       9 -> 36        -0.30708

 Excited State  88:      Singlet-A"    19.1722 eV   64.67 nm  f=0.0169  <S**2>=0.000
       7 -> 27        -0.12467
       8 -> 29         0.65013
       8 -> 30        -0.18227

 Excited State  89:      Singlet-A'    19.2669 eV   64.35 nm  f=0.0243  <S**2>=0.000
       6 -> 23         0.20514
       6 -> 24        -0.36960
       6 -> 25         0.14843
       7 -> 25         0.43434
       8 -> 28         0.17911
       9 -> 36        -0.17526

 Excited State  90:      Singlet-A'    19.3975 eV   63.92 nm  f=0.1249  <S**2>=0.000
       7 -> 25        -0.11212
       8 -> 27         0.45937
       8 -> 28         0.48567

 Excited State  91:      Singlet-A"    19.4807 eV   63.64 nm  f=0.0639  <S**2>=0.000
       4 -> 12         0.22297
       8 -> 29         0.16786
       8 -> 30         0.62297

 Excited State  92:      Singlet-A'    19.4973 eV   63.59 nm  f=0.2205  <S**2>=0.000
       4 -> 11        -0.10319
       6 -> 23         0.19289
       6 -> 24         0.38747
       6 -> 25         0.12306
       7 -> 25         0.23398
       8 -> 27         0.27962
       8 -> 28        -0.27795
       9 -> 36        -0.10954

 Excited State  93:      Singlet-A"    19.5454 eV   63.43 nm  f=0.0006  <S**2>=0.000
       4 -> 12        -0.37070
       5 -> 21         0.16925
       7 -> 26         0.54850
       8 -> 30         0.13844

 Excited State  94:      Singlet-A"    19.6204 eV   63.19 nm  f=0.0004  <S**2>=0.000
       4 -> 12         0.46324
       5 -> 21        -0.27282
       7 -> 26         0.42419

 Excited State  95:      Singlet-A"    19.6760 eV   63.01 nm  f=0.0285  <S**2>=0.000
       4 -> 12         0.29036
       5 -> 21         0.59081
       7 -> 27         0.11407
       8 -> 30        -0.15631

 Excited State  96:      Singlet-A'    19.7126 eV   62.90 nm  f=0.1024  <S**2>=0.000
       4 -> 11         0.13187
       4 -> 13        -0.10731
       5 -> 22        -0.22556
       6 -> 24         0.37105
       7 -> 29         0.18019
       8 -> 27        -0.27789
       8 -> 28         0.28262
       9 -> 36        -0.17791
       9 -> 38        -0.10026

 Excited State  97:      Singlet-A'    19.9827 eV   62.05 nm  f=0.0315  <S**2>=0.000
       4 -> 13        -0.20285
       5 -> 22         0.63827

 Excited State  98:      Singlet-A'    20.1234 eV   61.61 nm  f=0.0109  <S**2>=0.000
       4 -> 13         0.63957
       5 -> 22         0.17232
       6 -> 25         0.12495

 Excited State  99:      Singlet-A"    20.1722 eV   61.46 nm  f=0.0457  <S**2>=0.000
       7 -> 27         0.48627
       7 -> 28         0.40124
       8 -> 32         0.24187
       9 -> 39         0.11756

 Excited State 100:      Singlet-A"    20.2108 eV   61.35 nm  f=0.0011  <S**2>=0.000
       5 -> 23         0.68366

 Excited State 101:      Singlet-A'    20.2570 eV   61.21 nm  f=0.0743  <S**2>=0.000
       4 -> 13        -0.12668
       6 -> 25         0.40685
       7 -> 29         0.34888
       8 -> 31         0.14045
       9 -> 38         0.37064

 Excited State 102:      Singlet-A"    20.2701 eV   61.17 nm  f=0.0458  <S**2>=0.000
       7 -> 27        -0.23104
       7 -> 28         0.52203
       8 -> 32        -0.33500

 Excited State 103:      Singlet-A'    20.3598 eV   60.90 nm  f=0.0129  <S**2>=0.000
       6 -> 25        -0.21666
       7 -> 29         0.24366
       7 -> 30        -0.17872
       8 -> 31         0.54562
       9 -> 38        -0.20095

 Excited State 104:      Singlet-A"    20.3678 eV   60.87 nm  f=0.0265  <S**2>=0.000
       4 -> 14        -0.34786
       7 -> 27        -0.28778
       7 -> 28         0.11174
       8 -> 32         0.47723
       8 -> 33        -0.12846

 The electronic state is 1-A'.
 Alpha  occ. eigenvalues --  -14.37296 -10.24770  -0.89333  -0.67276  -0.50706
 Alpha  occ. eigenvalues --   -0.45591  -0.41790  -0.37902  -0.25118
 Alpha virt. eigenvalues --    0.03195   0.06726   0.10005   0.11786   0.13407
 Alpha virt. eigenvalues --    0.15645   0.16329   0.17776   0.20625   0.22445
 Alpha virt. eigenvalues --    0.22856   0.27389   0.28042   0.29319   0.31185

 Mulliken charges:
               1
     1  C    0.536540
     2  N   -0.354776
     3  H   -0.015067
     4  H   -0.092529
     5  H   -0.092529
     6  H    0.009181
     7  H    0.009181
 Sum of Mulliken charges =  -0.00000

 Dipole moment (field-independent basis, Debye):
    X=              1.2507    Y=              0.3305    Z=             -0.0000  Tot=              1.2936
 Quadrupole moment (field-independent basis, Debye-Ang):
   XX=            -15.0589   YY=            -14.3560   ZZ=            -12.6702
   XY=             -2.0884   XZ=              0.0000   YZ=             -0.0000

 1\1\GINC-HEL23\SP\RPBE1PBE TD-FC\Gen\C1H5N1\SABYASACHI\21-Mar-2022\0\\
 #P TD(Nstates=10000) pbe1pbe/Gen SCF(maxcycles=100) Int(Grid=ultrafine
 )\\xGDB7_00001_tier4.com\\0,1\C,0,-0.049078,0.702042,0.\N,0,-0.049078,
 -0.754243,0.\H,0,0.946109,1.166603,0.\H,0,-0.587574,1.062597,0.87777\H
 ,0,-0.587574,1.062597,-0.87777\H,0,0.433525,-1.112175,0.812504\H,0,0.4
 33525,-1.112175,-0.812504\\Version=EM64L-G16RevC.01\State=1-A'\HF=-95.
 6784445\RMSD=5.035e-09\PG=CS [SG(C1H1N1),X(H4)]\\@
 The archive entry for this job was punched.

 Normal termination of Gaussian 16 at Mon Mar 21 20:13:11 2022.
