 Gaussian 16, Revision C.01,
 Gaussian 16:  EM64L-G16RevC.01  3-Jul-2019

 ----------------------------------------------------------------------
 #P TD(Nstates=10000) pbe1pbe/Gen SCF(maxcycles=100) Int(Grid=ultrafine
 )
 ----------------------------------------------------------------------

 ---------------------
 xGDB7_00001_tier4.com
 ---------------------
 Symbolic Z-matrix:
 Charge =  0 Multiplicity = 1

                         Standard orientation:
 ---------------------------------------------------------------------
 Center     Atomic      Atomic             Coordinates (Angstroms)
 Number     Number       Type             X           Y           Z
 ---------------------------------------------------------------------
      1          6           0        0.046419    0.658432    0.000000
      2          8           0        0.046419   -0.751929    0.000000
      3          1           0       -0.438905    1.073261    0.890797
      4          1           0       -0.438905    1.073261   -0.890797
      5          1           0        1.087855    0.977571    0.000000
      6          1           0       -0.859911   -1.059251    0.000000
 ---------------------------------------------------------------------

 SCF Done:  E(RPBE1PBE) =  -115.513637075     A.U. after   11 cycles

 Excitation energies and oscillator strengths:

 Excited State   1:      Singlet-A"     6.9807 eV  177.61 nm  f=0.0016  <S**2>=0.000
       9 -> 10         0.69630
       9 -> 11        -0.10838
 This state for optimization and/or second-order correction.
 Total Energy, E(TD-HF/TD-DFT) =  -115.257101952
 Copying the excited state density for this state as the 1-particle RhoCI density.

 Excited State   2:      Singlet-A"     8.1158 eV  152.77 nm  f=0.0354  <S**2>=0.000
       9 -> 10         0.10992
       9 -> 11         0.69666

 Excited State   3:      Singlet-A'     8.6885 eV  142.70 nm  f=0.0012  <S**2>=0.000
       8 -> 10         0.69750

 Excited State   4:      Singlet-A"     9.2112 eV  134.60 nm  f=0.0114  <S**2>=0.000
       9 -> 13         0.69749

 Excited State   5:      Singlet-A'     9.2635 eV  133.84 nm  f=0.0658  <S**2>=0.000
       9 -> 12         0.70007

 Excited State   6:      Singlet-A'     9.7298 eV  127.43 nm  f=0.0612  <S**2>=0.000
       8 -> 11         0.69604

 Excited State   7:      Singlet-A"     9.9928 eV  124.07 nm  f=0.0070  <S**2>=0.000
       9 -> 14         0.69426

 Excited State   8:      Singlet-A"    10.2800 eV  120.61 nm  f=0.0091  <S**2>=0.000
       9 -> 15         0.69257

 Excited State   9:      Singlet-A'    10.8009 eV  114.79 nm  f=0.0103  <S**2>=0.000
       8 -> 13        -0.12159
       9 -> 16         0.67632
       9 -> 18         0.12341

 Excited State  10:      Singlet-A'    10.8348 eV  114.43 nm  f=0.0842  <S**2>=0.000
       8 -> 13         0.68398
       9 -> 16         0.12169

 Excited State  11:      Singlet-A"    10.8527 eV  114.24 nm  f=0.0323  <S**2>=0.000
       8 -> 12         0.70388

 Excited State  12:      Singlet-A'    11.2697 eV  110.02 nm  f=0.0450  <S**2>=0.000
       7 -> 10         0.68497

 Excited State  13:      Singlet-A"    11.3338 eV  109.39 nm  f=0.0018  <S**2>=0.000
       6 -> 10        -0.16765
       9 -> 17         0.67907

 Excited State  14:      Singlet-A'    11.5122 eV  107.70 nm  f=0.0333  <S**2>=0.000
       8 -> 14        -0.19808
       8 -> 15         0.16545
       9 -> 18         0.63638

 Excited State  15:      Singlet-A"    11.5951 eV  106.93 nm  f=0.0689  <S**2>=0.000
       6 -> 10         0.67039
       9 -> 17         0.17376
       9 -> 19        -0.10699

 Excited State  16:      Singlet-A'    11.7206 eV  105.78 nm  f=0.0023  <S**2>=0.000
       7 -> 10        -0.13956
       7 -> 11        -0.14828
       8 -> 14         0.61951
       8 -> 15         0.21809
       9 -> 18         0.10817

 Excited State  17:      Singlet-A"    12.1137 eV  102.35 nm  f=0.0002  <S**2>=0.000
       6 -> 10         0.10882
       8 -> 16         0.20033
       9 -> 19         0.64996

 Excited State  18:      Singlet-A'    12.1653 eV  101.92 nm  f=0.0227  <S**2>=0.000
       7 -> 11         0.39968
       8 -> 15         0.55326
       9 -> 18        -0.10833

 Excited State  19:      Singlet-A"    12.2731 eV  101.02 nm  f=0.0227  <S**2>=0.000
       8 -> 16         0.66503
       9 -> 19        -0.18836

 Excited State  20:      Singlet-A'    12.3360 eV  100.51 nm  f=0.1218  <S**2>=0.000
       7 -> 11         0.54487
       8 -> 14         0.20493
       8 -> 15        -0.29375
       8 -> 17         0.12385
       9 -> 18         0.17623

 Excited State  21:      Singlet-A"    12.4918 eV   99.25 nm  f=0.0428  <S**2>=0.000
       6 -> 11         0.69033
       9 -> 20         0.10059

 Excited State  22:      Singlet-A"    12.9081 eV   96.05 nm  f=0.0000  <S**2>=0.000
       7 -> 12        -0.20455
       8 -> 18         0.67194

 Excited State  23:      Singlet-A'    13.0486 eV   95.02 nm  f=0.0124  <S**2>=0.000
       6 -> 12         0.18883
       7 -> 13         0.11527
       8 -> 17         0.64668

 Excited State  24:      Singlet-A"    13.0793 eV   94.79 nm  f=0.0340  <S**2>=0.000
       6 -> 11        -0.11147
       9 -> 19         0.10788
       9 -> 20         0.66875
       9 -> 21         0.10387

 Excited State  25:      Singlet-A"    13.3925 eV   92.58 nm  f=0.0033  <S**2>=0.000
       7 -> 12         0.66812
       8 -> 18         0.20557

 Excited State  26:      Singlet-A'    13.4872 eV   91.93 nm  f=0.1049  <S**2>=0.000
       6 -> 12         0.21535
       7 -> 13         0.63783
       8 -> 17        -0.17741

 Excited State  27:      Singlet-A'    13.5989 eV   91.17 nm  f=0.0573  <S**2>=0.000
       5 -> 10         0.61805
       6 -> 12        -0.29776

 Excited State  28:      Singlet-A"    13.6619 eV   90.75 nm  f=0.0000  <S**2>=0.000
       6 -> 13         0.68808
       6 -> 14        -0.10884

 Excited State  29:      Singlet-A'    13.9912 eV   88.62 nm  f=0.0446  <S**2>=0.000
       5 -> 11        -0.14561
       6 -> 12         0.21386
       7 -> 13        -0.11046
       7 -> 14         0.17568
       7 -> 15         0.14001
       8 -> 19         0.56122
       8 -> 20        -0.12371

 Excited State  30:      Singlet-A"    14.1794 eV   87.44 nm  f=0.0006  <S**2>=0.000
       9 -> 20        -0.11754
       9 -> 21         0.68328

 Excited State  31:      Singlet-A'    14.1820 eV   87.42 nm  f=0.0702  <S**2>=0.000
       5 -> 10         0.21106
       6 -> 12         0.40843
       7 -> 13        -0.12053
       7 -> 14         0.30102
       7 -> 15         0.17716
       8 -> 19        -0.31996
       9 -> 24        -0.14613

 Excited State  32:      Singlet-A'    14.3541 eV   86.38 nm  f=0.0229  <S**2>=0.000
       6 -> 12         0.10825
       7 -> 14        -0.40973
       7 -> 15         0.23460
       9 -> 22         0.48406

 Excited State  33:      Singlet-A'    14.3962 eV   86.12 nm  f=0.0025  <S**2>=0.000
       5 -> 11         0.27798
       6 -> 12        -0.23474
       7 -> 13         0.12376
       7 -> 14         0.14493
       7 -> 15         0.53586

 Excited State  34:      Singlet-A'    14.5334 eV   85.31 nm  f=0.0979  <S**2>=0.000
       5 -> 10         0.14415
       5 -> 11         0.54239
       6 -> 12         0.14348
       7 -> 14        -0.15769
       8 -> 19         0.11599
       8 -> 20         0.20259
       9 -> 22        -0.14132
       9 -> 24         0.16087

 Excited State  35:      Singlet-A"    14.5736 eV   85.07 nm  f=0.0302  <S**2>=0.000
       6 -> 14         0.46442
       6 -> 15         0.22295
       7 -> 16         0.34350
       9 -> 23         0.28831

 Excited State  36:      Singlet-A'    14.6341 eV   84.72 nm  f=0.1265  <S**2>=0.000
       5 -> 11         0.23979
       6 -> 16         0.10971
       7 -> 14         0.34954
       7 -> 15        -0.23952
       8 -> 20        -0.11018
       9 -> 22         0.44560

 Excited State  37:      Singlet-A"    14.6412 eV   84.68 nm  f=0.0139  <S**2>=0.000
       6 -> 14        -0.38015
       6 -> 15         0.28727
       7 -> 16         0.47315
       9 -> 23        -0.12294

 Excited State  38:      Singlet-A"    14.7175 eV   84.24 nm  f=0.0191  <S**2>=0.000
       6 -> 14        -0.30745
       6 -> 15        -0.12990
       9 -> 23         0.61202

 Excited State  39:      Singlet-A'    14.7504 eV   84.05 nm  f=0.0220  <S**2>=0.000
       5 -> 11        -0.14089
       6 -> 16        -0.12353
       7 -> 14         0.12059
       8 -> 19         0.11065
       8 -> 20         0.62507
       9 -> 22         0.15853

 Excited State  40:      Singlet-A'    14.9563 eV   82.90 nm  f=0.3735  <S**2>=0.000
       5 -> 11        -0.12224
       7 -> 15         0.11586
       8 -> 19        -0.15627
       9 -> 24         0.64785

 Excited State  41:      Singlet-A"    15.0237 eV   82.53 nm  f=0.2272  <S**2>=0.000
       6 -> 15         0.55215
       7 -> 16        -0.37730
       7 -> 18         0.13038

 Excited State  42:      Singlet-A'    15.2750 eV   81.17 nm  f=0.1450  <S**2>=0.000
       6 -> 16         0.58149
       7 -> 17         0.32084
       8 -> 20         0.13017

 Excited State  43:      Singlet-A"    15.4632 eV   80.18 nm  f=0.0259  <S**2>=0.000
       5 -> 12         0.11688
       6 -> 15        -0.11867
       6 -> 17        -0.10799
       7 -> 18         0.66575

 Excited State  44:      Singlet-A'    15.5763 eV   79.60 nm  f=0.1660  <S**2>=0.000
       5 -> 13         0.14614
       6 -> 16        -0.30151
       7 -> 17         0.56626
       7 -> 19        -0.10404
       8 -> 21         0.14292

 Excited State  45:      Singlet-A"    15.5932 eV   79.51 nm  f=0.0508  <S**2>=0.000
       9 -> 25         0.68155

 Excited State  46:      Singlet-A"    15.6495 eV   79.23 nm  f=0.0303  <S**2>=0.000
       5 -> 12         0.66654
       6 -> 17         0.17431

 Excited State  47:      Singlet-A'    15.7533 eV   78.70 nm  f=0.0212  <S**2>=0.000
       5 -> 13         0.42043
       6 -> 18         0.33498
       7 -> 17        -0.17418
       8 -> 21         0.40253

 Excited State  48:      Singlet-A"    15.7681 eV   78.63 nm  f=0.0528  <S**2>=0.000
       5 -> 12        -0.14705
       6 -> 17         0.62639
       7 -> 18         0.10721
       8 -> 22        -0.17652
       9 -> 25        -0.11725

 Excited State  49:      Singlet-A'    15.9077 eV   77.94 nm  f=0.0638  <S**2>=0.000
       5 -> 13        -0.26925
       6 -> 18         0.56880
       7 -> 17         0.15970
       7 -> 19         0.18048
       8 -> 21        -0.10077

 Excited State  50:      Singlet-A'    15.9175 eV   77.89 nm  f=0.0723  <S**2>=0.000
       5 -> 13        -0.42530
       5 -> 15        -0.11342
       7 -> 19        -0.10045
       8 -> 21         0.48120

 Excited State  51:      Singlet-A"    16.1725 eV   76.66 nm  f=0.1240  <S**2>=0.000
       6 -> 17         0.16954
       8 -> 22         0.66356

 Excited State  52:      Singlet-A'    16.3458 eV   75.85 nm  f=0.0260  <S**2>=0.000
       8 -> 23         0.64111
       9 -> 26        -0.24172

 Excited State  53:      Singlet-A"    16.3822 eV   75.68 nm  f=0.0359  <S**2>=0.000
       8 -> 24         0.27914
       9 -> 27         0.61796

 Excited State  54:      Singlet-A'    16.4434 eV   75.40 nm  f=0.0058  <S**2>=0.000
       8 -> 23         0.22829
       9 -> 26         0.65105

 Excited State  55:      Singlet-A"    16.4902 eV   75.19 nm  f=0.0000  <S**2>=0.000
       8 -> 24         0.62648
       9 -> 27        -0.26441

 Excited State  56:      Singlet-A'    16.5913 eV   74.73 nm  f=0.0070  <S**2>=0.000
       5 -> 14         0.53485
       5 -> 15        -0.23652
       7 -> 19         0.32039
       8 -> 21         0.10925
       8 -> 23        -0.10987

 Excited State  57:      Singlet-A'    16.6396 eV   74.51 nm  f=0.0434  <S**2>=0.000
       5 -> 14        -0.40524
       5 -> 15        -0.24274
       6 -> 18        -0.11600
       7 -> 19         0.44586
       7 -> 20        -0.10614
       9 -> 28         0.13314

 Excited State  58:      Singlet-A"    16.7131 eV   74.18 nm  f=0.0216  <S**2>=0.000
       6 -> 19         0.64766
       6 -> 20        -0.12479
       9 -> 27        -0.11954
       9 -> 29        -0.13674

 Excited State  59:      Singlet-A'    16.9039 eV   73.35 nm  f=0.0181  <S**2>=0.000
       5 -> 15         0.40500
       7 -> 20         0.12800
       9 -> 28         0.52534

 Excited State  60:      Singlet-A"    16.9161 eV   73.29 nm  f=0.0078  <S**2>=0.000
       5 -> 16        -0.38396
       6 -> 19         0.17174
       9 -> 29         0.53199
       9 -> 30        -0.12547

 Excited State  61:      Singlet-A'    17.0277 eV   72.81 nm  f=0.1450  <S**2>=0.000
       5 -> 15        -0.33842
       7 -> 19        -0.28972
       7 -> 20        -0.25516
       7 -> 21        -0.11490
       8 -> 25        -0.20496
       9 -> 28         0.37571

 Excited State  62:      Singlet-A"    17.1515 eV   72.29 nm  f=0.1668  <S**2>=0.000
       5 -> 16         0.56663
       9 -> 29         0.34184
       9 -> 30        -0.12213

 Excited State  63:      Singlet-A'    17.2449 eV   71.90 nm  f=0.0815  <S**2>=0.000
       7 -> 19        -0.12126
       8 -> 21        -0.10393
       8 -> 25         0.65047
       9 -> 28         0.12400

 Excited State  64:      Singlet-A"    17.4081 eV   71.22 nm  f=0.0000  <S**2>=0.000
       6 -> 20         0.13654
       9 -> 29         0.20996
       9 -> 30         0.64216

 Excited State  65:      Singlet-A'    17.5144 eV   70.79 nm  f=0.1659  <S**2>=0.000
       4 -> 10        -0.18123
       5 -> 15        -0.19354
       5 -> 17         0.21481
       7 -> 20         0.55416
       8 -> 25        -0.11801

 Excited State  66:      Singlet-A"    17.5551 eV   70.63 nm  f=0.0000  <S**2>=0.000
       5 -> 18         0.11150
       6 -> 19         0.13155
       6 -> 20         0.64210
       9 -> 30        -0.13912

 Excited State  67:      Singlet-A"    17.7911 eV   69.69 nm  f=0.0016  <S**2>=0.000
       5 -> 18         0.68378
       6 -> 20        -0.10179

 Excited State  68:      Singlet-A'    17.8283 eV   69.54 nm  f=0.0358  <S**2>=0.000
       5 -> 17         0.63681
       7 -> 20        -0.14428
       8 -> 27         0.17593

 Excited State  69:      Singlet-A"    17.9978 eV   68.89 nm  f=0.0078  <S**2>=0.000
       8 -> 26         0.69628

 Excited State  70:      Singlet-A'    18.1578 eV   68.28 nm  f=0.0478  <S**2>=0.000
       5 -> 17        -0.15419
       7 -> 20         0.10786
       8 -> 27         0.64940

 Excited State  71:      Singlet-A'    18.2594 eV   67.90 nm  f=0.0013  <S**2>=0.000
       4 -> 10        -0.43416
       7 -> 20        -0.11518
       7 -> 21         0.51230
       8 -> 27         0.10133

 Excited State  72:      Singlet-A"    18.2685 eV   67.87 nm  f=0.0075  <S**2>=0.000
       6 -> 21        -0.13894
       9 -> 31         0.67832

 Excited State  73:      Singlet-A'    18.4226 eV   67.30 nm  f=0.0059  <S**2>=0.000
       4 -> 10         0.48036
       5 -> 19         0.18713
       7 -> 21         0.39253
       8 -> 30        -0.10655
       9 -> 32         0.17003

 Excited State  74:      Singlet-A"    18.4524 eV   67.19 nm  f=0.0301  <S**2>=0.000
       6 -> 21        -0.16415
       7 -> 22         0.24915
       8 -> 28         0.61302

 Excited State  75:      Singlet-A'    18.6054 eV   66.64 nm  f=0.0103  <S**2>=0.000
       4 -> 11         0.13104
       8 -> 29         0.65802
       9 -> 32        -0.11329

 Excited State  76:      Singlet-A"    18.6263 eV   66.56 nm  f=0.0096  <S**2>=0.000
       7 -> 22         0.64553
       7 -> 24         0.12107
       8 -> 28        -0.24057

 Excited State  77:      Singlet-A"    18.6919 eV   66.33 nm  f=0.0176  <S**2>=0.000
       6 -> 20        -0.12645
       6 -> 21         0.65051
       8 -> 28         0.10803
       9 -> 31         0.14433

 Excited State  78:      Singlet-A'    18.7298 eV   66.20 nm  f=0.0780  <S**2>=0.000
       5 -> 19         0.40896
       6 -> 22        -0.16494
       7 -> 23         0.32688
       9 -> 32        -0.40813

 Excited State  79:      Singlet-A'    18.8313 eV   65.84 nm  f=0.0698  <S**2>=0.000
       5 -> 19        -0.34672
       5 -> 20         0.12550
       7 -> 23         0.54704
       8 -> 30        -0.15361

 Excited State  80:      Singlet-A"    18.9712 eV   65.35 nm  f=0.0490  <S**2>=0.000
       7 -> 24         0.67239
       8 -> 28         0.11854
       9 -> 33         0.11064

 Excited State  81:      Singlet-A'    18.9945 eV   65.27 nm  f=0.0163  <S**2>=0.000
       4 -> 11         0.10780
       5 -> 19         0.12999
       6 -> 22         0.56737
       6 -> 24         0.11279
       8 -> 30        -0.33259

 Excited State  82:      Singlet-A'    19.1159 eV   64.86 nm  f=0.0259  <S**2>=0.000
       4 -> 11        -0.34675
       6 -> 22         0.33037
       6 -> 24        -0.12437
       8 -> 30         0.36122
       9 -> 32        -0.25666

 Excited State  83:      Singlet-A"    19.1349 eV   64.79 nm  f=0.0313  <S**2>=0.000
       6 -> 23         0.63191
       9 -> 33        -0.29298

 Excited State  84:      Singlet-A'    19.1360 eV   64.79 nm  f=0.0032  <S**2>=0.000
       5 -> 19         0.26375
       6 -> 22         0.12410
       7 -> 21        -0.12142
       7 -> 23         0.23091
       8 -> 30         0.25434
       9 -> 32         0.42572
       9 -> 35         0.17852

 Excited State  85:      Singlet-A"    19.2205 eV   64.51 nm  f=0.0232  <S**2>=0.000
       6 -> 23         0.28571
       7 -> 24        -0.10495
       9 -> 33         0.61399
       9 -> 34        -0.10456

 Excited State  86:      Singlet-A'    19.2880 eV   64.28 nm  f=0.0108  <S**2>=0.000
       4 -> 11         0.43232
       5 -> 19        -0.12668
       5 -> 20        -0.24506
       6 -> 24         0.30666
       7 -> 25        -0.10720
       8 -> 30         0.28980

 Excited State  87:      Singlet-A'    19.3335 eV   64.13 nm  f=0.0465  <S**2>=0.000
       4 -> 11        -0.30911
       6 -> 24         0.58453
       9 -> 35        -0.10696

 Excited State  88:      Singlet-A'    19.6081 eV   63.23 nm  f=0.0911  <S**2>=0.000
       5 -> 20         0.49337
       7 -> 25        -0.39712
       8 -> 30         0.11913
       8 -> 31         0.11524
       9 -> 35        -0.11645

 Excited State  89:      Singlet-A"    19.6201 eV   63.19 nm  f=0.0031  <S**2>=0.000
       9 -> 33         0.10546
       9 -> 34         0.69015

 Excited State  90:      Singlet-A'    19.8276 eV   62.53 nm  f=0.0059  <S**2>=0.000
       5 -> 20         0.19789
       7 -> 25         0.49300
       7 -> 27         0.11502
       8 -> 30         0.10324
       8 -> 31         0.33803
       9 -> 35        -0.13987

 Excited State  91:      Singlet-A"    19.9930 eV   62.01 nm  f=0.0598  <S**2>=0.000
       6 -> 25         0.68905

 Excited State  92:      Singlet-A'    20.0041 eV   61.98 nm  f=0.0523  <S**2>=0.000
       4 -> 13        -0.12527
       5 -> 20        -0.20887
       6 -> 28         0.11392
       7 -> 25        -0.21132
       8 -> 31         0.57696

 Excited State  93:      Singlet-A"    20.3293 eV   60.99 nm  f=0.0017  <S**2>=0.000
       9 -> 36         0.68277

 Excited State  94:      Singlet-A'    20.3429 eV   60.95 nm  f=0.1146  <S**2>=0.000
       5 -> 19        -0.11028
       5 -> 20         0.15783
       5 -> 21        -0.21419
       5 -> 23         0.17728
       7 -> 29        -0.14559
       8 -> 36        -0.10618
       9 -> 35         0.51767

 Excited State  95:      Singlet-A"    20.3816 eV   60.83 nm  f=0.0008  <S**2>=0.000
       4 -> 12         0.41319
       8 -> 32         0.55887

 Excited State  96:      Singlet-A'    20.3894 eV   60.81 nm  f=0.0129  <S**2>=0.000
       4 -> 13         0.63853
       5 -> 21         0.13220
       7 -> 27         0.12294
       9 -> 35         0.13969

 Excited State  97:      Singlet-A"    20.3985 eV   60.78 nm  f=0.0057  <S**2>=0.000
       4 -> 12         0.53674
       5 -> 22        -0.10427
       6 -> 27         0.11217
       7 -> 26        -0.19896
       8 -> 32        -0.36975

 Excited State  98:      Singlet-A"    20.5128 eV   60.44 nm  f=0.0022  <S**2>=0.000
       4 -> 12         0.10502
       7 -> 26         0.66631
       8 -> 32        -0.15391

 Excited State  99:      Singlet-A'    20.6607 eV   60.01 nm  f=0.0646  <S**2>=0.000
       4 -> 13        -0.18341
       5 -> 21         0.59226
       6 -> 26         0.17525
       9 -> 35         0.13627

 Excited State 100:      Singlet-A'    20.7352 eV   59.79 nm  f=0.0062  <S**2>=0.000
       5 -> 21        -0.17667
       6 -> 26         0.62701
       7 -> 27        -0.12908
       8 -> 33         0.20863

 Excited State 101:      Singlet-A"    20.7676 eV   59.70 nm  f=0.0001  <S**2>=0.000
       6 -> 27         0.26499
       7 -> 28         0.63756

 Excited State 102:      Singlet-A'    20.8005 eV   59.61 nm  f=0.0317  <S**2>=0.000
       6 -> 26        -0.24384
       7 -> 27        -0.30713
       8 -> 31         0.10539
       8 -> 33         0.55466

 Excited State 103:      Singlet-A"    20.8633 eV   59.43 nm  f=0.0228  <S**2>=0.000
       5 -> 22         0.35361
       5 -> 24         0.13429
       6 -> 27         0.53559
       7 -> 28        -0.20539

 Excited State 104:      Singlet-A'    20.8768 eV   59.39 nm  f=0.0755  <S**2>=0.000
       5 -> 23        -0.11412
       6 -> 28         0.10004
       7 -> 27         0.51533
       7 -> 29        -0.15209
       8 -> 33         0.32818
       8 -> 36         0.14069

 Excited State 105:      Singlet-A"    20.9431 eV   59.20 nm  f=0.0046  <S**2>=0.000
       5 -> 22         0.58406
       5 -> 24        -0.12109
       6 -> 27        -0.25575
       7 -> 28         0.18292
       8 -> 32        -0.11388

 Excited State 106:      Singlet-A'    21.1796 eV   58.54 nm  f=0.0564  <S**2>=0.000
       4 -> 14        -0.11690
       4 -> 15        -0.12044
       5 -> 23         0.55872
       6 -> 28        -0.12762
       7 -> 27         0.13072
       7 -> 29         0.23639
       7 -> 30        -0.19996

 Excited State 107:      Singlet-A'    21.2270 eV   58.41 nm  f=0.0117  <S**2>=0.000
       4 -> 15         0.21168
       6 -> 28         0.35468
       7 -> 29         0.13790
       7 -> 30         0.10569
       8 -> 34         0.51537

 Excited State 108:      Singlet-A'    21.2426 eV   58.37 nm  f=0.0419  <S**2>=0.000
       4 -> 14         0.34370
       4 -> 15         0.23745
       7 -> 29         0.45320
       7 -> 30        -0.11572
       8 -> 34        -0.25858

 The electronic state is 1-A'.
 Alpha  occ. eigenvalues --  -19.21992 -10.27643  -1.04312  -0.70011  -0.53051
 Alpha  occ. eigenvalues --   -0.45796  -0.44601  -0.35351  -0.29453
 Alpha virt. eigenvalues --    0.02214   0.05342   0.09799   0.09911   0.12923
 Alpha virt. eigenvalues --    0.14382   0.15259   0.17441   0.17579   0.21472
 Alpha virt. eigenvalues --    0.24978   0.28494   0.29187   0.30001   0.30660

 Mulliken charges:
               1
     1  C    0.487496
     2  O   -0.485846
     3  H   -0.032151
     4  H   -0.032151
     5  H   -0.105124
     6  H    0.167777
 Sum of Mulliken charges =  -0.00000

 Dipole moment (field-independent basis, Debye):
    X=             -1.3831    Y=              0.9515    Z=             -0.0000  Tot=              1.6788
 Quadrupole moment (field-independent basis, Debye-Ang):
   XX=            -11.8585   YY=            -13.4688   ZZ=            -13.9105
   XY=              2.1197   XZ=              0.0000   YZ=             -0.0000

 1\1\GINC-HEL13\SP\RPBE1PBE TD-FC\Gen\C1H4O1\SABYASACHI\21-Mar-2022\0\\
 #P TD(Nstates=10000) pbe1pbe/Gen SCF(maxcycles=100) Int(Grid=ultrafine
 )\\xGDB7_00001_tier4.com\\0,1\C,0,0.046419,0.658432,0.\O,0,0.046419,-0
 .751929,0.\H,0,-0.438905,1.073261,0.890797\H,0,-0.438905,1.073261,-0.8
 90797\H,0,1.087855,0.977571,0.\H,0,-0.859911,-1.059251,0.\\Version=EM6
 4L-G16RevC.01\State=1-A'\HF=-115.5136371\RMSD=5.291e-09\PG=CS [SG(C1H2
 O1),X(H2)]\\@
 The archive entry for this job was punched.

 Normal termination of Gaussian 16 at Mon Mar 21 04:15:09 2022.
