 Gaussian 16, Revision C.01,
 Gaussian 16:  EM64L-G16RevC.01  3-Jul-2019

 ----------------------------------------------------------------------
 #P TD(Nstates=10000) pbe1pbe/Gen SCF(maxcycles=100) Int(Grid=ultrafine
 )
 ----------------------------------------------------------------------

 ---------------------
 xGDB7_00001_tier4.com
 ---------------------
 Symbolic Z-matrix:
 Charge =  0 Multiplicity = 1

                         Standard orientation:
 ---------------------------------------------------------------------
 Center     Atomic      Atomic             Coordinates (Angstroms)
 Number     Number       Type             X           Y           Z
 ---------------------------------------------------------------------
      1          6           0        0.926251   -0.719055    0.000000
      2          6           0        0.000000    0.459276    0.000000
      3          8           0       -1.196998    0.387136    0.000000
      4          1           0        1.575965   -0.668678    0.877698
      5          1           0        1.575965   -0.668678   -0.877698
      6          1           0        0.366733   -1.652236    0.000000
      7          1           0        0.499813    1.451182    0.000000
 ---------------------------------------------------------------------

 SCF Done:  E(RPBE1PBE) =  -153.548460901     A.U. after   12 cycles

 Excitation energies and oscillator strengths:

 Excited State   1:      Singlet-A"     4.3575 eV  284.53 nm  f=0.0001  <S**2>=0.000
      12 -> 13         0.70543
 This state for optimization and/or second-order correction.
 Total Energy, E(TD-HF/TD-DFT) =  -153.388325878
 Copying the excited state density for this state as the 1-particle RhoCI density.

 Excited State   2:      Singlet-A'     7.1836 eV  172.59 nm  f=0.0191  <S**2>=0.000
      12 -> 14         0.68880
      12 -> 15         0.12693

 Excited State   3:      Singlet-A'     7.9138 eV  156.67 nm  f=0.0750  <S**2>=0.000
      12 -> 14        -0.12340
      12 -> 15         0.69100

 Excited State   4:      Singlet-A"     8.6935 eV  142.62 nm  f=0.0001  <S**2>=0.000
      10 -> 13         0.68340
      12 -> 16        -0.11309

 Excited State   5:      Singlet-A'     8.8303 eV  140.41 nm  f=0.0766  <S**2>=0.000
      11 -> 13        -0.29876
      12 -> 17         0.60866
      12 -> 18        -0.18005

 Excited State   6:      Singlet-A"     8.8833 eV  139.57 nm  f=0.0180  <S**2>=0.000
      10 -> 13         0.11425
      12 -> 16         0.69176

 Excited State   7:      Singlet-A'     9.1457 eV  135.57 nm  f=0.2201  <S**2>=0.000
      11 -> 13         0.43711
      12 -> 17         0.34137
      12 -> 18         0.39741

 Excited State   8:      Singlet-A'     9.3252 eV  132.96 nm  f=0.0653  <S**2>=0.000
       8 -> 13         0.14504
      11 -> 13        -0.39526
      12 -> 18         0.54717

 Excited State   9:      Singlet-A"     9.5142 eV  130.32 nm  f=0.0006  <S**2>=0.000
       9 -> 13         0.61291
      12 -> 19         0.33475

 Excited State  10:      Singlet-A"     9.6616 eV  128.33 nm  f=0.0000  <S**2>=0.000
       9 -> 13        -0.33171
      12 -> 19         0.61785

 Excited State  11:      Singlet-A'     9.7510 eV  127.15 nm  f=0.0644  <S**2>=0.000
      12 -> 20         0.69919

 Excited State  12:      Singlet-A"    10.0899 eV  122.88 nm  f=0.0080  <S**2>=0.000
      11 -> 14         0.70186

 Excited State  13:      Singlet-A'    10.2463 eV  121.00 nm  f=0.0089  <S**2>=0.000
      12 -> 21         0.69455

 Excited State  14:      Singlet-A'    10.7796 eV  115.02 nm  f=0.0398  <S**2>=0.000
       8 -> 13         0.27263
      10 -> 14         0.64099

 Excited State  15:      Singlet-A"    10.7942 eV  114.86 nm  f=0.0081  <S**2>=0.000
       7 -> 13         0.66771
      10 -> 13        -0.10134
      11 -> 15        -0.17388

 Excited State  16:      Singlet-A"    10.8856 eV  113.90 nm  f=0.0257  <S**2>=0.000
       7 -> 13         0.14691
      11 -> 15         0.65015
      12 -> 22        -0.20929

 Excited State  17:      Singlet-A"    10.9382 eV  113.35 nm  f=0.0007  <S**2>=0.000
      11 -> 15         0.19110
      12 -> 22         0.66919

 Excited State  18:      Singlet-A'    10.9958 eV  112.76 nm  f=0.0782  <S**2>=0.000
       8 -> 13         0.57438
      10 -> 14        -0.27633
      11 -> 13         0.11615
      12 -> 23        -0.22217

 Excited State  19:      Singlet-A'    11.4454 eV  108.33 nm  f=0.0323  <S**2>=0.000
       8 -> 13         0.14596
      12 -> 23         0.48748
      12 -> 24         0.46696

 Excited State  20:      Singlet-A'    11.6698 eV  106.24 nm  f=0.0457  <S**2>=0.000
      10 -> 15         0.62263
      12 -> 23        -0.21304
      12 -> 24         0.18417

 Excited State  21:      Singlet-A'    11.6954 eV  106.01 nm  f=0.1146  <S**2>=0.000
      10 -> 15        -0.27889
      11 -> 16        -0.20112
      12 -> 23        -0.36083
      12 -> 24         0.46362

 Excited State  22:      Singlet-A"    11.8796 eV  104.37 nm  f=0.0893  <S**2>=0.000
       8 -> 14         0.20251
      11 -> 17         0.66771

 Excited State  23:      Singlet-A'    11.9287 eV  103.94 nm  f=0.0739  <S**2>=0.000
      10 -> 15        -0.13482
      11 -> 16         0.63980
      12 -> 24         0.12192
      12 -> 25        -0.19769

 Excited State  24:      Singlet-A'    12.0902 eV  102.55 nm  f=0.0093  <S**2>=0.000
       9 -> 14        -0.43520
      11 -> 16         0.11363
      12 -> 25         0.53286

 Excited State  25:      Singlet-A"    12.1559 eV  102.00 nm  f=0.0326  <S**2>=0.000
       8 -> 14         0.28914
      11 -> 18         0.63096

 Excited State  26:      Singlet-A'    12.2046 eV  101.59 nm  f=0.0000  <S**2>=0.000
       9 -> 14         0.52617
      10 -> 17        -0.10132
      11 -> 16         0.14848
      12 -> 25         0.38621

 Excited State  27:      Singlet-A"    12.2344 eV  101.34 nm  f=0.0598  <S**2>=0.000
       8 -> 14         0.60286
      11 -> 17        -0.21358
      11 -> 18        -0.27342

 Excited State  28:      Singlet-A"    12.4843 eV   99.31 nm  f=0.0056  <S**2>=0.000
      10 -> 16         0.67333
      11 -> 20        -0.11804

 Excited State  29:      Singlet-A"    12.6920 eV   97.69 nm  f=0.0059  <S**2>=0.000
       8 -> 15         0.26997
      10 -> 16         0.13922
      11 -> 20         0.62584

 Excited State  30:      Singlet-A'    12.7865 eV   96.96 nm  f=0.0110  <S**2>=0.000
       9 -> 15         0.32366
      10 -> 17        -0.18242
      11 -> 19         0.56456

 Excited State  31:      Singlet-A'    12.7986 eV   96.87 nm  f=0.0127  <S**2>=0.000
       9 -> 15         0.27273
      10 -> 17         0.61383
      10 -> 20        -0.16156

 Excited State  32:      Singlet-A'    12.8999 eV   96.11 nm  f=0.0074  <S**2>=0.000
       9 -> 15         0.50291
      10 -> 17        -0.18003
      10 -> 18         0.26476
      11 -> 19        -0.34177

 Excited State  33:      Singlet-A"    12.9737 eV   95.57 nm  f=0.0153  <S**2>=0.000
      12 -> 26         0.69571

 Excited State  34:      Singlet-A"    13.0195 eV   95.23 nm  f=0.0054  <S**2>=0.000
       8 -> 15         0.58457
      11 -> 20        -0.27286
      11 -> 21        -0.25288

 Excited State  35:      Singlet-A'    13.0926 eV   94.70 nm  f=0.1641  <S**2>=0.000
       7 -> 14        -0.16607
       9 -> 15        -0.22071
       9 -> 17         0.14006
      10 -> 18         0.60291
      11 -> 22         0.10017

 Excited State  36:      Singlet-A"    13.2554 eV   93.53 nm  f=0.0027  <S**2>=0.000
       8 -> 15         0.24503
       8 -> 17         0.10228
      10 -> 19        -0.13722
      11 -> 21         0.62736

 Excited State  37:      Singlet-A'    13.2747 eV   93.40 nm  f=0.0132  <S**2>=0.000
       7 -> 14         0.66356
       8 -> 16         0.10115
      10 -> 18         0.13594

 Excited State  38:      Singlet-A"    13.4495 eV   92.19 nm  f=0.0274  <S**2>=0.000
      10 -> 19         0.56277
      11 -> 21         0.11189
      12 -> 27        -0.35461

 Excited State  39:      Singlet-A'    13.4829 eV   91.96 nm  f=0.0338  <S**2>=0.000
       7 -> 15         0.12799
       8 -> 16         0.16065
      10 -> 17         0.11174
      10 -> 20         0.62345
      11 -> 22         0.14258

 Excited State  40:      Singlet-A"    13.5227 eV   91.69 nm  f=0.0075  <S**2>=0.000
      10 -> 19         0.31162
      12 -> 27         0.59956

 Excited State  41:      Singlet-A"    13.8077 eV   89.79 nm  f=0.0006  <S**2>=0.000
       6 -> 13        -0.19919
       8 -> 17         0.11660
       9 -> 16         0.63289

 Excited State  42:      Singlet-A'    13.8206 eV   89.71 nm  f=0.0396  <S**2>=0.000
       7 -> 15         0.11363
       9 -> 17         0.57733
       9 -> 18        -0.13752
      10 -> 21        -0.21838
      12 -> 28        -0.24077

 Excited State  43:      Singlet-A"    13.8347 eV   89.62 nm  f=0.0008  <S**2>=0.000
       6 -> 13         0.52299
       8 -> 17        -0.19448
       8 -> 18         0.23214
       9 -> 16         0.26522
      11 -> 23        -0.15428

 Excited State  44:      Singlet-A'    13.8914 eV   89.25 nm  f=0.0088  <S**2>=0.000
       7 -> 15        -0.32261
       8 -> 16        -0.23835
       9 -> 17         0.13575
       9 -> 18        -0.15500
      10 -> 17         0.10481
      10 -> 20         0.22719
      10 -> 21         0.35877
      11 -> 22        -0.26927

 Excited State  45:      Singlet-A'    13.9257 eV   89.03 nm  f=0.0529  <S**2>=0.000
       9 -> 17         0.22906
       9 -> 18         0.14866
      11 -> 22        -0.19248
      12 -> 28         0.59920

 Excited State  46:      Singlet-A'    14.0343 eV   88.34 nm  f=0.1041  <S**2>=0.000
       7 -> 15         0.57710
       8 -> 16        -0.18168
      10 -> 21         0.29880
      11 -> 22        -0.12040

 Excited State  47:      Singlet-A'    14.0915 eV   87.99 nm  f=0.0394  <S**2>=0.000
       8 -> 16        -0.35951
       9 -> 17         0.18163
       9 -> 18         0.14030
      11 -> 22         0.52302

 Excited State  48:      Singlet-A"    14.1317 eV   87.74 nm  f=0.0004  <S**2>=0.000
       8 -> 17         0.53288
       8 -> 18         0.34711
      11 -> 21        -0.11723
      11 -> 23        -0.24217

 Excited State  49:      Singlet-A'    14.2702 eV   86.88 nm  f=0.0450  <S**2>=0.000
       9 -> 18         0.56562
      11 -> 22        -0.17537
      12 -> 28        -0.20666
      12 -> 29         0.23183

 Excited State  50:      Singlet-A"    14.2939 eV   86.74 nm  f=0.0643  <S**2>=0.000
       6 -> 13        -0.28475
       8 -> 17        -0.29138
       8 -> 18         0.43328
       8 -> 20        -0.11022
      10 -> 19        -0.11225
      11 -> 24         0.23462
      11 -> 25         0.18987

 Excited State  51:      Singlet-A"    14.3708 eV   86.27 nm  f=0.0005  <S**2>=0.000
       6 -> 13         0.10587
       8 -> 17         0.14633
       8 -> 18         0.21455
       8 -> 20         0.12643
       9 -> 19         0.12666
      11 -> 23         0.57849
      11 -> 24         0.20119

 Excited State  52:      Singlet-A'    14.4033 eV   86.08 nm  f=0.0579  <S**2>=0.000
       8 -> 16         0.42171
       9 -> 17         0.14632
       9 -> 18         0.10588
       9 -> 20         0.13059
      10 -> 21         0.42837
      11 -> 22         0.10162
      12 -> 29         0.11958

 Excited State  53:      Singlet-A"    14.4536 eV   85.78 nm  f=0.0149  <S**2>=0.000
       7 -> 16         0.21297
       9 -> 19         0.42458
      10 -> 22         0.49070

 Excited State  54:      Singlet-A"    14.6145 eV   84.84 nm  f=0.0042  <S**2>=0.000
       8 -> 17         0.10438
       8 -> 18        -0.17140
       8 -> 21         0.10025
       9 -> 19         0.23737
      10 -> 22        -0.22384
      11 -> 23        -0.18892
      11 -> 24         0.52882

 Excited State  55:      Singlet-A"    14.6484 eV   84.64 nm  f=0.0001  <S**2>=0.000
       9 -> 19         0.46556
      10 -> 22        -0.36835
      11 -> 24        -0.30021
      11 -> 25         0.10977

 Excited State  56:      Singlet-A'    14.7432 eV   84.10 nm  f=0.0870  <S**2>=0.000
       9 -> 20         0.61686
       9 -> 21         0.10923
      12 -> 29         0.19553

 Excited State  57:      Singlet-A'    14.7489 eV   84.06 nm  f=0.1226  <S**2>=0.000
       7 -> 17        -0.10384
       7 -> 18        -0.15740
       8 -> 19        -0.10037
       9 -> 18        -0.15560
       9 -> 20        -0.21638
       9 -> 21         0.10670
      10 -> 24        -0.13063
      12 -> 29         0.56412

 Excited State  58:      Singlet-A"    14.8870 eV   83.28 nm  f=0.0138  <S**2>=0.000
       7 -> 16         0.51969
       8 -> 20        -0.34819
       9 -> 19        -0.14064
      10 -> 19         0.10113
      11 -> 25         0.18503

 Excited State  59:      Singlet-A'    14.9240 eV   83.08 nm  f=0.0387  <S**2>=0.000
       7 -> 17        -0.14866
       8 -> 19         0.63168
       9 -> 20        -0.10909
      10 -> 24         0.10771

 Excited State  60:      Singlet-A"    15.0159 eV   82.57 nm  f=0.0122  <S**2>=0.000
       7 -> 16         0.20376
       8 -> 20         0.49907
       8 -> 21        -0.17875
      11 -> 23        -0.10701
      11 -> 25         0.38097

 Excited State  61:      Singlet-A'    15.0411 eV   82.43 nm  f=0.0606  <S**2>=0.000
       7 -> 17         0.58299
       7 -> 18        -0.15669
       8 -> 19         0.15003
       9 -> 21        -0.22482
      12 -> 31        -0.13944

 Excited State  62:      Singlet-A'    15.2215 eV   81.45 nm  f=0.0483  <S**2>=0.000
       7 -> 18         0.45725
       8 -> 19        -0.10995
       9 -> 21        -0.41787
      10 -> 24         0.13439
      12 -> 29         0.13735
      12 -> 31        -0.13372

 Excited State  63:      Singlet-A"    15.2533 eV   81.28 nm  f=0.3543  <S**2>=0.000
       6 -> 13         0.18109
       7 -> 16        -0.33132
       7 -> 19         0.18719
       8 -> 18        -0.10038
       8 -> 20        -0.16496
      10 -> 22         0.18423
      11 -> 25         0.44834
      12 -> 30        -0.11636

 Excited State  64:      Singlet-A'    15.2607 eV   81.24 nm  f=0.0238  <S**2>=0.000
       9 -> 21         0.19211
      10 -> 23         0.45536
      10 -> 24         0.15899
      12 -> 31        -0.44973

 Excited State  65:      Singlet-A'    15.3945 eV   80.54 nm  f=0.1786  <S**2>=0.000
       7 -> 17        -0.12716
       7 -> 18        -0.24133
       7 -> 20        -0.16054
       9 -> 21        -0.26480
      10 -> 23         0.27873
      10 -> 24         0.31410
      10 -> 25         0.14516
      12 -> 31         0.31297

 Excited State  66:      Singlet-A"    15.4561 eV   80.22 nm  f=0.0000  <S**2>=0.000
       8 -> 20         0.10227
       8 -> 21         0.62487
      11 -> 24        -0.11793
      11 -> 25         0.16192
      12 -> 30         0.17749

 Excited State  67:      Singlet-A'    15.4795 eV   80.10 nm  f=0.0857  <S**2>=0.000
       7 -> 17         0.24630
       7 -> 18         0.23808
       9 -> 21         0.33348
      10 -> 24         0.32583
      10 -> 25         0.10597
      12 -> 31         0.24992
      12 -> 32        -0.13683

 Excited State  68:      Singlet-A"    15.5210 eV   79.88 nm  f=0.0555  <S**2>=0.000
       8 -> 21        -0.17606
      12 -> 30         0.66791

 Excited State  69:      Singlet-A'    15.5525 eV   79.72 nm  f=0.0367  <S**2>=0.000
       7 -> 18         0.25111
       7 -> 20         0.14885
       9 -> 23        -0.11802
      10 -> 23         0.39536
      10 -> 24        -0.32825
      12 -> 31         0.23632
      12 -> 32         0.15355
      12 -> 34         0.10083

 Excited State  70:      Singlet-A'    15.6764 eV   79.09 nm  f=0.0451  <S**2>=0.000
       8 -> 22         0.12596
      10 -> 24         0.15568
      10 -> 25        -0.10013
      12 -> 31        -0.11217
      12 -> 32         0.61548

 Excited State  71:      Singlet-A'    15.7752 eV   78.59 nm  f=0.0355  <S**2>=0.000
       6 -> 14         0.14706
       7 -> 20        -0.15467
      10 -> 24        -0.20619
      10 -> 25         0.57605
      12 -> 32         0.11429

 Excited State  72:      Singlet-A"    15.7924 eV   78.51 nm  f=0.0345  <S**2>=0.000
       7 -> 19         0.49307
       9 -> 22         0.45608

 Excited State  73:      Singlet-A'    15.8785 eV   78.08 nm  f=0.0246  <S**2>=0.000
       6 -> 14         0.62178
       7 -> 20        -0.20747
      10 -> 25        -0.18613

 Excited State  74:      Singlet-A"    15.9075 eV   77.94 nm  f=0.1201  <S**2>=0.000
       7 -> 19        -0.43436
       9 -> 22         0.52422

 Excited State  75:      Singlet-A'    15.9755 eV   77.61 nm  f=0.0137  <S**2>=0.000
       6 -> 14         0.20248
       7 -> 18        -0.12717
       7 -> 20         0.50148
       8 -> 22         0.31362
       9 -> 23        -0.13691
      10 -> 25         0.11609

 Excited State  76:      Singlet-A'    16.0384 eV   77.30 nm  f=0.1035  <S**2>=0.000
       7 -> 20        -0.16070
       8 -> 22         0.46210
      10 -> 25        -0.13596
      11 -> 26         0.30418
      11 -> 27         0.10600
      12 -> 34        -0.33461

 Excited State  77:      Singlet-A'    16.2009 eV   76.53 nm  f=0.0278  <S**2>=0.000
       6 -> 14         0.13507
       6 -> 15        -0.10887
       7 -> 20         0.20965
       7 -> 21         0.11896
       8 -> 22        -0.19669
       9 -> 23         0.20333
      11 -> 26         0.53140
      11 -> 27        -0.11410

 Excited State  78:      Singlet-A"    16.2563 eV   76.27 nm  f=0.0163  <S**2>=0.000
      12 -> 33         0.68047

 Excited State  79:      Singlet-A'    16.3173 eV   75.98 nm  f=0.0221  <S**2>=0.000
       7 -> 20        -0.17236
       7 -> 21        -0.25291
       8 -> 22         0.11475
       9 -> 24         0.10107
      11 -> 26         0.18277
      11 -> 27         0.13562
      12 -> 34         0.48875
      12 -> 35         0.22343

 Excited State  80:      Singlet-A'    16.3618 eV   75.78 nm  f=0.0749  <S**2>=0.000
       7 -> 21         0.49855
       8 -> 22         0.16463
       9 -> 23         0.30671
       9 -> 25         0.10004
      10 -> 24        -0.10388
      11 -> 26        -0.13043
      11 -> 27         0.14508
      12 -> 34         0.17417

 Excited State  81:      Singlet-A'    16.4848 eV   75.21 nm  f=0.0926  <S**2>=0.000
       7 -> 21        -0.23112
       8 -> 22         0.17528
       9 -> 23         0.43620
       9 -> 24         0.22249
      11 -> 27        -0.33018

 Excited State  82:      Singlet-A"    16.4866 eV   75.20 nm  f=0.0002  <S**2>=0.000
       8 -> 23         0.61122
       8 -> 24         0.30702
      12 -> 33         0.11322

 Excited State  83:      Singlet-A'    16.5223 eV   75.04 nm  f=0.0357  <S**2>=0.000
       7 -> 21        -0.25233
       8 -> 22        -0.10264
       9 -> 23         0.32596
       9 -> 24        -0.31969
       9 -> 25        -0.12043
      11 -> 27         0.40075
      12 -> 34        -0.10494

 Excited State  84:      Singlet-A'    16.6986 eV   74.25 nm  f=0.0767  <S**2>=0.000
       9 -> 24         0.23142
      11 -> 26        -0.11492
      12 -> 34        -0.18172
      12 -> 35         0.57009
      12 -> 36        -0.14579

 Excited State  85:      Singlet-A'    16.7289 eV   74.11 nm  f=0.0999  <S**2>=0.000
       6 -> 15        -0.31749
       9 -> 24         0.39516
       9 -> 25        -0.11823
      11 -> 27         0.30716
      12 -> 35        -0.28174

 Excited State  86:      Singlet-A"    16.7316 eV   74.10 nm  f=0.0064  <S**2>=0.000
       8 -> 23        -0.30766
       8 -> 24         0.59999
      11 -> 28         0.15909

 Excited State  87:      Singlet-A'    16.8591 eV   73.54 nm  f=0.0120  <S**2>=0.000
       6 -> 15         0.53486
       7 -> 21         0.12942
       9 -> 24         0.26167
       9 -> 25        -0.23479
      12 -> 36         0.11350

 Excited State  88:      Singlet-A"    16.8829 eV   73.44 nm  f=0.0126  <S**2>=0.000
       7 -> 22        -0.12128
       8 -> 24        -0.13744
      10 -> 26        -0.13920
      11 -> 28         0.64797
      11 -> 29         0.10395

 Excited State  89:      Singlet-A"    16.8981 eV   73.37 nm  f=0.0259  <S**2>=0.000
       7 -> 22         0.12109
       8 -> 25         0.11533
      10 -> 26         0.64183
      10 -> 27         0.12292
      11 -> 28         0.17283

 Excited State  90:      Singlet-A"    17.0169 eV   72.86 nm  f=0.0812  <S**2>=0.000
       7 -> 22         0.60753
      10 -> 26        -0.16286
      10 -> 27         0.25910

 Excited State  91:      Singlet-A'    17.0265 eV   72.82 nm  f=0.0431  <S**2>=0.000
       6 -> 15         0.20272
       9 -> 25         0.55849
      11 -> 27         0.14212
      12 -> 36        -0.26151

 Excited State  92:      Singlet-A"    17.1372 eV   72.35 nm  f=0.0117  <S**2>=0.000
       7 -> 22        -0.11605
       8 -> 25         0.58186
      10 -> 26        -0.13763
      10 -> 27         0.31711

 Excited State  93:      Singlet-A'    17.1824 eV   72.16 nm  f=0.0312  <S**2>=0.000
       7 -> 23        -0.11900
       7 -> 24        -0.11815
       9 -> 25         0.21526
      12 -> 36         0.56539
      12 -> 37        -0.19761

 Excited State  94:      Singlet-A"    17.2670 eV   71.80 nm  f=0.0000  <S**2>=0.000
       7 -> 22        -0.24865
       8 -> 25        -0.32905
      10 -> 27         0.55018

 Excited State  95:      Singlet-A"    17.4529 eV   71.04 nm  f=0.0041  <S**2>=0.000
      12 -> 38         0.69385

 Excited State  96:      Singlet-A'    17.4630 eV   71.00 nm  f=0.0732  <S**2>=0.000
       6 -> 17         0.16443
       6 -> 18        -0.12616
       7 -> 23        -0.20118
       7 -> 24        -0.13165
      12 -> 37         0.60527

 Excited State  97:      Singlet-A"    17.5134 eV   70.79 nm  f=0.0451  <S**2>=0.000
      11 -> 29         0.66494

 Excited State  98:      Singlet-A"    17.5313 eV   70.72 nm  f=0.0097  <S**2>=0.000
       6 -> 16         0.69061

 Excited State  99:      Singlet-A'    17.5426 eV   70.68 nm  f=0.0488  <S**2>=0.000
       6 -> 17         0.17860
       6 -> 18        -0.14169
       7 -> 23         0.58133
      12 -> 36         0.12115
      12 -> 37         0.12090

 Excited State 100:      Singlet-A'    17.7292 eV   69.93 nm  f=0.0175  <S**2>=0.000
       6 -> 17         0.12952
       7 -> 24        -0.17377
      10 -> 28         0.62291

 Excited State 101:      Singlet-A'    17.7631 eV   69.80 nm  f=0.1335  <S**2>=0.000

 The electronic state is 1-A'.
 Alpha  occ. eigenvalues --  -19.22378 -10.33283 -10.24888  -1.07899  -0.77702
 Alpha  occ. eigenvalues --   -0.59874  -0.50277  -0.46776  -0.46146  -0.41767
 Alpha  occ. eigenvalues --   -0.38956  -0.27849
 Alpha virt. eigenvalues --   -0.02842   0.02913   0.05679   0.09471   0.09866
 Alpha virt. eigenvalues --    0.11083   0.12747   0.12789   0.14363   0.16993
 Alpha virt. eigenvalues --    0.18947   0.19883   0.21278   0.25179   0.26881

 Mulliken charges:
               1
     1  C    0.147770
     2  C    0.086690
     3  O   -0.381512
     4  H    0.112759
     5  H    0.112759
     6  H    0.020003
     7  H   -0.098470
 Sum of Mulliken charges =  -0.00000

 Dipole moment (field-independent basis, Debye):
    X=              2.8822    Y=             -0.3405    Z=             -0.0000  Tot=              2.9023
 Quadrupole moment (field-independent basis, Debye-Ang):
   XX=            -21.2468   YY=            -17.9470   ZZ=            -17.9579
   XY=              0.8069   XZ=             -0.0000   YZ=              0.0000

 1\1\GINC-HEL12\SP\RPBE1PBE TD-FC\Gen\C2H4O1\SABYASACHI\21-Mar-2022\0\\
 #P TD(Nstates=10000) pbe1pbe/Gen SCF(maxcycles=100) Int(Grid=ultrafine
 )\\xGDB7_00001_tier4.com\\0,1\C,0,0.926252,-0.719055,0.\C,0,0.,0.45927
 6,0.\O,0,-1.196998,0.387135,0.\H,0,1.575966,-0.668677,0.877698\H,0,1.5
 75966,-0.668677,-0.877698\H,0,0.366734,-1.652236,0.\H,0,0.499812,1.451
 182,0.\\Version=EM64L-G16RevC.01\State=1-A'\HF=-153.5484609\RMSD=6.580
 e-09\PG=CS [SG(C2H2O1),X(H2)]\\@
 The archive entry for this job was punched.

 Normal termination of Gaussian 16 at Mon Mar 21 20:11:13 2022.
