 Gaussian 16, Revision C.01,
 Gaussian 16:  EM64L-G16RevC.01  3-Jul-2019

 ----------------------------------------------------------------------
 #P TD(Nstates=10000) pbe1pbe/Gen SCF(maxcycles=100) Int(Grid=ultrafine
 )
 ----------------------------------------------------------------------

 ---------------------
 xGDB7_00001_tier4.com
 ---------------------
 Symbolic Z-matrix:
 Charge =  0 Multiplicity = 1

                         Standard orientation:
 ---------------------------------------------------------------------
 Center     Atomic      Atomic             Coordinates (Angstroms)
 Number     Number       Type             X           Y           Z
 ---------------------------------------------------------------------
      1          6           0        0.000284   -0.018657   -1.236532
      2          6           0       -0.000055    0.003295    0.218717
      3          6           0       -0.000323    0.021367    1.415619
      4          1           0        0.273656    0.958689   -1.636635
      5          1           0       -0.987794   -0.279414   -1.618263
      6          1           0        0.715256   -0.752703   -1.610700
      7          1           0       -0.000556    0.037402    2.478776
 ---------------------------------------------------------------------

 SCF Done:  E(RPBE1PBE) =  -116.422657016     A.U. after   12 cycles

 Excitation energies and oscillator strengths:

 Excited State   1:      Singlet-A      6.7971 eV  182.41 nm  f=0.0000  <S**2>=0.000
      10 -> 13        -0.32707
      10 -> 14         0.37150
      11 -> 13         0.37153
      11 -> 14         0.32707
 This state for optimization and/or second-order correction.
 Total Energy, E(TD-HF/TD-DFT) =  -116.172867820
 Copying the excited state density for this state as the 1-particle RhoCI density.

 Excited State   2:      Singlet-A      7.0704 eV  175.36 nm  f=0.0009  <S**2>=0.000
      10 -> 13        -0.21210
      10 -> 14         0.44874
      11 -> 13        -0.44872
      11 -> 14        -0.21207

 Excited State   3:      Singlet-A      7.0704 eV  175.36 nm  f=0.0009  <S**2>=0.000
      10 -> 13         0.44872
      10 -> 14         0.21209
      11 -> 13        -0.21208
      11 -> 14         0.44874

 Excited State   4:      Singlet-A      7.3614 eV  168.42 nm  f=0.0117  <S**2>=0.000
      11 -> 12         0.70093

 Excited State   5:      Singlet-A      7.3614 eV  168.42 nm  f=0.0117  <S**2>=0.000
      10 -> 12         0.70093

 Excited State   6:      Singlet-A      8.3621 eV  148.27 nm  f=0.0309  <S**2>=0.000
      11 -> 15         0.69892

 Excited State   7:      Singlet-A      8.3621 eV  148.27 nm  f=0.0309  <S**2>=0.000
      10 -> 15         0.69892

 Excited State   8:      Singlet-A      9.0101 eV  137.61 nm  f=0.0524  <S**2>=0.000
      11 -> 16         0.69574

 Excited State   9:      Singlet-A      9.0101 eV  137.61 nm  f=0.0524  <S**2>=0.000
      10 -> 16         0.69574

 Excited State  10:      Singlet-A      9.4651 eV  130.99 nm  f=0.6873  <S**2>=0.000
      10 -> 13        -0.30072
      10 -> 14        -0.26474
      10 -> 17        -0.26220
      10 -> 18         0.10132
      11 -> 13        -0.26474
      11 -> 14         0.30072
      11 -> 17         0.10132
      11 -> 18         0.26220

 Excited State  11:      Singlet-A     10.0080 eV  123.89 nm  f=0.0000  <S**2>=0.000
      10 -> 17         0.17627
      10 -> 18         0.45544
      11 -> 17         0.45622
      11 -> 18        -0.17601

 Excited State  12:      Singlet-A     10.0199 eV  123.74 nm  f=0.0045  <S**2>=0.000
      10 -> 17        -0.25142
      10 -> 18         0.42704
      11 -> 17        -0.42630
      11 -> 18        -0.25171

 Excited State  13:      Singlet-A     10.0199 eV  123.74 nm  f=0.0045  <S**2>=0.000
      10 -> 17         0.42670
      10 -> 18         0.25164
      11 -> 17        -0.25149
      11 -> 18         0.42664

 Excited State  14:      Singlet-A     10.6418 eV  116.51 nm  f=0.0000  <S**2>=0.000
      10 -> 19        -0.40271
      10 -> 20        -0.28025
      11 -> 19        -0.28027
      11 -> 20         0.40272

 Excited State  15:      Singlet-A     10.6634 eV  116.27 nm  f=0.5674  <S**2>=0.000
      10 -> 13        -0.18886
      10 -> 14        -0.16626
      10 -> 17         0.37523
      10 -> 18        -0.14500
      11 -> 13        -0.16626
      11 -> 14         0.18886
      11 -> 17        -0.14499
      11 -> 18        -0.37522

 Excited State  16:      Singlet-A     10.7290 eV  115.56 nm  f=0.0000  <S**2>=0.000
      10 -> 20         0.44544
      10 -> 21         0.28290
      11 -> 19        -0.44531

 Excited State  17:      Singlet-A     10.7290 eV  115.56 nm  f=0.0000  <S**2>=0.000
      10 -> 19         0.44548
      11 -> 20         0.44528
      11 -> 21        -0.28289

 Excited State  18:      Singlet-A     10.7484 eV  115.35 nm  f=0.0219  <S**2>=0.000
      10 -> 19        -0.28205
      10 -> 20         0.40549
      11 -> 19         0.40561
      11 -> 20         0.28241

 Excited State  19:      Singlet-A     10.8530 eV  114.24 nm  f=0.0261  <S**2>=0.000
      10 -> 19         0.19648
      11 -> 20         0.19643
      11 -> 21         0.63705

 Excited State  20:      Singlet-A     10.8531 eV  114.24 nm  f=0.0261  <S**2>=0.000
      10 -> 20        -0.19651
      10 -> 21         0.63704
      11 -> 19         0.19641

 Excited State  21:      Singlet-A     11.6537 eV  106.39 nm  f=0.1161  <S**2>=0.000
       9 -> 12         0.69297

 Excited State  22:      Singlet-A     11.6538 eV  106.39 nm  f=0.1161  <S**2>=0.000
       8 -> 12         0.69297

 Excited State  23:      Singlet-A     11.8131 eV  104.96 nm  f=0.0115  <S**2>=0.000
      10 -> 22         0.42131
      10 -> 23        -0.24714
      11 -> 22         0.24730
      11 -> 23         0.42126

 Excited State  24:      Singlet-A     11.8131 eV  104.96 nm  f=0.0115  <S**2>=0.000
      10 -> 22        -0.24717
      10 -> 23        -0.42114
      11 -> 22         0.42143
      11 -> 23        -0.24727

 Excited State  25:      Singlet-A     11.8349 eV  104.76 nm  f=0.0000  <S**2>=0.000
      10 -> 22         0.15080
      10 -> 23         0.45887
      11 -> 22         0.45851
      11 -> 23        -0.15079

 Excited State  26:      Singlet-A     11.8702 eV  104.45 nm  f=0.0000  <S**2>=0.000
       8 -> 13        -0.40511
       8 -> 14         0.26123
       9 -> 13         0.26143
       9 -> 14         0.40527
      10 -> 23         0.10892
      11 -> 22         0.10893

 Excited State  27:      Singlet-A     12.0108 eV  103.23 nm  f=0.0194  <S**2>=0.000
       7 -> 13        -0.33287
       7 -> 14         0.10246
       8 -> 13        -0.16886
       8 -> 14        -0.37020
       9 -> 13         0.37021
       9 -> 14        -0.16902
      10 -> 24         0.10358
      11 -> 24         0.16883

 Excited State  28:      Singlet-A     12.0108 eV  103.23 nm  f=0.0194  <S**2>=0.000
       7 -> 13         0.10247
       7 -> 14         0.33287
       8 -> 13         0.37030
       8 -> 14        -0.16900
       9 -> 13         0.16890
       9 -> 14         0.37011
      10 -> 24        -0.16881
      11 -> 24         0.10357

 Excited State  29:      Singlet-A     12.1119 eV  102.37 nm  f=0.0006  <S**2>=0.000
       7 -> 14        -0.31203
       8 -> 13         0.22322
       8 -> 14        -0.12976
       9 -> 13         0.12967
       9 -> 14         0.22311
      10 -> 24         0.40233
      11 -> 24        -0.30504

 Excited State  30:      Singlet-A     12.1119 eV  102.37 nm  f=0.0006  <S**2>=0.000
       7 -> 13        -0.31201
       8 -> 13         0.12972
       8 -> 14         0.22317
       9 -> 13        -0.22318
       9 -> 14         0.12973
      10 -> 24         0.30503
      11 -> 24         0.40234

 Excited State  31:      Singlet-A     12.2952 eV  100.84 nm  f=0.0158  <S**2>=0.000
       7 -> 12         0.66646
      10 -> 22         0.13179
      11 -> 23        -0.13179

 Excited State  32:      Singlet-A     12.5192 eV   99.04 nm  f=0.0119  <S**2>=0.000
       7 -> 13         0.10617
       7 -> 14         0.49520
      10 -> 24         0.35645
      11 -> 24        -0.26412

 Excited State  33:      Singlet-A     12.5192 eV   99.04 nm  f=0.0119  <S**2>=0.000
       7 -> 13         0.49521
       7 -> 14        -0.10618
      10 -> 24         0.26413
      11 -> 24         0.35642

 Excited State  34:      Singlet-A     12.6124 eV   98.30 nm  f=0.0646  <S**2>=0.000
       7 -> 12        -0.17429
       8 -> 13         0.19530
       8 -> 14         0.30282
       9 -> 13         0.30277
       9 -> 14        -0.19527
      10 -> 22         0.24532
      11 -> 23        -0.24531

 Excited State  35:      Singlet-A     12.8430 eV   96.54 nm  f=0.1789  <S**2>=0.000
       7 -> 12        -0.13737
       7 -> 15        -0.18149
       7 -> 21         0.10202
       8 -> 13        -0.15618
       8 -> 14        -0.24215
       9 -> 13        -0.24211
       9 -> 14         0.15615
      10 -> 22         0.32429
      10 -> 23        -0.10661
      11 -> 22        -0.10661
      11 -> 23        -0.32429

 Excited State  36:      Singlet-A     13.0371 eV   95.10 nm  f=0.0006  <S**2>=0.000
       9 -> 15         0.65196
       9 -> 16         0.24829

 Excited State  37:      Singlet-A     13.0372 eV   95.10 nm  f=0.0006  <S**2>=0.000
       8 -> 15         0.65196
       8 -> 16         0.24829

 Excited State  38:      Singlet-A     13.4961 eV   91.87 nm  f=0.0000  <S**2>=0.000
      10 -> 25         0.19004
      10 -> 26         0.45089
      11 -> 25         0.45091
      11 -> 26        -0.19003

 Excited State  39:      Singlet-A     13.5428 eV   91.55 nm  f=0.0009  <S**2>=0.000
       9 -> 15        -0.25070
       9 -> 16         0.64648

 Excited State  40:      Singlet-A     13.5429 eV   91.55 nm  f=0.0009  <S**2>=0.000
       8 -> 15        -0.25071
       8 -> 16         0.64648

 Excited State  41:      Singlet-A     13.5496 eV   91.50 nm  f=0.0133  <S**2>=0.000
       7 -> 15        -0.18143
      10 -> 25         0.41325
      10 -> 26        -0.17412
      10 -> 28         0.12699
      11 -> 25        -0.17418
      11 -> 26        -0.41317
      11 -> 27         0.12697

 Excited State  42:      Singlet-A     13.6354 eV   90.93 nm  f=0.0045  <S**2>=0.000
       7 -> 15         0.63236
      10 -> 22         0.10868
      10 -> 25         0.10439
      11 -> 23        -0.10868
      11 -> 26        -0.10439

 Excited State  43:      Singlet-A     13.8405 eV   89.58 nm  f=0.0962  <S**2>=0.000
       6 -> 13         0.32528
       6 -> 14        -0.12389
      10 -> 25         0.39671
      10 -> 26         0.15085
      11 -> 25        -0.15084
      11 -> 26         0.39673

 Excited State  44:      Singlet-A     13.8405 eV   89.58 nm  f=0.0962  <S**2>=0.000
       6 -> 13        -0.12389
       6 -> 14        -0.32527
      10 -> 25        -0.15085
      10 -> 26         0.39674
      11 -> 25        -0.39670
      11 -> 26        -0.15083

 Excited State  45:      Singlet-A     14.0832 eV   88.04 nm  f=0.0000  <S**2>=0.000
       8 -> 18         0.49229
       9 -> 17         0.49436

 Excited State  46:      Singlet-A     14.1094 eV   87.87 nm  f=0.2667  <S**2>=0.000
       7 -> 16         0.67965

 Excited State  47:      Singlet-A     14.1113 eV   87.86 nm  f=0.0548  <S**2>=0.000
       8 -> 18         0.47430
       9 -> 17        -0.47223
      10 -> 28         0.10184
      11 -> 27        -0.10180

 Excited State  48:      Singlet-A     14.1114 eV   87.86 nm  f=0.0548  <S**2>=0.000
       8 -> 17         0.47328
       9 -> 18         0.47326
      10 -> 27         0.10182
      11 -> 28         0.10183

 Excited State  49:      Singlet-A     14.2096 eV   87.25 nm  f=0.0056  <S**2>=0.000
       6 -> 14         0.15332
      10 -> 27         0.41468
      10 -> 28         0.21400
      11 -> 27        -0.21413
      11 -> 28         0.41489

 Excited State  50:      Singlet-A     14.2096 eV   87.25 nm  f=0.0056  <S**2>=0.000
       6 -> 13        -0.15330
      10 -> 27         0.21412
      10 -> 28        -0.41474
      11 -> 27         0.41483
      11 -> 28         0.21400

 Excited State  51:      Singlet-A     14.2328 eV   87.11 nm  f=0.0000  <S**2>=0.000
      10 -> 27         0.40593
      10 -> 28         0.27371
      11 -> 27         0.27346
      11 -> 28        -0.40575

 Excited State  52:      Singlet-A     14.3953 eV   86.13 nm  f=0.0178  <S**2>=0.000
       6 -> 13         0.11709
       6 -> 14        -0.13618
      11 -> 29         0.65483

 Excited State  53:      Singlet-A     14.3953 eV   86.13 nm  f=0.0178  <S**2>=0.000
       6 -> 13         0.13622
       6 -> 14         0.11713
      10 -> 29         0.65461

 Excited State  54:      Singlet-A     14.4558 eV   85.77 nm  f=0.0004  <S**2>=0.000
       6 -> 12         0.66944
       7 -> 15         0.11184

 Excited State  55:      Singlet-A     14.6652 eV   84.54 nm  f=0.0000  <S**2>=0.000
       8 -> 19         0.31275
       8 -> 20         0.38149
       9 -> 19         0.38161
       9 -> 20        -0.31283

 Excited State  56:      Singlet-A     14.6963 eV   84.36 nm  f=0.0981  <S**2>=0.000
       6 -> 14         0.12513
       7 -> 17         0.34242
       7 -> 18         0.53389
      11 -> 29         0.13633

 Excited State  57:      Singlet-A     14.6963 eV   84.36 nm  f=0.0981  <S**2>=0.000
       6 -> 13         0.12512
       7 -> 17         0.53390
       7 -> 18        -0.34241
      10 -> 29        -0.13663

 Excited State  58:      Singlet-A     14.7111 eV   84.28 nm  f=0.0125  <S**2>=0.000
       6 -> 12         0.14707
       8 -> 17         0.31028
       8 -> 19        -0.27636
       8 -> 20         0.22649
       9 -> 18        -0.31019
       9 -> 19         0.22657
       9 -> 20         0.27630

 Excited State  59:      Singlet-A     14.8630 eV   83.42 nm  f=0.0161  <S**2>=0.000
       6 -> 13         0.32714
       6 -> 14        -0.20300
       7 -> 18         0.24799
       8 -> 19        -0.27982
       9 -> 20        -0.27980
      10 -> 25        -0.12751
      11 -> 26        -0.12745
      11 -> 29        -0.17448

 Excited State  60:      Singlet-A     14.8630 eV   83.42 nm  f=0.0161  <S**2>=0.000
       6 -> 13         0.20301
       6 -> 14         0.32717
       7 -> 17        -0.24796
       8 -> 20         0.27987
       9 -> 19        -0.27970
      10 -> 26         0.12750
      10 -> 29        -0.17490
      11 -> 25        -0.12748

 Excited State  61:      Singlet-A     14.9090 eV   83.16 nm  f=0.0996  <S**2>=0.000
       6 -> 12         0.10094
       6 -> 15        -0.17560
       8 -> 17         0.16240
       8 -> 19         0.11788
       9 -> 18        -0.16237
       9 -> 20        -0.11774
      10 -> 27        -0.20118
      10 -> 28         0.29839
      10 -> 32        -0.10732
      11 -> 27         0.29839
      11 -> 28         0.20112
      11 -> 31        -0.10729

 Excited State  62:      Singlet-A     15.1875 eV   81.64 nm  f=0.0888  <S**2>=0.000
       6 -> 13         0.18305
       6 -> 14        -0.12500
       7 -> 18         0.10263
       8 -> 19         0.17117
       9 -> 16         0.10193
       9 -> 20         0.17144
       9 -> 21         0.56639
       9 -> 24         0.11969

 Excited State  63:      Singlet-A     15.1876 eV   81.64 nm  f=0.0888  <S**2>=0.000
       6 -> 13         0.12498
       6 -> 14         0.18303
       7 -> 17        -0.10262
       8 -> 16         0.10193
       8 -> 20        -0.17117
       8 -> 21         0.56643
       8 -> 24         0.11970
       9 -> 19         0.17138

 Excited State  64:      Singlet-A     15.2042 eV   81.55 nm  f=0.0231  <S**2>=0.000
       6 -> 15        -0.18907
       7 -> 21         0.12580
       8 -> 17        -0.28504
       8 -> 19        -0.23079
       8 -> 20         0.18924
       9 -> 18         0.28506
       9 -> 19         0.18904
       9 -> 20         0.23065
      10 -> 28         0.13067
      11 -> 27         0.13064

 Excited State  65:      Singlet-A     15.4387 eV   80.31 nm  f=0.0237  <S**2>=0.000
       6 -> 15         0.55716
      10 -> 31        -0.13149
      10 -> 32        -0.21690
      11 -> 31        -0.21697
      11 -> 32         0.13143

 Excited State  66:      Singlet-A     15.4735 eV   80.13 nm  f=0.2736  <S**2>=0.000
       6 -> 13        -0.15322
       7 -> 19         0.18034
       7 -> 20         0.40029
       8 -> 19        -0.18194
       8 -> 20         0.10693
       9 -> 19        -0.10690
       9 -> 20        -0.18188
       9 -> 21         0.24357
      10 -> 30        -0.12817
      11 -> 30        -0.21404
      11 -> 34         0.10489

 Excited State  67:      Singlet-A     15.4735 eV   80.13 nm  f=0.2736  <S**2>=0.000
       6 -> 14         0.15319
       7 -> 19         0.40039
       7 -> 20        -0.18034
       8 -> 19        -0.10688
       8 -> 20        -0.18193
       8 -> 21        -0.24350
       9 -> 19         0.18188
       9 -> 20        -0.10686
      10 -> 30         0.21397
      10 -> 34        -0.10488
      11 -> 30        -0.12814

 Excited State  68:      Singlet-A     15.5278 eV   79.85 nm  f=0.0742  <S**2>=0.000
       7 -> 19         0.46746
       7 -> 20        -0.26779
       8 -> 20         0.16426
       8 -> 21         0.17694
       9 -> 19        -0.16422
      10 -> 30        -0.17475
      10 -> 31         0.11778
      11 -> 32         0.11773

 Excited State  69:      Singlet-A     15.5279 eV   79.85 nm  f=0.0741  <S**2>=0.000
       7 -> 19         0.26778
       7 -> 20         0.46754
       8 -> 19         0.16420
       9 -> 20         0.16416
       9 -> 21        -0.17690
      10 -> 32        -0.11776
      11 -> 30         0.17487
      11 -> 31         0.11765

 Excited State  70:      Singlet-A     15.7476 eV   78.73 nm  f=0.0223  <S**2>=0.000
      10 -> 30         0.27354
      10 -> 31         0.42180
      10 -> 32         0.10555
      11 -> 30        -0.13397
      11 -> 31        -0.10666
      11 -> 32         0.41996

 Excited State  71:      Singlet-A     15.7476 eV   78.73 nm  f=0.0222  <S**2>=0.000
      10 -> 30        -0.13379
      10 -> 31         0.10570
      10 -> 32        -0.42068
      11 -> 30        -0.27313
      11 -> 31         0.42138
      11 -> 32         0.10660

 Excited State  72:      Singlet-A     15.7588 eV   78.68 nm  f=0.0000  <S**2>=0.000
      10 -> 31        -0.42310
      10 -> 32         0.25763
      11 -> 31         0.25619
      11 -> 32         0.42482

 Excited State  73:      Singlet-A     15.8359 eV   78.29 nm  f=0.3572  <S**2>=0.000
       6 -> 13        -0.12264
       8 -> 19        -0.15415
       9 -> 20        -0.15410
       9 -> 21         0.19273
      10 -> 30         0.14673
      10 -> 32        -0.15468
      11 -> 30         0.51536
      11 -> 31         0.15444

 Excited State  74:      Singlet-A     15.8359 eV   78.29 nm  f=0.3572  <S**2>=0.000
       6 -> 14        -0.12263
       8 -> 20         0.15416
       8 -> 21         0.19269
       9 -> 19        -0.15413
      10 -> 30         0.51521
      10 -> 31        -0.15501
      11 -> 30        -0.14662
      11 -> 32        -0.15474

 Excited State  75:      Singlet-A     16.1460 eV   76.79 nm  f=0.0091  <S**2>=0.000
       6 -> 15         0.19031
       6 -> 16         0.40402
       7 -> 21         0.49239
      10 -> 32         0.12530
      11 -> 31         0.12529

 Excited State  76:      Singlet-A     16.2162 eV   76.46 nm  f=0.0135  <S**2>=0.000
       6 -> 16         0.53152
       7 -> 21        -0.30314
      10 -> 32        -0.14428
      11 -> 31        -0.14427

 Excited State  77:      Singlet-A     16.3495 eV   75.83 nm  f=0.0022  <S**2>=0.000
      11 -> 33         0.70140

 Excited State  78:      Singlet-A     16.3495 eV   75.83 nm  f=0.0022  <S**2>=0.000
      10 -> 33         0.70140

 Excited State  79:      Singlet-A     16.4108 eV   75.55 nm  f=0.0049  <S**2>=0.000
       6 -> 15        -0.19524
       7 -> 21         0.32318
      10 -> 28        -0.13163
      10 -> 31        -0.16478
      10 -> 32        -0.27193
      11 -> 27        -0.13165
      11 -> 31        -0.27194
      11 -> 32         0.16479

 Excited State  80:      Singlet-A     16.4216 eV   75.50 nm  f=0.0048  <S**2>=0.000
       9 -> 24         0.14486
      11 -> 34        -0.29398
      11 -> 35         0.55534
      11 -> 36        -0.20830

 Excited State  81:      Singlet-A     16.4217 eV   75.50 nm  f=0.0048  <S**2>=0.000
       8 -> 24         0.14477
      10 -> 34        -0.29397
      10 -> 35         0.55539
      10 -> 36        -0.20830

 Excited State  82:      Singlet-A     16.5278 eV   75.02 nm  f=0.0015  <S**2>=0.000
       8 -> 22         0.35745
       8 -> 23         0.25765
       9 -> 22        -0.25821
       9 -> 23         0.35772
       9 -> 24         0.17496
      11 -> 34        -0.11234
      11 -> 35        -0.21607

 Excited State  83:      Singlet-A     16.5278 eV   75.02 nm  f=0.0015  <S**2>=0.000
       8 -> 22         0.25788
       8 -> 23        -0.35740
       8 -> 24         0.17464
       9 -> 22         0.35798
       9 -> 23         0.25806
      10 -> 34        -0.11239
      10 -> 35        -0.21588

 Excited State  84:      Singlet-A     16.5968 eV   74.70 nm  f=0.0000  <S**2>=0.000
       8 -> 23         0.49331
       9 -> 22         0.49357

 Excited State  85:      Singlet-A     16.6043 eV   74.67 nm  f=0.1212  <S**2>=0.000
       7 -> 23        -0.10944
       8 -> 22        -0.19916
       8 -> 24         0.10028
       9 -> 23        -0.19924
       9 -> 24         0.36481
      10 -> 34        -0.20425
      10 -> 35        -0.14168
      11 -> 34        -0.33720
      11 -> 35        -0.23392

 Excited State  86:      Singlet-A     16.6043 eV   74.67 nm  f=0.1214  <S**2>=0.000
       7 -> 22         0.10953
       8 -> 23         0.20034
       8 -> 24         0.36423
       9 -> 22        -0.19773
       9 -> 24        -0.10019
      10 -> 34        -0.33777
      10 -> 35        -0.23410
      11 -> 34         0.20444
      11 -> 35         0.14171

 The electronic state is 1-A.
 Alpha  occ. eigenvalues --  -10.25683 -10.23889 -10.22396  -0.79912  -0.71851
 Alpha  occ. eigenvalues --   -0.54023  -0.47024  -0.44843  -0.44842  -0.28545
 Alpha  occ. eigenvalues --   -0.28545
 Alpha virt. eigenvalues --    0.03020   0.04841   0.04841   0.06723   0.09215
 Alpha virt. eigenvalues --    0.12923   0.12923   0.15526   0.15526   0.16345
 Alpha virt. eigenvalues --    0.20594   0.20594   0.22048   0.27650   0.27650

 Mulliken charges:
               1
     1  C    0.343481
     2  C    0.769598
     3  C   -1.071162
     4  H    0.005653
     5  H    0.005645
     6  H    0.005642
     7  H   -0.058857
 Sum of Mulliken charges =   0.00000

 Dipole moment (field-independent basis, Debye):
    X=              0.0002    Y=             -0.0122    Z=             -0.8083  Tot=              0.8084
 Quadrupole moment (field-independent basis, Debye-Ang):
   XX=            -19.5317   YY=            -19.5304   ZZ=            -14.1683
   XY=             -0.0000   XZ=             -0.0012   YZ=              0.0809

 Normal termination of Gaussian 16 at Mon Mar 21 20:19:21 2022.
