 Gaussian 16, Revision C.01,
 Gaussian 16:  EM64L-G16RevC.01  3-Jul-2019

 ----------------------------------------------------------------------
 #P TD(Nstates=10000) pbe1pbe/Gen SCF(maxcycles=100) Int(Grid=ultrafine
 )
 ----------------------------------------------------------------------

 ---------------------
 xGDB7_00001_tier4.com
 ---------------------
 Symbolic Z-matrix:
 Charge =  0 Multiplicity = 1

                         Standard orientation:
 ---------------------------------------------------------------------
 Center     Atomic      Atomic             Coordinates (Angstroms)
 Number     Number       Type             X           Y           Z
 ---------------------------------------------------------------------
      1          6           0       -1.208422   -0.239069   -0.021917
      2          6           0        0.083893    0.553452    0.046734
      3          8           0        1.233467   -0.256002   -0.105864
      4          1           0       -2.071999    0.425135    0.051700
      5          1           0       -1.270670   -0.957756    0.799731
      6          1           0       -1.270625   -0.788280   -0.962327
      7          1           0        0.130030    1.119197    0.986112
      8          1           0        0.125951    1.277026   -0.768547
      9          1           0        1.236751   -0.913605    0.591341
 ---------------------------------------------------------------------

 SCF Done:  E(RPBE1PBE) =  -154.757872053     A.U. after   11 cycles

 Excitation energies and oscillator strengths:

 Excited State   1:      Singlet-A      7.0392 eV  176.13 nm  f=0.0106  <S**2>=0.000
      13 -> 14         0.68302
      13 -> 15         0.16727
 This state for optimization and/or second-order correction.
 Total Energy, E(TD-HF/TD-DFT) =  -154.499185654
 Copying the excited state density for this state as the 1-particle RhoCI density.

 Excited State   2:      Singlet-A      8.1189 eV  152.71 nm  f=0.0185  <S**2>=0.000
      13 -> 14        -0.15679
      13 -> 15         0.66403
      13 -> 16        -0.15671

 Excited State   3:      Singlet-A      8.4926 eV  145.99 nm  f=0.0221  <S**2>=0.000
      12 -> 14         0.32688
      13 -> 15         0.10010
      13 -> 16         0.60728

 Excited State   4:      Singlet-A      8.5242 eV  145.45 nm  f=0.0264  <S**2>=0.000
      12 -> 14         0.61234
      13 -> 15        -0.11595
      13 -> 16        -0.31217

 Excited State   5:      Singlet-A      8.9477 eV  138.57 nm  f=0.0545  <S**2>=0.000
      13 -> 17         0.70018

 Excited State   6:      Singlet-A      9.4279 eV  131.51 nm  f=0.0158  <S**2>=0.000
      11 -> 14         0.15407
      12 -> 15         0.67003

 Excited State   7:      Singlet-A      9.7002 eV  127.82 nm  f=0.0204  <S**2>=0.000
      13 -> 18         0.68978

 Excited State   8:      Singlet-A      9.7945 eV  126.59 nm  f=0.0394  <S**2>=0.000
      10 -> 14         0.11077
      11 -> 14        -0.19652
      13 -> 19         0.64353

 Excited State   9:      Singlet-A      9.8045 eV  126.46 nm  f=0.0698  <S**2>=0.000
      11 -> 14         0.16753
      12 -> 16         0.66325

 Excited State  10:      Singlet-A      9.8603 eV  125.74 nm  f=0.0397  <S**2>=0.000
      11 -> 14         0.61952
      12 -> 15        -0.16390
      12 -> 16        -0.18696
      13 -> 19         0.20366

 Excited State  11:      Singlet-A     10.0795 eV  123.01 nm  f=0.0005  <S**2>=0.000
      10 -> 14        -0.15458
      13 -> 20         0.66568
      13 -> 21        -0.11388

 Excited State  12:      Singlet-A     10.1526 eV  122.12 nm  f=0.0239  <S**2>=0.000
      10 -> 14         0.64412
      11 -> 14         0.11339
      12 -> 17        -0.11012
      13 -> 20         0.13656

 Excited State  13:      Singlet-A     10.3070 eV  120.29 nm  f=0.0595  <S**2>=0.000
      10 -> 14         0.10767
      12 -> 17         0.68745

 Excited State  14:      Singlet-A     10.4882 eV  118.21 nm  f=0.0011  <S**2>=0.000
      13 -> 20         0.13685
      13 -> 21         0.67150

 Excited State  15:      Singlet-A     10.7242 eV  115.61 nm  f=0.0144  <S**2>=0.000
      11 -> 15         0.65339
      13 -> 22        -0.18532

 Excited State  16:      Singlet-A     10.7951 eV  114.85 nm  f=0.0267  <S**2>=0.000
      11 -> 15         0.16827
      13 -> 22         0.62809
      13 -> 23         0.18799

 Excited State  17:      Singlet-A     10.8946 eV  113.80 nm  f=0.0040  <S**2>=0.000
      10 -> 15        -0.23526
      13 -> 22        -0.20713
      13 -> 23         0.60352

 Excited State  18:      Singlet-A     10.9745 eV  112.97 nm  f=0.0325  <S**2>=0.000
      10 -> 15         0.43034
      12 -> 18         0.49727
      13 -> 23         0.21105

 Excited State  19:      Singlet-A     11.0215 eV  112.49 nm  f=0.0406  <S**2>=0.000
      10 -> 15         0.39703
      11 -> 16        -0.37945
      12 -> 18        -0.32912
      12 -> 19         0.24004
      13 -> 23         0.10116

 Excited State  20:      Singlet-A     11.0883 eV  111.82 nm  f=0.0740  <S**2>=0.000
      10 -> 15         0.23364
      11 -> 16         0.54264
      12 -> 18        -0.33236
      13 -> 23         0.10931

 Excited State  21:      Singlet-A     11.1972 eV  110.73 nm  f=0.0422  <S**2>=0.000
      10 -> 15        -0.16681
      10 -> 16         0.26212
      11 -> 16         0.16686
      12 -> 19         0.58451

 Excited State  22:      Singlet-A     11.3449 eV  109.29 nm  f=0.1160  <S**2>=0.000
      10 -> 16         0.62905
      12 -> 19        -0.26933

 Excited State  23:      Singlet-A     11.5184 eV  107.64 nm  f=0.0080  <S**2>=0.000
      12 -> 20         0.46329
      13 -> 24         0.45992
      13 -> 25        -0.13944

 Excited State  24:      Singlet-A     11.5505 eV  107.34 nm  f=0.0058  <S**2>=0.000
       9 -> 14         0.30792
      12 -> 20         0.45579
      13 -> 24        -0.37701
      13 -> 26        -0.11173

 Excited State  25:      Singlet-A     11.6075 eV  106.81 nm  f=0.0117  <S**2>=0.000
       9 -> 14         0.56216
      11 -> 17        -0.25704
      12 -> 20        -0.16293
      13 -> 24         0.24900

 Excited State  26:      Singlet-A     11.6353 eV  106.56 nm  f=0.1197  <S**2>=0.000
       9 -> 14         0.20932
      11 -> 17         0.63147
      13 -> 24         0.16976

 Excited State  27:      Singlet-A     11.8246 eV  104.85 nm  f=0.0118  <S**2>=0.000
      10 -> 17        -0.44414
      12 -> 21         0.23508
      13 -> 25         0.44720

 Excited State  28:      Singlet-A     11.8847 eV  104.32 nm  f=0.0266  <S**2>=0.000
      10 -> 17        -0.10157
      12 -> 21         0.55095
      12 -> 22        -0.14487
      13 -> 25        -0.32248

 Excited State  29:      Singlet-A     11.9191 eV  104.02 nm  f=0.0186  <S**2>=0.000
      10 -> 17         0.49398
      12 -> 21         0.27555
      12 -> 22        -0.14851
      13 -> 25         0.33972

 Excited State  30:      Singlet-A     12.1175 eV  102.32 nm  f=0.0032  <S**2>=0.000
       8 -> 14        -0.34209
      10 -> 17         0.15899
      11 -> 18         0.18308
      12 -> 21         0.14704
      12 -> 22         0.50156
      12 -> 23         0.14596

 Excited State  31:      Singlet-A     12.1691 eV  101.88 nm  f=0.0264  <S**2>=0.000
       8 -> 14         0.56847
      12 -> 22         0.33095
      13 -> 26         0.10457

 Excited State  32:      Singlet-A     12.2126 eV  101.52 nm  f=0.0696  <S**2>=0.000
       8 -> 14         0.10202
      10 -> 18        -0.10316
      11 -> 18         0.46358
      12 -> 22        -0.23364
      12 -> 23         0.42442

 Excited State  33:      Singlet-A     12.3537 eV  100.36 nm  f=0.0141  <S**2>=0.000
      10 -> 18         0.17339
      11 -> 18        -0.11716
      11 -> 19         0.18238
      12 -> 23         0.23540
      13 -> 24        -0.13529
      13 -> 25         0.12232
      13 -> 26         0.47003
      13 -> 27        -0.20733
      13 -> 28        -0.14752

 Excited State  34:      Singlet-A     12.3666 eV  100.26 nm  f=0.0347  <S**2>=0.000
       9 -> 15         0.10848
      11 -> 18        -0.40682
      12 -> 23         0.45050
      13 -> 26        -0.27178

 Excited State  35:      Singlet-A     12.4204 eV   99.82 nm  f=0.0078  <S**2>=0.000
       9 -> 15        -0.15028
      11 -> 19         0.59357
      13 -> 26        -0.23993
      13 -> 27        -0.11765

 Excited State  36:      Singlet-A     12.4878 eV   99.28 nm  f=0.0159  <S**2>=0.000
       9 -> 15         0.54208
      10 -> 18        -0.22101
      11 -> 19         0.14382
      11 -> 20        -0.20323
      13 -> 27        -0.23502

 Excited State  37:      Singlet-A     12.5043 eV   99.15 nm  f=0.0428  <S**2>=0.000
       9 -> 15         0.24179
      10 -> 18         0.59074
      11 -> 18         0.14081
      13 -> 26        -0.11547

 Excited State  38:      Singlet-A     12.5421 eV   98.85 nm  f=0.0399  <S**2>=0.000
       9 -> 15         0.18266
      10 -> 19         0.10105
      11 -> 19         0.22674
      12 -> 24        -0.11426
      13 -> 26         0.14760
      13 -> 27         0.57604

 Excited State  39:      Singlet-A     12.6774 eV   97.80 nm  f=0.0092  <S**2>=0.000
       9 -> 15         0.17441
      10 -> 18        -0.13417
      10 -> 19        -0.34403
      10 -> 20         0.11018
      11 -> 20         0.50431
      12 -> 24         0.13120

 Excited State  40:      Singlet-A     12.7075 eV   97.57 nm  f=0.0041  <S**2>=0.000
      10 -> 19         0.55314
      10 -> 20         0.13928
      11 -> 20         0.33166
      12 -> 25        -0.10218

 Excited State  41:      Singlet-A     12.7951 eV   96.90 nm  f=0.0210  <S**2>=0.000
       9 -> 16         0.61273
      10 -> 19        -0.13982
      10 -> 20         0.16843
      12 -> 24        -0.15450
      13 -> 28         0.12393

 Excited State  42:      Singlet-A     12.8946 eV   96.15 nm  f=0.0082  <S**2>=0.000
       9 -> 16        -0.13238
      13 -> 26         0.18349
      13 -> 28         0.63286

 Excited State  43:      Singlet-A     12.9348 eV   95.85 nm  f=0.0916  <S**2>=0.000
       8 -> 15        -0.10134
       9 -> 16        -0.26101
      10 -> 20         0.42866
      12 -> 24        -0.40394
      12 -> 25         0.11110

 Excited State  44:      Singlet-A     12.9967 eV   95.40 nm  f=0.0892  <S**2>=0.000
       8 -> 15        -0.32036
       8 -> 16         0.14250
      10 -> 20         0.25586
      11 -> 20        -0.19402
      11 -> 21         0.23179
      12 -> 24         0.40195

 Excited State  45:      Singlet-A     13.0581 eV   94.95 nm  f=0.0486  <S**2>=0.000
       8 -> 15         0.58099
      10 -> 20         0.28782
      11 -> 21         0.10184
      12 -> 24         0.16853

 Excited State  46:      Singlet-A     13.1073 eV   94.59 nm  f=0.0030  <S**2>=0.000
       7 -> 14        -0.10802
       8 -> 15         0.11119
       8 -> 16         0.16696
      10 -> 20        -0.15445
      10 -> 22         0.14423
      11 -> 21         0.39156
      11 -> 22        -0.28436
      12 -> 24        -0.23512
      12 -> 25        -0.23903

 Excited State  47:      Singlet-A     13.1939 eV   93.97 nm  f=0.0096  <S**2>=0.000
       9 -> 17        -0.31220
      10 -> 20        -0.17363
      10 -> 21         0.15567
      11 -> 21         0.29925
      12 -> 25         0.46153

 Excited State  48:      Singlet-A     13.2664 eV   93.46 nm  f=0.0351  <S**2>=0.000
       8 -> 16        -0.10735
       8 -> 17         0.11079
       9 -> 17        -0.23044
      10 -> 21        -0.21348
      10 -> 22         0.17108
      11 -> 21         0.12472
      11 -> 22         0.49401
      12 -> 25        -0.23122

 Excited State  49:      Singlet-A     13.3463 eV   92.90 nm  f=0.0144  <S**2>=0.000
       9 -> 17        -0.28076
      10 -> 21         0.52301
      12 -> 25        -0.29229

 Excited State  50:      Singlet-A     13.4086 eV   92.47 nm  f=0.0291  <S**2>=0.000
       8 -> 16         0.47783
       9 -> 17        -0.32001
      10 -> 21        -0.21723
      11 -> 21        -0.26402

 Excited State  51:      Singlet-A     13.4626 eV   92.10 nm  f=0.0027  <S**2>=0.000
       7 -> 14        -0.22472
       8 -> 16         0.40215
       9 -> 17         0.33996
      10 -> 21         0.19750
      11 -> 22         0.29277

 Excited State  52:      Singlet-A     13.5614 eV   91.42 nm  f=0.0580  <S**2>=0.000
       7 -> 14         0.59378
       9 -> 17         0.12538
      10 -> 22         0.25284

 Excited State  53:      Singlet-A     13.6461 eV   90.86 nm  f=0.0053  <S**2>=0.000
       9 -> 18        -0.16521
      10 -> 22        -0.28521
      10 -> 23        -0.20965
      11 -> 21         0.10253
      11 -> 23         0.43484
      12 -> 26         0.18637
      13 -> 29         0.20741

 Excited State  54:      Singlet-A     13.7280 eV   90.31 nm  f=0.0515  <S**2>=0.000
       8 -> 17         0.18185
      10 -> 22         0.25774
      11 -> 22        -0.13361
      13 -> 29         0.56806

 Excited State  55:      Singlet-A     13.7704 eV   90.04 nm  f=0.0281  <S**2>=0.000
       9 -> 18         0.14587
       9 -> 19        -0.12783
      10 -> 22        -0.20179
      11 -> 24        -0.10775
      12 -> 26        -0.24093
      12 -> 27         0.48721
      13 -> 29         0.18050
      13 -> 30         0.13158

 Excited State  56:      Singlet-A     13.7917 eV   89.90 nm  f=0.0304  <S**2>=0.000
       7 -> 14        -0.13229
       9 -> 18         0.28253
       9 -> 19         0.12531
      10 -> 22         0.27375
      10 -> 23        -0.13922
      11 -> 21        -0.10511
      11 -> 23         0.40013
      11 -> 24        -0.10848
      12 -> 27         0.13218
      13 -> 29        -0.11075

 Excited State  57:      Singlet-A     13.9338 eV   88.98 nm  f=0.0505  <S**2>=0.000
       8 -> 17        -0.17971
       9 -> 18         0.16647
      10 -> 23        -0.10106
      11 -> 23        -0.16954
      11 -> 24        -0.17273
      12 -> 26         0.49831
      12 -> 27         0.16712
      13 -> 30        -0.23727

 Excited State  58:      Singlet-A     13.9706 eV   88.75 nm  f=0.0090  <S**2>=0.000
       8 -> 17        -0.31278
       9 -> 19         0.12532
      10 -> 23         0.52728
      11 -> 23         0.17933

 Excited State  59:      Singlet-A     13.9956 eV   88.59 nm  f=0.0535  <S**2>=0.000
       8 -> 17         0.31589
       9 -> 18        -0.31054
      10 -> 23         0.20419
      12 -> 26         0.22544
      12 -> 27         0.36031
      13 -> 29        -0.18169

 Excited State  60:      Singlet-A     14.0383 eV   88.32 nm  f=0.0314  <S**2>=0.000
       8 -> 17         0.11803
       9 -> 18         0.22311
       9 -> 19        -0.19214
      11 -> 24        -0.18624
      12 -> 26         0.18416
      12 -> 27        -0.12715
      13 -> 30         0.50394

 Excited State  61:      Singlet-A     14.1470 eV   87.64 nm  f=0.0082  <S**2>=0.000
       7 -> 15        -0.11926
       8 -> 17         0.32955
       8 -> 18         0.11615
       9 -> 18         0.28201
       9 -> 19        -0.25419
      10 -> 22        -0.17285
      10 -> 23         0.15288
      12 -> 27        -0.10793
      13 -> 30        -0.30252

 Excited State  62:      Singlet-A     14.2180 eV   87.20 nm  f=0.0557  <S**2>=0.000
       8 -> 17        -0.10829
       8 -> 18        -0.11308
       9 -> 18         0.14078
       9 -> 19        -0.12411
       9 -> 20        -0.13383
      10 -> 23        -0.10453
      10 -> 24         0.10447
      11 -> 24         0.50047
      11 -> 25        -0.26590
      12 -> 28         0.11564

 Excited State  63:      Singlet-A     14.3245 eV   86.55 nm  f=0.0209  <S**2>=0.000
       8 -> 17         0.12839
       8 -> 18         0.15530
       8 -> 19        -0.12113
       9 -> 18         0.13259
       9 -> 19         0.41701
       9 -> 20         0.10252
       9 -> 21         0.10685
      10 -> 22        -0.15172
      10 -> 24        -0.18471
      10 -> 25        -0.11127
      11 -> 25        -0.22327
      12 -> 28        -0.16273
      13 -> 30         0.12152

 Excited State  64:      Singlet-A     14.3391 eV   86.47 nm  f=0.0048  <S**2>=0.000
       8 -> 18         0.20907
       9 -> 20         0.15719
      10 -> 24        -0.13388
      10 -> 25        -0.11084
      11 -> 24         0.13407
      11 -> 25         0.20786
      12 -> 28         0.53356

 Excited State  65:      Singlet-A     14.3773 eV   86.24 nm  f=0.0210  <S**2>=0.000
       7 -> 15         0.50018
       9 -> 20         0.40032
      11 -> 24         0.11995
      12 -> 28        -0.14093

 Excited State  66:      Singlet-A     14.4468 eV   85.82 nm  f=0.0571  <S**2>=0.000
       7 -> 15        -0.37161
       7 -> 16         0.13335
       8 -> 18        -0.15888
       9 -> 20         0.48905
      11 -> 25        -0.11273

 Excited State  67:      Singlet-A     14.5051 eV   85.48 nm  f=0.1674  <S**2>=0.000
       7 -> 15        -0.16425
       8 -> 19         0.15068
       9 -> 18         0.17051
       9 -> 23         0.10959
      11 -> 24         0.20883
      11 -> 25         0.48296
      12 -> 28        -0.22551

 Excited State  68:      Singlet-A     14.5877 eV   84.99 nm  f=0.1025  <S**2>=0.000
       7 -> 16        -0.18575
       8 -> 18        -0.28033
       9 -> 19         0.22614
       9 -> 21         0.19515
      10 -> 24         0.40925
      11 -> 24        -0.10942
      12 -> 28         0.18693

 Excited State  69:      Singlet-A     14.6726 eV   84.50 nm  f=0.0373  <S**2>=0.000
       8 -> 18         0.34964
       8 -> 19        -0.15913
       9 -> 21         0.14884
      10 -> 24         0.23848
      10 -> 25         0.43010

 Excited State  70:      Singlet-A     14.7479 eV   84.07 nm  f=0.0043  <S**2>=0.000
       7 -> 16         0.22640
       8 -> 18         0.21435
       8 -> 19         0.42060
       9 -> 21        -0.14025
      10 -> 24         0.12531
      10 -> 25        -0.10837
      11 -> 25        -0.12530
      11 -> 27         0.15314
      13 -> 31        -0.32193

 Excited State  71:      Singlet-A     14.7809 eV   83.88 nm  f=0.0143  <S**2>=0.000
       7 -> 16         0.44995
       9 -> 21         0.32095
      10 -> 24         0.10885
      10 -> 25        -0.29191
      13 -> 31         0.18617

 Excited State  72:      Singlet-A     14.8571 eV   83.45 nm  f=0.0660  <S**2>=0.000
       7 -> 16         0.25670
       8 -> 18        -0.25710
       8 -> 19         0.16819
       9 -> 21         0.23100
      10 -> 24        -0.25929
      10 -> 25         0.31221
      11 -> 27        -0.12839
      12 -> 28         0.10742
      12 -> 29         0.13592
      13 -> 31        -0.15178

 Excited State  73:      Singlet-A     14.9233 eV   83.08 nm  f=0.0813  <S**2>=0.000
       7 -> 15        -0.12014
       7 -> 16        -0.27406
       7 -> 17        -0.15731
       8 -> 17        -0.10185
       8 -> 18         0.12955
       8 -> 19         0.19515
       8 -> 20         0.14620
       9 -> 19        -0.16049
       9 -> 21         0.43485

 Excited State  74:      Singlet-A     14.9440 eV   82.97 nm  f=0.0243  <S**2>=0.000
       7 -> 17         0.10881
       8 -> 19         0.21750
       8 -> 20         0.15144
      10 -> 26        -0.10176
      12 -> 29         0.12201
      13 -> 31         0.37523
      13 -> 32         0.44175

 Excited State  75:      Singlet-A     15.0112 eV   82.59 nm  f=0.0163  <S**2>=0.000
       8 -> 19        -0.13515
       8 -> 20         0.29839
       9 -> 22        -0.19756
      11 -> 26         0.20029
      11 -> 27        -0.24855
      12 -> 29        -0.11300
      13 -> 31        -0.24988
      13 -> 32         0.31940

 Excited State  76:      Singlet-A     15.0468 eV   82.40 nm  f=0.0518  <S**2>=0.000
       7 -> 17         0.20075
       8 -> 20         0.47303
      10 -> 25         0.12060
      11 -> 26        -0.26253
      12 -> 29        -0.18861
      13 -> 32        -0.22019

 Excited State  77:      Singlet-A     15.0901 eV   82.16 nm  f=0.0216  <S**2>=0.000
       8 -> 19        -0.11697
       8 -> 20        -0.14484
       9 -> 21         0.10097
       9 -> 22         0.37855
      11 -> 26        -0.23051
      12 -> 29        -0.36510
      13 -> 31        -0.11109
      13 -> 32         0.26518

 Excited State  78:      Singlet-A     15.1455 eV   81.86 nm  f=0.0408  <S**2>=0.000
       8 -> 19         0.16719
       9 -> 22         0.15259
      11 -> 26         0.39464
      11 -> 27        -0.16064
      12 -> 29        -0.35456
      12 -> 30        -0.18161
      13 -> 31         0.14438
      13 -> 32        -0.13866

 Excited State  79:      Singlet-A     15.1589 eV   81.79 nm  f=0.1327  <S**2>=0.000
       8 -> 19        -0.10303
       8 -> 20         0.23307
       9 -> 22         0.47860
      10 -> 24         0.11532
      11 -> 26         0.18477
      12 -> 29         0.30112
      13 -> 33         0.11166

 Excited State  80:      Singlet-A     15.2299 eV   81.41 nm  f=0.0756  <S**2>=0.000
       7 -> 17        -0.19372
       8 -> 19        -0.14739
       9 -> 23         0.11638
      10 -> 26        -0.12993
      10 -> 27         0.10166
      11 -> 26         0.23423
      11 -> 27         0.50780
      13 -> 33        -0.12688

 Excited State  81:      Singlet-A     15.3313 eV   80.87 nm  f=0.0088  <S**2>=0.000
       7 -> 17         0.52340
       9 -> 23        -0.16169
      10 -> 24        -0.10432
      10 -> 26         0.15720
      11 -> 26         0.18731
      11 -> 27         0.19038

 Excited State  82:      Singlet-A     15.4026 eV   80.50 nm  f=0.0438  <S**2>=0.000
       9 -> 23         0.35720
      10 -> 26         0.29264
      10 -> 27         0.48646

 Excited State  83:      Singlet-A     15.4424 eV   80.29 nm  f=0.0257  <S**2>=0.000
       7 -> 17        -0.11516
       8 -> 21         0.45696
       9 -> 23        -0.11481
      10 -> 26         0.23284
      11 -> 28         0.13384
      12 -> 30        -0.35941

 Excited State  84:      Singlet-A     15.4743 eV   80.12 nm  f=0.0407  <S**2>=0.000
       8 -> 21         0.21513
       9 -> 23        -0.11561
      11 -> 28         0.35414
      12 -> 30         0.48419

 The electronic state is 1-A.
 Alpha  occ. eigenvalues --  -19.21695 -10.27932 -10.22837  -1.04192  -0.76668
 Alpha  occ. eigenvalues --   -0.64257  -0.52294  -0.47288  -0.45198  -0.39793
 Alpha  occ. eigenvalues --   -0.38763  -0.34154  -0.29188
 Alpha virt. eigenvalues --    0.02222   0.05324   0.06406   0.08683   0.11138
 Alpha virt. eigenvalues --    0.12050   0.12837   0.14131   0.15016   0.16194
 Alpha virt. eigenvalues --    0.18343   0.19268   0.21765   0.21910   0.23504

 Mulliken charges:
               1
     1  C    0.144872
     2  C    0.199939
     3  O   -0.480772
     4  H    0.064546
     5  H    0.014849
     6  H    0.040520
     7  H   -0.049195
     8  H   -0.123365
     9  H    0.188605
 Sum of Mulliken charges =  -0.00000

 Dipole moment (field-independent basis, Debye):
    X=             -1.3003    Y=             -0.1657    Z=              1.1407  Tot=              1.7376
 Quadrupole moment (field-independent basis, Debye-Ang):
   XX=            -22.5412   YY=            -18.7570   ZZ=            -19.3727
   XY=             -0.9768   XZ=              1.7262   YZ=             -1.4804

 1\1\GINC-HEL24\SP\RPBE1PBE TD-FC\Gen\C2H6O1\SABYASACHI\21-Mar-2022\0\\
 #P TD(Nstates=10000) pbe1pbe/Gen SCF(maxcycles=100) Int(Grid=ultrafine
 )\\xGDB7_00001_tier4.com\\0,1\C,0,-1.208422,-0.239069,-0.021917\C,0,0.
 083893,0.553452,0.046734\O,0,1.233467,-0.256002,-0.105864\H,0,-2.07199
 9,0.425136,0.0517\H,0,-1.27067,-0.957756,0.799731\H,0,-1.270625,-0.788
 28,-0.962327\H,0,0.13003,1.119197,0.986112\H,0,0.125952,1.277026,-0.76
 8547\H,0,1.236751,-0.913605,0.591341\\Version=EM64L-G16RevC.01\State=1
 -A\HF=-154.7578721\RMSD=7.997e-09\PG=C01 [X(C2H6O1)]\\@

 Normal termination of Gaussian 16 at Mon Mar 21 20:24:07 2022.
