 Gaussian 16, Revision C.01,
 Gaussian 16:  EM64L-G16RevC.01  3-Jul-2019

 ----------------------------------------------------------------------
 #P TD(Nstates=10000) pbe1pbe/Gen SCF(maxcycles=100) Int(Grid=ultrafine
 )
 ----------------------------------------------------------------------

 ---------------------
 xGDB7_00001_tier4.com
 ---------------------
 Symbolic Z-matrix:
 Charge =  0 Multiplicity = 1

                         Standard orientation:
 ---------------------------------------------------------------------
 Center     Atomic      Atomic             Coordinates (Angstroms)
 Number     Number       Type             X           Y           Z
 ---------------------------------------------------------------------
      1          6           0       -0.026655   -0.220923    1.206915
      2          7           0       -0.026655    0.579675   -0.000000
      3          6           0       -0.026655   -0.220923   -1.206915
      4          1           0        0.028929    0.427196    2.082330
      5          1           0        0.800836   -0.947383    1.258571
      6          1           0       -0.961718   -0.783094    1.269367
      7          1           0        0.770359    1.199905   -0.000000
      8          1           0       -0.961718   -0.783094   -1.269367
      9          1           0        0.800836   -0.947383   -1.258571
     10          1           0        0.028929    0.427196   -2.082330
 ---------------------------------------------------------------------

 SCF Done:  E(RPBE1PBE) =  -134.908572310     A.U. after   12 cycles

 Excitation energies and oscillator strengths:

 Excited State   1:      Singlet-A'     5.8610 eV  211.54 nm  f=0.0041  <S**2>=0.000
      13 -> 14         0.69417
      13 -> 16         0.12486
 This state for optimization and/or second-order correction.
 Total Energy, E(TD-HF/TD-DFT) =  -134.693183464
 Copying the excited state density for this state as the 1-particle RhoCI density.

 Excited State   2:      Singlet-A"     6.8781 eV  180.26 nm  f=0.0044  <S**2>=0.000
      13 -> 15         0.70542

 Excited State   3:      Singlet-A'     6.9564 eV  178.23 nm  f=0.0409  <S**2>=0.000
      13 -> 14        -0.12382
      13 -> 16         0.69370

 Excited State   4:      Singlet-A'     7.8816 eV  157.31 nm  f=0.0093  <S**2>=0.000
      13 -> 17        -0.47305
      13 -> 18         0.51813

 Excited State   5:      Singlet-A'     7.9697 eV  155.57 nm  f=0.0997  <S**2>=0.000
      13 -> 17         0.51555
      13 -> 18         0.47088

 Excited State   6:      Singlet-A'     8.6433 eV  143.44 nm  f=0.0072  <S**2>=0.000
      13 -> 19         0.69505

 Excited State   7:      Singlet-A"     8.7290 eV  142.04 nm  f=0.0240  <S**2>=0.000
      13 -> 20         0.70351

 Excited State   8:      Singlet-A'     9.1170 eV  135.99 nm  f=0.0067  <S**2>=0.000
      13 -> 22         0.69801

 Excited State   9:      Singlet-A"     9.2400 eV  134.18 nm  f=0.0765  <S**2>=0.000
      13 -> 21         0.69941

 Excited State  10:      Singlet-A"     9.7152 eV  127.62 nm  f=0.0540  <S**2>=0.000
      12 -> 14         0.65867
      13 -> 23         0.22128

 Excited State  11:      Singlet-A"     9.7309 eV  127.41 nm  f=0.0059  <S**2>=0.000
      12 -> 14        -0.22163
      13 -> 23         0.66249

 Excited State  12:      Singlet-A'     9.7857 eV  126.70 nm  f=0.0190  <S**2>=0.000
      11 -> 14         0.67923
      12 -> 15        -0.10064
      13 -> 24        -0.13480

 Excited State  13:      Singlet-A'    10.0188 eV  123.75 nm  f=0.0043  <S**2>=0.000
      11 -> 14         0.12415
      13 -> 24         0.68712

 Excited State  14:      Singlet-A"    10.2289 eV  121.21 nm  f=0.0155  <S**2>=0.000
      10 -> 14        -0.22937
      13 -> 25         0.65179

 Excited State  15:      Singlet-A"    10.3081 eV  120.28 nm  f=0.0004  <S**2>=0.000
      10 -> 14         0.63984
      11 -> 15        -0.15769
      13 -> 25         0.24248

 Excited State  16:      Singlet-A'    10.6841 eV  116.05 nm  f=0.0541  <S**2>=0.000
      11 -> 16         0.16074
      12 -> 15         0.66773

 Excited State  17:      Singlet-A"    10.7436 eV  115.40 nm  f=0.0013  <S**2>=0.000
      10 -> 14         0.14890
      11 -> 15         0.60371
      12 -> 16         0.17865
      13 -> 26        -0.24745

 Excited State  18:      Singlet-A"    10.7811 eV  115.00 nm  f=0.0144  <S**2>=0.000
      11 -> 15         0.17145
      12 -> 16         0.22948
      13 -> 26         0.62576

 Excited State  19:      Singlet-A"    10.8768 eV  113.99 nm  f=0.0293  <S**2>=0.000
      11 -> 15        -0.22743
      12 -> 16         0.63693
      13 -> 26        -0.15468

 Excited State  20:      Singlet-A'    10.8949 eV  113.80 nm  f=0.1405  <S**2>=0.000
      11 -> 16         0.67407
      12 -> 15        -0.14486

 Excited State  21:      Singlet-A'    11.3002 eV  109.72 nm  f=0.0750  <S**2>=0.000
      10 -> 15         0.68158

 Excited State  22:      Singlet-A'    11.4448 eV  108.33 nm  f=0.0069  <S**2>=0.000
      13 -> 27         0.66416
      13 -> 28        -0.14557

 Excited State  23:      Singlet-A"    11.4739 eV  108.06 nm  f=0.0009  <S**2>=0.000
      10 -> 16         0.69201

 Excited State  24:      Singlet-A"    11.6888 eV  106.07 nm  f=0.0015  <S**2>=0.000
      12 -> 17         0.61439
      12 -> 18         0.30931

 Excited State  25:      Singlet-A'    11.7368 eV  105.64 nm  f=0.0246  <S**2>=0.000
      11 -> 17         0.68816

 Excited State  26:      Singlet-A"    11.7378 eV  105.63 nm  f=0.2472  <S**2>=0.000
       9 -> 14        -0.13477
      12 -> 17        -0.30694
      12 -> 18         0.58916

 Excited State  27:      Singlet-A"    11.8995 eV  104.19 nm  f=0.0523  <S**2>=0.000
       9 -> 14         0.66373
      12 -> 18         0.16520

 Excited State  28:      Singlet-A'    11.9070 eV  104.13 nm  f=0.0331  <S**2>=0.000
      11 -> 18         0.54207
      13 -> 28        -0.39159

 Excited State  29:      Singlet-A'    11.9965 eV  103.35 nm  f=0.0663  <S**2>=0.000
       8 -> 14         0.51119
       9 -> 15        -0.10849
      11 -> 18         0.32560
      13 -> 28         0.29960

 Excited State  30:      Singlet-A'    12.0493 eV  102.90 nm  f=0.0498  <S**2>=0.000
       8 -> 14        -0.44522
      11 -> 18         0.24889
      13 -> 28         0.45577

 Excited State  31:      Singlet-A"    12.1446 eV  102.09 nm  f=0.0197  <S**2>=0.000
      10 -> 17         0.16821
      10 -> 18         0.12259
      13 -> 29         0.64504

 Excited State  32:      Singlet-A"    12.3159 eV  100.67 nm  f=0.0363  <S**2>=0.000
      10 -> 17         0.48523
      10 -> 18        -0.40620
      11 -> 20         0.23679

 Excited State  33:      Singlet-A"    12.4212 eV   99.82 nm  f=0.0160  <S**2>=0.000
      10 -> 17         0.28238
      10 -> 18         0.44597
      11 -> 20         0.25860
      12 -> 19         0.26576
      12 -> 22        -0.14246
      13 -> 29        -0.17005

 Excited State  34:      Singlet-A"    12.4652 eV   99.46 nm  f=0.0013  <S**2>=0.000
      10 -> 18        -0.23500
      12 -> 19         0.62172

 Excited State  35:      Singlet-A'    12.5059 eV   99.14 nm  f=0.0062  <S**2>=0.000
      11 -> 19         0.67252
      13 -> 30         0.14248

 Excited State  36:      Singlet-A'    12.6489 eV   98.02 nm  f=0.0416  <S**2>=0.000
       8 -> 16        -0.17131
      10 -> 21         0.10017
      12 -> 20         0.63939

 Excited State  37:      Singlet-A"    12.6797 eV   97.78 nm  f=0.0800  <S**2>=0.000
       9 -> 16        -0.17882
      10 -> 17        -0.33387
      11 -> 20         0.54913

 Excited State  38:      Singlet-A'    12.6827 eV   97.76 nm  f=0.1468  <S**2>=0.000
       9 -> 15        -0.14012
      11 -> 19        -0.14294
      13 -> 30         0.66015

 Excited State  39:      Singlet-A'    12.8159 eV   96.74 nm  f=0.0250  <S**2>=0.000
       9 -> 15         0.60854
      11 -> 22        -0.26995
      12 -> 21         0.11851

 Excited State  40:      Singlet-A"    12.8724 eV   96.32 nm  f=0.0226  <S**2>=0.000
       8 -> 15         0.15518
       9 -> 16         0.22458
      10 -> 19         0.38556
      11 -> 21        -0.17020
      12 -> 22         0.46771

 Excited State  41:      Singlet-A'    12.9057 eV   96.07 nm  f=0.0123  <S**2>=0.000
       8 -> 16         0.20301
       9 -> 15        -0.13717
      10 -> 20         0.15372
      12 -> 20         0.11532
      12 -> 21         0.59878

 Excited State  42:      Singlet-A"    12.9221 eV   95.95 nm  f=0.0263  <S**2>=0.000
       9 -> 16         0.60145
      10 -> 19        -0.12718
      11 -> 20         0.19557
      11 -> 21         0.18868
      12 -> 22        -0.13188

 Excited State  43:      Singlet-A'    12.9834 eV   95.49 nm  f=0.0376  <S**2>=0.000
       8 -> 16        -0.25736
       9 -> 15         0.21076
      10 -> 20        -0.32108
      11 -> 22         0.43897
      12 -> 21         0.21943

 Excited State  44:      Singlet-A"    12.9890 eV   95.45 nm  f=0.0016  <S**2>=0.000
       8 -> 15         0.56869
       9 -> 16        -0.14383
      10 -> 18        -0.14855
      10 -> 19         0.13698
      11 -> 21         0.25227
      12 -> 22        -0.13966

 Excited State  45:      Singlet-A"    13.0125 eV   95.28 nm  f=0.0381  <S**2>=0.000
       8 -> 15        -0.32607
      10 -> 19         0.43293
      11 -> 21         0.40306
      12 -> 22        -0.10040

 Excited State  46:      Singlet-A'    13.0435 eV   95.05 nm  f=0.0367  <S**2>=0.000
       8 -> 16         0.39461
       9 -> 15         0.11802
      10 -> 20         0.23944
      11 -> 22         0.39461
      12 -> 20         0.19336
      12 -> 21        -0.19210

 Excited State  47:      Singlet-A"    13.1288 eV   94.44 nm  f=0.0119  <S**2>=0.000
       9 -> 16        -0.11670
       9 -> 17        -0.12871
      10 -> 18         0.11996
      10 -> 19        -0.29317
      11 -> 21         0.39626
      12 -> 22         0.43806

 Excited State  48:      Singlet-A'    13.1891 eV   94.00 nm  f=0.0074  <S**2>=0.000
       7 -> 14         0.15211
       8 -> 16        -0.37572
      10 -> 20         0.44566
      11 -> 24        -0.10432
      12 -> 23         0.21543
      13 -> 31         0.16979

 Excited State  49:      Singlet-A'    13.2689 eV   93.44 nm  f=0.0526  <S**2>=0.000
       7 -> 14         0.21677
       8 -> 16         0.14168
      10 -> 20        -0.19822
      13 -> 31         0.57472
      13 -> 33         0.16130
      13 -> 34         0.11343

 Excited State  50:      Singlet-A'    13.3798 eV   92.66 nm  f=0.1088  <S**2>=0.000
       7 -> 14         0.61443
      12 -> 23         0.10889
      13 -> 31        -0.22989

 Excited State  51:      Singlet-A"    13.4954 eV   91.87 nm  f=0.0221  <S**2>=0.000
      10 -> 22         0.51076
      11 -> 23         0.42763
      13 -> 32         0.12146

 Excited State  52:      Singlet-A'    13.4987 eV   91.85 nm  f=0.0338  <S**2>=0.000
       7 -> 14        -0.11893
       8 -> 16         0.12847
       8 -> 18        -0.16805
      10 -> 20        -0.19032
      10 -> 21        -0.19688
      11 -> 22        -0.16296
      11 -> 24        -0.13769
      12 -> 23         0.52801

 Excited State  53:      Singlet-A"    13.6288 eV   90.97 nm  f=0.0001  <S**2>=0.000
       9 -> 17         0.12612
       9 -> 18        -0.10839
      10 -> 22        -0.19247
      13 -> 32         0.63175

 Excited State  54:      Singlet-A'    13.7115 eV   90.42 nm  f=0.0319  <S**2>=0.000
      10 -> 21         0.11565
      12 -> 25        -0.12532
      13 -> 31        -0.20385
      13 -> 33         0.62098
      13 -> 34         0.12132

 Excited State  55:      Singlet-A"    13.7351 eV   90.27 nm  f=0.0193  <S**2>=0.000
       9 -> 18        -0.37156
      10 -> 22        -0.33276
      11 -> 23         0.41275
      11 -> 25         0.15771
      13 -> 32        -0.15980

 Excited State  56:      Singlet-A"    13.7767 eV   90.00 nm  f=0.0203  <S**2>=0.000
       9 -> 17         0.64216
       9 -> 18         0.13842
      11 -> 21         0.16366
      13 -> 32        -0.13018

 Excited State  57:      Singlet-A'    13.8118 eV   89.77 nm  f=0.0506  <S**2>=0.000
      10 -> 21         0.51553
      11 -> 24        -0.12342
      12 -> 23         0.16849
      12 -> 25        -0.20518
      13 -> 33        -0.19297
      13 -> 34         0.23381

 Excited State  58:      Singlet-A"    13.8539 eV   89.49 nm  f=0.0544  <S**2>=0.000
       9 -> 18         0.17456
      12 -> 24         0.65696
      13 -> 32         0.11042

 Excited State  59:      Singlet-A'    13.8730 eV   89.37 nm  f=0.0355  <S**2>=0.000
       8 -> 17         0.14468
      10 -> 21        -0.18659
      12 -> 23        -0.11483
      13 -> 31        -0.10734
      13 -> 33        -0.11481
      13 -> 34         0.61094

 Excited State  60:      Singlet-A"    13.9457 eV   88.91 nm  f=0.0682  <S**2>=0.000
       9 -> 17        -0.14382
       9 -> 18         0.49561
      10 -> 22        -0.21048
      11 -> 23         0.34835
      12 -> 24        -0.16486

 Excited State  61:      Singlet-A'    13.9544 eV   88.85 nm  f=0.0480  <S**2>=0.000
       8 -> 17        -0.17476
       8 -> 18         0.21388
      11 -> 24         0.50390
      12 -> 23         0.21806
      12 -> 25        -0.26956

 Excited State  62:      Singlet-A'    14.0247 eV   88.40 nm  f=0.0101  <S**2>=0.000
       8 -> 17         0.43483
       8 -> 18         0.41322
      10 -> 21        -0.12187
      11 -> 24        -0.16875
      12 -> 25        -0.21001

 Excited State  63:      Singlet-A'    14.1307 eV   87.74 nm  f=0.0528  <S**2>=0.000
       8 -> 17        -0.21662
       8 -> 18         0.42560
      12 -> 23         0.12535
      12 -> 25         0.44573

 Excited State  64:      Singlet-A"    14.1622 eV   87.55 nm  f=0.0016  <S**2>=0.000
       9 -> 18         0.12330
      10 -> 22         0.14310
      11 -> 25         0.64979

 Excited State  65:      Singlet-A'    14.2696 eV   86.89 nm  f=0.0476  <S**2>=0.000
       7 -> 14        -0.11181
       7 -> 16         0.24199
       8 -> 17         0.30349
       9 -> 20        -0.20080
      10 -> 21         0.18643
      10 -> 23         0.19860
      11 -> 24         0.29384
      12 -> 25         0.21188
      12 -> 26         0.12528
      13 -> 37         0.13007

 Excited State  66:      Singlet-A"    14.2905 eV   86.76 nm  f=0.1093  <S**2>=0.000
       7 -> 15         0.67037
       9 -> 19         0.15065

 Excited State  67:      Singlet-A'    14.3590 eV   86.35 nm  f=0.0162  <S**2>=0.000
       7 -> 16        -0.30330
       8 -> 18        -0.12426
       8 -> 19         0.14494
      10 -> 23         0.57161

 Excited State  68:      Singlet-A"    14.4102 eV   86.04 nm  f=0.0020  <S**2>=0.000
       8 -> 20        -0.17349
       9 -> 19        -0.39920
      10 -> 24         0.46080
      11 -> 25        -0.10138
      11 -> 26        -0.24490
      13 -> 35        -0.11384

 Excited State  69:      Singlet-A'    14.4255 eV   85.95 nm  f=0.1087  <S**2>=0.000
       7 -> 16         0.53256
       8 -> 17        -0.14799
       8 -> 19         0.19750
       9 -> 20         0.26876
      10 -> 23         0.16685
      11 -> 24        -0.10613
      13 -> 37        -0.10763

 Excited State  70:      Singlet-A"    14.5227 eV   85.37 nm  f=0.0342  <S**2>=0.000
       7 -> 15        -0.14868
       8 -> 20        -0.11200
       9 -> 19         0.39522
      10 -> 24         0.44301
      11 -> 26         0.16931
      13 -> 35         0.23073

 Excited State  71:      Singlet-A'    14.5847 eV   85.01 nm  f=0.0058  <S**2>=0.000
       8 -> 19        -0.11403
      13 -> 36         0.66532
      13 -> 37        -0.15149

 Excited State  72:      Singlet-A"    14.5985 eV   84.93 nm  f=0.0687  <S**2>=0.000
      11 -> 26        -0.34009
      13 -> 35         0.58837

 Excited State  73:      Singlet-A'    14.6248 eV   84.78 nm  f=0.1160  <S**2>=0.000
       8 -> 19         0.16923
       9 -> 20         0.11471
      10 -> 23        -0.16377
      11 -> 24         0.10159
      12 -> 26         0.60695

 Excited State  74:      Singlet-A'    14.7204 eV   84.23 nm  f=0.0741  <S**2>=0.000
       8 -> 19        -0.11627
       9 -> 20         0.38308
      10 -> 25        -0.29345
      13 -> 37         0.45478
      13 -> 38         0.14419

 Excited State  75:      Singlet-A'    14.7820 eV   83.88 nm  f=0.0928  <S**2>=0.000
       8 -> 19         0.51671
       9 -> 21        -0.18015
      10 -> 23        -0.10279
      10 -> 25        -0.25702
      12 -> 26        -0.21393
      13 -> 36         0.10122

 Excited State  76:      Singlet-A"    14.8245 eV   83.63 nm  f=0.2492  <S**2>=0.000
       8 -> 20        -0.36401
       9 -> 19        -0.25726
       9 -> 22         0.20517
      10 -> 24        -0.10958
      11 -> 26         0.40719
      13 -> 35         0.21773

 Excited State  77:      Singlet-A'    14.8939 eV   83.25 nm  f=0.0804  <S**2>=0.000
       7 -> 16        -0.14254
       8 -> 19         0.20872
       9 -> 20         0.20767
       9 -> 21         0.14194
      10 -> 23        -0.10536
      10 -> 25         0.49738
      13 -> 37         0.20785

 Excited State  78:      Singlet-A"    14.9268 eV   83.06 nm  f=0.0141  <S**2>=0.000
       8 -> 20         0.53384
       9 -> 19        -0.17008
       9 -> 22         0.23186
      10 -> 24         0.18877
      11 -> 26         0.23511

 Excited State  79:      Singlet-A'    14.9628 eV   82.86 nm  f=0.0205  <S**2>=0.000
       7 -> 18         0.23197
       8 -> 17        -0.12566
       9 -> 20        -0.29961
       9 -> 21         0.37777
      12 -> 25        -0.10394
      13 -> 36         0.13500
      13 -> 37         0.28729

 Excited State  80:      Singlet-A'    14.9986 eV   82.66 nm  f=0.0688  <S**2>=0.000
       7 -> 18        -0.11051
       8 -> 22        -0.10024
       9 -> 20         0.13412
       9 -> 21         0.35498
      10 -> 25        -0.17709
      11 -> 27         0.41241
      12 -> 25         0.11995
      13 -> 37        -0.19147
      13 -> 40        -0.12040

 Excited State  81:      Singlet-A"    15.0536 eV   82.36 nm  f=0.0049  <S**2>=0.000
       8 -> 21         0.13936
       9 -> 19         0.12162
       9 -> 22         0.60901
      11 -> 26        -0.21776
      13 -> 35        -0.11138

 Excited State  82:      Singlet-A"    15.0775 eV   82.23 nm  f=0.1077  <S**2>=0.000
       8 -> 21         0.32074
      12 -> 27         0.60579

 Excited State  83:      Singlet-A'    15.1980 eV   81.58 nm  f=0.0138  <S**2>=0.000
       7 -> 17         0.23648
       9 -> 21         0.14762
      13 -> 37        -0.16650
      13 -> 38         0.59809
      13 -> 40         0.11087

 Excited State  84:      Singlet-A'    15.2189 eV   81.47 nm  f=0.0067  <S**2>=0.000
       7 -> 17        -0.16999
       7 -> 18         0.16001
       8 -> 22         0.31067
       9 -> 21        -0.19918
      10 -> 26        -0.23158
      11 -> 27         0.44641
      13 -> 38         0.15466

 Excited State  85:      Singlet-A'    15.2741 eV   81.17 nm  f=0.0254  <S**2>=0.000
       7 -> 17        -0.41285
       8 -> 19         0.12848
       8 -> 22         0.21680
      10 -> 26         0.43353
      11 -> 27        -0.11092

 Excited State  86:      Singlet-A'    15.3381 eV   80.83 nm  f=0.0297  <S**2>=0.000
       7 -> 17         0.46514
       7 -> 18         0.10356
       8 -> 22         0.28342
       9 -> 21        -0.12326
      10 -> 26         0.34624
      11 -> 27         0.12339
      13 -> 38        -0.13620

 Excited State  87:      Singlet-A"    15.3473 eV   80.79 nm  f=0.0006  <S**2>=0.000
       8 -> 21         0.46343
       8 -> 23         0.10688
       9 -> 22        -0.10701
      12 -> 27        -0.28725
      13 -> 39         0.33893
      13 -> 41        -0.12686

 Excited State  88:      Singlet-A"    15.3636 eV   80.70 nm  f=0.0014  <S**2>=0.000
       8 -> 21        -0.28262
      12 -> 27         0.13750
      13 -> 39         0.60279

 Excited State  89:      Singlet-A'    15.4176 eV   80.42 nm  f=0.3047  <S**2>=0.000
       7 -> 18         0.14777
       8 -> 22         0.38682
       9 -> 21         0.25129
       9 -> 23        -0.18120
      10 -> 26        -0.24561
      11 -> 27        -0.26604
      13 -> 37        -0.12648
      13 -> 38        -0.14421

 Excited State  90:      Singlet-A'    15.4612 eV   80.19 nm  f=0.0005  <S**2>=0.000
       7 -> 18        -0.23705
      13 -> 38        -0.11343
      13 -> 40         0.63350

 Excited State  91:      Singlet-A'    15.6376 eV   79.29 nm  f=0.0308  <S**2>=0.000
       7 -> 18         0.49704
       8 -> 22        -0.23784
       9 -> 20         0.14564
       9 -> 21        -0.10181
      11 -> 28         0.16294
      13 -> 40         0.18462

 Excited State  92:      Singlet-A"    15.6948 eV   79.00 nm  f=0.0051  <S**2>=0.000
       8 -> 21         0.16696
      10 -> 27         0.42522
      13 -> 41         0.50164

 Excited State  93:      Singlet-A"    15.7416 eV   78.76 nm  f=0.0555  <S**2>=0.000
       8 -> 21        -0.10457
       8 -> 23         0.43961
       9 -> 24        -0.21749
      10 -> 27         0.24792
      11 -> 29         0.12545
      12 -> 28         0.26173
      13 -> 41        -0.27044

 Excited State  94:      Singlet-A'    15.7509 eV   78.72 nm  f=0.0786  <S**2>=0.000
       7 -> 19        -0.15440
       9 -> 23         0.61594
      10 -> 26        -0.15429
      11 -> 28        -0.18793

 Excited State  95:      Singlet-A"    15.8258 eV   78.34 nm  f=0.0003  <S**2>=0.000
      10 -> 27         0.42979
      11 -> 29        -0.17807
      12 -> 28        -0.39556
      13 -> 41        -0.29626

 Excited State  96:      Singlet-A"    15.9178 eV   77.89 nm  f=0.0358  <S**2>=0.000
       7 -> 20        -0.17449
       8 -> 23         0.37305
       9 -> 24         0.53184

 Excited State  97:      Singlet-A"    15.9362 eV   77.80 nm  f=0.0352  <S**2>=0.000
       8 -> 23         0.24673
       8 -> 25         0.10476
       9 -> 24        -0.25096
      10 -> 27        -0.17980
      11 -> 29        -0.22903
      12 -> 28        -0.33653
      13 -> 42         0.34590
      13 -> 43         0.11506

 Excited State  98:      Singlet-A"    15.9894 eV   77.54 nm  f=0.0244  <S**2>=0.000
       8 -> 23        -0.15671
       9 -> 24         0.28211
      11 -> 29         0.12716
      12 -> 28         0.10238
      13 -> 41        -0.18901
      13 -> 42         0.54311
      13 -> 43         0.15190

 Excited State  99:      Singlet-A'    16.0487 eV   77.26 nm  f=0.1003  <S**2>=0.000
       8 -> 24        -0.34991
       9 -> 25         0.26054

 The electronic state is 1-A'.
 Alpha  occ. eigenvalues --  -14.37845 -10.24667 -10.24666  -0.91926  -0.71531
 Alpha  occ. eigenvalues --   -0.63993  -0.50598  -0.45718  -0.45228  -0.39767
 Alpha  occ. eigenvalues --   -0.37691  -0.37442  -0.23468
 Alpha virt. eigenvalues --    0.03050   0.06092   0.07158   0.10439   0.10803
 Alpha virt. eigenvalues --    0.13377   0.13464   0.15033   0.15151   0.17293
 Alpha virt. eigenvalues --    0.18249   0.19261   0.21378   0.23023   0.25977

 Mulliken charges:
               1
     1  C    0.555511
     2  N   -0.773608
     3  C    0.555511
     4  H   -0.146911
     5  H    0.044901
     6  H   -0.044916
     7  H   -0.043564
     8  H   -0.044916
     9  H    0.044901
    10  H   -0.146911
 Sum of Mulliken charges =  -0.00000

 Dipole moment (field-independent basis, Debye):
    X=              0.9165    Y=             -0.3442    Z=             -0.0000  Tot=              0.9790
 Quadrupole moment (field-independent basis, Debye-Ang):
   XX=            -20.9443   YY=            -21.4582   ZZ=            -19.9336
   XY=              2.1041   XZ=              0.0000   YZ=             -0.0000

 1\1\GINC-HEL23\SP\RPBE1PBE TD-FC\Gen\C2H7N1\SABYASACHI\21-Mar-2022\0\\
 #P TD(Nstates=10000) pbe1pbe/Gen SCF(maxcycles=100) Int(Grid=ultrafine
 )\\xGDB7_00001_tier4.com\\0,1\C,0,-0.026655,-0.220923,1.206915\N,0,-0.
 026655,0.579675,0.\C,0,-0.026655,-0.220923,-1.206915\H,0,0.028929,0.42
 7196,2.08233\H,0,0.800836,-0.947383,1.258571\H,0,-0.961718,-0.783094,1
 .269367\H,0,0.770359,1.199905,0.\H,0,-0.961718,-0.783094,-1.269367\H,0
 ,0.800836,-0.947383,-1.258571\H,0,0.028929,0.427196,-2.08233\\Version=
 EM64L-G16RevC.01\State=1-A'\HF=-134.9085723\RMSD=3.638e-09\PG=CS [SG(H

 Normal termination of Gaussian 16 at Mon Mar 21 20:15:14 2022.
