 Gaussian 16, Revision C.01,
 Gaussian 16:  EM64L-G16RevC.01  3-Jul-2019

 ----------------------------------------------------------------------
 #P TD(Nstates=10000) pbe1pbe/Gen SCF(maxcycles=100) Int(Grid=ultrafine
 )
 ----------------------------------------------------------------------

 ---------------------
 xGDB7_00001_tier4.com
 ---------------------
 Symbolic Z-matrix:
 Charge =  0 Multiplicity = 1

                         Standard orientation:
 ---------------------------------------------------------------------
 Center     Atomic      Atomic             Coordinates (Angstroms)
 Number     Number       Type             X           Y           Z
 ---------------------------------------------------------------------
      1          9           0        0.000000    0.000000    0.091801
      2          1           0        0.000000    0.000000   -0.826212
 ---------------------------------------------------------------------

 SCF Done:  E(RPBE1PBE) =  -100.278768566     A.U. after    9 cycles

 Excitation energies and oscillator strengths:

 Excited state symmetry could not be determined.
 Excited State   1:      Singlet-?Sym   10.3296 eV  120.03 nm  f=0.0317  <S**2>=0.000
       4 ->  6         0.62537
       5 ->  6        -0.32418
 This state for optimization and/or second-order correction.
 Total Energy, E(TD-HF/TD-DFT) =  -99.8991617057
 Copying the excited state density for this state as the 1-particle RhoCI density.

 Excited state symmetry could not be determined.
 Excited State   2:      Singlet-?Sym   10.3296 eV  120.03 nm  f=0.0317  <S**2>=0.000
       4 ->  6         0.32418
       5 ->  6         0.62537

 Excited State   3:      Singlet-SG    14.2252 eV   87.16 nm  f=0.1396  <S**2>=0.000
       3 ->  6         0.63375
       4 ->  9         0.21798
       5 ->  8         0.21798

 Excited state symmetry could not be determined.
 Excited State   4:      Singlet-?Sym   14.3431 eV   86.44 nm  f=0.0000  <S**2>=0.000
       4 ->  9        -0.49927
       5 ->  8         0.49927

 Excited state symmetry could not be determined.
 Excited State   5:      Singlet-?Sym   14.3431 eV   86.44 nm  f=0.0000  <S**2>=0.000
       4 ->  8         0.49927
       5 ->  9         0.49927

 Excited state symmetry could not be determined.
 Excited State   6:      Singlet-?Sym   14.3458 eV   86.43 nm  f=0.0000  <S**2>=0.000
       4 ->  8         0.49890
       5 ->  9        -0.49890

 Excited state symmetry could not be determined.
 Excited State   7:      Singlet-?Sym   14.4308 eV   85.92 nm  f=0.0276  <S**2>=0.000
       4 ->  7         0.53891
       5 ->  7        -0.44730

 Excited state symmetry could not be determined.
 Excited State   8:      Singlet-?Sym   14.4308 eV   85.92 nm  f=0.0276  <S**2>=0.000
       4 ->  7         0.44730
       5 ->  7         0.53891

 Excited state symmetry could not be determined.
 Excited State   9:      Singlet-?Sym   15.9609 eV   77.68 nm  f=0.0209  <S**2>=0.000
       3 ->  6        -0.27999
       3 ->  7        -0.17745
       3 -> 10         0.11472
       4 ->  9         0.42128
       5 ->  8         0.42128

 Excited state symmetry could not be determined.
 Excited State  10:      Singlet-?Sym   16.2502 eV   76.30 nm  f=0.0698  <S**2>=0.000
       5 -> 10         0.69425

 Excited state symmetry could not be determined.
 Excited State  11:      Singlet-?Sym   16.2502 eV   76.30 nm  f=0.0698  <S**2>=0.000
       4 -> 10         0.69425

 Excited state symmetry could not be determined.
 Excited State  12:      Singlet-?Sym   17.1362 eV   72.35 nm  f=0.0000  <S**2>=0.000
       4 -> 12        -0.49904
       5 -> 11         0.49904

 Excited state symmetry could not be determined.
 Excited State  13:      Singlet-?Sym   17.1362 eV   72.35 nm  f=0.0000  <S**2>=0.000
       4 -> 11         0.49904
       5 -> 12         0.49904

 Excited state symmetry could not be determined.
 Excited State  14:      Singlet-?Sym   17.2531 eV   71.86 nm  f=0.0000  <S**2>=0.000
       4 -> 11         0.49875
       5 -> 12        -0.49875

 Excited state symmetry could not be determined.
 Excited State  15:      Singlet-?Sym   17.3091 eV   71.63 nm  f=0.1920  <S**2>=0.000
       3 ->  7        -0.11092
       3 -> 10         0.12008
       4 -> 12         0.48015
       5 -> 11         0.48015

 Excited state symmetry could not be determined.
 Excited State  16:      Singlet-?Sym   18.0930 eV   68.53 nm  f=0.0003  <S**2>=0.000
       3 ->  8         0.23461
       3 ->  9         0.66541

 Excited state symmetry could not be determined.
 Excited State  17:      Singlet-?Sym   18.0930 eV   68.53 nm  f=0.0003  <S**2>=0.000
       3 ->  8         0.66541
       3 ->  9        -0.23461

 Excited State  18:      Singlet-SG    18.6030 eV   66.65 nm  f=0.0322  <S**2>=0.000
       3 ->  7         0.67258
       3 -> 10         0.10111
       4 ->  9         0.10692
       5 ->  8         0.10692

 Excited state symmetry could not be determined.
 Excited State  19:      Singlet-?Sym   19.4790 eV   63.65 nm  f=0.0182  <S**2>=0.000
       5 -> 13         0.69758

 Excited state symmetry could not be determined.
 Excited State  20:      Singlet-?Sym   19.4790 eV   63.65 nm  f=0.0182  <S**2>=0.000
       4 -> 13         0.69758

 Excited state symmetry could not be determined.
 Excited State  21:      Singlet-?Sym   20.8820 eV   59.37 nm  f=0.0745  <S**2>=0.000
       3 -> 11         0.68958
       3 -> 12         0.13789

 Excited state symmetry could not be determined.
 Excited State  22:      Singlet-?Sym   20.8820 eV   59.37 nm  f=0.0745  <S**2>=0.000
       3 -> 11        -0.13789
       3 -> 12         0.68958

 Excited State  23:      Singlet-SG    20.9369 eV   59.22 nm  f=0.1138  <S**2>=0.000
       3 -> 10         0.65798
       3 -> 13        -0.18990

 Excited State  24:      Singlet-SG    23.8928 eV   51.89 nm  f=0.0776  <S**2>=0.000
       3 -> 10         0.15682
       3 -> 13         0.67200

 Excited state symmetry could not be determined.
 Excited State  25:      Singlet-?Sym   24.8167 eV   49.96 nm  f=0.0000  <S**2>=0.000
       4 -> 14         0.42650
       4 -> 15         0.26098
       5 -> 14        -0.26098
       5 -> 15         0.42650

 Excited state symmetry could not be determined.
 Excited State  26:      Singlet-?Sym   24.8167 eV   49.96 nm  f=0.0000  <S**2>=0.000
       4 -> 14         0.26098
       4 -> 15        -0.42650
       5 -> 14         0.42650
       5 -> 15         0.26098

 Excited state symmetry could not be determined.
 Excited State  27:      Singlet-?Sym   25.9436 eV   47.79 nm  f=0.4323  <S**2>=0.000
       4 -> 14         0.47838
       5 -> 15        -0.47838
       5 -> 16        -0.18412

 Excited state symmetry could not be determined.
 Excited State  28:      Singlet-?Sym   25.9436 eV   47.79 nm  f=0.4323  <S**2>=0.000
       4 -> 15         0.47838
       4 -> 16        -0.18412
       5 -> 14         0.47838

 Excited state symmetry could not be determined.
 Excited State  29:      Singlet-?Sym   27.4936 eV   45.10 nm  f=0.1668  <S**2>=0.000
       4 -> 14         0.12555
       5 -> 15        -0.12555
       5 -> 16         0.67919

 Excited state symmetry could not be determined.
 Excited State  30:      Singlet-?Sym   27.4936 eV   45.10 nm  f=0.1668  <S**2>=0.000
       4 -> 15         0.12555
       4 -> 16         0.67919
       5 -> 14         0.12555

 Excited state symmetry could not be determined.
 Excited State  31:      Singlet-?Sym   28.7550 eV   43.12 nm  f=0.0000  <S**2>=0.000
       3 -> 14         0.69591

 Excited state symmetry could not be determined.
 Excited State  32:      Singlet-?Sym   28.7550 eV   43.12 nm  f=0.0000  <S**2>=0.000
       3 -> 15         0.69591

 Excited state symmetry could not be determined.
 Excited State  33:      Singlet-?Sym   29.4308 eV   42.13 nm  f=0.0000  <S**2>=0.000
       3 -> 14        -0.12518
       4 -> 17         0.49178
       5 -> 18         0.49178

 Excited state symmetry could not be determined.
 Excited State  34:      Singlet-?Sym   29.4308 eV   42.13 nm  f=0.0000  <S**2>=0.000
       3 -> 15         0.12518
       4 -> 18        -0.49178
       5 -> 17         0.49178

 Excited state symmetry could not be determined.
 Excited State  35:      Singlet-?Sym   29.5936 eV   41.90 nm  f=0.0000  <S**2>=0.000
       4 -> 17         0.49968
       5 -> 18        -0.49968

 Excited state symmetry could not be determined.
 Excited State  36:      Singlet-?Sym   30.0032 eV   41.32 nm  f=0.1431  <S**2>=0.000
       3 -> 16         0.34403
       4 -> 18         0.43200
       5 -> 17         0.43200

 Excited State  37:      Singlet-SG    31.9992 eV   38.75 nm  f=0.2863  <S**2>=0.000
       2 ->  6         0.57904
       3 -> 16        -0.36868

 Excited State  38:      Singlet-SG    32.7034 eV   37.91 nm  f=0.3545  <S**2>=0.000
       2 ->  6         0.38933
       3 -> 16         0.48977
       4 -> 18        -0.22461
       5 -> 17        -0.22461

 Excited state symmetry could not be determined.
 Excited State  39:      Singlet-?Sym   33.6956 eV   36.80 nm  f=0.3040  <S**2>=0.000
       3 -> 17         0.51938
       3 -> 18        -0.46034

 Excited state symmetry could not be determined.
 Excited State  40:      Singlet-?Sym   33.6956 eV   36.80 nm  f=0.3040  <S**2>=0.000
       3 -> 17         0.46034
       3 -> 18         0.51938

 Excited State  41:      Singlet-SG    35.9271 eV   34.51 nm  f=0.0035  <S**2>=0.000
       2 ->  7         0.69798

 Excited state symmetry could not be determined.
 Excited State  42:      Singlet-?Sym   35.9657 eV   34.47 nm  f=0.0004  <S**2>=0.000
       2 ->  8        -0.28303
       2 ->  9         0.63611

 Excited state symmetry could not be determined.
 Excited State  43:      Singlet-?Sym   35.9657 eV   34.47 nm  f=0.0004  <S**2>=0.000
       2 ->  8         0.63611
       2 ->  9         0.28303

 Excited State  44:      Singlet-SG    37.7121 eV   32.88 nm  f=0.0099  <S**2>=0.000
       2 -> 10         0.70233

 Excited state symmetry could not be determined.
 Excited State  45:      Singlet-?Sym   37.7419 eV   32.85 nm  f=0.0040  <S**2>=0.000
       4 -> 19         0.38718
       5 -> 19         0.58786

 Excited state symmetry could not be determined.
 Excited State  46:      Singlet-?Sym   37.7419 eV   32.85 nm  f=0.0040  <S**2>=0.000
       4 -> 19         0.58786
       5 -> 19        -0.38718

 Excited state symmetry could not be determined.
 Excited State  47:      Singlet-?Sym   38.4690 eV   32.23 nm  f=0.0036  <S**2>=0.000
       2 -> 11         0.55724
       2 -> 12        -0.42920

 Excited state symmetry could not be determined.
 Excited State  48:      Singlet-?Sym   38.4690 eV   32.23 nm  f=0.0036  <S**2>=0.000
       2 -> 11         0.42920
       2 -> 12         0.55724

 Excited State  49:      Singlet-SG    41.0757 eV   30.18 nm  f=0.0126  <S**2>=0.000
       2 -> 13         0.66301
       3 -> 19         0.23355

 Excited State  50:      Singlet-SG    42.0975 eV   29.45 nm  f=0.0032  <S**2>=0.000
       2 -> 13        -0.20850
       3 -> 19         0.63906
       4 -> 20        -0.15228
       5 -> 21        -0.15228

 Excited state symmetry could not be determined.
 Excited State  51:      Singlet-?Sym   44.7719 eV   27.69 nm  f=0.0000  <S**2>=0.000
       4 -> 21        -0.49980
       5 -> 20         0.49980

 Excited state symmetry could not be determined.
 Excited State  52:      Singlet-?Sym   44.8335 eV   27.65 nm  f=0.0000  <S**2>=0.000
       2 -> 15        -0.12112
       4 -> 20         0.49244
       5 -> 21        -0.49244

 Excited state symmetry could not be determined.
 Excited State  53:      Singlet-?Sym   44.8335 eV   27.65 nm  f=0.0000  <S**2>=0.000
       2 -> 14        -0.12112
       4 -> 21         0.49244
       5 -> 20         0.49244

 Excited state symmetry could not be determined.
 Excited State  54:      Singlet-?Sym   46.5061 eV   26.66 nm  f=0.0000  <S**2>=0.000
       2 -> 14         0.69662

 Excited state symmetry could not be determined.
 Excited State  55:      Singlet-?Sym   46.5061 eV   26.66 nm  f=0.0000  <S**2>=0.000
       2 -> 15         0.69662

 Excited state symmetry could not be determined.
 Excited State  56:      Singlet-?Sym   48.7600 eV   25.43 nm  f=0.0000  <S**2>=0.000
       3 -> 20         0.69771

 Excited state symmetry could not be determined.
 Excited State  57:      Singlet-?Sym   48.7600 eV   25.43 nm  f=0.0000  <S**2>=0.000
       3 -> 21         0.69771

 Excited State  58:      Singlet-SG    48.7872 eV   25.41 nm  f=0.0000  <S**2>=0.000
       2 -> 16         0.69311

 Excited state symmetry could not be determined.
 Excited State  59:      Singlet-?Sym   50.3487 eV   24.63 nm  f=0.0455  <S**2>=0.000
       2 -> 18        -0.12101
       4 -> 22         0.65595
       5 -> 22        -0.22546

 Excited state symmetry could not be determined.
 Excited State  60:      Singlet-?Sym   50.3487 eV   24.63 nm  f=0.0455  <S**2>=0.000
       2 -> 17        -0.12101
       4 -> 22         0.22546
       5 -> 22         0.65595

 Excited state symmetry could not be determined.
 Excited State  61:      Singlet-?Sym   51.1035 eV   24.26 nm  f=0.0106  <S**2>=0.000
       2 -> 17         0.69278
       5 -> 22         0.12532

 Excited state symmetry could not be determined.
 Excited State  62:      Singlet-?Sym   51.1035 eV   24.26 nm  f=0.0106  <S**2>=0.000
       2 -> 18         0.69278
       4 -> 22         0.12532

 Excited State  63:      Singlet-SG    51.4258 eV   24.11 nm  f=0.0869  <S**2>=0.000
       2 -> 16        -0.13309
       3 -> 19        -0.13177
       3 -> 22         0.45391
       4 -> 20        -0.34380
       5 -> 21        -0.34380

 Excited State  64:      Singlet-SG    58.1233 eV   21.33 nm  f=0.0022  <S**2>=0.000
       2 -> 19        -0.34749
       3 -> 22         0.43725
       4 -> 20         0.20939
       4 -> 24         0.18913
       5 -> 21         0.20939
       5 -> 23         0.18913

 Excited state symmetry could not be determined.
 Excited State  65:      Singlet-?Sym   59.0064 eV   21.01 nm  f=0.0000  <S**2>=0.000
       4 -> 24        -0.49992
       5 -> 23         0.49992

 Excited state symmetry could not be determined.
 Excited State  66:      Singlet-?Sym   59.0064 eV   21.01 nm  f=0.0000  <S**2>=0.000
       4 -> 23         0.49992
       5 -> 24         0.49992

 Excited state symmetry could not be determined.
 Excited State  67:      Singlet-?Sym   59.2494 eV   20.93 nm  f=0.0000  <S**2>=0.000
       4 -> 23         0.49992
       5 -> 24        -0.49992

 Excited State  68:      Singlet-SG    59.6734 eV   20.78 nm  f=0.1384  <S**2>=0.000
       2 -> 19         0.52127
       4 -> 24         0.32716
       5 -> 23         0.32716

 Excited state symmetry could not be determined.
 Excited State  69:      Singlet-?Sym   60.5445 eV   20.48 nm  f=0.0114  <S**2>=0.000
       2 -> 19        -0.31259
       2 -> 22        -0.12202
       3 -> 22        -0.27809
       3 -> 25         0.20567
       4 -> 20        -0.17016
       4 -> 24         0.31505
       5 -> 21        -0.17016
       5 -> 23         0.31505

 Excited state symmetry could not be determined.
 Excited State  70:      Singlet-?Sym   62.0349 eV   19.99 nm  f=0.0066  <S**2>=0.000
       3 -> 23        -0.28925
       5 -> 25         0.64370

 Excited state symmetry could not be determined.
 Excited State  71:      Singlet-?Sym   62.0349 eV   19.99 nm  f=0.0066  <S**2>=0.000
       3 -> 24        -0.28925
       4 -> 25         0.64370

 Excited state symmetry could not be determined.
 Excited State  72:      Singlet-?Sym   63.1889 eV   19.62 nm  f=0.1749  <S**2>=0.000
       3 -> 23         0.53729
       3 -> 24        -0.35502
       4 -> 25        -0.15959
       5 -> 25         0.24153

 Excited state symmetry could not be determined.
 Excited State  73:      Singlet-?Sym   63.1889 eV   19.62 nm  f=0.1749  <S**2>=0.000
       3 -> 23         0.35502
       3 -> 24         0.53729
       4 -> 25         0.24153
       5 -> 25         0.15959

 Excited state symmetry could not be determined.
 Excited State  74:      Singlet-?Sym   66.7754 eV   18.57 nm  f=0.1795  <S**2>=0.000
       2 -> 20         0.68775
       2 -> 21        -0.15721

 Excited state symmetry could not be determined.
 Excited State  75:      Singlet-?Sym   66.7754 eV   18.57 nm  f=0.1795  <S**2>=0.000
       2 -> 20         0.15721
       2 -> 21         0.68775

 Excited State  76:      Singlet-SG    66.9166 eV   18.53 nm  f=0.0205  <S**2>=0.000
       2 -> 22         0.16397
       3 -> 25         0.66121

 Excited state symmetry could not be determined.
 Excited State  77:      Singlet-?Sym   73.1755 eV   16.94 nm  f=0.0180  <S**2>=0.000
       5 -> 26         0.70428

 Excited state symmetry could not be determined.
 Excited State  78:      Singlet-?Sym   73.1755 eV   16.94 nm  f=0.0180  <S**2>=0.000
       4 -> 26         0.70428

 Excited State  79:      Singlet-SG    73.6711 eV   16.83 nm  f=0.0750  <S**2>=0.000
       2 -> 22         0.64497
       2 -> 25         0.12193
       3 -> 25        -0.11494
       3 -> 26        -0.15788

 Excited State  80:      Singlet-SG    78.0650 eV   15.88 nm  f=0.0218  <S**2>=0.000
       2 -> 22         0.13076
       3 -> 26         0.67864

 Excited state symmetry could not be determined.
 Excited State  81:      Singlet-?Sym   80.3837 eV   15.42 nm  f=0.0010  <S**2>=0.000
       2 -> 23         0.70585

 Excited state symmetry could not be determined.
 Excited State  82:      Singlet-?Sym   80.3837 eV   15.42 nm  f=0.0010  <S**2>=0.000
       2 -> 24         0.70585

 Excited State  83:      Singlet-SG    85.5285 eV   14.50 nm  f=0.0395  <S**2>=0.000
       2 -> 22        -0.10353
       2 -> 25         0.68372

 Excited State  84:      Singlet-SG    95.0216 eV   13.05 nm  f=0.0189  <S**2>=0.000
       2 -> 26         0.70517

 Excited state symmetry could not be determined.
 Excited State  85:      Singlet-?Sym   97.2739 eV   12.75 nm  f=0.0000  <S**2>=0.000
       4 -> 27         0.46782
       4 -> 28        -0.17648
       5 -> 27        -0.17648
       5 -> 28        -0.46782

 Excited state symmetry could not be determined.
 Excited State  86:      Singlet-?Sym   97.2739 eV   12.75 nm  f=0.0000  <S**2>=0.000
       4 -> 27         0.17648
       4 -> 28         0.46782
       5 -> 27         0.46782
       5 -> 28        -0.17648

 Excited state symmetry could not be determined.
 Excited State  87:      Singlet-?Sym  101.2706 eV   12.24 nm  f=0.0000  <S**2>=0.000
       3 -> 27         0.70696

 Excited state symmetry could not be determined.
 Excited State  88:      Singlet-?Sym  101.2706 eV   12.24 nm  f=0.0000  <S**2>=0.000
       3 -> 28         0.70696

 Excited state symmetry could not be determined.
 Excited State  89:      Singlet-?Sym  101.6265 eV   12.20 nm  f=0.2853  <S**2>=0.000
       3 -> 29         0.34077
       4 -> 27        -0.11858
       4 -> 28        -0.41463
       5 -> 27         0.41463
       5 -> 28        -0.11858

 Excited state symmetry could not be determined.
 Excited State  90:      Singlet-?Sym  101.6265 eV   12.20 nm  f=0.2853  <S**2>=0.000
       3 -> 30        -0.34077
       4 -> 27         0.41463
       4 -> 28        -0.11858
       5 -> 27         0.11858
       5 -> 28         0.41463

 Excited state symmetry could not be determined.
 Excited State  91:      Singlet-?Sym  102.1417 eV   12.14 nm  f=0.0000  <S**2>=0.000
       4 -> 29         0.49997
       5 -> 30        -0.49997

 Excited state symmetry could not be determined.
 Excited State  92:      Singlet-?Sym  102.1465 eV   12.14 nm  f=0.0000  <S**2>=0.000
       4 -> 29         0.49997
       5 -> 30         0.49997

 Excited state symmetry could not be determined.
 Excited State  93:      Singlet-?Sym  102.1465 eV   12.14 nm  f=0.0000  <S**2>=0.000
       4 -> 30        -0.49997
       5 -> 29         0.49997

 Excited state symmetry could not be determined.
 Excited State  94:      Singlet-?Sym  107.9820 eV   11.48 nm  f=0.5540  <S**2>=0.000
       4 -> 30         0.49260
       5 -> 29         0.49260

 Excited state symmetry could not be determined.
 Excited State  95:      Singlet-?Sym  110.4383 eV   11.23 nm  f=0.6460  <S**2>=0.000
       3 -> 29         0.51389
       3 -> 30         0.32643
       4 -> 27         0.13155
       4 -> 28         0.20711
       5 -> 27        -0.20711
       5 -> 28         0.13155

 Excited state symmetry could not be determined.
 Excited State  96:      Singlet-?Sym  110.4383 eV   11.23 nm  f=0.6460  <S**2>=0.000
       3 -> 29        -0.32643
       3 -> 30         0.51389
       4 -> 27         0.20711
       4 -> 28        -0.13155
       5 -> 27         0.13155
       5 -> 28         0.20711

 Excited state symmetry could not be determined.
 Excited State  97:      Singlet-?Sym  120.1673 eV   10.32 nm  f=0.0000  <S**2>=0.000
       2 -> 28         0.70701

 Excited state symmetry could not be determined.
 Excited State  98:      Singlet-?Sym  120.1673 eV   10.32 nm  f=0.0000  <S**2>=0.000
       2 -> 27         0.70701

 Excited state symmetry could not be determined.
 Excited State  99:      Singlet-?Sym  124.9852 eV    9.92 nm  f=0.0094  <S**2>=0.000
       2 -> 29         0.33859
       2 -> 30         0.61981

 Excited state symmetry could not be determined.
 Excited State 100:      Singlet-?Sym  124.9852 eV    9.92 nm  f=0.0094  <S**2>=0.000
       2 -> 29         0.61981
       2 -> 30        -0.33859

 Excited state symmetry could not be determined.
 Excited State 101:      Singlet-?Sym  128.4224 eV    9.65 nm  f=0.1062  <S**2>=0.000
       4 -> 31         0.66671
       5 -> 31         0.21685

 Excited state symmetry could not be determined.
 Excited State 102:      Singlet-?Sym  128.4224 eV    9.65 nm  f=0.1062  <S**2>=0.000
       4 -> 31        -0.21685
       5 -> 31         0.66671

 Excited State 103:      Singlet-SG   133.6323 eV    9.28 nm  f=0.2202  <S**2>=0.000
       3 -> 31         0.70047

 Excited State 104:      Singlet-SG   149.5894 eV    8.29 nm  f=0.0002  <S**2>=0.000
       2 -> 31         0.70696

 The electronic state is 1-SG.
 Alpha  occ. eigenvalues --  -24.78040  -1.21987  -0.57373  -0.43838  -0.43838
 Alpha virt. eigenvalues --    0.01806   0.16073   0.16364   0.16364   0.23676
 Alpha virt. eigenvalues --    0.25959   0.25959   0.35492   0.57944   0.57944
 Alpha virt. eigenvalues --    0.65365   0.74194   0.74194   1.05737   1.36033

 Mulliken charges:
               1
     1  F   -0.264556
     2  H    0.264556
 Sum of Mulliken charges =  -0.00000

 Dipole moment (field-independent basis, Debye):
    X=              0.0000    Y=              0.0000    Z=             -1.8319  Tot=              1.8319
 Quadrupole moment (field-independent basis, Debye-Ang):
   XX=             -5.8811   YY=             -5.8811   ZZ=             -3.7676
   XY=              0.0000   XZ=              0.0000   YZ=              0.0000

 Normal termination of Gaussian 16 at Mon Mar 21 20:12:44 2022.
