 Gaussian 16, Revision C.01,
 Gaussian 16:  EM64L-G16RevC.01  3-Jul-2019

 ----------------------------------------------------------------------
 #P TD(Nstates=10000) pbe1pbe/Gen SCF(maxcycles=100) Int(Grid=ultrafine
 )
 ----------------------------------------------------------------------

 ---------------------
 xGDB7_00001_tier4.com
 ---------------------
 Symbolic Z-matrix:
 Charge =  0 Multiplicity = 1

                         Standard orientation:
 ---------------------------------------------------------------------
 Center     Atomic      Atomic             Coordinates (Angstroms)
 Number     Number       Type             X           Y           Z
 ---------------------------------------------------------------------
      1          6           0        0.000000    0.000000    0.597322
      2          6           0        0.000000    0.000000   -0.597322
      3          1           0        0.000000    0.000000    1.661338
      4          1           0        0.000000    0.000000   -1.661338
 ---------------------------------------------------------------------

 SCF Done:  E(RPBE1PBE) =  -77.1709439215     A.U. after   10 cycles

 Excitation energies and oscillator strengths:

 Excited state symmetry could not be determined.
 Excited State   1:      Singlet-?Sym    6.8790 eV  180.24 nm  f=0.0000  <S**2>=0.000
       6 ->  8        -0.49825
       7 ->  9         0.49825
 This state for optimization and/or second-order correction.
 Total Energy, E(TD-HF/TD-DFT) =  -76.9181446990
 Copying the excited state density for this state as the 1-particle RhoCI density.

 Excited state symmetry could not be determined.
 Excited State   2:      Singlet-?Sym    7.1658 eV  173.02 nm  f=0.0000  <S**2>=0.000
       6 ->  9        -0.49902
       7 ->  8         0.49902

 Excited state symmetry could not be determined.
 Excited State   3:      Singlet-?Sym    7.1658 eV  173.02 nm  f=0.0000  <S**2>=0.000
       6 ->  8         0.49902
       7 ->  9         0.49902

 Excited state symmetry could not be determined.
 Excited State   4:      Singlet-?Sym    8.4590 eV  146.57 nm  f=0.0997  <S**2>=0.000
       6 -> 10        -0.27217
       7 -> 10         0.65202

 Excited state symmetry could not be determined.
 Excited State   5:      Singlet-?Sym    8.4590 eV  146.57 nm  f=0.0997  <S**2>=0.000
       6 -> 10         0.65202
       7 -> 10         0.27217

 Excited state symmetry could not be determined.
 Excited State   6:      Singlet-?Sym    8.7626 eV  141.49 nm  f=0.0000  <S**2>=0.000
       6 -> 11         0.50770
       7 -> 11        -0.48977

 Excited state symmetry could not be determined.
 Excited State   7:      Singlet-?Sym    8.7626 eV  141.49 nm  f=0.0000  <S**2>=0.000
       6 -> 11         0.48977
       7 -> 11         0.50770

 Excited state symmetry could not be determined.
 Excited State   8:      Singlet-?Sym   10.0589 eV  123.26 nm  f=0.0408  <S**2>=0.000
       7 -> 12         0.69650

 Excited state symmetry could not be determined.
 Excited State   9:      Singlet-?Sym   10.0589 eV  123.26 nm  f=0.0408  <S**2>=0.000
       6 -> 12         0.69650

 Excited state symmetry could not be determined.
 Excited State  10:      Singlet-?Sym   10.4444 eV  118.71 nm  f=0.8446  <S**2>=0.000
       6 ->  9         0.47807
       6 -> 19         0.14198
       7 ->  8         0.47807
       7 -> 18         0.14198

 Excited state symmetry could not be determined.
 Excited State  11:      Singlet-?Sym   11.7319 eV  105.68 nm  f=0.0000  <S**2>=0.000
       5 ->  9        -0.11579
       6 -> 13         0.64707
       7 -> 13        -0.25171

 Excited state symmetry could not be determined.
 Excited State  12:      Singlet-?Sym   11.7319 eV  105.68 nm  f=0.0000  <S**2>=0.000
       5 ->  8        -0.11579
       6 -> 13         0.25171
       7 -> 13         0.64707

 Excited state symmetry could not be determined.
 Excited State  13:      Singlet-?Sym   11.8771 eV  104.39 nm  f=0.0000  <S**2>=0.000
       6 -> 14         0.49958
       7 -> 15        -0.49958

 Excited state symmetry could not be determined.
 Excited State  14:      Singlet-?Sym   11.8771 eV  104.39 nm  f=0.0000  <S**2>=0.000
       6 -> 15         0.49958
       7 -> 14         0.49958

 Excited state symmetry could not be determined.
 Excited State  15:      Singlet-?Sym   11.9168 eV  104.04 nm  f=0.0000  <S**2>=0.000
       6 -> 15        -0.49971
       7 -> 14         0.49971

 Excited state symmetry could not be determined.
 Excited State  16:      Singlet-?Sym   12.6681 eV   97.87 nm  f=0.0000  <S**2>=0.000
       5 -> 12        -0.15173
       6 -> 14         0.47963
       7 -> 15         0.47963

 Excited state symmetry could not be determined.
 Excited State  17:      Singlet-?Sym   12.7798 eV   97.02 nm  f=0.0000  <S**2>=0.000
       5 ->  8         0.68921
       7 -> 13         0.12388

 Excited state symmetry could not be determined.
 Excited State  18:      Singlet-?Sym   12.7798 eV   97.02 nm  f=0.0000  <S**2>=0.000
       5 ->  9         0.68921
       6 -> 13         0.12388

 Excited state symmetry could not be determined.
 Excited State  19:      Singlet-?Sym   13.2733 eV   93.41 nm  f=0.0000  <S**2>=0.000
       6 -> 16         0.49082
       7 -> 17        -0.49082

 Excited state symmetry could not be determined.
 Excited State  20:      Singlet-?Sym   13.2733 eV   93.41 nm  f=0.0000  <S**2>=0.000
       6 -> 17         0.49082
       7 -> 16         0.49082

 Excited state symmetry could not be determined.
 Excited State  21:      Singlet-?Sym   13.8717 eV   89.38 nm  f=0.2253  <S**2>=0.000
       4 ->  9        -0.28165
       6 -> 17        -0.44705
       7 -> 16         0.44704

 Excited state symmetry could not be determined.
 Excited State  22:      Singlet-?Sym   13.8717 eV   89.38 nm  f=0.2253  <S**2>=0.000
       4 ->  8        -0.28165
       6 -> 16         0.44704
       7 -> 17         0.44705

 Excited State  23:      Singlet-SGG   14.1059 eV   87.90 nm  f=0.0000  <S**2>=0.000
       5 -> 10         0.69972

 Excited State  24:      Singlet-SGU   14.2245 eV   87.16 nm  f=0.3973  <S**2>=0.000
       5 -> 11         0.69196

 Excited state symmetry could not be determined.
 Excited State  25:      Singlet-?Sym   14.2751 eV   86.85 nm  f=0.0000  <S**2>=0.000
       6 -> 18        -0.49695
       7 -> 19         0.49695

 Excited state symmetry could not be determined.
 Excited State  26:      Singlet-?Sym   14.2963 eV   86.72 nm  f=0.0000  <S**2>=0.000
       6 -> 19        -0.49791
       7 -> 18         0.49791

 Excited state symmetry could not be determined.
 Excited State  27:      Singlet-?Sym   14.2963 eV   86.72 nm  f=0.0000  <S**2>=0.000
       6 -> 18         0.49791
       7 -> 19         0.49791

 Excited State  28:      Singlet-SGU   15.5474 eV   79.75 nm  f=0.0303  <S**2>=0.000
       4 -> 10         0.42069
       5 -> 11         0.13595
       6 -> 19         0.37175
       7 -> 18         0.37175

 Excited state symmetry could not be determined.
 Excited State  29:      Singlet-?Sym   15.7243 eV   78.85 nm  f=0.3417  <S**2>=0.000
       4 ->  8         0.55357
       4 ->  9         0.18406
       6 -> 16         0.15844
       7 -> 17         0.15844
       7 -> 20        -0.26197
       7 -> 22         0.12846

 Excited state symmetry could not be determined.
 Excited State  30:      Singlet-?Sym   15.7243 eV   78.85 nm  f=0.3417  <S**2>=0.000
       4 ->  8        -0.18406
       4 ->  9         0.55357
       6 -> 17        -0.15844
       6 -> 20        -0.26197
       6 -> 22         0.12846
       7 -> 16         0.15844

 Excited State  31:      Singlet-SGG   16.1341 eV   76.85 nm  f=0.0000  <S**2>=0.000
       4 -> 11        -0.32683
       5 -> 12         0.61354

 Excited State  32:      Singlet-SGU   16.3339 eV   75.91 nm  f=0.0075  <S**2>=0.000
       4 -> 10         0.54501
       4 -> 12         0.13753
       5 -> 13         0.14773
       6 -> 19        -0.25357
       7 -> 18        -0.25357

 Excited state symmetry could not be determined.
 Excited State  33:      Singlet-?Sym   16.3393 eV   75.88 nm  f=0.3885  <S**2>=0.000
       4 ->  8         0.21712
       7 -> 20         0.64135
       7 -> 22         0.10496

 Excited state symmetry could not be determined.
 Excited State  34:      Singlet-?Sym   16.3393 eV   75.88 nm  f=0.3885  <S**2>=0.000
       4 ->  9         0.21712
       6 -> 20         0.64135
       6 -> 22         0.10496

 Excited state symmetry could not be determined.
 Excited State  35:      Singlet-?Sym   16.4280 eV   75.47 nm  f=0.0000  <S**2>=0.000
       6 -> 21        -0.37998
       7 -> 21         0.58368

 Excited state symmetry could not be determined.
 Excited State  36:      Singlet-?Sym   16.4280 eV   75.47 nm  f=0.0000  <S**2>=0.000
       6 -> 21         0.58368
       7 -> 21         0.37998

 Excited State  37:      Singlet-SGG   16.4852 eV   75.21 nm  f=0.0000  <S**2>=0.000
       4 -> 11         0.60732
       5 -> 12         0.28841
       6 -> 25         0.10329
       7 -> 26         0.10329

 Excited state symmetry could not be determined.
 Excited State  38:      Singlet-?Sym   17.2012 eV   72.08 nm  f=0.0000  <S**2>=0.000
       6 -> 23         0.39846
       6 -> 24        -0.30205
       7 -> 23        -0.30205
       7 -> 24        -0.39846

 Excited state symmetry could not be determined.
 Excited State  39:      Singlet-?Sym   17.2012 eV   72.08 nm  f=0.0000  <S**2>=0.000
       6 -> 23         0.30205
       6 -> 24         0.39846
       7 -> 23         0.39846
       7 -> 24        -0.30205

 Excited state symmetry could not be determined.
 Excited State  40:      Singlet-?Sym   17.2570 eV   71.85 nm  f=0.0134  <S**2>=0.000
       5 -> 14         0.42471
       5 -> 15        -0.10814
       6 -> 22         0.52984
       7 -> 22        -0.13491

 Excited state symmetry could not be determined.
 Excited State  41:      Singlet-?Sym   17.2570 eV   71.85 nm  f=0.0134  <S**2>=0.000
       5 -> 14         0.10814
       5 -> 15         0.42471
       6 -> 22         0.13491
       7 -> 22         0.52984

 Excited state symmetry could not be determined.
 Excited State  42:      Singlet-?Sym   17.4593 eV   71.01 nm  f=0.3495  <S**2>=0.000
       4 ->  9         0.11855
       5 -> 14         0.43441
       5 -> 15         0.31142
       6 -> 22        -0.33387
       7 -> 22        -0.23935

 Excited state symmetry could not be determined.
 Excited State  43:      Singlet-?Sym   17.4593 eV   71.01 nm  f=0.3495  <S**2>=0.000
       4 ->  8         0.11855
       5 -> 14        -0.31142
       5 -> 15         0.43441
       6 -> 22         0.23935
       7 -> 22        -0.33387

 Excited state symmetry could not be determined.
 Excited State  44:      Singlet-?Sym   17.4743 eV   70.95 nm  f=0.0000  <S**2>=0.000
       6 -> 23         0.35706
       6 -> 24        -0.33930
       7 -> 23         0.33930
       7 -> 24         0.35706

 Excited state symmetry could not be determined.
 Excited State  45:      Singlet-?Sym   17.4743 eV   70.95 nm  f=0.0000  <S**2>=0.000
       6 -> 23         0.33930
       6 -> 24         0.35706
       7 -> 23        -0.35706
       7 -> 24         0.33930

 Excited State  46:      Singlet-SGU   17.5898 eV   70.49 nm  f=0.4636  <S**2>=0.000
       4 -> 12         0.63004
       5 -> 13        -0.29170

 Excited state symmetry could not be determined.
 Excited State  47:      Singlet-?Sym   17.7087 eV   70.01 nm  f=0.0000  <S**2>=0.000
       6 -> 25         0.49944
       7 -> 26        -0.49944

 Excited state symmetry could not be determined.
 Excited State  48:      Singlet-?Sym   17.7087 eV   70.01 nm  f=0.0000  <S**2>=0.000
       6 -> 26         0.49944
       7 -> 25         0.49944

 Excited State  49:      Singlet-SGU   17.8269 eV   69.55 nm  f=0.2442  <S**2>=0.000
       4 -> 12         0.24246
       5 -> 13         0.61142
       6 -> 28        -0.12638
       7 -> 29        -0.12638

 Excited state symmetry could not be determined.
 Excited State  50:      Singlet-?Sym   17.9481 eV   69.08 nm  f=0.0000  <S**2>=0.000
       6 -> 26        -0.49977
       7 -> 25         0.49977

 Excited state symmetry could not be determined.
 Excited State  51:      Singlet-?Sym   18.2850 eV   67.81 nm  f=0.0000  <S**2>=0.000
       4 -> 11        -0.11188
       6 -> 25         0.47716
       7 -> 26         0.47716

 Excited state symmetry could not be determined.
 Excited State  52:      Singlet-?Sym   18.6289 eV   66.55 nm  f=0.0000  <S**2>=0.000
       6 -> 27         0.66670
       7 -> 27         0.20946

 Excited state symmetry could not be determined.
 Excited State  53:      Singlet-?Sym   18.6289 eV   66.55 nm  f=0.0000  <S**2>=0.000
       6 -> 27        -0.20946
       7 -> 27         0.66670

 Excited state symmetry could not be determined.
 Excited State  54:      Singlet-?Sym   18.9229 eV   65.52 nm  f=0.0000  <S**2>=0.000
       4 -> 14         0.54852
       4 -> 15         0.18679
       5 -> 18         0.12546
       5 -> 19         0.36843

 Excited state symmetry could not be determined.
 Excited State  55:      Singlet-?Sym   18.9229 eV   65.52 nm  f=0.0000  <S**2>=0.000
       4 -> 14        -0.18679
       4 -> 15         0.54852
       5 -> 18         0.36843
       5 -> 19        -0.12546

 Excited state symmetry could not be determined.
 Excited State  56:      Singlet-?Sym   19.0258 eV   65.17 nm  f=0.0000  <S**2>=0.000
       6 -> 29         0.49831
       7 -> 28         0.49831

 Excited state symmetry could not be determined.
 Excited State  57:      Singlet-?Sym   19.0258 eV   65.17 nm  f=0.0000  <S**2>=0.000
       6 -> 28         0.49831
       7 -> 29        -0.49831

 Excited state symmetry could not be determined.
 Excited State  58:      Singlet-?Sym   19.0440 eV   65.10 nm  f=0.0000  <S**2>=0.000
       5 -> 16         0.70587

 Excited state symmetry could not be determined.
 Excited State  59:      Singlet-?Sym   19.0440 eV   65.10 nm  f=0.0000  <S**2>=0.000
       5 -> 17         0.70587

 Excited state symmetry could not be determined.
 Excited State  60:      Singlet-?Sym   19.1515 eV   64.74 nm  f=0.0000  <S**2>=0.000
       6 -> 29        -0.49876
       7 -> 28         0.49876

 Excited state symmetry could not be determined.
 Excited State  61:      Singlet-?Sym   19.4475 eV   63.75 nm  f=0.0192  <S**2>=0.000
       3 -> 11        -0.12137
       4 -> 12         0.12541
       6 -> 28         0.46074
       7 -> 29         0.46074

 Excited State  62:      Singlet-SGG   19.5490 eV   63.42 nm  f=0.0000  <S**2>=0.000
       4 -> 13         0.68960

 Excited state symmetry could not be determined.
 Excited State  63:      Singlet-?Sym   19.8835 eV   62.36 nm  f=0.0000  <S**2>=0.000
       3 ->  8         0.22290
       3 ->  9        -0.20206
       4 -> 14         0.26326
       4 -> 15        -0.29040
       5 -> 18         0.36633
       5 -> 19        -0.33209

 Excited state symmetry could not be determined.
 Excited State  64:      Singlet-?Sym   19.8835 eV   62.36 nm  f=0.0000  <S**2>=0.000
       3 ->  8         0.20206
       3 ->  9         0.22290
       4 -> 14        -0.29040
       4 -> 15        -0.26326
       5 -> 18         0.33209
       5 -> 19         0.36633

 Excited state symmetry could not be determined.
 Excited State  65:      Singlet-?Sym   20.1972 eV   61.39 nm  f=0.0000  <S**2>=0.000
       3 ->  8         0.28997
       3 ->  9         0.54079
       5 -> 18        -0.14918
       5 -> 19        -0.27822

 Excited state symmetry could not be determined.
 Excited State  66:      Singlet-?Sym   20.1972 eV   61.39 nm  f=0.0000  <S**2>=0.000
       3 ->  8         0.54079
       3 ->  9        -0.28997
       5 -> 18        -0.27822
       5 -> 19         0.14918

 Excited state symmetry could not be determined.
 Excited State  67:      Singlet-?Sym   20.9354 eV   59.22 nm  f=0.0000  <S**2>=0.000
       4 -> 16         0.69901
       5 -> 23         0.10084

 Excited state symmetry could not be determined.
 Excited State  68:      Singlet-?Sym   20.9354 eV   59.22 nm  f=0.0000  <S**2>=0.000
       4 -> 17         0.69901
       5 -> 24         0.10083

 Excited State  69:      Singlet-SGG   21.0086 eV   59.02 nm  f=0.0000  <S**2>=0.000
       3 -> 10         0.69582

 Excited State  70:      Singlet-SGU   21.4309 eV   57.85 nm  f=0.0287  <S**2>=0.000
       3 -> 11         0.67099
       5 -> 21        -0.14515

 Excited state symmetry could not be determined.
 Excited State  71:      Singlet-?Sym   21.7865 eV   56.91 nm  f=0.0026  <S**2>=0.000
       4 -> 18         0.67784
       4 -> 19        -0.15421

 Excited state symmetry could not be determined.
 Excited State  72:      Singlet-?Sym   21.7865 eV   56.91 nm  f=0.0026  <S**2>=0.000
       4 -> 18         0.15421
       4 -> 19         0.67784

 Excited State  73:      Singlet-SGU   21.9591 eV   56.46 nm  f=0.2642  <S**2>=0.000
       3 -> 11         0.15080
       5 -> 21         0.68458

 Excited State  74:      Singlet-SGG   21.9920 eV   56.38 nm  f=0.0000  <S**2>=0.000
       5 -> 20         0.69216

 Excited State  75:      Singlet-SGG   22.7882 eV   54.41 nm  f=0.0000  <S**2>=0.000
       3 -> 12         0.69096
       5 -> 22         0.11044

 Excited state symmetry could not be determined.
 Excited State  76:      Singlet-?Sym   22.9196 eV   54.10 nm  f=0.0000  <S**2>=0.000
       4 -> 16        -0.10118
       5 -> 23         0.69975

 Excited state symmetry could not be determined.
 Excited State  77:      Singlet-?Sym   22.9196 eV   54.10 nm  f=0.0000  <S**2>=0.000
       4 -> 17        -0.10118
       5 -> 24         0.69975

 Excited State  78:      Singlet-SGG   23.1522 eV   53.55 nm  f=0.0000  <S**2>=0.000
       5 -> 22         0.67016
       6 -> 32        -0.11614
       7 -> 33        -0.11614

 Excited state symmetry could not be determined.
 Excited State  79:      Singlet-?Sym   23.6920 eV   52.33 nm  f=0.1412  <S**2>=0.000
       5 -> 25         0.63735
       5 -> 26        -0.27771

 Excited state symmetry could not be determined.
 Excited State  80:      Singlet-?Sym   23.6920 eV   52.33 nm  f=0.1412  <S**2>=0.000
       5 -> 25         0.27771
       5 -> 26         0.63735

 Excited State  81:      Singlet-SGU   23.8839 eV   51.91 nm  f=0.0001  <S**2>=0.000
       3 -> 13         0.11326
       4 -> 20         0.67437
       5 -> 27         0.14591

 Excited State  82:      Singlet-SGG   24.0446 eV   51.56 nm  f=0.0000  <S**2>=0.000
       4 -> 21         0.69359

 Excited State  83:      Singlet-SGU   24.3612 eV   50.89 nm  f=0.0240  <S**2>=0.000
       3 -> 13         0.63735
       4 -> 22         0.24935
       5 -> 27        -0.14561

 Excited state symmetry could not be determined.
 Excited State  84:      Singlet-?Sym   24.5473 eV   50.51 nm  f=0.0000  <S**2>=0.000
       5 -> 28         0.70369

 Excited state symmetry could not be determined.
 Excited State  85:      Singlet-?Sym   24.5473 eV   50.51 nm  f=0.0000  <S**2>=0.000
       5 -> 29         0.70369

 Excited state symmetry could not be determined.
 Excited State  86:      Singlet-?Sym   24.6421 eV   50.31 nm  f=0.0000  <S**2>=0.000
       3 -> 14         0.68840
       3 -> 15         0.11662

 Excited state symmetry could not be determined.
 Excited State  87:      Singlet-?Sym   24.6421 eV   50.31 nm  f=0.0000  <S**2>=0.000
       3 -> 14        -0.11662
       3 -> 15         0.68840

 Excited state symmetry could not be determined.
 Excited State  88:      Singlet-?Sym   24.7043 eV   50.19 nm  f=0.0000  <S**2>=0.000
       7 -> 30         0.70085

 Excited state symmetry could not be determined.
 Excited State  89:      Singlet-?Sym   24.7043 eV   50.19 nm  f=0.0000  <S**2>=0.000
       6 -> 30         0.70085

 Excited State  90:      Singlet-SGU   24.7683 eV   50.06 nm  f=0.2092  <S**2>=0.000
       3 -> 13        -0.10525
       4 -> 22         0.52334
       5 -> 27         0.45693

 Excited state symmetry could not be determined.
 Excited State  91:      Singlet-?Sym   24.7809 eV   50.03 nm  f=0.0000  <S**2>=0.000
       4 -> 23         0.70293

 Excited state symmetry could not be determined.
 Excited State  92:      Singlet-?Sym   24.7809 eV   50.03 nm  f=0.0000  <S**2>=0.000
       4 -> 24         0.70293

 Excited State  93:      Singlet-SGU   25.3105 eV   48.99 nm  f=0.0175  <S**2>=0.000
       3 -> 13         0.23653
       4 -> 20        -0.17058
       4 -> 22        -0.38479
       5 -> 27         0.47292

 Excited state symmetry could not be determined.
 Excited State  94:      Singlet-?Sym   25.6158 eV   48.40 nm  f=0.0000  <S**2>=0.000
       4 -> 25         0.53767
       4 -> 26        -0.43879

 Excited state symmetry could not be determined.
 Excited State  95:      Singlet-?Sym   25.6158 eV   48.40 nm  f=0.0000  <S**2>=0.000
       4 -> 25         0.43879
       4 -> 26         0.53767

 Excited state symmetry could not be determined.
 Excited State  96:      Singlet-?Sym   26.0177 eV   47.65 nm  f=0.0219  <S**2>=0.000
       4 -> 28        -0.12834
       6 -> 31         0.66030
       7 -> 31        -0.19528

 Excited state symmetry could not be determined.
 Excited State  97:      Singlet-?Sym   26.0177 eV   47.65 nm  f=0.0219  <S**2>=0.000
       4 -> 29        -0.12834
       6 -> 31         0.19528
       7 -> 31         0.66030

 Excited state symmetry could not be determined.
 Excited State  98:      Singlet-?Sym   26.0284 eV   47.63 nm  f=0.0000  <S**2>=0.000
       3 -> 16         0.69490

 Excited state symmetry could not be determined.
 Excited State  99:      Singlet-?Sym   26.0284 eV   47.63 nm  f=0.0000  <S**2>=0.000
       3 -> 17         0.69490

 Excited state symmetry could not be determined.
 Excited State 100:      Singlet-?Sym   26.4841 eV   46.81 nm  f=0.0001  <S**2>=0.000
       4 -> 28         0.69259
       6 -> 31         0.13082

 Excited state symmetry could not be determined.
 Excited State 101:      Singlet-?Sym   26.4841 eV   46.81 nm  f=0.0001  <S**2>=0.000
       4 -> 29         0.69259
       7 -> 31         0.13082

 Excited State 102:      Singlet-SGG   26.5313 eV   46.73 nm  f=0.0000  <S**2>=0.000
       4 -> 27         0.70248

 Excited state symmetry could not be determined.
 Excited State 103:      Singlet-?Sym   26.8362 eV   46.20 nm  f=0.0000  <S**2>=0.000
       3 -> 17         0.11289
       6 -> 32         0.49316
       7 -> 33        -0.49316

 Excited state symmetry could not be determined.
 Excited State 104:      Singlet-?Sym   26.8362 eV   46.20 nm  f=0.0000  <S**2>=0.000
       3 -> 16        -0.11289
       6 -> 33         0.49316
       7 -> 32         0.49316

 Excited state symmetry could not be determined.
 Excited State 105:      Singlet-?Sym   26.9871 eV   45.94 nm  f=0.0000  <S**2>=0.000
       6 -> 33        -0.49960
       7 -> 32         0.49960

 Excited state symmetry could not be determined.
 Excited State 106:      Singlet-?Sym   27.0123 eV   45.90 nm  f=0.0000  <S**2>=0.000
       3 -> 18         0.56095
       3 -> 19         0.40679

 Excited state symmetry could not be determined.
 Excited State 107:      Singlet-?Sym   27.0123 eV   45.90 nm  f=0.0000  <S**2>=0.000
       3 -> 18        -0.40679
       3 -> 19         0.56095

 Excited State 108:      Singlet-SGG   28.5083 eV   43.49 nm  f=0.0000  <S**2>=0.000
       3 -> 20         0.57514
       6 -> 32        -0.27156
       7 -> 33        -0.27156

 Excited State 109:      Singlet-SGU   29.1250 eV   42.57 nm  f=0.0042  <S**2>=0.000
       3 -> 21         0.69486

 Excited State 110:      Singlet-SGG   29.6188 eV   41.86 nm  f=0.0000  <S**2>=0.000
       3 -> 20         0.29221
       3 -> 22         0.52594
       5 -> 31        -0.17504
       6 -> 32         0.21173
       7 -> 33         0.21173

 Excited state symmetry could not be determined.
 Excited State 111:      Singlet-?Sym   29.8829 eV   41.49 nm  f=0.0000  <S**2>=0.000
       3 -> 23         0.70655

 Excited state symmetry could not be determined.
 Excited State 112:      Singlet-?Sym   29.8829 eV   41.49 nm  f=0.0000  <S**2>=0.000
       3 -> 24         0.70655

 Excited State 113:      Singlet-SGG   30.2051 eV   41.05 nm  f=0.0000  <S**2>=0.000
       3 -> 20        -0.26568
       3 -> 22         0.46748
       5 -> 31         0.24138

 The electronic state is 1-SGG.
 Alpha  occ. eigenvalues --  -10.24611 -10.24334  -0.77067  -0.58083  -0.51210
 Alpha  occ. eigenvalues --   -0.31070  -0.31070
 Alpha virt. eigenvalues --    0.03241   0.03241   0.04964   0.06008   0.11767
 Alpha virt. eigenvalues --    0.17632   0.18388   0.18388   0.25126   0.25126
 Alpha virt. eigenvalues --    0.27715   0.27715   0.34283   0.34560   0.37824

 Mulliken charges:
               1
     1  C    0.129535
     2  C    0.129535
     3  H   -0.129535
     4  H   -0.129535
 Sum of Mulliken charges =  -0.00000

 Dipole moment (field-independent basis, Debye):
    X=             -0.0000    Y=              0.0000    Z=              0.0000  Tot=              0.0000
 Quadrupole moment (field-independent basis, Debye-Ang):
   XX=            -13.4697   YY=            -13.4697   ZZ=             -7.1298
   XY=             -0.0000   XZ=              0.0000   YZ=              0.0000

 Normal termination of Gaussian 16 at Mon Mar 21 20:17:50 2022.
