 Gaussian 16, Revision C.01,
 Gaussian 16:  EM64L-G16RevC.01  3-Jul-2019

 ----------------------------------------------------------------------
 #P TD(Nstates=10000) pbe1pbe/Gen SCF(maxcycles=100) Int(Grid=ultrafine
 )
 ----------------------------------------------------------------------

 ---------------------
 xGDB7_00001_tier4.com
 ---------------------
 Symbolic Z-matrix:
 Charge =  0 Multiplicity = 1

                         Standard orientation:
 ---------------------------------------------------------------------
 Center     Atomic      Atomic             Coordinates (Angstroms)
 Number     Number       Type             X           Y           Z
 ---------------------------------------------------------------------
      1          6           0        0.000000    0.000000    0.761397
      2          6           0       -0.000000   -0.000000   -0.761397
      3          1           0        0.000000    1.017110    1.157248
      4          1           0        0.880843   -0.508555    1.157248
      5          1           0       -0.880843   -0.508555    1.157248
      6          1           0        0.880843    0.508555   -1.157248
      7          1           0       -0.880843    0.508555   -1.157248
      8          1           0       -0.000000   -1.017110   -1.157248
 ---------------------------------------------------------------------

 SCF Done:  E(RPBE1PBE) =  -79.6677590318     A.U. after    9 cycles

 Excitation energies and oscillator strengths:

 Excited State   1:      Singlet-EG     9.1510 eV  135.49 nm  f=0.0000  <S**2>=0.000
       9 -> 10         0.70505
 This state for optimization and/or second-order correction.
 Total Energy, E(TD-HF/TD-DFT) =  -79.3314666823
 Copying the excited state density for this state as the 1-particle RhoCI density.

 Excited State   2:      Singlet-EG     9.1510 eV  135.49 nm  f=0.0000  <S**2>=0.000
       8 -> 10         0.70505

 Excited State   3:      Singlet-A1G   10.0353 eV  123.55 nm  f=0.0000  <S**2>=0.000
       7 -> 10         0.70276

 Excited State   4:      Singlet-EU    10.0918 eV  122.86 nm  f=0.1026  <S**2>=0.000
       9 -> 11         0.70325

 Excited State   5:      Singlet-EU    10.0918 eV  122.86 nm  f=0.1026  <S**2>=0.000
       8 -> 11         0.70325

 Excited State   6:      Singlet-A2U   10.8898 eV  113.85 nm  f=0.2246  <S**2>=0.000
       7 -> 11         0.70465

 Excited State   7:      Singlet-EG    11.1036 eV  111.66 nm  f=0.0000  <S**2>=0.000
       8 -> 13        -0.49802
       9 -> 12         0.49803

 Excited State   8:      Singlet-EG    11.1129 eV  111.57 nm  f=0.0665  <S**2>=0.000
       8 -> 12         0.49770
       9 -> 13        -0.49770

 Excited State   9:      Singlet-EG    11.1129 eV  111.57 nm  f=0.0665  <S**2>=0.000
       8 -> 13         0.49770
       9 -> 12         0.49770

 Excited State  10:      Singlet-EG    11.4135 eV  108.63 nm  f=0.2929  <S**2>=0.000
       8 -> 12         0.49649
       9 -> 13         0.49649

 Excited State  11:      Singlet-EU    11.4965 eV  107.85 nm  f=0.0000  <S**2>=0.000
       8 -> 14        -0.49697
       9 -> 15         0.49698

 Excited State  12:      Singlet-EU    11.7269 eV  105.73 nm  f=0.0000  <S**2>=0.000
       8 -> 15         0.48866
       9 -> 14         0.48835

 Excited State  13:      Singlet-EU    11.7282 eV  105.71 nm  f=0.0000  <S**2>=0.000
       8 -> 15        -0.49736
       9 -> 14         0.49767

 Excited State  14:      Singlet-EU    11.7282 eV  105.71 nm  f=0.0000  <S**2>=0.000
       8 -> 14         0.49751
       9 -> 15         0.49751

 Excited State  15:      Singlet-EU    11.7948 eV  105.12 nm  f=0.0588  <S**2>=0.000
       6 -> 10         0.65022
       7 -> 13         0.26482

 Excited State  16:      Singlet-EU    11.7948 eV  105.12 nm  f=0.0588  <S**2>=0.000
       5 -> 10         0.65022
       7 -> 12         0.26482

 Excited State  17:      Singlet-EU    11.9093 eV  104.11 nm  f=0.1166  <S**2>=0.000
       6 -> 10        -0.26375
       7 -> 13         0.64874

 Excited State  18:      Singlet-EU    11.9093 eV  104.11 nm  f=0.1166  <S**2>=0.000
       5 -> 10        -0.26376
       7 -> 12         0.64874

 Excited State  19:      Singlet-EG    12.2840 eV  100.93 nm  f=0.0000  <S**2>=0.000
       7 -> 14         0.69647

 Excited State  20:      Singlet-EG    12.2840 eV  100.93 nm  f=0.0000  <S**2>=0.000
       7 -> 15         0.69647

 Excited State  21:      Singlet-EG    12.4151 eV   99.87 nm  f=0.0000  <S**2>=0.000
       6 -> 11         0.37127
       9 -> 16         0.59037

 Excited State  22:      Singlet-EG    12.4151 eV   99.87 nm  f=0.0000  <S**2>=0.000
       5 -> 11         0.37127
       8 -> 16         0.59037

 Excited State  23:      Singlet-EG    12.8196 eV   96.71 nm  f=0.0000  <S**2>=0.000
       6 -> 11         0.57810
       8 -> 17         0.10341
       9 -> 16        -0.37245
       9 -> 18         0.10341

 Excited State  24:      Singlet-EG    12.8196 eV   96.71 nm  f=0.0000  <S**2>=0.000
       5 -> 11         0.57810
       8 -> 16        -0.37245
       8 -> 18        -0.10341
       9 -> 17         0.10341

 Excited State  25:      Singlet-EU    12.8830 eV   96.24 nm  f=0.0000  <S**2>=0.000
       5 -> 13        -0.14274
       6 -> 12         0.14274
       8 -> 17        -0.47732
       9 -> 18         0.47732

 Excited State  26:      Singlet-EU    12.9055 eV   96.07 nm  f=0.0000  <S**2>=0.000
       5 -> 11        -0.14861
       5 -> 12        -0.14082
       6 -> 13         0.14082
       8 -> 18        -0.46300
       9 -> 17         0.46299

 Excited State  27:      Singlet-EU    12.9055 eV   96.07 nm  f=0.0000  <S**2>=0.000
       5 -> 13         0.14082
       6 -> 11        -0.14861
       6 -> 12         0.14082
       8 -> 17         0.46300
       9 -> 18         0.46299

 Excited State  28:      Singlet-A1G   13.2421 eV   93.63 nm  f=0.0000  <S**2>=0.000
       7 -> 16         0.42364
       8 -> 18         0.39595
       9 -> 17         0.39595

 Excited State  29:      Singlet-EG    13.3586 eV   92.81 nm  f=0.0000  <S**2>=0.000
       5 -> 14         0.15449
       6 -> 15        -0.15449
       8 -> 20        -0.47332
       9 -> 19         0.47332

 Excited State  30:      Singlet-EU    13.4369 eV   92.27 nm  f=0.0030  <S**2>=0.000
       8 -> 20         0.21914
       9 -> 19         0.21914
       9 -> 21         0.62113

 Excited State  31:      Singlet-EU    13.4369 eV   92.27 nm  f=0.0030  <S**2>=0.000
       8 -> 19        -0.21914
       8 -> 21         0.62113
       9 -> 20         0.21914

 Excited State  32:      Singlet-A1G   13.4929 eV   91.89 nm  f=0.0000  <S**2>=0.000
       5 -> 12         0.27035
       6 -> 13         0.27035
       7 -> 16         0.47959
       8 -> 18        -0.24134
       9 -> 17        -0.24134

 Excited State  33:      Singlet-EG    13.7091 eV   90.44 nm  f=0.0000  <S**2>=0.000
       7 -> 17         0.69393

 Excited State  34:      Singlet-EG    13.7091 eV   90.44 nm  f=0.0000  <S**2>=0.000
       7 -> 18         0.69394

 Excited State  35:      Singlet-EU    13.7482 eV   90.18 nm  f=0.0000  <S**2>=0.000
       5 -> 13        -0.47706
       6 -> 12         0.47706
       8 -> 17         0.14200
       9 -> 18        -0.14200

 Excited State  36:      Singlet-EG    13.7726 eV   90.02 nm  f=0.1103  <S**2>=0.000
       7 -> 19        -0.27171
       8 -> 19         0.40206
       8 -> 21         0.25460
       9 -> 20        -0.40206

 Excited State  37:      Singlet-EG    13.7726 eV   90.02 nm  f=0.1103  <S**2>=0.000
       7 -> 20         0.27171
       8 -> 20         0.40206
       9 -> 19         0.40206
       9 -> 21        -0.25460

 Excited State  38:      Singlet-EU    13.7835 eV   89.95 nm  f=0.0000  <S**2>=0.000
       5 -> 13         0.46984
       6 -> 12         0.46983
       7 -> 17        -0.12271
       8 -> 17        -0.14389
       9 -> 18        -0.14389

 Excited State  39:      Singlet-EU    13.7835 eV   89.95 nm  f=0.0000  <S**2>=0.000
       5 -> 12         0.46984
       6 -> 13        -0.46984
       7 -> 18         0.12271
       8 -> 18        -0.14389
       9 -> 17         0.14389

 Excited State  40:      Singlet-EG    13.8073 eV   89.80 nm  f=0.1567  <S**2>=0.000
       7 -> 21         0.20029
       8 -> 19         0.46491
       9 -> 20         0.46492

 Excited State  41:      Singlet-EG    14.1185 eV   87.82 nm  f=0.0088  <S**2>=0.000
       5 -> 15         0.43181
       6 -> 14         0.43182
       7 -> 21         0.31587

 Excited State  42:      Singlet-EG    14.1651 eV   87.53 nm  f=0.0000  <S**2>=0.000
       5 -> 14         0.47031
       6 -> 15        -0.47031
       8 -> 20         0.15679
       9 -> 19        -0.15679

 Excited State  43:      Singlet-EU    14.2276 eV   87.14 nm  f=0.0502  <S**2>=0.000
       5 -> 15         0.30399
       6 -> 14        -0.30399
       7 -> 19         0.53524

 Excited State  44:      Singlet-EU    14.2276 eV   87.14 nm  f=0.0502  <S**2>=0.000
       5 -> 14        -0.30399
       6 -> 15        -0.30399
       7 -> 20         0.53524

 Excited State  45:      Singlet-EG    14.6188 eV   84.81 nm  f=0.2631  <S**2>=0.000
       5 -> 14         0.35202
       5 -> 17         0.10431
       6 -> 15         0.35202
       6 -> 16         0.18813
       6 -> 18         0.10431
       7 -> 20         0.31265
       8 -> 23         0.14201
       9 -> 21         0.16064
       9 -> 22         0.14201

 Excited State  46:      Singlet-EG    14.6188 eV   84.81 nm  f=0.2631  <S**2>=0.000
       5 -> 15        -0.35202
       5 -> 16         0.18813
       5 -> 18        -0.10431
       6 -> 14         0.35202
       6 -> 17         0.10431
       7 -> 19         0.31265
       8 -> 21         0.16064
       8 -> 22        -0.14201
       9 -> 23         0.14201

 Excited State  47:      Singlet-EU    14.8212 eV   83.65 nm  f=0.0000  <S**2>=0.000
       5 -> 12         0.40260
       6 -> 13         0.40260
       7 -> 16        -0.27780
       8 -> 18         0.15201
       9 -> 17         0.15201

 Excited State  48:      Singlet-A2U   14.8232 eV   83.64 nm  f=0.0823  <S**2>=0.000
       5 -> 15        -0.21315
       6 -> 14        -0.21315
       7 -> 21         0.47247
       8 -> 19        -0.13238
       8 -> 22        -0.24905
       9 -> 20        -0.13238
       9 -> 23        -0.24905

 Excited State  49:      Singlet-EG    14.9839 eV   82.74 nm  f=0.0000  <S**2>=0.000
       5 -> 17        -0.13585
       6 -> 18         0.13585
       8 -> 23        -0.47626
       9 -> 22         0.47626

 Excited State  50:      Singlet-EG    15.0808 eV   82.21 nm  f=0.1514  <S**2>=0.000
       6 -> 16        -0.26793
       7 -> 20        -0.10851
       8 -> 23         0.44013
       9 -> 22         0.44013

 Excited State  51:      Singlet-EG    15.0808 eV   82.21 nm  f=0.1514  <S**2>=0.000
       5 -> 16         0.26793
       7 -> 19         0.10851
       8 -> 22         0.44013
       9 -> 23        -0.44013

 Excited State  52:      Singlet-EU    15.2595 eV   81.25 nm  f=0.2066  <S**2>=0.000
       5 -> 16         0.59701
       7 -> 19        -0.11802
       7 -> 22        -0.17193
       8 -> 22        -0.14565
       9 -> 23         0.14565

 Excited State  53:      Singlet-EU    15.2595 eV   81.25 nm  f=0.2066  <S**2>=0.000
       6 -> 16         0.59701
       7 -> 20        -0.11802
       7 -> 23        -0.17193
       8 -> 23         0.14565
       9 -> 22         0.14565

 Excited State  54:      Singlet-EG    15.3022 eV   81.02 nm  f=0.8383  <S**2>=0.000
       5 -> 18         0.20595
       6 -> 17         0.20595
       7 -> 21         0.28209
       8 -> 22         0.39009
       9 -> 23         0.39010

 Excited State  55:      Singlet-EG    15.6277 eV   79.34 nm  f=0.0000  <S**2>=0.000
       5 -> 17         0.47872
       6 -> 18        -0.47872
       8 -> 23        -0.13829
       9 -> 22         0.13829

 Excited State  56:      Singlet-EG    15.6798 eV   79.07 nm  f=0.0201  <S**2>=0.000
       5 -> 17         0.45561
       6 -> 18         0.45562
       7 -> 23        -0.21967

 Excited State  57:      Singlet-EG    15.6798 eV   79.07 nm  f=0.0201  <S**2>=0.000
       5 -> 18        -0.45562
       6 -> 17         0.45562
       7 -> 22        -0.21967

 Excited State  58:      Singlet-EG    15.8605 eV   78.17 nm  f=0.0000  <S**2>=0.000
       4 -> 10         0.13041
       5 -> 18         0.43403
       6 -> 17         0.43403
       7 -> 21        -0.16960
       7 -> 24         0.15022
       8 -> 22        -0.12836
       9 -> 23        -0.12836

 Excited State  59:      Singlet-EU    15.9548 eV   77.71 nm  f=0.2723  <S**2>=0.000
       5 -> 17         0.12014
       6 -> 16         0.13807
       6 -> 18         0.12014
       7 -> 23         0.63599

 Excited State  60:      Singlet-EU    15.9548 eV   77.71 nm  f=0.2723  <S**2>=0.000
       5 -> 16         0.13807
       5 -> 18        -0.12014
       6 -> 17         0.12014
       7 -> 22         0.63599

 Excited State  61:      Singlet-EU    16.0166 eV   77.41 nm  f=0.0000  <S**2>=0.000
       5 -> 20         0.49591
       6 -> 19        -0.49590

 Excited State  62:      Singlet-EG    16.0299 eV   77.35 nm  f=0.0000  <S**2>=0.000
       5 -> 19        -0.19753
       5 -> 21         0.64026
       6 -> 20         0.19753

 Excited State  63:      Singlet-EG    16.0299 eV   77.35 nm  f=0.0000  <S**2>=0.000
       5 -> 20         0.19753
       6 -> 19         0.19753
       6 -> 21         0.64026

 Excited State  64:      Singlet-EU    16.3104 eV   76.02 nm  f=0.0000  <S**2>=0.000
       5 -> 19         0.49381
       6 -> 20         0.49383

 Excited State  65:      Singlet-EU    16.3153 eV   75.99 nm  f=0.0674  <S**2>=0.000
       8 -> 24         0.69733

 Excited State  66:      Singlet-EU    16.3153 eV   75.99 nm  f=0.0674  <S**2>=0.000
       9 -> 24         0.69733

 Excited State  67:      Singlet-EU    16.3483 eV   75.84 nm  f=0.0000  <S**2>=0.000
       5 -> 20         0.44668
       6 -> 19         0.44668
       6 -> 21        -0.27692

 Excited State  68:      Singlet-EU    16.3483 eV   75.84 nm  f=0.0000  <S**2>=0.000
       5 -> 19         0.44669
       5 -> 21         0.27692
       6 -> 20        -0.44667

 Excited State  69:      Singlet-A2U   16.7880 eV   73.85 nm  f=0.0365  <S**2>=0.000
       4 -> 10         0.62993
       7 -> 24        -0.30029

 Excited State  70:      Singlet-EG    16.8584 eV   73.54 nm  f=0.0000  <S**2>=0.000
       9 -> 25         0.69470

 Excited State  71:      Singlet-EG    16.8584 eV   73.54 nm  f=0.0000  <S**2>=0.000
       8 -> 25         0.69470

 Excited State  72:      Singlet-EU    17.1794 eV   72.17 nm  f=0.0151  <S**2>=0.000
       8 -> 26         0.70361

 Excited State  73:      Singlet-EU    17.1794 eV   72.17 nm  f=0.0151  <S**2>=0.000
       9 -> 26         0.70361

 Excited State  74:      Singlet-A2U   17.4440 eV   71.08 nm  f=0.3132  <S**2>=0.000
       4 -> 10         0.25330
       7 -> 21         0.10696
       7 -> 24         0.60274
       7 -> 35         0.12672

 Excited State  75:      Singlet-A1G   17.5976 eV   70.46 nm  f=0.0000  <S**2>=0.000
       4 -> 11         0.29714
       5 -> 22         0.20766
       6 -> 23         0.20765
       7 -> 25         0.56405

 Excited State  76:      Singlet-EU    17.6088 eV   70.41 nm  f=0.0000  <S**2>=0.000
       5 -> 22        -0.48660
       6 -> 23         0.48660

 Excited State  77:      Singlet-EU    17.6088 eV   70.41 nm  f=0.0000  <S**2>=0.000
       5 -> 23         0.48659
       6 -> 22         0.48661

 Excited State  78:      Singlet-EU    17.6248 eV   70.35 nm  f=0.0000  <S**2>=0.000
       5 -> 23         0.49552
       6 -> 22        -0.49550

 Excited State  79:      Singlet-A1G   17.6715 eV   70.16 nm  f=0.0000  <S**2>=0.000
       4 -> 11         0.58726
       5 -> 22        -0.17318
       6 -> 23        -0.17318
       7 -> 25        -0.15706
       8 -> 29        -0.16542
       9 -> 28        -0.16542

 Excited State  80:      Singlet-EU    17.8234 eV   69.56 nm  f=0.0000  <S**2>=0.000
       5 -> 22         0.41226
       6 -> 23         0.41226
       7 -> 25        -0.32957
       8 -> 29        -0.13554
       9 -> 28        -0.13554

 Excited State  81:      Singlet-A1U   17.9913 eV   68.91 nm  f=0.0000  <S**2>=0.000
       7 -> 26         0.70501

 Excited State  82:      Singlet-EU    18.0628 eV   68.64 nm  f=0.0000  <S**2>=0.000
       8 -> 28        -0.49031
       9 -> 29         0.49031

 Excited State  83:      Singlet-EU    18.2044 eV   68.11 nm  f=0.0591  <S**2>=0.000
       6 -> 25         0.10077
       8 -> 31        -0.16749
       9 -> 27         0.64850
       9 -> 30        -0.16749

 Excited State  84:      Singlet-EU    18.2044 eV   68.11 nm  f=0.0591  <S**2>=0.000
       5 -> 25         0.10077
       8 -> 27         0.64850
       8 -> 30         0.16749
       9 -> 31        -0.16749

 Excited State  85:      Singlet-EG    18.2394 eV   67.98 nm  f=0.0000  <S**2>=0.000
       8 -> 31        -0.49556
       9 -> 30         0.49556

 Excited State  86:      Singlet-EU    18.3405 eV   67.60 nm  f=0.0000  <S**2>=0.000
       8 -> 29        -0.41137
       8 -> 32         0.34955
       9 -> 28         0.41138

 Excited State  87:      Singlet-EU    18.3405 eV   67.60 nm  f=0.0000  <S**2>=0.000
       8 -> 28         0.41138
       9 -> 29         0.41137
       9 -> 32         0.34955

 Excited State  88:      Singlet-EU    18.4729 eV   67.12 nm  f=0.0000  <S**2>=0.000
       4 -> 11         0.19271
       7 -> 25        -0.15952
       8 -> 29         0.43334
       9 -> 28         0.43334

 Excited State  89:      Singlet-EG    18.4743 eV   67.11 nm  f=0.1270  <S**2>=0.000
       7 -> 31         0.16123
       8 -> 31         0.44494
       9 -> 27         0.23667
       9 -> 30         0.44494

 Excited State  90:      Singlet-EG    18.4743 eV   67.11 nm  f=0.1270  <S**2>=0.000
       7 -> 30        -0.16123
       8 -> 27        -0.23667
       8 -> 30         0.44494
       9 -> 31        -0.44494

 Excited State  91:      Singlet-EG    18.5619 eV   66.79 nm  f=0.0000  <S**2>=0.000
       4 -> 13         0.42155
       6 -> 24        -0.25294
       7 -> 28        -0.34813
       9 -> 32         0.33953

 Excited State  92:      Singlet-EG    18.5619 eV   66.79 nm  f=0.0000  <S**2>=0.000
       4 -> 12         0.42155
       5 -> 24        -0.25294
       7 -> 29        -0.34813
       8 -> 32         0.33953

 Excited State  93:      Singlet-EG    18.6366 eV   66.53 nm  f=0.0000  <S**2>=0.000
       4 -> 12         0.48463
       8 -> 29        -0.19129
       8 -> 32        -0.42114
       9 -> 28         0.19129

 Excited State  94:      Singlet-EG    18.6366 eV   66.53 nm  f=0.0000  <S**2>=0.000
       4 -> 13         0.48464
       8 -> 28         0.19129
       9 -> 29         0.19129
       9 -> 32        -0.42113

 Excited State  95:      Singlet-EG    18.7354 eV   66.18 nm  f=0.2858  <S**2>=0.000
       8 -> 30         0.48702
       9 -> 31         0.48702

 Excited State  96:      Singlet-EG    18.8206 eV   65.88 nm  f=0.0000  <S**2>=0.000
       6 -> 24        -0.37756
       7 -> 28         0.54782
       9 -> 32         0.12126

 Excited State  97:      Singlet-EG    18.8206 eV   65.88 nm  f=0.0000  <S**2>=0.000
       5 -> 24        -0.37756
       7 -> 29         0.54782
       8 -> 32         0.12126

 Excited State  98:      Singlet-EU    18.8984 eV   65.61 nm  f=0.0027  <S**2>=0.000
       6 -> 25         0.19150
       7 -> 31         0.46023
       9 -> 35         0.48099

 Excited State  99:      Singlet-EU    18.8984 eV   65.61 nm  f=0.0027  <S**2>=0.000
       5 -> 25         0.19150
       7 -> 30         0.46023
       8 -> 35         0.48099

 Excited State 100:      Singlet-EG    18.9473 eV   65.44 nm  f=0.0000  <S**2>=0.000
       4 -> 13         0.26624
       6 -> 24         0.52253
       7 -> 28         0.22586
       8 -> 28        -0.12225
       9 -> 29        -0.12225
       9 -> 32         0.23842

 Excited State 101:      Singlet-EG    18.9473 eV   65.44 nm  f=0.0000  <S**2>=0.000
       4 -> 12         0.26624
       5 -> 24         0.52253
       7 -> 29         0.22586
       8 -> 29         0.12225
       8 -> 32         0.23841
       9 -> 28        -0.12225

 Excited State 102:      Singlet-A2U   19.0524 eV   65.08 nm  f=0.0331  <S**2>=0.000
       7 -> 27         0.69692

 Excited State 103:      Singlet-EU    19.1415 eV   64.77 nm  f=0.0140  <S**2>=0.000
       4 -> 14         0.63438
       7 -> 31        -0.14646
       9 -> 35         0.25427

 Excited State 104:      Singlet-EU    19.1415 eV   64.77 nm  f=0.0140  <S**2>=0.000
       4 -> 15         0.63438
       7 -> 30        -0.14646
       8 -> 35         0.25427

 Excited State 105:      Singlet-A1G   19.2762 eV   64.32 nm  f=0.0000  <S**2>=0.000
       7 -> 32         0.50568
       8 -> 34         0.33834
       9 -> 33         0.33834

 Excited State 106:      Singlet-EU    19.2974 eV   64.25 nm  f=0.0000  <S**2>=0.000
       8 -> 33         0.48515
       9 -> 34         0.48515

 Excited State 107:      Singlet-EU    19.2974 eV   64.25 nm  f=0.0000  <S**2>=0.000
       8 -> 34         0.48515
       9 -> 33        -0.48515

 Excited State 108:      Singlet-EU    19.3315 eV   64.14 nm  f=0.0000  <S**2>=0.000
       8 -> 33        -0.49166
       9 -> 34         0.49167

 Excited State 109:      Singlet-EU    19.3488 eV   64.08 nm  f=0.0859  <S**2>=0.000
       4 -> 14         0.26489
       5 -> 28         0.11698
       6 -> 29         0.11698
       7 -> 31         0.45955
       8 -> 31        -0.10269
       9 -> 30        -0.10269
       9 -> 35        -0.37305

 Excited State 110:      Singlet-EU    19.3488 eV   64.08 nm  f=0.0859  <S**2>=0.000
       4 -> 15         0.26489
       5 -> 29        -0.11698
       6 -> 28         0.11698
       7 -> 30         0.45955
       8 -> 30         0.10269
       8 -> 35        -0.37305
       9 -> 31        -0.10269

 Excited State 111:      Singlet-A1G   19.4868 eV   63.62 nm  f=0.0000  <S**2>=0.000
       7 -> 32         0.48684
       8 -> 34        -0.34399
       9 -> 33        -0.34399

 Excited State 112:      Singlet-EU    19.5316 eV   63.48 nm  f=0.0820  <S**2>=0.000
       6 -> 25         0.66078
       9 -> 35        -0.21395

 Excited State 113:      Singlet-EU    19.5316 eV   63.48 nm  f=0.0820  <S**2>=0.000
       5 -> 25         0.66078
       8 -> 35        -0.21395

 Excited State 114:      Singlet-EG    19.6067 eV   63.24 nm  f=0.0000  <S**2>=0.000
       5 -> 26         0.52411
       8 -> 36         0.45460

 Excited State 115:      Singlet-EG    19.6067 eV   63.24 nm  f=0.0000  <S**2>=0.000
       6 -> 26         0.52411
       9 -> 36         0.45460

 Excited State 116:      Singlet-A2U   19.9864 eV   62.03 nm  f=0.0486  <S**2>=0.000
       4 -> 16         0.64971
       7 -> 35        -0.19445

 The electronic state is 1-A1G.
 Alpha  occ. eigenvalues --  -10.22087 -10.22072  -0.76926  -0.62726  -0.44809
 Alpha  occ. eigenvalues --   -0.44809  -0.38200  -0.35265  -0.35265
 Alpha virt. eigenvalues --    0.03398   0.06432   0.10914   0.10914   0.12810
 Alpha virt. eigenvalues --    0.12810   0.16310   0.17391   0.17391   0.19937
 Alpha virt. eigenvalues --    0.19937   0.20226   0.25196   0.25196   0.29987

 Mulliken charges:
               1
     1  C   -0.044656
     2  C   -0.044656
     3  H    0.014885
     4  H    0.014885
     5  H    0.014885
     6  H    0.014885
     7  H    0.014885
     8  H    0.014885
 Sum of Mulliken charges =   0.00000

 Dipole moment (field-independent basis, Debye):
    X=              0.0000    Y=             -0.0000    Z=              0.0000  Tot=              0.0000
 Quadrupole moment (field-independent basis, Debye-Ang):
   XX=            -14.8735   YY=            -14.8735   ZZ=            -15.5925
   XY=             -0.0000   XZ=              0.0000   YZ=             -0.0000

 Normal termination of Gaussian 16 at Mon Mar 21 20:24:07 2022.
