 Gaussian 16, Revision C.01,
 Gaussian 16:  EM64L-G16RevC.01  3-Jul-2019

 ----------------------------------------------------------------------
 #P TD(Nstates=10000) pbe1pbe/Gen SCF(maxcycles=100) Int(Grid=ultrafine
 )
 ----------------------------------------------------------------------

 ---------------------
 xGDB7_00001_tier4.com
 ---------------------
 Symbolic Z-matrix:
 Charge =  0 Multiplicity = 1

                         Standard orientation:
 ---------------------------------------------------------------------
 Center     Atomic      Atomic             Coordinates (Angstroms)
 Number     Number       Type             X           Y           Z
 ---------------------------------------------------------------------
      1          6           0        0.000000    1.267731   -0.259082
      2          6           0       -0.000000   -0.000000    0.585552
      3          6           0       -0.000000   -1.267731   -0.259082
      4          1           0        0.000000    2.164308    0.363087
      5          1           0       -0.881453    1.307675   -0.903652
      6          1           0        0.881453    1.307675   -0.903652
      7          1           0       -0.874532    0.000000    1.242055
      8          1           0        0.874532   -0.000000    1.242055
      9          1           0       -0.881453   -1.307675   -0.903652
     10          1           0       -0.000000   -2.164308    0.363087
     11          1           0        0.881453   -1.307675   -0.903652
 ---------------------------------------------------------------------

 SCF Done:  E(RPBE1PBE) =  -118.907173207     A.U. after   11 cycles

 Excitation energies and oscillator strengths:

 Excited State   1:      Singlet-B1     8.7306 eV  142.01 nm  f=0.0029  <S**2>=0.000
      13 -> 14         0.70128
 This state for optimization and/or second-order correction.
 Total Energy, E(TD-HF/TD-DFT) =  -118.586328724
 Copying the excited state density for this state as the 1-particle RhoCI density.

 Excited State   2:      Singlet-A1     9.1208 eV  135.94 nm  f=0.0064  <S**2>=0.000
      12 -> 14         0.69818

 Excited State   3:      Singlet-B2     9.1319 eV  135.77 nm  f=0.0465  <S**2>=0.000
      11 -> 14         0.70304

 Excited State   4:      Singlet-A2     9.6099 eV  129.02 nm  f=0.0000  <S**2>=0.000
      10 -> 14        -0.16539
      13 -> 15         0.68479

 Excited State   5:      Singlet-B1     9.7758 eV  126.83 nm  f=0.1203  <S**2>=0.000
      13 -> 16         0.70126

 Excited State   6:      Singlet-B2     9.9144 eV  125.05 nm  f=0.0171  <S**2>=0.000
       9 -> 14        -0.14083
      12 -> 15         0.68851

 Excited State   7:      Singlet-A1    10.0192 eV  123.75 nm  f=0.0148  <S**2>=0.000
      11 -> 15         0.68496
      12 -> 16         0.13035

 Excited State   8:      Singlet-A1    10.0856 eV  122.93 nm  f=0.1058  <S**2>=0.000
      11 -> 15        -0.12349
      12 -> 16         0.67528
      13 -> 17        -0.14183

 Excited State   9:      Singlet-B2    10.1931 eV  121.63 nm  f=0.0165  <S**2>=0.000
      11 -> 16         0.70457

 Excited State  10:      Singlet-A2    10.2754 eV  120.66 nm  f=0.0000  <S**2>=0.000
      10 -> 14         0.68041
      13 -> 15         0.16395

 Excited State  11:      Singlet-A1    10.4053 eV  119.15 nm  f=0.2115  <S**2>=0.000
      12 -> 16         0.14048
      13 -> 17         0.68603

 Excited State  12:      Singlet-B1    10.6141 eV  116.81 nm  f=0.0925  <S**2>=0.000
      12 -> 17         0.68402
      13 -> 18         0.15144

 Excited State  13:      Singlet-A2    10.6520 eV  116.40 nm  f=0.0000  <S**2>=0.000
      11 -> 17         0.70106

 Excited State  14:      Singlet-B1    10.7052 eV  115.82 nm  f=0.0012  <S**2>=0.000
      10 -> 15         0.14778
      12 -> 17        -0.14288
      13 -> 18         0.66871

 Excited State  15:      Singlet-B2    10.8813 eV  113.94 nm  f=0.0284  <S**2>=0.000
       9 -> 14         0.68624
      12 -> 15         0.13678

 Excited State  16:      Singlet-A1    11.0597 eV  112.10 nm  f=0.0099  <S**2>=0.000
       9 -> 15         0.12368
      12 -> 18         0.68707

 Excited State  17:      Singlet-B2    11.0982 eV  111.72 nm  f=0.2130  <S**2>=0.000
      11 -> 18         0.69023

 Excited State  18:      Singlet-B1    11.1387 eV  111.31 nm  f=0.0728  <S**2>=0.000
      10 -> 15         0.65594
      13 -> 18        -0.11989
      13 -> 20         0.20670

 Excited State  19:      Singlet-A2    11.2719 eV  109.99 nm  f=0.0000  <S**2>=0.000
      10 -> 16         0.64497
      13 -> 21         0.26879

 Excited State  20:      Singlet-A1    11.3886 eV  108.87 nm  f=0.0015  <S**2>=0.000
      12 -> 20        -0.10181
      13 -> 19         0.68676

 Excited State  21:      Singlet-B1    11.4733 eV  108.06 nm  f=0.0465  <S**2>=0.000
      10 -> 15        -0.16328
      12 -> 19         0.51055
      13 -> 20         0.43743

 Excited State  22:      Singlet-B1    11.5232 eV  107.60 nm  f=0.0046  <S**2>=0.000
      10 -> 15        -0.10839
      12 -> 19        -0.47699
      13 -> 20         0.50142

 Excited State  23:      Singlet-A2    11.5607 eV  107.25 nm  f=0.0000  <S**2>=0.000
      11 -> 19         0.67712
      13 -> 21         0.15141

 Excited State  24:      Singlet-A1    11.6588 eV  106.34 nm  f=0.0670  <S**2>=0.000
       8 -> 14         0.22689
       9 -> 15         0.61539
      12 -> 20         0.22938

 Excited State  25:      Singlet-A2    11.6967 eV  106.00 nm  f=0.0000  <S**2>=0.000
      10 -> 16        -0.26374
      11 -> 19        -0.17823
      13 -> 21         0.62391

 Excited State  26:      Singlet-B2    11.7294 eV  105.70 nm  f=0.0067  <S**2>=0.000
       9 -> 16         0.42225
      10 -> 17        -0.36038
      11 -> 20         0.16237
      12 -> 21         0.36471
      13 -> 22         0.14739

 Excited State  27:      Singlet-B2    11.7788 eV  105.26 nm  f=0.1013  <S**2>=0.000
       9 -> 16        -0.11809
      10 -> 17         0.12700
      11 -> 20         0.66594

 Excited State  28:      Singlet-A1    11.8771 eV  104.39 nm  f=0.0392  <S**2>=0.000
       8 -> 14        -0.23493
       9 -> 15        -0.12841
      12 -> 20         0.62316

 Excited State  29:      Singlet-B2    11.9395 eV  103.84 nm  f=0.1364  <S**2>=0.000
       9 -> 16         0.45840
      10 -> 17         0.49911
      13 -> 22        -0.12638

 Excited State  30:      Singlet-A1    11.9774 eV  103.52 nm  f=0.0004  <S**2>=0.000
       8 -> 14         0.58675
       9 -> 15        -0.28554
      11 -> 21         0.15999
      12 -> 20         0.16527

 Excited State  31:      Singlet-B2    12.0347 eV  103.02 nm  f=0.0853  <S**2>=0.000
       9 -> 16        -0.28599
      10 -> 17         0.22399
      12 -> 21         0.58534
      13 -> 23         0.10097

 Excited State  32:      Singlet-A1    12.0433 eV  102.95 nm  f=0.0655  <S**2>=0.000
       8 -> 14        -0.18435
      11 -> 21         0.66443

 Excited State  33:      Singlet-A2    12.1112 eV  102.37 nm  f=0.0000  <S**2>=0.000
       9 -> 17         0.42798
      10 -> 18         0.32121
      12 -> 22        -0.42016
      12 -> 23        -0.12815

 Excited State  34:      Singlet-B2    12.2077 eV  101.56 nm  f=0.0899  <S**2>=0.000
      10 -> 17         0.20451
      13 -> 22         0.65212
      13 -> 23         0.10366

 Excited State  35:      Singlet-A2    12.2276 eV  101.40 nm  f=0.0000  <S**2>=0.000
       9 -> 17        -0.34633
      10 -> 18         0.52949
      12 -> 22         0.15280
      12 -> 23        -0.16875
      13 -> 25         0.16085

 Excited State  36:      Singlet-B2    12.3065 eV  100.75 nm  f=0.0278  <S**2>=0.000
      10 -> 19         0.19195
      13 -> 22        -0.12159
      13 -> 23         0.65254

 Excited State  37:      Singlet-B1    12.3384 eV  100.49 nm  f=0.0004  <S**2>=0.000
       7 -> 14        -0.14013
       8 -> 17         0.11607
      11 -> 22         0.61252
      11 -> 23         0.19516
      13 -> 24        -0.19242

 Excited State  38:      Singlet-B1    12.4503 eV   99.58 nm  f=0.0365  <S**2>=0.000
       7 -> 14         0.35973
       7 -> 16         0.10563
      10 -> 21        -0.15899
      11 -> 22         0.21125
      11 -> 23         0.16184
      13 -> 24         0.50661

 Excited State  39:      Singlet-B1    12.4927 eV   99.25 nm  f=0.0224  <S**2>=0.000
       7 -> 14         0.48900
      11 -> 22        -0.10911
      11 -> 23         0.30603
      13 -> 24        -0.36493

 Excited State  40:      Singlet-A2    12.5329 eV   98.93 nm  f=0.0000  <S**2>=0.000
       9 -> 17         0.25804
       9 -> 19         0.11352
      10 -> 18         0.18835
      10 -> 20         0.14856
      12 -> 22         0.26596
      12 -> 23         0.49855
      13 -> 25         0.16511

 Excited State  41:      Singlet-B1    12.5512 eV   98.78 nm  f=0.0866  <S**2>=0.000
       7 -> 14        -0.31545
      11 -> 22        -0.20466
      11 -> 23         0.57338
      13 -> 24         0.13092

 Excited State  42:      Singlet-A2    12.5646 eV   98.68 nm  f=0.0000  <S**2>=0.000
       9 -> 17         0.34779
      10 -> 20        -0.14253
      12 -> 22         0.46681
      12 -> 23        -0.32330
      13 -> 25        -0.13791

 Excited State  43:      Singlet-B2    12.7018 eV   97.61 nm  f=0.0612  <S**2>=0.000
       8 -> 15        -0.18035
       9 -> 18         0.58970
      12 -> 25         0.30389

 Excited State  44:      Singlet-A2    12.7258 eV   97.43 nm  f=0.0000  <S**2>=0.000
      10 -> 18        -0.22347
      10 -> 20         0.34358
      12 -> 23        -0.25061
      13 -> 25         0.50307

 Excited State  45:      Singlet-A1    12.8035 eV   96.84 nm  f=0.0120  <S**2>=0.000
       8 -> 16         0.29746
       9 -> 21        -0.10908
      11 -> 25        -0.34916
      12 -> 24         0.50567

 Excited State  46:      Singlet-B2    12.8042 eV   96.83 nm  f=0.1181  <S**2>=0.000
       8 -> 15         0.51306
      10 -> 19         0.42024
      12 -> 25         0.10824
      13 -> 23        -0.14916

 Excited State  47:      Singlet-A2    12.8848 eV   96.23 nm  f=0.0000  <S**2>=0.000
      10 -> 20         0.55593
      13 -> 25        -0.39137

 Excited State  48:      Singlet-B2    12.9074 eV   96.06 nm  f=0.0046  <S**2>=0.000
       8 -> 15        -0.40338
       9 -> 18        -0.16738
      10 -> 19         0.46164
      11 -> 24        -0.23957

 Excited State  49:      Singlet-A1    12.9570 eV   95.69 nm  f=0.0046  <S**2>=0.000
       8 -> 16         0.58895
      12 -> 24        -0.36842

 Excited State  50:      Singlet-B2    12.9709 eV   95.59 nm  f=0.0249  <S**2>=0.000
       8 -> 15        -0.13623
      10 -> 19         0.19084
      11 -> 24         0.62911
      12 -> 25         0.14859

 Excited State  51:      Singlet-B2    13.0999 eV   94.65 nm  f=0.0165  <S**2>=0.000
       9 -> 18        -0.28173
       9 -> 20         0.26752
      11 -> 24        -0.12683
      12 -> 25         0.55821

 Excited State  52:      Singlet-B1    13.1230 eV   94.48 nm  f=0.0380  <S**2>=0.000
       7 -> 16        -0.19853
      10 -> 21         0.63063
      13 -> 24         0.22057

 Excited State  53:      Singlet-A1    13.1631 eV   94.19 nm  f=0.0012  <S**2>=0.000
       7 -> 17        -0.13827
       8 -> 16         0.16917
      10 -> 22        -0.26983
      11 -> 25         0.49210
      12 -> 24         0.19073
      13 -> 26         0.28945

 Excited State  54:      Singlet-A2    13.2744 eV   93.40 nm  f=0.0000  <S**2>=0.000
       9 -> 19         0.66620
      12 -> 23        -0.14636
      13 -> 27        -0.11921

 Excited State  55:      Singlet-A2    13.3414 eV   92.93 nm  f=0.0000  <S**2>=0.000
       7 -> 15         0.50483
       9 -> 19         0.10337
      13 -> 27         0.44562

 Excited State  56:      Singlet-A2    13.3853 eV   92.63 nm  f=0.0000  <S**2>=0.000
       7 -> 15        -0.47357
      13 -> 27         0.49932

 Excited State  57:      Singlet-B1    13.4126 eV   92.44 nm  f=0.0007  <S**2>=0.000
       8 -> 17         0.60036
       9 -> 22         0.14220
      11 -> 22        -0.13121
      12 -> 26        -0.23716
      13 -> 28         0.17097

 Excited State  58:      Singlet-A1    13.5027 eV   91.82 nm  f=0.0256  <S**2>=0.000
       8 -> 16        -0.13320
       8 -> 18        -0.22051
       9 -> 21        -0.33133
      11 -> 25        -0.22876
      11 -> 27         0.16631
      12 -> 24        -0.15865
      13 -> 26         0.44367

 Excited State  59:      Singlet-B1    13.5104 eV   91.77 nm  f=0.0128  <S**2>=0.000
       7 -> 16         0.64669
      10 -> 21         0.21538
      13 -> 28        -0.11289

 Excited State  60:      Singlet-B2    13.5434 eV   91.55 nm  f=0.0018  <S**2>=0.000
       9 -> 18         0.13808
       9 -> 20         0.51014
      12 -> 25        -0.21566
      12 -> 27        -0.38765

 Excited State  61:      Singlet-B1    13.5702 eV   91.36 nm  f=0.0219  <S**2>=0.000
       7 -> 16         0.13063
       8 -> 17        -0.29862
       9 -> 23        -0.13390
      12 -> 26        -0.37796
      12 -> 29        -0.17978
      13 -> 28         0.42145

 Excited State  62:      Singlet-A1    13.6583 eV   90.78 nm  f=0.0280  <S**2>=0.000
       8 -> 18        -0.24743
       9 -> 21         0.18007
      11 -> 27         0.52573
      12 -> 24         0.10045
      12 -> 28         0.15503
      13 -> 26        -0.12586
      13 -> 29        -0.22197

 Excited State  63:      Singlet-A1    13.6941 eV   90.54 nm  f=0.0806  <S**2>=0.000
       7 -> 17         0.14325
       9 -> 21         0.32645
      10 -> 22         0.41294
      13 -> 26         0.41397

 Excited State  64:      Singlet-A2    13.7126 eV   90.42 nm  f=0.0000  <S**2>=0.000
      11 -> 26         0.68270
      11 -> 29         0.11504

 Excited State  65:      Singlet-B1    13.7502 eV   90.17 nm  f=0.0323  <S**2>=0.000
       8 -> 17         0.12421
       9 -> 22        -0.26473
      12 -> 26         0.46159
      12 -> 29        -0.24855
      13 -> 28         0.35203

 Excited State  66:      Singlet-B2    13.7779 eV   89.99 nm  f=0.0743  <S**2>=0.000
       9 -> 20         0.30288
      11 -> 28         0.33046
      12 -> 27         0.50902

 Excited State  67:      Singlet-A1    13.8796 eV   89.33 nm  f=0.0991  <S**2>=0.000
       7 -> 17        -0.31452
       8 -> 18         0.12788
       8 -> 20         0.10342
       9 -> 21        -0.23501
      10 -> 22         0.32667
      10 -> 23         0.36408
      11 -> 25         0.12321
      12 -> 28        -0.19920

 Excited State  68:      Singlet-A1    13.9132 eV   89.11 nm  f=0.0184  <S**2>=0.000
       8 -> 18        -0.31674
       9 -> 21         0.21386
      10 -> 22        -0.10484
      10 -> 23         0.10226
      12 -> 28        -0.38476
      13 -> 29         0.38737

 Excited State  69:      Singlet-A1    13.9603 eV   88.81 nm  f=0.0000  <S**2>=0.000
       8 -> 18        -0.22570
       9 -> 21         0.18648
      10 -> 23         0.46721
      11 -> 27        -0.29519
      12 -> 28         0.14629
      13 -> 29        -0.25067

 Excited State  70:      Singlet-A1    14.0092 eV   88.50 nm  f=0.0302  <S**2>=0.000
       8 -> 20         0.12997
       9 -> 21        -0.10648
      10 -> 23         0.11205
      12 -> 28         0.49967
      13 -> 29         0.42711

 Excited State  71:      Singlet-A2    14.0156 eV   88.46 nm  f=0.0000  <S**2>=0.000
      10 -> 24         0.66478
      11 -> 29         0.15583

 Excited State  72:      Singlet-A1    14.0623 eV   88.17 nm  f=0.0114  <S**2>=0.000
       7 -> 17         0.40591
       8 -> 18         0.32527
       8 -> 20         0.12943
      10 -> 22        -0.22374
      10 -> 23         0.27590
      11 -> 27         0.25210

 Excited State  73:      Singlet-B1    14.0752 eV   88.09 nm  f=0.0320  <S**2>=0.000
       7 -> 18         0.28497
       9 -> 22         0.39408
       9 -> 23         0.14092
      10 -> 25        -0.31142
      12 -> 26         0.13794
      12 -> 29         0.18210
      13 -> 28         0.26607

 Excited State  74:      Singlet-A2    14.1033 eV   87.91 nm  f=0.0000  <S**2>=0.000
      10 -> 24        -0.14575
      11 -> 26        -0.10792
      11 -> 29         0.66864

 Excited State  75:      Singlet-B1    14.2060 eV   87.28 nm  f=0.0059  <S**2>=0.000
       8 -> 19         0.19296
       9 -> 22        -0.19806
       9 -> 23        -0.29963
      12 -> 29         0.55514
      13 -> 28         0.12018

 Excited State  76:      Singlet-B1    14.2400 eV   87.07 nm  f=0.0242  <S**2>=0.000
       7 -> 18        -0.18535
       8 -> 19         0.23761
       9 -> 22         0.44180
       9 -> 23        -0.22840
      10 -> 25         0.31021
      12 -> 26         0.21577

 Excited State  77:      Singlet-B2    14.2425 eV   87.05 nm  f=0.1331  <S**2>=0.000
       8 -> 21         0.10062
       9 -> 20        -0.20398
      11 -> 28         0.58022
      12 -> 27        -0.22991
      12 -> 30        -0.13126

 Excited State  78:      Singlet-B1    14.4345 eV   85.89 nm  f=0.0283  <S**2>=0.000
       7 -> 18        -0.25727
       7 -> 20         0.11418
       8 -> 19         0.47879
       9 -> 23         0.15144
      10 -> 25        -0.37072
      10 -> 27         0.10165

 Excited State  79:      Singlet-B1    14.4635 eV   85.72 nm  f=0.0006  <S**2>=0.000
       7 -> 18         0.24309
       8 -> 19         0.33176
       9 -> 23         0.39818
      10 -> 25         0.35477
      10 -> 27        -0.11386

 Excited State  80:      Singlet-A1    14.5509 eV   85.21 nm  f=0.0292  <S**2>=0.000
       7 -> 17         0.30838
       8 -> 18        -0.20639
       8 -> 20         0.36874
       9 -> 21        -0.20819
       9 -> 25         0.21696
      10 -> 22         0.15516
      11 -> 25         0.16419
      11 -> 27        -0.12740

 Excited State  81:      Singlet-B2    14.6236 eV   84.78 nm  f=0.0989  <S**2>=0.000
       8 -> 21         0.18614
       9 -> 24         0.64767
      10 -> 26         0.12550

 Excited State  82:      Singlet-B1    14.6723 eV   84.50 nm  f=0.1890  <S**2>=0.000
       7 -> 18         0.46679
       7 -> 20         0.11045
       8 -> 19         0.14772
       9 -> 23        -0.22172
      10 -> 27         0.35754
      12 -> 29        -0.15572
      13 -> 28        -0.16841

 Excited State  83:      Singlet-A2    14.7917 eV   83.82 nm  f=0.0000  <S**2>=0.000
      13 -> 30         0.68708

 Excited State  84:      Singlet-A1    14.8151 eV   83.69 nm  f=0.1915  <S**2>=0.000
       8 -> 20        -0.38929
       9 -> 25         0.51637
       9 -> 27         0.10147
      10 -> 23         0.11316
      13 -> 29         0.11101

 Excited State  85:      Singlet-B2    14.8326 eV   83.59 nm  f=0.0162  <S**2>=0.000
       8 -> 21         0.58766
       9 -> 24        -0.22937
      10 -> 26         0.26757

 Excited State  86:      Singlet-A1    14.8988 eV   83.22 nm  f=0.0451  <S**2>=0.000
       7 -> 17        -0.20144
       7 -> 19         0.35857
       8 -> 18         0.12416
       8 -> 20         0.32905
       9 -> 21         0.12511
       9 -> 25         0.34031
      10 -> 22        -0.10920
      11 -> 30         0.15334

 Excited State  87:      Singlet-B2    15.0169 eV   82.56 nm  f=0.1252  <S**2>=0.000
       8 -> 21        -0.28384
      10 -> 26         0.60671
      10 -> 29        -0.15273

 Excited State  88:      Singlet-A1    15.0412 eV   82.43 nm  f=0.0413  <S**2>=0.000
       7 -> 17         0.13306
       7 -> 19         0.55826
       8 -> 18        -0.12158
       8 -> 20        -0.14239
       9 -> 21        -0.11179
       9 -> 25        -0.17829
       9 -> 27         0.13016
      12 -> 31         0.14063

 Excited State  89:      Singlet-B1    15.0526 eV   82.37 nm  f=0.2234  <S**2>=0.000
       9 -> 23        -0.10075
      10 -> 25        -0.11015
      10 -> 27        -0.26469
      13 -> 31         0.61871

 Excited State  90:      Singlet-B1    15.0979 eV   82.12 nm  f=0.0590  <S**2>=0.000
       7 -> 18         0.10887
       7 -> 20         0.49198
       9 -> 23        -0.12579
      10 -> 27        -0.39076
      10 -> 30         0.10268
      13 -> 31        -0.21941

 Excited State  91:      Singlet-B2    15.1361 eV   81.91 nm  f=0.0094  <S**2>=0.000
      10 -> 29        -0.10329
      11 -> 28         0.11291
      11 -> 31        -0.27148
      12 -> 30         0.61072

 Excited State  92:      Singlet-A2    15.1602 eV   81.78 nm  f=0.0000  <S**2>=0.000
       8 -> 22         0.40156
       8 -> 23         0.30709
       9 -> 26        -0.13615
      10 -> 28         0.44451

 Excited State  93:      Singlet-A2    15.1735 eV   81.71 nm  f=0.0000  <S**2>=0.000
       8 -> 22         0.52285
       9 -> 26         0.27839
      10 -> 28        -0.36062

 Excited State  94:      Singlet-B1    15.2480 eV   81.31 nm  f=0.4097  <S**2>=0.000
       7 -> 18        -0.10745
       7 -> 20         0.44130
       7 -> 24        -0.11373
       8 -> 19        -0.14424
       9 -> 23         0.19740
      10 -> 25         0.11841
      10 -> 27         0.31252
      12 -> 29         0.12919
      13 -> 31         0.21943

 Excited State  95:      Singlet-A1    15.3128 eV   80.97 nm  f=0.0131  <S**2>=0.000
       8 -> 20        -0.10781
       9 -> 27        -0.35210
      11 -> 30         0.55432

 Excited State  96:      Singlet-B2    15.3355 eV   80.85 nm  f=0.0317  <S**2>=0.000
      10 -> 26         0.14531
      10 -> 29         0.64363
      11 -> 31        -0.17595

 Excited State  97:      Singlet-A2    15.3422 eV   80.81 nm  f=0.0000  <S**2>=0.000
       7 -> 21         0.67261
       8 -> 23         0.10854
      10 -> 28        -0.11864

 Excited State  98:      Singlet-A2    15.4297 eV   80.35 nm  f=0.0000  <S**2>=0.000
       7 -> 21        -0.16014
       8 -> 22        -0.11627
       8 -> 23         0.57987
       9 -> 26        -0.10618
      10 -> 28        -0.29607

 Excited State  99:      Singlet-A1    15.4862 eV   80.06 nm  f=0.0174  <S**2>=0.000
       7 -> 19        -0.17336
       9 -> 27         0.23975
      12 -> 31         0.61067

 Excited State 100:      Singlet-A2    15.5566 eV   79.70 nm  f=0.0000  <S**2>=0.000
       8 -> 22        -0.17267
       8 -> 23         0.19367
       9 -> 26         0.61010
       9 -> 29        -0.10370
      10 -> 28         0.19604

 Excited State 101:      Singlet-A1    15.5622 eV   79.67 nm  f=0.2125  <S**2>=0.000
       6 -> 14         0.15866
       8 -> 24         0.41186
       9 -> 27         0.37135
      11 -> 30         0.27352
      12 -> 31        -0.25883

 Excited State 102:      Singlet-B2    15.6535 eV   79.21 nm  f=0.0560  <S**2>=0.000
       7 -> 22         0.19995
       7 -> 23         0.19006
       9 -> 28         0.57293
      11 -> 31        -0.24022
      12 -> 30        -0.12382

 The electronic state is 1-A1.
 Alpha  occ. eigenvalues --  -10.22699 -10.21874 -10.21871  -0.79818  -0.69403
 Alpha  occ. eigenvalues --   -0.59562  -0.47134  -0.45084  -0.41135  -0.39147
 Alpha  occ. eigenvalues --   -0.34990  -0.34757  -0.33630
 Alpha virt. eigenvalues --    0.03220   0.06068   0.06814   0.09150   0.10699
 Alpha virt. eigenvalues --    0.12619   0.13408   0.13824   0.15399   0.16388
 Alpha virt. eigenvalues --    0.17293   0.18156   0.20233   0.20693   0.21574

 Mulliken charges:
               1
     1  C    0.269435
     2  C   -0.660122
     3  C    0.269435
     4  H    0.010394
     5  H    0.036143
     6  H    0.036143
     7  H   -0.022055
     8  H   -0.022055
     9  H    0.036143
    10  H    0.010394
    11  H    0.036143
 Sum of Mulliken charges =   0.00000

 Dipole moment (field-independent basis, Debye):
    X=              0.0000    Y=             -0.0000    Z=              0.0872  Tot=              0.0872
 Quadrupole moment (field-independent basis, Debye-Ang):
   XX=            -21.4301   YY=            -22.2820   ZZ=            -21.9207
   XY=             -0.0000   XZ=              0.0000   YZ=             -0.0000

 Normal termination of Gaussian 16 at Mon Mar 21 20:25:33 2022.
