 Gaussian 16, Revision C.01,
 Gaussian 16:  EM64L-G16RevC.01  3-Jul-2019

 ----------------------------------------------------------------------
 #P TD(Nstates=10000) pbe1pbe/Gen SCF(maxcycles=100) Int(Grid=ultrafine
 )
 ----------------------------------------------------------------------

 ---------------------
 xGDB7_00001_tier4.com
 ---------------------
 Symbolic Z-matrix:
 Charge =  0 Multiplicity = 1

                         Standard orientation:
 ---------------------------------------------------------------------
 Center     Atomic      Atomic             Coordinates (Angstroms)
 Number     Number       Type             X           Y           Z
 ---------------------------------------------------------------------
      1          9           0        0.000000    1.098813   -0.289120
      2          6           0       -0.000000   -0.000000    0.499944
      3          9           0       -0.000000   -1.098813   -0.289120
      4          1           0       -0.911346    0.000000    1.102246
      5          1           0        0.911346   -0.000000    1.102246
 ---------------------------------------------------------------------

 SCF Done:  E(RPBE1PBE) =  -238.583759382     A.U. after   11 cycles

 Excitation energies and oscillator strengths:

 Excited State   1:      Singlet-B1     9.3898 eV  132.04 nm  f=0.0324  <S**2>=0.000
      13 -> 14         0.70325
 This state for optimization and/or second-order correction.
 Total Energy, E(TD-HF/TD-DFT) =  -238.238691370
 Copying the excited state density for this state as the 1-particle RhoCI density.

 Excited State   2:      Singlet-A2    10.1221 eV  122.49 nm  f=0.0000  <S**2>=0.000
      13 -> 15         0.69622

 Excited State   3:      Singlet-B1    10.6690 eV  116.21 nm  f=0.0182  <S**2>=0.000
      13 -> 16         0.69293
      13 -> 18        -0.10854

 Excited State   4:      Singlet-A1    10.9972 eV  112.74 nm  f=0.0761  <S**2>=0.000
      13 -> 17         0.70106

 Excited State   5:      Singlet-B2    11.2386 eV  110.32 nm  f=0.0324  <S**2>=0.000
      11 -> 15         0.11128
      12 -> 14         0.69362

 Excited State   6:      Singlet-A1    11.5219 eV  107.61 nm  f=0.0000  <S**2>=0.000
      11 -> 14         0.67957
      12 -> 15         0.17882

 Excited State   7:      Singlet-A2    11.8045 eV  105.03 nm  f=0.0000  <S**2>=0.000
      10 -> 14         0.69504

 Excited State   8:      Singlet-A1    12.0327 eV  103.04 nm  f=0.0221  <S**2>=0.000
      11 -> 14        -0.16935
      12 -> 15         0.66115
      13 -> 22        -0.11345

 Excited State   9:      Singlet-B1    12.2647 eV  101.09 nm  f=0.0698  <S**2>=0.000
      10 -> 15        -0.10747
      13 -> 16         0.12056
      13 -> 18         0.67670

 Excited State  10:      Singlet-B2    12.2788 eV  100.97 nm  f=0.0193  <S**2>=0.000
      11 -> 15         0.51059
      12 -> 14        -0.12621
      12 -> 16         0.45717

 Excited State  11:      Singlet-B1    12.5078 eV   99.13 nm  f=0.0467  <S**2>=0.000
      10 -> 15         0.67503
      13 -> 18         0.12974
      13 -> 21         0.12807

 Excited State  12:      Singlet-A1    12.6934 eV   97.68 nm  f=0.1263  <S**2>=0.000
      11 -> 16         0.69417

 Excited State  13:      Singlet-A2    12.6978 eV   97.64 nm  f=0.0000  <S**2>=0.000
      12 -> 17         0.70447

 Excited State  14:      Singlet-B2    12.8191 eV   96.72 nm  f=0.0845  <S**2>=0.000
      11 -> 15        -0.40757
      12 -> 16         0.47937
      13 -> 20        -0.29665

 Excited State  15:      Singlet-A2    12.8755 eV   96.30 nm  f=0.0000  <S**2>=0.000
      10 -> 16        -0.12975
      13 -> 19         0.66883
      13 -> 23         0.10802

 Excited State  16:      Singlet-B1    12.8913 eV   96.18 nm  f=0.0559  <S**2>=0.000
      11 -> 17         0.70277

 Excited State  17:      Singlet-A2    12.9813 eV   95.51 nm  f=0.0000  <S**2>=0.000
      10 -> 16         0.66666
      10 -> 18        -0.10094
      13 -> 23         0.13570

 Excited State  18:      Singlet-B2    13.1788 eV   94.08 nm  f=0.0003  <S**2>=0.000
      10 -> 17         0.54657
      11 -> 15         0.14970
      12 -> 16        -0.16273
      13 -> 20        -0.38234

 Excited State  19:      Singlet-B1    13.3076 eV   93.17 nm  f=0.0052  <S**2>=0.000
      10 -> 15        -0.13507
      13 -> 21         0.68680

 Excited State  20:      Singlet-B2    13.4686 eV   92.05 nm  f=0.0629  <S**2>=0.000
      10 -> 17         0.44270
      11 -> 15        -0.13841
      12 -> 16         0.13376
      13 -> 20         0.50471

 Excited State  21:      Singlet-A1    13.5094 eV   91.78 nm  f=0.0611  <S**2>=0.000
      13 -> 22         0.68111

 Excited State  22:      Singlet-B2    13.8600 eV   89.45 nm  f=0.0006  <S**2>=0.000
      11 -> 19        -0.13216
      12 -> 18         0.67876

 Excited State  23:      Singlet-A2    13.9565 eV   88.84 nm  f=0.0000  <S**2>=0.000
      10 -> 16        -0.11345
      13 -> 19        -0.14041
      13 -> 23         0.67411

 Excited State  24:      Singlet-A1    14.1218 eV   87.80 nm  f=0.0152  <S**2>=0.000
      11 -> 18         0.63412
      12 -> 19        -0.27724

 Excited State  25:      Singlet-A2    14.4507 eV   85.80 nm  f=0.0000  <S**2>=0.000
      10 -> 16         0.10562
      10 -> 18         0.68017

 Excited State  26:      Singlet-A1    14.5646 eV   85.13 nm  f=0.0084  <S**2>=0.000
      11 -> 18         0.27737
      12 -> 19         0.62109
      12 -> 23         0.10226

 Excited State  27:      Singlet-B1    14.6997 eV   84.34 nm  f=0.0087  <S**2>=0.000
       7 -> 14        -0.11204
      10 -> 19        -0.18310
      10 -> 23        -0.10681
      13 -> 24         0.58235
      13 -> 25         0.26629

 Excited State  28:      Singlet-A2    14.7815 eV   83.88 nm  f=0.0000  <S**2>=0.000
      11 -> 20        -0.23600
      12 -> 22         0.66197

 Excited State  29:      Singlet-B2    14.8242 eV   83.64 nm  f=0.1113  <S**2>=0.000
      11 -> 19        -0.39502
      12 -> 21         0.56811

 Excited State  30:      Singlet-B1    14.8441 eV   83.52 nm  f=0.0156  <S**2>=0.000
      11 -> 22        -0.36969
      12 -> 20         0.58891

 Excited State  31:      Singlet-B2    14.9584 eV   82.89 nm  f=0.0260  <S**2>=0.000
       9 -> 14         0.29337
      10 -> 22        -0.17954
      11 -> 19         0.43876
      12 -> 18         0.14506
      12 -> 21         0.35362

 Excited State  32:      Singlet-B1    15.0725 eV   82.26 nm  f=0.0532  <S**2>=0.000
       7 -> 14         0.46494
      10 -> 19         0.44711
      13 -> 24         0.25501

 Excited State  33:      Singlet-B2    15.1040 eV   82.09 nm  f=0.0000  <S**2>=0.000
       9 -> 14         0.62611
      11 -> 19        -0.26588
      12 -> 21        -0.12464

 Excited State  34:      Singlet-B1    15.1895 eV   81.63 nm  f=0.0567  <S**2>=0.000
       7 -> 14         0.29685
      10 -> 19        -0.22915
      11 -> 22         0.47199
      12 -> 20         0.34033
      13 -> 24        -0.11275

 Excited State  35:      Singlet-A1    15.2202 eV   81.46 nm  f=0.0338  <S**2>=0.000
       8 -> 14         0.61058
      11 -> 21         0.33585

 Excited State  36:      Singlet-B1    15.2295 eV   81.41 nm  f=0.0405  <S**2>=0.000
       7 -> 14         0.41995
      10 -> 19        -0.39950
      11 -> 22        -0.35679
      12 -> 20        -0.15597

 Excited State  37:      Singlet-A2    15.2407 eV   81.35 nm  f=0.0000  <S**2>=0.000
      11 -> 20         0.65400
      12 -> 22         0.23615

 Excited State  38:      Singlet-A1    15.2698 eV   81.20 nm  f=0.0057  <S**2>=0.000
       8 -> 14        -0.28846
       9 -> 15        -0.10317
      10 -> 20         0.27389
      11 -> 21         0.55293

 Excited State  39:      Singlet-A2    15.4181 eV   80.41 nm  f=0.0000  <S**2>=0.000
       7 -> 15        -0.26722
      10 -> 21         0.63155

 Excited State  40:      Singlet-A1    15.6273 eV   79.34 nm  f=0.0070  <S**2>=0.000
       8 -> 14        -0.10938
       8 -> 16        -0.14496
      10 -> 20        -0.44106
      11 -> 21         0.17372
      12 -> 23         0.45824

 Excited State  41:      Singlet-B2    15.6747 eV   79.10 nm  f=0.0294  <S**2>=0.000
       9 -> 16         0.17341
      10 -> 22         0.61617
      11 -> 19         0.13824
      11 -> 23        -0.12804
      12 -> 24        -0.12007

 Excited State  42:      Singlet-A1    15.8255 eV   78.34 nm  f=0.0079  <S**2>=0.000
       7 -> 17        -0.11317
       9 -> 15        -0.32988
      10 -> 20         0.41208
      11 -> 21        -0.16936
      12 -> 23         0.38943

 Excited State  43:      Singlet-B1    15.8483 eV   78.23 nm  f=0.1048  <S**2>=0.000
      10 -> 19         0.12676
      13 -> 24        -0.21956
      13 -> 25         0.64438

 Excited State  44:      Singlet-B2    15.8489 eV   78.23 nm  f=0.0002  <S**2>=0.000
       8 -> 15        -0.36625
      11 -> 19        -0.11077
      11 -> 23         0.55184
      12 -> 24        -0.13606

 Excited State  45:      Singlet-A2    15.8793 eV   78.08 nm  f=0.0000  <S**2>=0.000
       7 -> 15         0.63571
       7 -> 19         0.10060
      10 -> 21         0.26974

 Excited State  46:      Singlet-B2    15.9460 eV   77.75 nm  f=0.1309  <S**2>=0.000
       8 -> 15         0.56183
       9 -> 16        -0.11661
      10 -> 22         0.10184
      11 -> 23         0.30192
      12 -> 21         0.10281
      12 -> 24        -0.14812
      13 -> 26         0.14253

 Excited State  47:      Singlet-A1    16.0725 eV   77.14 nm  f=0.0433  <S**2>=0.000
       8 -> 16         0.16856
       9 -> 15         0.54570
      10 -> 20         0.17826
      12 -> 23         0.30641

 Excited State  48:      Singlet-B1    16.2791 eV   76.16 nm  f=0.0041  <S**2>=0.000
       7 -> 16        -0.23262
      10 -> 19        -0.11246
      10 -> 23         0.62618
      13 -> 24         0.12507

 Excited State  49:      Singlet-B2    16.3513 eV   75.83 nm  f=0.0337  <S**2>=0.000
       9 -> 14        -0.10078
       9 -> 16         0.63291
      11 -> 23         0.17681
      12 -> 24         0.13149

 Excited State  50:      Singlet-A1    16.4347 eV   75.44 nm  f=0.1389  <S**2>=0.000
       8 -> 16         0.64073
       9 -> 15        -0.15011
      10 -> 20        -0.11056
      13 -> 27        -0.10157

 Excited State  51:      Singlet-B1    16.4797 eV   75.23 nm  f=0.0239  <S**2>=0.000
       7 -> 16        -0.24487
       8 -> 17         0.62839
      10 -> 23        -0.17714

 Excited State  52:      Singlet-A2    16.5275 eV   75.02 nm  f=0.0000  <S**2>=0.000
       9 -> 17         0.70078

 Excited State  53:      Singlet-B2    16.6365 eV   74.53 nm  f=0.1569  <S**2>=0.000
       8 -> 15        -0.10492
      12 -> 24         0.10653
      13 -> 26         0.67626

 Excited State  54:      Singlet-B1    16.6505 eV   74.46 nm  f=0.0765  <S**2>=0.000
       7 -> 16         0.60475
       8 -> 17         0.28578
      10 -> 23         0.17634

 Excited State  55:      Singlet-A1    16.7160 eV   74.17 nm  f=0.0022  <S**2>=0.000
       7 -> 17         0.45019
      11 -> 24         0.46091
      11 -> 25         0.17388
      13 -> 27         0.13651

 Excited State  56:      Singlet-A1    16.9821 eV   73.01 nm  f=0.0513  <S**2>=0.000
       7 -> 17         0.46504
      11 -> 24        -0.29442
      11 -> 25        -0.17827
      13 -> 27        -0.34069
      13 -> 30         0.12437

 Excited State  57:      Singlet-B2    17.0783 eV   72.60 nm  f=0.0599  <S**2>=0.000
       9 -> 16        -0.14449
       9 -> 18        -0.21230
      10 -> 22         0.12977
      11 -> 23         0.14101
      12 -> 24         0.58998

 Excited State  58:      Singlet-A2    17.0813 eV   72.58 nm  f=0.0000  <S**2>=0.000
      10 -> 21        -0.10276
      10 -> 24        -0.20049
      13 -> 29         0.64846

 Excited State  59:      Singlet-A1    17.0871 eV   72.56 nm  f=0.0386  <S**2>=0.000
       7 -> 17         0.13719
       8 -> 16         0.10799
       9 -> 15        -0.12584
      11 -> 24        -0.31801
      13 -> 27         0.57032

 Excited State  60:      Singlet-B1    17.1628 eV   72.24 nm  f=0.0200  <S**2>=0.000
      13 -> 28         0.68750

 Excited State  61:      Singlet-A2    17.1917 eV   72.12 nm  f=0.0000  <S**2>=0.000
      10 -> 24         0.60486
      10 -> 25         0.22784
      13 -> 29         0.23991

 Excited State  62:      Singlet-B2    17.5100 eV   70.81 nm  f=0.0442  <S**2>=0.000
       9 -> 18        -0.25717
      12 -> 24        -0.12081
      12 -> 25         0.61617

 Excited State  63:      Singlet-A1    17.6942 eV   70.07 nm  f=0.0201  <S**2>=0.000
       8 -> 18        -0.21755
      11 -> 24        -0.22871
      11 -> 25         0.57662
      13 -> 30         0.22192

 Excited State  64:      Singlet-A1    17.9612 eV   69.03 nm  f=0.0490  <S**2>=0.000
       8 -> 18         0.63316
       9 -> 23        -0.10258
      11 -> 25         0.22324

 Excited State  65:      Singlet-B1    17.9884 eV   68.92 nm  f=0.0828  <S**2>=0.000
       7 -> 18         0.67069
       8 -> 22        -0.11147

 Excited State  66:      Singlet-A2    18.0010 eV   68.88 nm  f=0.0000  <S**2>=0.000
       7 -> 19         0.14980
      10 -> 24        -0.26688
      10 -> 25         0.63007

 Excited State  67:      Singlet-B2    18.0411 eV   68.72 nm  f=0.0626  <S**2>=0.000
       9 -> 18         0.59005
       9 -> 21         0.10126
      11 -> 29        -0.15694
      12 -> 24         0.11079
      12 -> 25         0.21381

 Excited State  68:      Singlet-A1    18.1814 eV   68.19 nm  f=0.0058  <S**2>=0.000
       7 -> 22        -0.11598
       9 -> 19         0.16966
      11 -> 24         0.11977
      11 -> 25        -0.18992
      13 -> 30         0.60326

 Excited State  69:      Singlet-B1    18.4278 eV   67.28 nm  f=0.0241  <S**2>=0.000
       7 -> 18        -0.10022
      12 -> 26         0.68832

 Excited State  70:      Singlet-B2    18.5460 eV   66.85 nm  f=0.0098  <S**2>=0.000
       8 -> 19         0.60299
       9 -> 21         0.22624
      11 -> 29        -0.15339
      12 -> 28        -0.16760

 Excited State  71:      Singlet-A2    18.5519 eV   66.83 nm  f=0.0000  <S**2>=0.000
       9 -> 22        -0.27410
      11 -> 26         0.62016
      12 -> 27        -0.15929

 Excited State  72:      Singlet-A2    18.6255 eV   66.57 nm  f=0.0000  <S**2>=0.000
       7 -> 15        -0.10469
       7 -> 19         0.61681
       7 -> 23         0.14534
       9 -> 22        -0.18327
      10 -> 25        -0.16409

 Excited State  73:      Singlet-A2    18.6440 eV   66.50 nm  f=0.0000  <S**2>=0.000
       7 -> 19         0.18448
       8 -> 20         0.33153
       9 -> 22         0.47169
      12 -> 27        -0.34649

 Excited State  74:      Singlet-A1    18.6951 eV   66.32 nm  f=0.0187  <S**2>=0.000
       8 -> 21        -0.36194
       9 -> 19         0.36190
      12 -> 29         0.44657

 Excited State  75:      Singlet-B1    18.7164 eV   66.24 nm  f=0.0090  <S**2>=0.000
       8 -> 22         0.45954
       9 -> 20         0.48016
      11 -> 27        -0.18439

 Excited State  76:      Singlet-A2    18.8032 eV   65.94 nm  f=0.0000  <S**2>=0.000
       9 -> 22         0.32223
      11 -> 26         0.27492
      12 -> 27         0.55288

 Excited State  77:      Singlet-A1    18.8588 eV   65.74 nm  f=0.0510  <S**2>=0.000
       7 -> 22        -0.34490
       8 -> 21         0.21593
       9 -> 19         0.42056
      12 -> 29        -0.25590
      13 -> 30        -0.19586

 Excited State  78:      Singlet-B1    18.8691 eV   65.71 nm  f=0.0074  <S**2>=0.000
       7 -> 21        -0.22927
       8 -> 22         0.46128
       9 -> 20        -0.42399
      11 -> 27         0.17022

 Excited State  79:      Singlet-B2    18.8704 eV   65.70 nm  f=0.0790  <S**2>=0.000
       7 -> 20         0.34547
       8 -> 19        -0.11600
       9 -> 21         0.54302
      12 -> 28         0.22610

 Excited State  80:      Singlet-B1    18.9446 eV   65.45 nm  f=0.0509  <S**2>=0.000
       7 -> 21         0.62022
       8 -> 22         0.19451
       9 -> 20        -0.18330
      10 -> 29        -0.15040

 Excited State  81:      Singlet-A2    18.9563 eV   65.41 nm  f=0.0000  <S**2>=0.000
       8 -> 20         0.61060
       9 -> 22        -0.24215
      11 -> 26        -0.14557
      12 -> 27         0.19918

 Excited State  82:      Singlet-A1    18.9612 eV   65.39 nm  f=0.0708  <S**2>=0.000
       7 -> 22        -0.44751
       8 -> 21        -0.13839
       9 -> 19        -0.19234
      10 -> 26         0.47020

 Excited State  83:      Singlet-B2    18.9633 eV   65.38 nm  f=0.0130  <S**2>=0.000
       7 -> 20         0.30672
       8 -> 19         0.24585
       9 -> 21        -0.30292
      10 -> 27        -0.15040
      12 -> 28         0.44870

 Excited State  84:      Singlet-B2    18.9862 eV   65.30 nm  f=0.0409  <S**2>=0.000
       7 -> 20         0.49862
       8 -> 19        -0.11811
       9 -> 21        -0.13903
      10 -> 27        -0.10893
      11 -> 29        -0.17702
      12 -> 28        -0.40957

 Excited State  85:      Singlet-A1    19.0389 eV   65.12 nm  f=0.0000  <S**2>=0.000
       7 -> 22         0.17083
       8 -> 21         0.44063
       9 -> 19         0.10895
      10 -> 26         0.32351
      11 -> 28         0.21294
      12 -> 29         0.30732

 Excited State  86:      Singlet-B1    19.0513 eV   65.08 nm  f=0.0107  <S**2>=0.000
       7 -> 21         0.12189
       9 -> 20         0.22161
      11 -> 27         0.64362

 Excited State  87:      Singlet-A1    19.1162 eV   64.86 nm  f=0.0003  <S**2>=0.000
       6 -> 14        -0.10592
       7 -> 22        -0.31089
       8 -> 21         0.28365
       9 -> 19        -0.20670
       9 -> 23         0.13557
      10 -> 26        -0.33377
      11 -> 28        -0.13456
      12 -> 29         0.33393

 Excited State  88:      Singlet-A1    19.2612 eV   64.37 nm  f=0.0669  <S**2>=0.000
       7 -> 22        -0.10421
       9 -> 19        -0.11389
      10 -> 26        -0.20184
      11 -> 28         0.57808
      13 -> 31         0.21525

 Excited State  89:      Singlet-B2    19.2993 eV   64.24 nm  f=0.0336  <S**2>=0.000
      10 -> 27         0.53908
      11 -> 29        -0.41113
      12 -> 28         0.13152

 Excited State  90:      Singlet-A1    19.3572 eV   64.05 nm  f=0.0366  <S**2>=0.000
       9 -> 19         0.10319
      11 -> 28        -0.21835
      13 -> 31         0.65035

 Excited State  91:      Singlet-A1    19.4314 eV   63.81 nm  f=0.0229  <S**2>=0.000
       6 -> 14         0.62940
       9 -> 23         0.27846

 Excited State  92:      Singlet-B1    19.4358 eV   63.79 nm  f=0.0125  <S**2>=0.000
      10 -> 29        -0.18848
      13 -> 32         0.66728

 Excited State  93:      Singlet-B2    19.4609 eV   63.71 nm  f=0.0090  <S**2>=0.000
       7 -> 20         0.13942
       8 -> 19         0.13068
       8 -> 23        -0.24112
       9 -> 24        -0.13455
      10 -> 27         0.38177
      11 -> 29         0.43219
      12 -> 28        -0.14505

 Excited State  94:      Singlet-A2    19.4751 eV   63.66 nm  f=0.0000  <S**2>=0.000
       7 -> 19         0.16023
       7 -> 23        -0.34969
      10 -> 28         0.57438

 Excited State  95:      Singlet-B1    19.5608 eV   63.38 nm  f=0.0308  <S**2>=0.000
       7 -> 21         0.18996
      10 -> 29         0.64385
      13 -> 32         0.19056

 Excited State  96:      Singlet-A2    19.6950 eV   62.95 nm  f=0.0000  <S**2>=0.000
       7 -> 23         0.56252
      10 -> 28         0.37934
      13 -> 33        -0.12845

 Excited State  97:      Singlet-B2    19.7118 eV   62.90 nm  f=0.0030  <S**2>=0.000
       6 -> 15        -0.15571
       8 -> 23         0.61186
       9 -> 24        -0.11633
      10 -> 27         0.12448
      11 -> 29         0.12835

 Excited State  98:      Singlet-A2    19.8033 eV   62.61 nm  f=0.0000  <S**2>=0.000
       7 -> 23         0.12647
      13 -> 33         0.68967

 Excited State  99:      Singlet-A2    19.8824 eV   62.36 nm  f=0.0000  <S**2>=0.000
      12 -> 30         0.70185

 Excited State 100:      Singlet-A1    20.0064 eV   61.97 nm  f=0.0507  <S**2>=0.000
       6 -> 14        -0.20135
       8 -> 18         0.10064
       8 -> 24        -0.31207
       8 -> 25        -0.10178
       9 -> 23         0.53939
      11 -> 28         0.12690

 Excited State 101:      Singlet-B1    20.0299 eV   61.90 nm  f=0.0111  <S**2>=0.000
       7 -> 24        -0.11725
      11 -> 30         0.66562
      13 -> 34         0.16862

 Excited State 102:      Singlet-B1    20.2299 eV   61.29 nm  f=0.0254  <S**2>=0.000
       7 -> 24        -0.10902
      11 -> 30        -0.19745
      13 -> 34         0.66165

 Excited State 103:      Singlet-B2    20.2791 eV   61.14 nm  f=0.0054  <S**2>=0.000
       6 -> 15         0.66796
       8 -> 23         0.12616

 Excited State 104:      Singlet-B2    20.4374 eV   60.67 nm  f=0.0001  <S**2>=0.000
       9 -> 24        -0.27458
      10 -> 30         0.63542

 Excited State 105:      Singlet-B1    20.4993 eV   60.48 nm  f=0.0000  <S**2>=0.000
       6 -> 17        -0.20032
       7 -> 24         0.60883
       7 -> 25         0.21612
      13 -> 34         0.13491

 Excited State 106:      Singlet-A2    20.5103 eV   60.45 nm  f=0.0000  <S**2>=0.000
      13 -> 35         0.69433

 Excited State 107:      Singlet-A1    20.6692 eV   59.99 nm  f=0.0285  <S**2>=0.000
       6 -> 16         0.63607
       8 -> 24        -0.23331

 Excited State 108:      Singlet-B1    20.8645 eV   59.42 nm  f=0.0085  <S**2>=0.000
       6 -> 17         0.66469
       7 -> 24         0.20581

 Excited State 109:      Singlet-B2    20.8668 eV   59.42 nm  f=0.1564  <S**2>=0.000
       9 -> 24         0.55289
      10 -> 30         0.25485
      10 -> 31         0.15864
      12 -> 32        -0.15733
      13 -> 36        -0.14938

 Excited State 110:      Singlet-A2    21.0318 eV   58.95 nm  f=0.0000  <S**2>=0.000
      12 -> 31         0.70261

 Excited State 111:      Singlet-A1    21.1826 eV   58.53 nm  f=0.0001  <S**2>=0.000
       6 -> 16         0.22255
       7 -> 30        -0.11003
       8 -> 24         0.43037
       9 -> 23         0.18860
       9 -> 29        -0.15460
      11 -> 32        -0.34441
      11 -> 34        -0.12682

 Excited State 112:      Singlet-B2    21.2426 eV   58.37 nm  f=0.0899  <S**2>=0.000
      10 -> 31         0.17299
      12 -> 32         0.65886

 Excited State 113:      Singlet-B1    21.3041 eV   58.20 nm  f=0.0488  <S**2>=0.000
       7 -> 25         0.15500
      11 -> 31         0.67417

 Excited State 114:      Singlet-B2    21.3121 eV   58.18 nm  f=0.0069  <S**2>=0.000

 The electronic state is 1-A1.
 Alpha  occ. eigenvalues --  -24.80108 -24.80107 -10.40250  -1.28342  -1.22313
 Alpha  occ. eigenvalues --   -0.73096  -0.57890  -0.57695  -0.57578  -0.45567
 Alpha  occ. eigenvalues --   -0.44257  -0.43390  -0.36948
 Alpha virt. eigenvalues --    0.03014   0.06902   0.08218   0.08497   0.13375
 Alpha virt. eigenvalues --    0.15736   0.16630   0.16900   0.17034   0.20505
 Alpha virt. eigenvalues --    0.24815   0.26480   0.29570   0.30919   0.31766

 Mulliken charges:
               1
     1  F   -0.426595
     2  C    1.115053
     3  F   -0.426595
     4  H   -0.130932
     5  H   -0.130932
 Sum of Mulliken charges =   0.00000

 Dipole moment (field-independent basis, Debye):
    X=              0.0000    Y=              0.0000    Z=              1.9517  Tot=              1.9517
 Quadrupole moment (field-independent basis, Debye-Ang):
   XX=            -15.4052   YY=            -19.2197   ZZ=            -15.4595
   XY=             -0.0000   XZ=              0.0000   YZ=              0.0000

 1\1\GINC-HEL13\SP\RPBE1PBE TD-FC\Gen\C1H2F2\SABYASACHI\21-Mar-2022\0\\
 #P TD(Nstates=10000) pbe1pbe/Gen SCF(maxcycles=100) Int(Grid=ultrafine
 )\\xGDB7_00001_tier4.com\\0,1\F,0,0.,1.098813,-0.28912\C,0,0.,0.,0.499
 944\F,0,0.,-1.098813,-0.28912\H,0,-0.911346,0.,1.102246\H,0,0.911346,0
 .,1.102246\\Version=EM64L-G16RevC.01\State=1-A1\HF=-238.5837594\RMSD=3
 .399e-09\PG=C02V [C2(C1),SGV(F2),SGV'(H2)]\\@
 The archive entry for this job was punched.

 Normal termination of Gaussian 16 at Mon Mar 21 04:15:28 2022.
