 Gaussian 16, Revision C.01,
 Gaussian 16:  EM64L-G16RevC.01  3-Jul-2019

 ----------------------------------------------------------------------
 #P TD(Nstates=10000) pbe1pbe/Gen SCF(maxcycles=100) Int(Grid=ultrafine
 )
 ----------------------------------------------------------------------

 ---------------------
 xGDB7_00001_tier4.com
 ---------------------
 Symbolic Z-matrix:
 Charge =  0 Multiplicity = 1

                         Standard orientation:
 ---------------------------------------------------------------------
 Center     Atomic      Atomic             Coordinates (Angstroms)
 Number     Number       Type             X           Y           Z
 ---------------------------------------------------------------------
      1          8           0       -1.023805   -0.438791    0.000000
      2          6           0       -0.000000    0.418952    0.000000
      3          8           0        1.152985    0.109982   -0.000000
      4          1           0       -0.656943   -1.333011    0.000000
      5          1           0       -0.376498    1.449770    0.000000
 ---------------------------------------------------------------------

 SCF Done:  E(RPBE1PBE) =  -189.432874032     A.U. after   13 cycles

 Excitation energies and oscillator strengths:

 Excited State   1:      Singlet-A"     5.8947 eV  210.33 nm  f=0.0009  <S**2>=0.000
      12 -> 13         0.70526
 This state for optimization and/or second-order correction.
 Total Energy, E(TD-HF/TD-DFT) =  -189.216246980
 Copying the excited state density for this state as the 1-particle RhoCI density.

 Excited State   2:      Singlet-A'     7.8798 eV  157.34 nm  f=0.0293  <S**2>=0.000
      11 -> 13        -0.26613
      12 -> 14         0.65044

 Excited State   3:      Singlet-A'     8.6364 eV  143.56 nm  f=0.0558  <S**2>=0.000
      12 -> 15         0.70170

 Excited State   4:      Singlet-A"     8.8224 eV  140.53 nm  f=0.0030  <S**2>=0.000
      11 -> 14         0.70113

 Excited State   5:      Singlet-A'     8.8612 eV  139.92 nm  f=0.2289  <S**2>=0.000
      11 -> 13         0.61816
      12 -> 14         0.25826
      12 -> 16         0.13116

 Excited State   6:      Singlet-A"     9.3337 eV  132.84 nm  f=0.0001  <S**2>=0.000
      10 -> 13         0.70331

 Excited State   7:      Singlet-A"     9.8158 eV  126.31 nm  f=0.0010  <S**2>=0.000
      11 -> 15         0.70239

 Excited State   8:      Singlet-A'     9.9007 eV  125.23 nm  f=0.0866  <S**2>=0.000
      12 -> 16         0.67927

 Excited State   9:      Singlet-A"     9.9200 eV  124.98 nm  f=0.0155  <S**2>=0.000
      12 -> 17         0.70012

 Excited State  10:      Singlet-A'    10.6832 eV  116.06 nm  f=0.0211  <S**2>=0.000
      12 -> 18         0.67175
      12 -> 19        -0.11098
      12 -> 20        -0.13958

 Excited State  11:      Singlet-A'    10.9129 eV  113.61 nm  f=0.0579  <S**2>=0.000
      10 -> 14         0.67489
      11 -> 17        -0.17296

 Excited State  12:      Singlet-A"    10.9863 eV  112.85 nm  f=0.0371  <S**2>=0.000
      11 -> 16         0.69691

 Excited State  13:      Singlet-A'    11.0321 eV  112.39 nm  f=0.0130  <S**2>=0.000
       9 -> 13         0.13015
      10 -> 14        -0.14197
      11 -> 17        -0.42577
      12 -> 19         0.51813

 Excited State  14:      Singlet-A'    11.1821 eV  110.88 nm  f=0.0045  <S**2>=0.000
       9 -> 13         0.10374
      10 -> 14         0.10892
      11 -> 17         0.50079
      12 -> 19         0.40509
      12 -> 20        -0.20039

 Excited State  15:      Singlet-A'    11.3133 eV  109.59 nm  f=0.0079  <S**2>=0.000
      11 -> 17         0.15575
      12 -> 18         0.15731
      12 -> 19         0.10048
      12 -> 20         0.65637

 Excited State  16:      Singlet-A"    11.5737 eV  107.13 nm  f=0.0054  <S**2>=0.000
       8 -> 13         0.13752
      12 -> 21         0.67932

 Excited State  17:      Singlet-A"    11.6067 eV  106.82 nm  f=0.0010  <S**2>=0.000
       8 -> 13         0.24919
      11 -> 18         0.62359
      11 -> 20        -0.14557

 Excited State  18:      Singlet-A'    11.7832 eV  105.22 nm  f=0.1297  <S**2>=0.000
       9 -> 13         0.33503
      10 -> 15         0.58011
      12 -> 19        -0.14621

 Excited State  19:      Singlet-A"    11.7861 eV  105.19 nm  f=0.0061  <S**2>=0.000
       7 -> 13         0.10363
       8 -> 13         0.62454
      11 -> 18        -0.23709
      12 -> 21        -0.16523

 Excited State  20:      Singlet-A'    12.0031 eV  103.29 nm  f=0.0399  <S**2>=0.000
       9 -> 13         0.55068
      10 -> 15        -0.38663

 Excited State  21:      Singlet-A"    12.0907 eV  102.54 nm  f=0.0107  <S**2>=0.000
       9 -> 14        -0.42652
      11 -> 18         0.12978
      11 -> 19         0.52600

 Excited State  22:      Singlet-A"    12.2823 eV  100.95 nm  f=0.0236  <S**2>=0.000
       7 -> 13        -0.14147
       9 -> 14         0.52295
      11 -> 19         0.41279
      11 -> 20         0.15848

 Excited State  23:      Singlet-A'    12.2931 eV  100.86 nm  f=0.0581  <S**2>=0.000
      12 -> 22         0.69371

 Excited State  24:      Singlet-A"    12.3934 eV  100.04 nm  f=0.0195  <S**2>=0.000
       7 -> 13         0.62286
       9 -> 14         0.11659
      11 -> 20         0.25623

 Excited State  25:      Singlet-A"    12.5462 eV   98.82 nm  f=0.0068  <S**2>=0.000
       7 -> 13        -0.21996
       9 -> 14        -0.12039
      11 -> 19        -0.17267
      11 -> 20         0.60734
      12 -> 23         0.10605

 Excited State  26:      Singlet-A"    12.7474 eV   97.26 nm  f=0.0000  <S**2>=0.000
       7 -> 13         0.10602
      10 -> 17        -0.10499
      12 -> 23         0.68173

 Excited State  27:      Singlet-A'    12.8780 eV   96.28 nm  f=0.0014  <S**2>=0.000
       8 -> 14         0.14392
      10 -> 16         0.39591
      11 -> 21         0.55162

 Excited State  28:      Singlet-A'    13.0117 eV   95.29 nm  f=0.0231  <S**2>=0.000
       8 -> 14         0.35814
      10 -> 16         0.40010
      11 -> 21        -0.36256
      12 -> 24        -0.20327

 Excited State  29:      Singlet-A"    13.0438 eV   95.05 nm  f=0.0048  <S**2>=0.000
      10 -> 17         0.69115

 Excited State  30:      Singlet-A"    13.0979 eV   94.66 nm  f=0.0231  <S**2>=0.000
       9 -> 15         0.68549

 Excited State  31:      Singlet-A'    13.2874 eV   93.31 nm  f=0.0107  <S**2>=0.000
       8 -> 14         0.40529
      10 -> 16        -0.37047
      10 -> 18         0.14024
      11 -> 21         0.13275
      12 -> 24        -0.37464

 Excited State  32:      Singlet-A'    13.3400 eV   92.94 nm  f=0.0468  <S**2>=0.000
       7 -> 14         0.11107
       8 -> 14         0.39651
      11 -> 23        -0.11354
      12 -> 24         0.52872

 Excited State  33:      Singlet-A"    13.4327 eV   92.30 nm  f=0.0005  <S**2>=0.000
      11 -> 22         0.69373

 Excited State  34:      Singlet-A'    13.8179 eV   89.73 nm  f=0.0738  <S**2>=0.000
       9 -> 17        -0.13664
      10 -> 18         0.62463
      11 -> 21        -0.11265
      11 -> 23         0.17998

 Excited State  35:      Singlet-A'    14.0157 eV   88.46 nm  f=0.0181  <S**2>=0.000
       7 -> 14         0.23369
       8 -> 15         0.33176
      10 -> 18        -0.11986
      10 -> 19        -0.25713
      11 -> 23         0.46709
      12 -> 27        -0.10200

 Excited State  36:      Singlet-A'    14.0891 eV   88.00 nm  f=0.0212  <S**2>=0.000
       7 -> 14        -0.18094
       8 -> 15         0.46014
       9 -> 17        -0.11500
      10 -> 19        -0.27275
      11 -> 23        -0.37256

 Excited State  37:      Singlet-A'    14.2351 eV   87.10 nm  f=0.0255  <S**2>=0.000
       7 -> 14         0.55269
       9 -> 17        -0.20922
      10 -> 19        -0.12752
      10 -> 20        -0.11550
      11 -> 23        -0.19768
      12 -> 25         0.19651
      12 -> 27         0.10650

 Excited State  38:      Singlet-A'    14.2592 eV   86.95 nm  f=0.0502  <S**2>=0.000
       7 -> 14         0.14002
       8 -> 15         0.38309
      10 -> 19         0.53734
      10 -> 20         0.10508
      12 -> 25         0.10490

 Excited State  39:      Singlet-A"    14.2780 eV   86.84 nm  f=0.0291  <S**2>=0.000
       9 -> 16        -0.48461
      11 -> 24         0.49074

 Excited State  40:      Singlet-A'    14.4609 eV   85.74 nm  f=0.1207  <S**2>=0.000
      10 -> 19        -0.15104
      10 -> 20         0.34890
      12 -> 25         0.55884

 Excited State  41:      Singlet-A"    14.4627 eV   85.73 nm  f=0.0023  <S**2>=0.000
       9 -> 16         0.50046
      11 -> 24         0.48805

 Excited State  42:      Singlet-A'    14.5242 eV   85.36 nm  f=0.0411  <S**2>=0.000
       7 -> 14         0.18248
       7 -> 15        -0.15579
       9 -> 17         0.48451
      10 -> 18         0.15578
      10 -> 20         0.26415
      11 -> 23        -0.10564
      12 -> 25        -0.20479
      12 -> 27         0.13871

 Excited State  43:      Singlet-A'    14.6121 eV   84.85 nm  f=0.0049  <S**2>=0.000
       7 -> 15         0.17353
       9 -> 17        -0.36061
      10 -> 20         0.46973
      12 -> 25        -0.25410
      12 -> 27         0.15021

 Excited State  44:      Singlet-A"    14.7050 eV   84.31 nm  f=0.0277  <S**2>=0.000
       8 -> 17         0.24031
      10 -> 21         0.65816

 Excited State  45:      Singlet-A"    15.0437 eV   82.42 nm  f=0.0333  <S**2>=0.000
       6 -> 13         0.11692
       9 -> 18         0.62933
       9 -> 20        -0.10685
      11 -> 25         0.10478
      12 -> 26        -0.18986

 Excited State  46:      Singlet-A'    15.0782 eV   82.23 nm  f=0.0937  <S**2>=0.000
       7 -> 15         0.62974
       8 -> 16        -0.13999
       9 -> 17         0.17074
      10 -> 20        -0.12101

 Excited State  47:      Singlet-A"    15.2014 eV   81.56 nm  f=0.0135  <S**2>=0.000
       9 -> 18         0.18702
      12 -> 26         0.67272

 Excited State  48:      Singlet-A'    15.2516 eV   81.29 nm  f=0.1231  <S**2>=0.000
       7 -> 15         0.16427
       8 -> 16         0.49350
      10 -> 20         0.14603
      10 -> 22        -0.20991
      12 -> 27        -0.34079

 Excited State  49:      Singlet-A"    15.4276 eV   80.37 nm  f=0.0083  <S**2>=0.000
       8 -> 17         0.59215
      10 -> 21        -0.22141
      11 -> 25        -0.30091

 Excited State  50:      Singlet-A"    15.4429 eV   80.29 nm  f=0.0174  <S**2>=0.000
       8 -> 17         0.28948
       9 -> 18        -0.14948
       9 -> 19        -0.15200
      11 -> 25         0.59272

 Excited State  51:      Singlet-A'    15.4430 eV   80.29 nm  f=0.0560  <S**2>=0.000
       8 -> 16         0.19580
       8 -> 18        -0.19450
      10 -> 22        -0.38746
      12 -> 27         0.45097
      12 -> 28        -0.12983

 Excited State  52:      Singlet-A'    15.4759 eV   80.11 nm  f=0.0055  <S**2>=0.000
       8 -> 16         0.37440
      10 -> 22         0.51622
      12 -> 27         0.21000

 Excited State  53:      Singlet-A"    15.5411 eV   79.78 nm  f=0.0201  <S**2>=0.000
       9 -> 19         0.65656
       9 -> 20         0.10998
      11 -> 25         0.17706

 Excited State  54:      Singlet-A"    15.8552 eV   78.20 nm  f=0.0040  <S**2>=0.000
      10 -> 23         0.54607
      11 -> 27         0.39353

 Excited State  55:      Singlet-A"    15.9069 eV   77.94 nm  f=0.0021  <S**2>=0.000
       9 -> 20         0.45521
      10 -> 23         0.34624
      11 -> 27        -0.35279

 Excited State  56:      Singlet-A'    15.9724 eV   77.62 nm  f=0.0009  <S**2>=0.000
       8 -> 18        -0.18285
       9 -> 21        -0.21935
      11 -> 26        -0.10300
      12 -> 28         0.61159

 Excited State  57:      Singlet-A"    15.9772 eV   77.60 nm  f=0.0614  <S**2>=0.000
       6 -> 13        -0.16401
       7 -> 17        -0.10460
       9 -> 19        -0.15044
       9 -> 20         0.46858
      10 -> 23        -0.20458
      11 -> 27         0.39648

 Excited State  58:      Singlet-A'    16.1345 eV   76.84 nm  f=0.0177  <S**2>=0.000
       8 -> 18        -0.46781
       8 -> 20         0.11538
       9 -> 21         0.47639
      10 -> 24        -0.10017

 Excited State  59:      Singlet-A"    16.2451 eV   76.32 nm  f=0.0160  <S**2>=0.000
       7 -> 17         0.67993
      10 -> 23        -0.16020

 Excited State  60:      Singlet-A'    16.2506 eV   76.30 nm  f=0.0138  <S**2>=0.000
       7 -> 16         0.56066
       7 -> 18        -0.11157
       8 -> 18        -0.13822
       9 -> 21        -0.22887
      11 -> 26        -0.11679
      12 -> 28        -0.21277

 Excited State  61:      Singlet-A'    16.2888 eV   76.12 nm  f=0.0264  <S**2>=0.000
       7 -> 16         0.32658
       8 -> 18         0.29160
       9 -> 21         0.32171
      10 -> 24         0.29077
      11 -> 26         0.14459
      12 -> 27         0.11722
      12 -> 28         0.17094

 Excited State  62:      Singlet-A'    16.3242 eV   75.95 nm  f=0.0112  <S**2>=0.000
       7 -> 16         0.11676
       9 -> 21        -0.12720
      10 -> 24        -0.32324
      11 -> 26         0.57998

 Excited State  63:      Singlet-A'    16.4393 eV   75.42 nm  f=0.0414  <S**2>=0.000
       8 -> 18         0.21188
       8 -> 19         0.50099
       9 -> 21         0.10596
      10 -> 24        -0.30943
      11 -> 26        -0.24346

 Excited State  64:      Singlet-A'    16.5507 eV   74.91 nm  f=0.0550  <S**2>=0.000
       7 -> 16        -0.17473
       7 -> 18        -0.15615
       8 -> 19         0.41652
       8 -> 20         0.20606
       9 -> 21        -0.10225
      10 -> 24         0.36098
      11 -> 26         0.20415
      12 -> 32        -0.10178

 Excited State  65:      Singlet-A'    16.7438 eV   74.05 nm  f=0.0018  <S**2>=0.000
       7 -> 18         0.10950
       8 -> 20         0.28751
      12 -> 29         0.59721
      12 -> 30        -0.16076

 Excited State  66:      Singlet-A"    16.7733 eV   73.92 nm  f=0.0001  <S**2>=0.000
       9 -> 22         0.68053
      11 -> 28         0.13106

 Excited State  67:      Singlet-A'    16.8177 eV   73.72 nm  f=0.0361  <S**2>=0.000
       8 -> 18         0.12964
       8 -> 19        -0.11119
       8 -> 20         0.54909
      10 -> 24        -0.18132
      12 -> 29        -0.31221
      12 -> 30        -0.14423

 Excited State  68:      Singlet-A"    16.9170 eV   73.29 nm  f=0.0370  <S**2>=0.000
       6 -> 13         0.48785
       8 -> 21        -0.25405
       9 -> 20         0.11072
      12 -> 31        -0.38054

 Excited State  69:      Singlet-A'    16.9518 eV   73.14 nm  f=0.0265  <S**2>=0.000
       7 -> 18         0.58540
       7 -> 20        -0.11364
      12 -> 28        -0.10227
      12 -> 29        -0.10796
      12 -> 30         0.20274
      12 -> 32        -0.16500

 Excited State  70:      Singlet-A"    17.0341 eV   72.79 nm  f=0.0199  <S**2>=0.000
       6 -> 13         0.18590
       8 -> 21         0.65034
      12 -> 31        -0.13943

 Excited State  71:      Singlet-A'    17.0614 eV   72.67 nm  f=0.0332  <S**2>=0.000
       7 -> 18        -0.22628
       8 -> 19        -0.11446
       8 -> 20         0.12013
       9 -> 23        -0.15455
      12 -> 29         0.12575
      12 -> 30         0.56663
      12 -> 32        -0.13557

 Excited State  72:      Singlet-A"    17.1720 eV   72.20 nm  f=0.0035  <S**2>=0.000
       6 -> 13         0.18490
       9 -> 22        -0.13454
      11 -> 28         0.62953
      12 -> 31         0.15799

 Excited State  73:      Singlet-A"    17.3045 eV   71.65 nm  f=0.2002  <S**2>=0.000
       6 -> 13         0.28464
       8 -> 23        -0.11722
       9 -> 24         0.17015
      11 -> 28        -0.22442
      12 -> 31         0.53781

 Excited State  74:      Singlet-A'    17.3154 eV   71.60 nm  f=0.0273  <S**2>=0.000
       8 -> 22         0.13164
       9 -> 23         0.57589
      10 -> 25         0.25076
      12 -> 32        -0.18212

 Excited State  75:      Singlet-A'    17.4256 eV   71.15 nm  f=0.0042  <S**2>=0.000
       7 -> 19         0.63573
       7 -> 20         0.12121
       8 -> 22        -0.10209
      10 -> 25        -0.19244

 Excited State  76:      Singlet-A'    17.5723 eV   70.56 nm  f=0.1039  <S**2>=0.000
       7 -> 19         0.20086
       8 -> 22         0.12053
       9 -> 23        -0.30735
      10 -> 25         0.55850

 Excited State  77:      Singlet-A'    17.6301 eV   70.33 nm  f=0.0091  <S**2>=0.000
       7 -> 20         0.11796
       8 -> 22        -0.38946
       9 -> 23         0.10342
      10 -> 25         0.25345
      10 -> 27         0.17707
      12 -> 30         0.15480
      12 -> 32         0.41849

 Excited State  78:      Singlet-A"    17.6769 eV   70.14 nm  f=0.0267  <S**2>=0.000
       6 -> 13        -0.11438
       8 -> 23         0.10708
       9 -> 24         0.63159
      11 -> 30         0.19225

 Excited State  79:      Singlet-A'    17.8266 eV   69.55 nm  f=0.0245  <S**2>=0.000
       7 -> 18         0.13420
       7 -> 19        -0.13510
       7 -> 20         0.65243
       8 -> 22         0.11343

 Excited State  80:      Singlet-A'    17.8496 eV   69.46 nm  f=0.0399  <S**2>=0.000
       6 -> 14         0.15362
       8 -> 22         0.49788
       8 -> 24         0.10117
      12 -> 30         0.13117
      12 -> 32         0.37075

 Excited State  81:      Singlet-A"    17.9764 eV   68.97 nm  f=0.0004  <S**2>=0.000
       7 -> 21         0.13388
       9 -> 24        -0.13090
      11 -> 29         0.58742
      11 -> 30         0.22240
      11 -> 32        -0.22991

 Excited State  82:      Singlet-A'    18.0041 eV   68.86 nm  f=0.1136  <S**2>=0.000
       6 -> 14        -0.39355
       8 -> 22         0.14493
      10 -> 27         0.52584

 Excited State  83:      Singlet-A"    18.0181 eV   68.81 nm  f=0.0002  <S**2>=0.000
       7 -> 21         0.65331
      11 -> 29        -0.21870
      11 -> 30         0.11377

 Excited State  84:      Singlet-A"    18.0359 eV   68.74 nm  f=0.0004  <S**2>=0.000
       7 -> 21        -0.21251
       9 -> 24        -0.13879
      11 -> 29        -0.28922
      11 -> 30         0.53574
      11 -> 32        -0.20928

 Excited State  85:      Singlet-A'    18.2270 eV   68.02 nm  f=0.0731  <S**2>=0.000
       6 -> 14         0.45237
       8 -> 24        -0.13495
      10 -> 27         0.23884
      11 -> 31        -0.42253

 Excited State  86:      Singlet-A"    18.2884 eV   67.79 nm  f=0.1527  <S**2>=0.000
       6 -> 13         0.12889
       8 -> 23         0.40834
       9 -> 24        -0.10513
      10 -> 26         0.52088

 Excited State  87:      Singlet-A"    18.3610 eV   67.53 nm  f=0.0000  <S**2>=0.000
       7 -> 23        -0.10853
       8 -> 23         0.50203
      10 -> 26        -0.43934
      11 -> 32         0.16042

 Excited State  88:      Singlet-A"    18.4082 eV   67.35 nm  f=0.0000  <S**2>=0.000
       8 -> 23        -0.17827
      11 -> 29         0.11116
      11 -> 30         0.30117
      11 -> 32         0.58565

 Excited State  89:      Singlet-A'    18.4377 eV   67.25 nm  f=0.0033  <S**2>=0.000
       6 -> 14         0.21490
       7 -> 22         0.16036
      10 -> 27         0.17333
      11 -> 31         0.36070
      12 -> 33         0.46847

 Excited State  90:      Singlet-A'    18.5481 eV   66.84 nm  f=0.0540  <S**2>=0.000
       7 -> 22        -0.14609
       8 -> 24         0.37814
      10 -> 27        -0.10932
      11 -> 31        -0.32511
      12 -> 33         0.43108

 Excited State  91:      Singlet-A'    18.7257 eV   66.21 nm  f=0.0478  <S**2>=0.000
       7 -> 22         0.64945
       8 -> 24         0.18894
      11 -> 31        -0.10604

 Excited State  92:      Singlet-A"    18.7367 eV   66.17 nm  f=0.0141  <S**2>=0.000
       9 -> 25         0.69756

 Excited State  93:      Singlet-A'    18.8698 eV   65.71 nm  f=0.0878  <S**2>=0.000
       6 -> 14         0.13787
       6 -> 15         0.16520
       7 -> 24         0.14860
       8 -> 24         0.50423
      10 -> 27         0.17402
      11 -> 31         0.18253
      12 -> 33        -0.21550

 Excited State  94:      Singlet-A"    18.9762 eV   65.34 nm  f=0.0384  <S**2>=0.000
       7 -> 23         0.66511
       9 -> 27         0.14010

 Excited State  95:      Singlet-A'    19.0513 eV   65.08 nm  f=0.0029  <S**2>=0.000
       6 -> 15         0.65561
       8 -> 24        -0.10503

 Excited State  96:      Singlet-A'    19.2729 eV   64.33 nm  f=0.0637  <S**2>=0.000
      10 -> 28         0.65843

 Excited State  97:      Singlet-A"    19.3008 eV   64.24 nm  f=0.0271  <S**2>=0.000
       7 -> 23        -0.13337
       9 -> 27         0.64814
       9 -> 32        -0.11288
      11 -> 33         0.11470

 Excited State  98:      Singlet-A"    19.4384 eV   63.78 nm  f=0.0132  <S**2>=0.000
      12 -> 34         0.69563

 Excited State  99:      Singlet-A'    19.6471 eV   63.11 nm  f=0.0088  <S**2>=0.000
       8 -> 25         0.12632
       9 -> 26         0.67026
      10 -> 29        -0.10211

 Excited State 100:      Singlet-A"    19.6540 eV   63.08 nm  f=0.0130  <S**2>=0.000
       9 -> 27        -0.10017
      11 -> 33         0.68425

 Excited State 101:      Singlet-A'    19.7536 eV   62.77 nm  f=0.0865  <S**2>=0.000
       7 -> 24         0.44452
       8 -> 25         0.48892
      10 -> 29         0.10898
      10 -> 30         0.13129
      10 -> 32        -0.10801

 Excited State 102:      Singlet-A'    19.8438 eV   62.48 nm  f=0.0896  <S**2>=0.000
       7 -> 24         0.47370
       8 -> 25        -0.45967

 Excited State 103:      Singlet-A'    20.0206 eV   61.93 nm  f=0.0040  <S**2>=0.000
      10 -> 29         0.47476
      10 -> 30        -0.19382
      12 -> 35        -0.44794

 Excited State 104:      Singlet-A'    20.0333 eV   61.89 nm  f=0.0070  <S**2>=0.000
       8 -> 25        -0.11716
       9 -> 26         0.10789
      10 -> 29         0.47978
      10 -> 30         0.16490
      10 -> 32        -0.10161
      12 -> 35         0.40777

 Excited State 105:      Singlet-A"    20.1686 eV   61.47 nm  f=0.0046  <S**2>=0.000
       6 -> 17         0.68961

 Excited State 106:      Singlet-A'    20.1932 eV   61.40 nm  f=0.0103  <S**2>=0.000
       6 -> 16         0.67264

 Excited State 107:      Singlet-A'    20.2860 eV   61.12 nm  f=0.1008  <S**2>=0.000
       7 -> 24        -0.10606
       7 -> 25        -0.15276
       8 -> 27        -0.25116
      10 -> 30         0.47554
      10 -> 32        -0.20018
      12 -> 35        -0.22181

 The electronic state is 1-A'.
 Alpha  occ. eigenvalues --  -19.28710 -19.22983 -10.38282  -1.15231  -1.06155
 Alpha  occ. eigenvalues --   -0.69724  -0.55262  -0.51832  -0.48473  -0.43546
 Alpha  occ. eigenvalues --   -0.36277  -0.31946
 Alpha virt. eigenvalues --   -0.01185   0.01933   0.04645   0.09153   0.09517
 Alpha virt. eigenvalues --    0.12271   0.13478   0.14823   0.15439   0.18083
 Alpha virt. eigenvalues --    0.20748   0.22257   0.25871   0.28962   0.29208

 Mulliken charges:
               1
     1  O   -0.284019
     2  C    0.696316
     3  O   -0.387803
     4  H    0.178395
     5  H   -0.202889
 Sum of Mulliken charges =  -0.00000

 Dipole moment (field-independent basis, Debye):
    X=             -1.5459    Y=             -0.3101    Z=             -0.0000  Tot=              1.5767
 Quadrupole moment (field-independent basis, Debye-Ang):
   XX=            -22.2949   YY=            -12.9442   ZZ=            -17.1532
   XY=             -0.0081   XZ=              0.0000   YZ=             -0.0000

 1\1\GINC-HEL13\SP\RPBE1PBE TD-FC\Gen\C1H2O2\SABYASACHI\21-Mar-2022\0\\
 #P TD(Nstates=10000) pbe1pbe/Gen SCF(maxcycles=100) Int(Grid=ultrafine
 )\\xGDB7_00001_tier4.com\\0,1\O,0,-1.023804,-0.438792,0.\C,0,0.,0.4189
 52,0.\O,0,1.152985,0.109983,0.\H,0,-0.656942,-1.333012,0.\H,0,-0.37649
 9,1.44977,0.\\Version=EM64L-G16RevC.01\State=1-A'\HF=-189.432874\RMSD=
 2.869e-09\PG=CS [SG(C1H2O2)]\\@
 The archive entry for this job was punched.

 Normal termination of Gaussian 16 at Mon Mar 21 04:16:07 2022.
