 Gaussian 16, Revision C.01,
 Gaussian 16:  EM64L-G16RevC.01  3-Jul-2019

 ----------------------------------------------------------------------
 #P TD(Nstates=10000) pbe1pbe/Gen SCF(maxcycles=100) Int(Grid=ultrafine
 )
 ----------------------------------------------------------------------

 ---------------------
 xGDB7_00001_tier4.com
 ---------------------
 Symbolic Z-matrix:
 Charge =  0 Multiplicity = 1

                         Standard orientation:
 ---------------------------------------------------------------------
 Center     Atomic      Atomic             Coordinates (Angstroms)
 Number     Number       Type             X           Y           Z
 ---------------------------------------------------------------------
      1          6           0        0.630149   -0.000001   -0.000003
      2          9           0       -0.748512    0.000002    0.000001
      3          1           0        0.985250    0.897475   -0.509314
      4          1           0        0.985222   -0.889832   -0.522562
      5          1           0        0.985245   -0.007652    1.031883
 ---------------------------------------------------------------------

 SCF Done:  E(RPBE1PBE) =  -139.497822583     A.U. after   11 cycles

 Excitation energies and oscillator strengths:

 Excited State   1:      Singlet-A      9.3580 eV  132.49 nm  f=0.0259  <S**2>=0.000
       9 -> 10         0.68037
       9 -> 11        -0.18622
 This state for optimization and/or second-order correction.
 Total Energy, E(TD-HF/TD-DFT) =  -139.153920803
 Copying the excited state density for this state as the 1-particle RhoCI density.

 Excited State   2:      Singlet-A      9.3581 eV  132.49 nm  f=0.0259  <S**2>=0.000
       8 -> 10         0.68037
       8 -> 11        -0.18622

 Excited State   3:      Singlet-A      9.9369 eV  124.77 nm  f=0.0207  <S**2>=0.000
       9 -> 10         0.18817
       9 -> 11         0.67584

 Excited State   4:      Singlet-A      9.9370 eV  124.77 nm  f=0.0207  <S**2>=0.000
       8 -> 10         0.18817
       8 -> 11         0.67584

 Excited State   5:      Singlet-A     11.3768 eV  108.98 nm  f=0.0408  <S**2>=0.000
       8 -> 12         0.28365
       8 -> 13         0.40681
       9 -> 12         0.41346
       9 -> 13        -0.28245

 Excited State   6:      Singlet-A     11.3768 eV  108.98 nm  f=0.0408  <S**2>=0.000
       8 -> 12        -0.40966
       8 -> 13         0.28049
       9 -> 12         0.28559
       9 -> 13         0.41065

 Excited State   7:      Singlet-A     11.3812 eV  108.94 nm  f=0.0000  <S**2>=0.000
       8 -> 13         0.49297
       9 -> 12        -0.48443

 Excited State   8:      Singlet-A     11.6279 eV  106.63 nm  f=0.1156  <S**2>=0.000
       8 -> 12         0.48308
       9 -> 13         0.48302

 Excited State   9:      Singlet-A     12.4282 eV   99.76 nm  f=0.0000  <S**2>=0.000
       8 -> 15         0.49695
       9 -> 16         0.49700

 Excited State  10:      Singlet-A     12.5519 eV   98.78 nm  f=0.0242  <S**2>=0.000
       8 -> 16        -0.15086
       9 -> 14         0.65709
       9 -> 15        -0.15083

 Excited State  11:      Singlet-A     12.5520 eV   98.78 nm  f=0.0242  <S**2>=0.000
       8 -> 14         0.65701
       8 -> 15         0.15119
       9 -> 16        -0.15083

 Excited State  12:      Singlet-A     12.7451 eV   97.28 nm  f=0.0065  <S**2>=0.000
       8 -> 16        -0.48813
       9 -> 15         0.48847

 Excited State  13:      Singlet-A     12.8270 eV   96.66 nm  f=0.0876  <S**2>=0.000
       6 -> 11        -0.10434
       8 -> 14         0.22214
       8 -> 15        -0.42266
       8 -> 16         0.17104
       9 -> 15         0.17093
       9 -> 16         0.42272

 Excited State  14:      Singlet-A     12.8270 eV   96.66 nm  f=0.0876  <S**2>=0.000
       7 -> 11        -0.10434
       8 -> 15         0.17096
       8 -> 16         0.42292
       9 -> 14         0.22191
       9 -> 15         0.42259
       9 -> 16        -0.17100

 Excited State  15:      Singlet-A     13.1943 eV   93.97 nm  f=0.1437  <S**2>=0.000
       7 -> 10         0.68383

 Excited State  16:      Singlet-A     13.1944 eV   93.97 nm  f=0.1437  <S**2>=0.000
       6 -> 10         0.68383

 Excited State  17:      Singlet-A     13.4445 eV   92.22 nm  f=0.0035  <S**2>=0.000
       8 -> 17        -0.49192
       9 -> 18         0.49194

 Excited State  18:      Singlet-A     13.4445 eV   92.22 nm  f=0.0035  <S**2>=0.000
       8 -> 18         0.48915
       9 -> 17         0.49470

 Excited State  19:      Singlet-A     13.4534 eV   92.16 nm  f=0.0000  <S**2>=0.000
       8 -> 18         0.49813
       9 -> 17        -0.49259

 Excited State  20:      Singlet-A     13.5426 eV   91.55 nm  f=0.0002  <S**2>=0.000
       5 -> 10         0.67548
       8 -> 17         0.13553
       9 -> 18         0.13553

 Excited State  21:      Singlet-A     13.7814 eV   89.96 nm  f=0.0101  <S**2>=0.000
       7 -> 11         0.67548

 Excited State  22:      Singlet-A     13.7815 eV   89.96 nm  f=0.0101  <S**2>=0.000
       6 -> 11         0.67548

 Excited State  23:      Singlet-A     13.8103 eV   89.78 nm  f=0.0043  <S**2>=0.000
       5 -> 10        -0.14033
       5 -> 11         0.37992
       8 -> 17         0.38861
       9 -> 18         0.38861

 Excited State  24:      Singlet-A     14.6716 eV   84.51 nm  f=0.4880  <S**2>=0.000
       5 -> 11         0.56561
       5 -> 14         0.12697
       8 -> 17        -0.24095
       9 -> 18        -0.24095

 Excited State  25:      Singlet-A     15.0363 eV   82.46 nm  f=0.0063  <S**2>=0.000
       5 -> 13        -0.12636
       6 -> 12        -0.20624
       7 -> 13         0.20627
       9 -> 19         0.58976
       9 -> 20        -0.16602

 Excited State  26:      Singlet-A     15.0363 eV   82.46 nm  f=0.0063  <S**2>=0.000
       5 -> 12        -0.12635
       6 -> 13        -0.20622
       7 -> 12        -0.20646
       8 -> 19         0.58970
       8 -> 20        -0.16600

 Excited State  27:      Singlet-A     15.1173 eV   82.01 nm  f=0.0000  <S**2>=0.000
       6 -> 12         0.17708
       6 -> 13        -0.46049
       7 -> 12         0.46086
       7 -> 13         0.17711

 Excited State  28:      Singlet-A     15.1823 eV   81.66 nm  f=0.0491  <S**2>=0.000
       6 -> 12        -0.44623
       7 -> 13         0.44623
       9 -> 19        -0.26675

 Excited State  29:      Singlet-A     15.1824 eV   81.66 nm  f=0.0491  <S**2>=0.000
       6 -> 13         0.44643
       7 -> 12         0.44595
       8 -> 19         0.26686

 Excited State  30:      Singlet-A     15.3867 eV   80.58 nm  f=0.0391  <S**2>=0.000
       5 -> 12         0.67048
       5 -> 13        -0.16602
       8 -> 19         0.10176

 Excited State  31:      Singlet-A     15.3867 eV   80.58 nm  f=0.0391  <S**2>=0.000
       5 -> 12         0.16602
       5 -> 13         0.67048
       9 -> 19         0.10175

 Excited State  32:      Singlet-A     15.7639 eV   78.65 nm  f=0.0002  <S**2>=0.000
       6 -> 12         0.43349
       6 -> 13         0.16665
       7 -> 12        -0.16663
       7 -> 13         0.43345

 Excited State  33:      Singlet-A     16.1413 eV   76.81 nm  f=0.0306  <S**2>=0.000
       6 -> 16        -0.11912
       7 -> 14         0.31063
       7 -> 15        -0.11907
       9 -> 19         0.18483
       9 -> 20         0.56388

 Excited State  34:      Singlet-A     16.1413 eV   76.81 nm  f=0.0306  <S**2>=0.000
       6 -> 14         0.31052
       6 -> 15         0.11918
       7 -> 16        -0.11919
       8 -> 19         0.18483
       8 -> 20         0.56390

 Excited State  35:      Singlet-A     16.2220 eV   76.43 nm  f=0.0000  <S**2>=0.000
       6 -> 15         0.48308
       7 -> 16         0.48307

 Excited State  36:      Singlet-A     16.3939 eV   75.63 nm  f=0.0017  <S**2>=0.000
       5 -> 14         0.29023
       6 -> 16        -0.43586
       7 -> 15         0.43599

 Excited State  37:      Singlet-A     16.4940 eV   75.17 nm  f=0.0118  <S**2>=0.000
       7 -> 14         0.59557
       9 -> 20        -0.34428

 Excited State  38:      Singlet-A     16.4941 eV   75.17 nm  f=0.0118  <S**2>=0.000
       6 -> 14         0.59557
       8 -> 20        -0.34425

 Excited State  39:      Singlet-A     16.5619 eV   74.86 nm  f=0.0574  <S**2>=0.000
       5 -> 15         0.65936
       6 -> 16         0.13791
       7 -> 15         0.13794

 Excited State  40:      Singlet-A     16.5620 eV   74.86 nm  f=0.0573  <S**2>=0.000
       5 -> 16         0.65942
       6 -> 15         0.13783
       7 -> 16        -0.13782

 Excited State  41:      Singlet-A     16.7379 eV   74.07 nm  f=0.2488  <S**2>=0.000
       5 -> 16         0.19711
       6 -> 14         0.13955
       6 -> 15        -0.37697
       6 -> 16         0.18142
       7 -> 15         0.18135
       7 -> 16         0.37701
       8 -> 22        -0.14610
       9 -> 21        -0.14613

 Excited State  42:      Singlet-A     16.7380 eV   74.07 nm  f=0.2487  <S**2>=0.000
       5 -> 15        -0.19727
       6 -> 15         0.18137
       6 -> 16         0.37704
       7 -> 14         0.13932
       7 -> 15         0.37695
       7 -> 16        -0.18139
       8 -> 21        -0.14613
       9 -> 22         0.14614

 Excited State  43:      Singlet-A     16.8548 eV   73.56 nm  f=0.0019  <S**2>=0.000
       5 -> 14         0.57325
       6 -> 16         0.18565
       6 -> 17        -0.12656
       7 -> 15        -0.18567
       7 -> 18        -0.12652
       8 -> 21         0.11560
       9 -> 22         0.11563

 Excited State  44:      Singlet-A     16.8799 eV   73.45 nm  f=0.0211  <S**2>=0.000
       6 -> 17        -0.14435
       6 -> 18         0.16406
       7 -> 17         0.16415
       7 -> 18         0.14438
       8 -> 21        -0.42716
       9 -> 22         0.42727

 Excited State  45:      Singlet-A     16.8799 eV   73.45 nm  f=0.0211  <S**2>=0.000
       6 -> 17         0.16410
       6 -> 18         0.14430
       7 -> 17         0.14444
       7 -> 18        -0.16412
       8 -> 22         0.42707
       9 -> 21         0.42737

 Excited State  46:      Singlet-A     16.9667 eV   73.08 nm  f=0.0000  <S**2>=0.000
       6 -> 18         0.16067
       7 -> 17        -0.16052
       8 -> 21        -0.27046
       8 -> 22         0.38229
       9 -> 21        -0.38197
       9 -> 22        -0.27030

 Excited State  47:      Singlet-A     17.0825 eV   72.58 nm  f=0.3994  <S**2>=0.000
       5 -> 14        -0.13463
       6 -> 17         0.16421
       7 -> 18         0.16415
       8 -> 21         0.36789
       8 -> 22         0.26033
       9 -> 21        -0.26025
       9 -> 22         0.36786

 Excited State  48:      Singlet-A     17.3125 eV   71.62 nm  f=0.0000  <S**2>=0.000
       6 -> 17         0.11014
       6 -> 18        -0.45558
       7 -> 17         0.45655
       7 -> 18         0.11017
       8 -> 22         0.13574
       9 -> 21        -0.13606

 Excited State  49:      Singlet-A     17.3514 eV   71.45 nm  f=0.0195  <S**2>=0.000
       6 -> 17         0.29700
       7 -> 18        -0.29699
       8 -> 21        -0.12252
       9 -> 22         0.12248
       9 -> 23         0.49622

 Excited State  50:      Singlet-A     17.3514 eV   71.45 nm  f=0.0195  <S**2>=0.000
       6 -> 18         0.29777
       7 -> 17         0.29697
       8 -> 22        -0.12276
       8 -> 23         0.49564
       9 -> 21        -0.12254

 Excited State  51:      Singlet-A     17.3711 eV   71.37 nm  f=0.0498  <S**2>=0.000
       5 -> 18        -0.12016
       6 -> 17        -0.29105
       6 -> 18         0.12417
       7 -> 17         0.12385
       7 -> 18         0.29097
       8 -> 21         0.12092
       9 -> 22        -0.12085
       9 -> 23         0.46044

 Excited State  52:      Singlet-A     17.3711 eV   71.37 nm  f=0.0497  <S**2>=0.000
       5 -> 17        -0.12051
       6 -> 17        -0.12385
       6 -> 18        -0.29090
       7 -> 17        -0.29035
       7 -> 18         0.12403
       8 -> 22         0.12082
       8 -> 23         0.46100
       9 -> 21         0.12067

 Excited State  53:      Singlet-A     17.4621 eV   71.00 nm  f=0.0134  <S**2>=0.000
       5 -> 17         0.68147
       8 -> 23         0.14634

 Excited State  54:      Singlet-A     17.4621 eV   71.00 nm  f=0.0134  <S**2>=0.000
       5 -> 18         0.68152
       9 -> 23         0.14616

 Excited State  55:      Singlet-A     17.5744 eV   70.55 nm  f=0.0129  <S**2>=0.000
       5 -> 14         0.18983
       5 -> 19         0.15310
       6 -> 17         0.42602
       6 -> 18         0.10292
       7 -> 17        -0.10287
       7 -> 18         0.42598

 Excited State  56:      Singlet-A     18.1028 eV   68.49 nm  f=0.0034  <S**2>=0.000
       9 -> 24         0.70024

 Excited State  57:      Singlet-A     18.1029 eV   68.49 nm  f=0.0034  <S**2>=0.000
       8 -> 24         0.70024

 Excited State  58:      Singlet-A     18.2538 eV   67.92 nm  f=0.0000  <S**2>=0.000
       8 -> 25         0.48916
       9 -> 26         0.48922

 Excited State  59:      Singlet-A     18.4264 eV   67.29 nm  f=0.0299  <S**2>=0.000
       7 -> 19        -0.16318
       8 -> 25         0.28408
       8 -> 26         0.37269
       9 -> 25         0.37296
       9 -> 26        -0.28412

 Excited State  60:      Singlet-A     18.4264 eV   67.29 nm  f=0.0299  <S**2>=0.000
       6 -> 19         0.16316
       8 -> 25         0.37287
       8 -> 26        -0.28404
       9 -> 25        -0.28418
       9 -> 26        -0.37278

 Excited State  61:      Singlet-A     18.5387 eV   66.88 nm  f=0.0380  <S**2>=0.000
       4 -> 10         0.14471
       8 -> 26         0.46216
       9 -> 25        -0.46186

 Excited State  62:      Singlet-A     18.8523 eV   65.77 nm  f=0.0035  <S**2>=0.000
       7 -> 19         0.64861
       7 -> 20        -0.17556
       8 -> 26         0.10063
       9 -> 25         0.10060

 Excited State  63:      Singlet-A     18.8524 eV   65.77 nm  f=0.0035  <S**2>=0.000
       6 -> 19         0.64862
       6 -> 20        -0.17556
       8 -> 25        -0.10061
       9 -> 26         0.10060

 Excited State  64:      Singlet-A     19.1375 eV   64.79 nm  f=0.0140  <S**2>=0.000
       4 -> 10         0.64580
       5 -> 19         0.22147

 Excited State  65:      Singlet-A     19.5787 eV   63.33 nm  f=0.0129  <S**2>=0.000
       4 -> 11         0.31234
       5 -> 19        -0.22246
       8 -> 27         0.37810
       8 -> 28         0.15955
       9 -> 27         0.15969
       9 -> 28        -0.37808

 Excited State  66:      Singlet-A     19.6164 eV   63.20 nm  f=0.0000  <S**2>=0.000
       8 -> 27        -0.19374
       8 -> 28         0.45866
       9 -> 27         0.45922
       9 -> 28         0.19376

 Excited State  67:      Singlet-A     19.6989 eV   62.94 nm  f=0.0624  <S**2>=0.000
       6 -> 20         0.16172
       8 -> 27        -0.27423
       8 -> 28         0.39503
       9 -> 27        -0.39456
       9 -> 28        -0.27413

 Excited State  68:      Singlet-A     19.6989 eV   62.94 nm  f=0.0624  <S**2>=0.000
       7 -> 20        -0.16173
       8 -> 27         0.39476
       8 -> 28         0.27433
       9 -> 27        -0.27403
       9 -> 28         0.39484

 Excited State  69:      Singlet-A     19.8718 eV   62.39 nm  f=0.1611  <S**2>=0.000
       4 -> 11         0.56984
       5 -> 19         0.30272
       8 -> 27        -0.12140
       9 -> 28         0.12142

 Excited State  70:      Singlet-A     19.9371 eV   62.19 nm  f=0.0035  <S**2>=0.000
       7 -> 19         0.13253
       7 -> 20         0.56216
       9 -> 29         0.35885

 Excited State  71:      Singlet-A     19.9372 eV   62.19 nm  f=0.0035  <S**2>=0.000
       6 -> 19         0.13253
       6 -> 20         0.56217
       8 -> 29         0.35883

 Excited State  72:      Singlet-A     20.0610 eV   61.80 nm  f=0.0576  <S**2>=0.000
       7 -> 19        -0.10744
       7 -> 20        -0.33439
       9 -> 29         0.59727

 Excited State  73:      Singlet-A     20.0611 eV   61.80 nm  f=0.0576  <S**2>=0.000
       6 -> 19        -0.10744
       6 -> 20        -0.33437
       8 -> 29         0.59729

 Excited State  74:      Singlet-A     20.2200 eV   61.32 nm  f=0.0061  <S**2>=0.000
       4 -> 10        -0.11135
       4 -> 11        -0.15019
       5 -> 19         0.27768
       5 -> 20         0.55329
       8 -> 27         0.13376
       9 -> 28        -0.13377

 Excited State  75:      Singlet-A     20.6457 eV   60.05 nm  f=0.0352  <S**2>=0.000
       4 -> 10         0.13969
       4 -> 11         0.11600
       5 -> 19        -0.32977
       5 -> 20         0.36560
       6 -> 26        -0.15194
       7 -> 25         0.15195
       8 -> 27        -0.15870
       8 -> 31         0.12284
       9 -> 28         0.15870
       9 -> 32         0.12284

 Excited State  76:      Singlet-A     20.6983 eV   59.90 nm  f=0.0001  <S**2>=0.000
       6 -> 21        -0.49370
       7 -> 22         0.49400

 Excited State  77:      Singlet-A     20.6983 eV   59.90 nm  f=0.0001  <S**2>=0.000
       6 -> 22         0.49357
       7 -> 21         0.49412

 Excited State  78:      Singlet-A     20.7596 eV   59.72 nm  f=0.0000  <S**2>=0.000
       6 -> 21         0.35734
       6 -> 22        -0.34838
       7 -> 21         0.34788
       7 -> 22         0.35708

 Excited State  79:      Singlet-A     20.7984 eV   59.61 nm  f=0.0364  <S**2>=0.000
       5 -> 19        -0.10459
       5 -> 23         0.11283
       6 -> 21         0.32662
       6 -> 22         0.33522
       7 -> 21        -0.33490
       7 -> 22         0.32646

 Excited State  80:      Singlet-A     20.9289 eV   59.24 nm  f=0.0098  <S**2>=0.000
       4 -> 13        -0.19370
       5 -> 21        -0.19757
       5 -> 22         0.21719
       7 -> 23        -0.29362
       9 -> 30         0.52203

 Excited State  81:      Singlet-A     20.9289 eV   59.24 nm  f=0.0097  <S**2>=0.000
       4 -> 12        -0.19376
       5 -> 21         0.21742
       5 -> 22         0.19763
       6 -> 23        -0.29357
       8 -> 30         0.52192

 Excited State  82:      Singlet-A     20.9915 eV   59.06 nm  f=0.0984  <S**2>=0.000
       5 -> 21         0.61540
       7 -> 23        -0.11618
       8 -> 30        -0.20596
       9 -> 30         0.18089

 Excited State  83:      Singlet-A     20.9915 eV   59.06 nm  f=0.0984  <S**2>=0.000
       5 -> 22         0.61545
       6 -> 23         0.11619
       8 -> 30        -0.18099
       9 -> 30        -0.20578

 Excited State  84:      Singlet-A     21.0913 eV   58.78 nm  f=0.0091  <S**2>=0.000
       4 -> 12         0.58035
       4 -> 13        -0.23791
       5 -> 21         0.10890
       8 -> 30         0.21444
       9 -> 30        -0.13853

 Excited State  85:      Singlet-A     21.0913 eV   58.78 nm  f=0.0091  <S**2>=0.000
       4 -> 12         0.23792
       4 -> 13         0.58034
       5 -> 22         0.10892
       8 -> 30         0.13852
       9 -> 30         0.21442

 Excited State  86:      Singlet-A     21.2911 eV   58.23 nm  f=0.0325  <S**2>=0.000
       4 -> 13        -0.20207
       7 -> 23         0.60973
       9 -> 30         0.26652

 Excited State  87:      Singlet-A     21.2912 eV   58.23 nm  f=0.0325  <S**2>=0.000
       4 -> 12        -0.20200
       6 -> 23         0.60975
       8 -> 30         0.26653

 Excited State  88:      Singlet-A     21.5881 eV   57.43 nm  f=0.0075  <S**2>=0.000
       4 -> 14         0.11068
       5 -> 23         0.67365

 Excited State  89:      Singlet-A     21.8673 eV   56.70 nm  f=0.0017  <S**2>=0.000
       7 -> 24         0.68792

 Excited State  90:      Singlet-A     21.8674 eV   56.70 nm  f=0.0017  <S**2>=0.000
       6 -> 24         0.68791

 Excited State  91:      Singlet-A     21.9624 eV   56.45 nm  f=0.0000  <S**2>=0.000
       6 -> 25         0.47396
       7 -> 26         0.47402
       8 -> 32        -0.10768
       9 -> 31         0.10775

 Excited State  92:      Singlet-A     22.0727 eV   56.17 nm  f=0.0138  <S**2>=0.000
       5 -> 25        -0.11282
       6 -> 25        -0.22418
       6 -> 26        -0.14032
       7 -> 25        -0.14036
       7 -> 26         0.22408
       8 -> 31        -0.40826
       9 -> 32         0.40835

 Excited State  93:      Singlet-A     22.0727 eV   56.17 nm  f=0.0138  <S**2>=0.000
       5 -> 26        -0.11277
       6 -> 25        -0.14041
       6 -> 26         0.22409
       7 -> 25         0.22415
       7 -> 26         0.14021
       8 -> 32         0.40815
       9 -> 31         0.40851

 Excited State  94:      Singlet-A     22.1259 eV   56.04 nm  f=0.0000  <S**2>=0.000
       5 -> 24         0.27758
       8 -> 31        -0.26699
       8 -> 32         0.35914
       9 -> 31        -0.35886
       9 -> 32        -0.26691

 Excited State  95:      Singlet-A     22.1640 eV   55.94 nm  f=0.0003  <S**2>=0.000
       4 -> 15         0.51987
       5 -> 25        -0.37046
       6 -> 24         0.14712
       8 -> 31         0.13535
       9 -> 32        -0.13531

 Excited State  96:      Singlet-A     22.1641 eV   55.94 nm  f=0.0003  <S**2>=0.000
       4 -> 16         0.51989
       5 -> 26        -0.37049
       7 -> 24         0.14707
       8 -> 32        -0.13536
       9 -> 31        -0.13516

 Excited State  97:      Singlet-A     22.2024 eV   55.84 nm  f=0.0000  <S**2>=0.000
       5 -> 24         0.64202
       6 -> 25        -0.11403
       7 -> 26        -0.11407
       8 -> 31         0.10366
       8 -> 32        -0.13947
       9 -> 31         0.13938
       9 -> 32         0.10369

 Excited State  98:      Singlet-A     22.3747 eV   55.41 nm  f=0.0004  <S**2>=0.000
       4 -> 15         0.43729
       5 -> 25         0.53439

 Excited State  99:      Singlet-A     22.3748 eV   55.41 nm  f=0.0004  <S**2>=0.000
       4 -> 16         0.43726
       5 -> 26         0.53446

 Excited State 100:      Singlet-A     22.3969 eV   55.36 nm  f=0.0497  <S**2>=0.000
       4 -> 14         0.55131
       6 -> 26        -0.27061
       7 -> 25         0.27069

 Excited State 101:      Singlet-A     22.4843 eV   55.14 nm  f=0.1512  <S**2>=0.000
       4 -> 16         0.11671
       5 -> 26        -0.21587
       6 -> 25         0.29914
       6 -> 26        -0.25609
       7 -> 25        -0.25609
       7 -> 26        -0.29913
       8 -> 32         0.21222
       9 -> 31         0.21218

 The electronic state is 1-A.
 Alpha  occ. eigenvalues --  -24.76851 -10.30961  -1.21116  -0.71790  -0.51247
 Alpha  occ. eigenvalues --   -0.50427  -0.50427  -0.36548  -0.36547
 Alpha virt. eigenvalues --    0.03241   0.06741   0.10843   0.10843   0.15247
 Alpha virt. eigenvalues --    0.15613   0.15614   0.18495   0.18495   0.26502
 Alpha virt. eigenvalues --    0.28623   0.31349   0.31349   0.32986   0.35454

 Mulliken charges:
               1
     1  C    0.642361
     2  F   -0.504815
     3  H   -0.045836
     4  H   -0.045853
     5  H   -0.045857
 Sum of Mulliken charges =   0.00000

 Dipole moment (field-independent basis, Debye):
    X=              1.8513    Y=             -0.0000    Z=              0.0000  Tot=              1.8513
 Quadrupole moment (field-independent basis, Debye-Ang):
   XX=            -12.6690   YY=            -11.9185   ZZ=            -11.9186
   XY=              0.0000   XZ=              0.0000   YZ=              0.0000

 1\1\GINC-HEL24\SP\RPBE1PBE TD-FC\Gen\C1H3F1\SABYASACHI\21-Mar-2022\0\\
 #P TD(Nstates=10000) pbe1pbe/Gen SCF(maxcycles=100) Int(Grid=ultrafine
 )\\xGDB7_00001_tier4.com\\0,1\C,0,-0.630149,-0.000001,0.000003\F,0,0.7
 48512,0.000002,-0.000001\H,0,-0.98525,0.899676,0.505416\H,0,-0.985222,
 -0.887557,0.526417\H,0,-0.985245,-0.012128,-1.03184\\Version=EM64L-G16
 RevC.01\State=1-A\HF=-139.4978226\RMSD=1.378e-09\PG=C01 [X(C1H3F1)]\\@
 The archive entry for this job was punched.

 Normal termination of Gaussian 16 at Mon Mar 21 20:21:12 2022.
