 Gaussian 16, Revision C.01,
 Gaussian 16:  EM64L-G16RevC.01  3-Jul-2019

 ----------------------------------------------------------------------
 #P TD(Nstates=10000) pbe1pbe/Gen SCF(maxcycles=100) Int(Grid=ultrafine
 )
 ----------------------------------------------------------------------

 ---------------------
 xGDB7_00001_tier4.com
 ---------------------
 Symbolic Z-matrix:
 Charge =  0 Multiplicity = 1

                         Standard orientation:
 ---------------------------------------------------------------------
 Center     Atomic      Atomic             Coordinates (Angstroms)
 Number     Number       Type             X           Y           Z
 ---------------------------------------------------------------------
      1          6           0        0.000000    0.000000   -1.173653
      2          6           0        0.000000    0.000000    0.280989
      3          7           0        0.000000    0.000000    1.427442
      4          1           0        0.000000    1.024088   -1.545371
      5          1           0       -0.886886   -0.512044   -1.545371
      6          1           0        0.886886   -0.512044   -1.545371
 ---------------------------------------------------------------------

 SCF Done:  E(RPBE1PBE) =  -132.497751830     A.U. after   13 cycles

 Excitation energies and oscillator strengths:

 Excited state symmetry could not be determined.
 Excited State   1:      Singlet-?Sym    7.9367 eV  156.22 nm  f=0.0000  <S**2>=0.000
      10 -> 14        -0.49156
      11 -> 13         0.49156
 This state for optimization and/or second-order correction.
 Total Energy, E(TD-HF/TD-DFT) =  -132.206084698
 Copying the excited state density for this state as the 1-particle RhoCI density.

 Excited state symmetry could not be determined.
 Excited State   2:      Singlet-?Sym    8.3153 eV  149.10 nm  f=0.0018  <S**2>=0.000
      10 -> 13         0.49358
      11 -> 14        -0.49358

 Excited state symmetry could not be determined.
 Excited State   3:      Singlet-?Sym    8.3153 eV  149.10 nm  f=0.0018  <S**2>=0.000
      10 -> 14         0.49358
      11 -> 13         0.49358

 Excited State   4:      Singlet-E      8.6965 eV  142.57 nm  f=0.0010  <S**2>=0.000
      10 -> 12         0.70129

 Excited State   5:      Singlet-E      8.6965 eV  142.57 nm  f=0.0010  <S**2>=0.000
      11 -> 12         0.70129

 Excited State   6:      Singlet-E      9.4508 eV  131.19 nm  f=0.0159  <S**2>=0.000
       9 -> 13         0.69837

 Excited State   7:      Singlet-E      9.4508 eV  131.19 nm  f=0.0159  <S**2>=0.000
       9 -> 14         0.69837

 Excited State   8:      Singlet-A1     9.5898 eV  129.29 nm  f=0.0175  <S**2>=0.000
       9 -> 12         0.69911

 Excited State   9:      Singlet-E     10.5101 eV  117.97 nm  f=0.0667  <S**2>=0.000
      11 -> 15         0.70041

 Excited State  10:      Singlet-E     10.5101 eV  117.97 nm  f=0.0667  <S**2>=0.000
      10 -> 15         0.70041

 Excited state symmetry could not be determined.
 Excited State  11:      Singlet-?Sym   10.7683 eV  115.14 nm  f=0.5240  <S**2>=0.000
       9 -> 15         0.16714
      10 -> 13         0.37662
      10 -> 17        -0.28935
      11 -> 14         0.37662
      11 -> 16        -0.28935

 Excited state symmetry could not be determined.
 Excited State  12:      Singlet-?Sym   11.2856 eV  109.86 nm  f=0.0000  <S**2>=0.000
      10 -> 16        -0.47765
      11 -> 17         0.47765

 Excited state symmetry could not be determined.
 Excited State  13:      Singlet-?Sym   11.3235 eV  109.49 nm  f=0.0125  <S**2>=0.000
      10 -> 17        -0.49136
      11 -> 16         0.49136

 Excited state symmetry could not be determined.
 Excited State  14:      Singlet-?Sym   11.3235 eV  109.49 nm  f=0.0125  <S**2>=0.000
      10 -> 16         0.49136
      11 -> 17         0.49136

 Excited State  15:      Singlet-A1    11.4135 eV  108.63 nm  f=0.0001  <S**2>=0.000
       9 -> 15         0.65921
      10 -> 17         0.15245
      11 -> 16         0.15245

 Excited state symmetry could not be determined.
 Excited State  16:      Singlet-?Sym   11.9520 eV  103.74 nm  f=0.0000  <S**2>=0.000
      10 -> 16        -0.10308
      10 -> 18        -0.48349
      11 -> 17         0.10309
      11 -> 19         0.48351

 Excited State  17:      Singlet-E     11.9832 eV  103.47 nm  f=0.0205  <S**2>=0.000
      10 -> 19         0.20198
      10 -> 20         0.62903
      11 -> 18        -0.20198

 Excited State  18:      Singlet-E     11.9832 eV  103.47 nm  f=0.0205  <S**2>=0.000
      10 -> 18        -0.20198
      11 -> 19        -0.20197
      11 -> 20         0.62903

 Excited state symmetry could not be determined.
 Excited State  19:      Singlet-?Sym   12.0386 eV  102.99 nm  f=0.0005  <S**2>=0.000
      10 -> 17         0.16432
      10 -> 19         0.46604
      11 -> 16         0.16431
      11 -> 18         0.46601

 Excited state symmetry could not be determined.
 Excited State  20:      Singlet-?Sym   12.0708 eV  102.71 nm  f=0.0028  <S**2>=0.000
      10 -> 19        -0.44176
      10 -> 20         0.28889
      11 -> 18         0.44179

 Excited state symmetry could not be determined.
 Excited State  21:      Singlet-?Sym   12.0708 eV  102.71 nm  f=0.0028  <S**2>=0.000
      10 -> 18         0.44178
      11 -> 19         0.44177
      11 -> 20         0.28888

 Excited State  22:      Singlet-E     12.1628 eV  101.94 nm  f=0.1304  <S**2>=0.000
       7 -> 12         0.69739

 Excited State  23:      Singlet-E     12.1628 eV  101.94 nm  f=0.1304  <S**2>=0.000
       8 -> 12         0.69739

 Excited state symmetry could not be determined.
 Excited State  24:      Singlet-?Sym   12.2949 eV  100.84 nm  f=0.0000  <S**2>=0.000
       7 -> 13        -0.48865
       8 -> 14         0.48865

 Excited State  25:      Singlet-E     12.2984 eV  100.81 nm  f=0.0074  <S**2>=0.000
       9 -> 16         0.68895

 Excited State  26:      Singlet-E     12.2984 eV  100.81 nm  f=0.0074  <S**2>=0.000
       9 -> 17         0.68895

 Excited state symmetry could not be determined.
 Excited State  27:      Singlet-?Sym   12.3282 eV  100.57 nm  f=0.6271  <S**2>=0.000
       7 -> 14         0.22063
       8 -> 13         0.22063
       9 -> 15        -0.12919
       9 -> 20        -0.13986
       9 -> 23         0.11157
       9 -> 24         0.10455
      10 -> 13         0.23920
      10 -> 17         0.29703
      10 -> 19        -0.14400
      11 -> 14         0.23920
      11 -> 16         0.29703
      11 -> 18        -0.14400

 Excited state symmetry could not be determined.
 Excited State  28:      Singlet-?Sym   12.5152 eV   99.07 nm  f=0.0318  <S**2>=0.000
       7 -> 13         0.48370
       8 -> 14         0.48370

 Excited state symmetry could not be determined.
 Excited State  29:      Singlet-?Sym   12.5152 eV   99.07 nm  f=0.0318  <S**2>=0.000
       7 -> 14        -0.48370
       8 -> 13         0.48370

 Excited State  30:      Singlet-A1    12.8964 eV   96.14 nm  f=0.3053  <S**2>=0.000
       9 -> 20         0.68260

 Excited State  31:      Singlet-E     12.9644 eV   95.63 nm  f=0.0002  <S**2>=0.000
       9 -> 18         0.69857

 Excited State  32:      Singlet-E     12.9644 eV   95.63 nm  f=0.0002  <S**2>=0.000
       9 -> 19         0.69857

 Excited state symmetry could not be determined.
 Excited State  33:      Singlet-?Sym   13.4086 eV   92.47 nm  f=0.0157  <S**2>=0.000
       6 -> 12         0.18256
       6 -> 15         0.11799
       7 -> 14         0.38097
       8 -> 13         0.38097
       9 -> 23        -0.11381
       9 -> 24        -0.11048
      10 -> 13        -0.12414
      10 -> 22        -0.17973
      11 -> 14        -0.12414
      11 -> 21         0.17973

 Excited State  34:      Singlet-A1    13.5049 eV   91.81 nm  f=0.1179  <S**2>=0.000
       6 -> 12         0.67417
       7 -> 14        -0.11732
       8 -> 13        -0.11732

 Excited State  35:      Singlet-E     13.9039 eV   89.17 nm  f=0.0211  <S**2>=0.000
       6 -> 14         0.59733
       7 -> 15        -0.26609
      11 -> 23        -0.11969
      11 -> 24        -0.10560

 Excited State  36:      Singlet-E     13.9039 eV   89.17 nm  f=0.0211  <S**2>=0.000
       6 -> 13         0.59733
       8 -> 15        -0.26608
      10 -> 23        -0.11969
      10 -> 24        -0.10560

 Excited state symmetry could not be determined.
 Excited State  37:      Singlet-?Sym   13.9418 eV   88.93 nm  f=0.0000  <S**2>=0.000
       8 -> 15         0.27592
      10 -> 22         0.45215
      11 -> 21         0.45215

 Excited state symmetry could not be determined.
 Excited State  38:      Singlet-?Sym   13.9418 eV   88.93 nm  f=0.0000  <S**2>=0.000
       7 -> 15         0.27592
      10 -> 21         0.45215
      11 -> 22        -0.45215

 Excited state symmetry could not be determined.
 Excited State  39:      Singlet-?Sym   14.0257 eV   88.40 nm  f=0.0000  <S**2>=0.000
      10 -> 21         0.49513
      11 -> 22         0.49528

 Excited State  40:      Singlet-E     14.0261 eV   88.40 nm  f=0.0150  <S**2>=0.000
       6 -> 14         0.21333
       7 -> 15         0.57664
      10 -> 21        -0.19078
      11 -> 22         0.19041
      11 -> 23        -0.12808
      11 -> 24        -0.12397

 Excited State  41:      Singlet-E     14.0261 eV   88.40 nm  f=0.0150  <S**2>=0.000
       6 -> 13         0.21333
       8 -> 15         0.57664
      10 -> 22        -0.19060
      10 -> 23        -0.12808
      10 -> 24        -0.12397
      11 -> 21        -0.19060

 Excited State  42:      Singlet-E     14.5360 eV   85.29 nm  f=0.0097  <S**2>=0.000
       6 -> 14         0.16116
       7 -> 17         0.12409
       8 -> 16         0.12409
       9 -> 21         0.17826
      11 -> 23         0.51726
      11 -> 24         0.34115

 Excited State  43:      Singlet-E     14.5360 eV   85.29 nm  f=0.0097  <S**2>=0.000
       6 -> 13         0.16116
       7 -> 16         0.12409
       8 -> 17        -0.12409
       9 -> 22        -0.17826
      10 -> 23         0.51726
      10 -> 24         0.34115

 Excited state symmetry could not be determined.
 Excited State  44:      Singlet-?Sym   14.6067 eV   84.88 nm  f=0.0000  <S**2>=0.000
       7 -> 17         0.49318
       8 -> 16        -0.49318

 Excited state symmetry could not be determined.
 Excited State  45:      Singlet-?Sym   14.6503 eV   84.63 nm  f=0.0176  <S**2>=0.000
       6 -> 15         0.16526
       6 -> 20        -0.13148
       7 -> 14         0.11107
       8 -> 13         0.11106
       9 -> 23         0.19369
      10 -> 22         0.41144
      11 -> 21        -0.41143

 Excited state symmetry could not be determined.
 Excited State  46:      Singlet-?Sym   14.6539 eV   84.61 nm  f=0.0428  <S**2>=0.000
       7 -> 17         0.47342
       8 -> 16         0.47342
       9 -> 21        -0.11217
      11 -> 23        -0.11407

 Excited state symmetry could not be determined.
 Excited State  47:      Singlet-?Sym   14.6539 eV   84.61 nm  f=0.0428  <S**2>=0.000
       7 -> 16         0.47343
       8 -> 17        -0.47341
       9 -> 22         0.11217
      10 -> 23        -0.11407

 Excited State  48:      Singlet-E     14.8420 eV   83.54 nm  f=0.0406  <S**2>=0.000
       9 -> 22         0.64948
      10 -> 23         0.19648

 Excited State  49:      Singlet-E     14.8420 eV   83.54 nm  f=0.0406  <S**2>=0.000
       9 -> 21         0.64948
      11 -> 23        -0.19648

 Excited State  50:      Singlet-E     14.9797 eV   82.77 nm  f=0.0002  <S**2>=0.000
       9 -> 22         0.10244
      10 -> 23        -0.36718
      10 -> 24         0.58178

 Excited State  51:      Singlet-E     14.9797 eV   82.77 nm  f=0.0002  <S**2>=0.000
       9 -> 21        -0.10244
      11 -> 23        -0.36718
      11 -> 24         0.58178

 Excited state symmetry could not be determined.
 Excited State  52:      Singlet-?Sym   15.1274 eV   81.96 nm  f=0.0098  <S**2>=0.000
       6 -> 15        -0.22543
       6 -> 20        -0.13661
       7 -> 16         0.36561
       7 -> 18        -0.26099
       8 -> 17         0.36561
       8 -> 19        -0.26099

 Excited state symmetry could not be determined.
 Excited State  53:      Singlet-?Sym   15.1358 eV   81.91 nm  f=0.0000  <S**2>=0.000
       7 -> 19        -0.48740
       8 -> 18         0.48740

 Excited State  54:      Singlet-E     15.3154 eV   80.95 nm  f=0.0090  <S**2>=0.000
       7 -> 19         0.19237
       7 -> 20         0.62618
       8 -> 18         0.19237

 Excited State  55:      Singlet-E     15.3154 eV   80.95 nm  f=0.0090  <S**2>=0.000
       7 -> 18         0.19237
       8 -> 19        -0.19237
       8 -> 20         0.62618

 Excited State  56:      Singlet-A1    15.3725 eV   80.65 nm  f=0.0024  <S**2>=0.000
       6 -> 15         0.43298
       7 -> 16        -0.11817
       7 -> 18        -0.36374
       8 -> 17        -0.11817
       8 -> 19        -0.36373

 Excited State  57:      Singlet-A1    15.5912 eV   79.52 nm  f=0.1354  <S**2>=0.000
       6 -> 15        -0.25522
       9 -> 23         0.52525
       9 -> 24        -0.22657
      10 -> 26         0.13806
      11 -> 25        -0.13806

 Excited State  58:      Singlet-E     15.8061 eV   78.44 nm  f=0.2242  <S**2>=0.000
       6 -> 16         0.39582
       7 -> 19        -0.33796
       7 -> 20         0.26629
       8 -> 18        -0.33796

 Excited State  59:      Singlet-E     15.8061 eV   78.44 nm  f=0.2242  <S**2>=0.000
       6 -> 17         0.39582
       7 -> 18        -0.33796
       8 -> 19         0.33796
       8 -> 20         0.26629

 Excited State  60:      Singlet-A1    15.8182 eV   78.38 nm  f=0.1034  <S**2>=0.000
       6 -> 15         0.17842
       7 -> 16         0.11518
       7 -> 18         0.12277
       8 -> 17         0.11518
       8 -> 19         0.12278
       9 -> 23         0.17073
       9 -> 24         0.49093
      10 -> 26         0.21651
      11 -> 25        -0.21651

 Excited State  61:      Singlet-E     15.9862 eV   77.56 nm  f=0.0027  <S**2>=0.000
       6 -> 16         0.54294
       7 -> 19         0.20680
       8 -> 18         0.20680
      10 -> 25        -0.21759
      11 -> 26         0.21758

 Excited State  62:      Singlet-E     15.9862 eV   77.56 nm  f=0.0027  <S**2>=0.000
       6 -> 17         0.54294
       7 -> 18         0.20680
       8 -> 19        -0.20681
      10 -> 26        -0.21759
      11 -> 25        -0.21758

 Excited state symmetry could not be determined.
 Excited State  63:      Singlet-?Sym   16.0235 eV   77.38 nm  f=0.0000  <S**2>=0.000
      10 -> 25         0.48733
      11 -> 26         0.48733

 Excited state symmetry could not be determined.
 Excited State  64:      Singlet-?Sym   16.1190 eV   76.92 nm  f=0.0000  <S**2>=0.000
       6 -> 15        -0.24229
       7 -> 16        -0.20197
       8 -> 17        -0.20197
       9 -> 23        -0.23533
       9 -> 24         0.12934
      10 -> 22         0.11452
      10 -> 26         0.31144
      11 -> 21        -0.11452
      11 -> 25        -0.31144

 Excited State  65:      Singlet-A1    16.2279 eV   76.40 nm  f=0.0071  <S**2>=0.000
       6 -> 15        -0.22430
       7 -> 16        -0.11954
       7 -> 18        -0.13765
       8 -> 17        -0.11954
       8 -> 19        -0.13765
       9 -> 24         0.35377
      10 -> 26        -0.23704
      10 -> 29         0.22197
      11 -> 25         0.23704
      11 -> 28        -0.22197

 Excited state symmetry could not be determined.
 Excited State  66:      Singlet-?Sym   16.6174 eV   74.61 nm  f=0.4087  <S**2>=0.000
       6 -> 14         0.11685
       6 -> 16         0.16173
       7 -> 19         0.13642
       8 -> 18         0.13642
       9 -> 25        -0.12967
      10 -> 25         0.38455
      10 -> 28         0.14209
      11 -> 26        -0.38455
      11 -> 27        -0.10672
      11 -> 29        -0.14209

 Excited state symmetry could not be determined.
 Excited State  67:      Singlet-?Sym   16.6174 eV   74.61 nm  f=0.4087  <S**2>=0.000
       6 -> 13         0.11685
       6 -> 17         0.16173
       7 -> 18         0.13642
       8 -> 19        -0.13642
       9 -> 26         0.12967
      10 -> 26         0.38455
      10 -> 27        -0.10672
      10 -> 29         0.14210
      11 -> 25         0.38455
      11 -> 28         0.14209

 Excited State  68:      Singlet-E     16.6564 eV   74.44 nm  f=0.0176  <S**2>=0.000
       6 -> 19         0.68032
       9 -> 26        -0.13565

 Excited State  69:      Singlet-E     16.6564 eV   74.44 nm  f=0.0176  <S**2>=0.000
       6 -> 18         0.68032
       9 -> 25         0.13565

 Excited State  70:      Singlet-E     16.9586 eV   73.11 nm  f=0.0051  <S**2>=0.000
       6 -> 18        -0.12276
       9 -> 25         0.65688
      11 -> 27        -0.17342

 Excited State  71:      Singlet-E     16.9586 eV   73.11 nm  f=0.0051  <S**2>=0.000
       6 -> 19         0.12276
       9 -> 26         0.65688
      10 -> 27         0.17344

 Excited State  72:      Singlet-E     16.9708 eV   73.06 nm  f=0.0327  <S**2>=0.000
       9 -> 25         0.15009
      11 -> 27         0.65799

 Excited State  73:      Singlet-E     16.9708 eV   73.06 nm  f=0.0327  <S**2>=0.000
       9 -> 26        -0.15011
      10 -> 27         0.65798

 Excited state symmetry could not be determined.
 Excited State  74:      Singlet-?Sym   16.9763 eV   73.03 nm  f=0.0000  <S**2>=0.000
      10 -> 28         0.48273
      11 -> 29         0.48274

 Excited state symmetry could not be determined.
 Excited State  75:      Singlet-?Sym   17.1010 eV   72.50 nm  f=0.2186  <S**2>=0.000
      10 -> 26        -0.12821
      10 -> 27        -0.10387
      10 -> 29         0.43807
      10 -> 30        -0.14884
      11 -> 25        -0.12821
      11 -> 28         0.43807

 Excited state symmetry could not be determined.
 Excited State  76:      Singlet-?Sym   17.1010 eV   72.50 nm  f=0.2186  <S**2>=0.000
      10 -> 25        -0.12821
      10 -> 28         0.43807
      11 -> 26         0.12820
      11 -> 27        -0.10387
      11 -> 29        -0.43807
      11 -> 30        -0.14884

 Excited State  77:      Singlet-E     17.4253 eV   71.15 nm  f=0.0223  <S**2>=0.000
      11 -> 30         0.67715

 Excited State  78:      Singlet-E     17.4253 eV   71.15 nm  f=0.0223  <S**2>=0.000
      10 -> 30         0.67715

 Excited State  79:      Singlet-A1    17.5672 eV   70.58 nm  f=0.3797  <S**2>=0.000
       6 -> 20         0.59919
       7 -> 21        -0.17953
       8 -> 22         0.17953

 Excited State  80:      Singlet-E     17.6330 eV   70.31 nm  f=0.0026  <S**2>=0.000
      11 -> 31         0.69984

 Excited State  81:      Singlet-E     17.6330 eV   70.31 nm  f=0.0026  <S**2>=0.000
      10 -> 31         0.69984

 Excited state symmetry could not be determined.
 Excited State  82:      Singlet-?Sym   17.7115 eV   70.00 nm  f=0.0061  <S**2>=0.000
       7 -> 22         0.47687
       8 -> 21        -0.47687

 Excited state symmetry could not be determined.
 Excited State  83:      Singlet-?Sym   17.7115 eV   70.00 nm  f=0.0061  <S**2>=0.000
       7 -> 21         0.47687
       8 -> 22         0.47687

 Excited State  84:      Singlet-E     17.7764 eV   69.75 nm  f=0.0089  <S**2>=0.000
       9 -> 29         0.65437
       9 -> 33        -0.18090

 Excited State  85:      Singlet-E     17.7764 eV   69.75 nm  f=0.0089  <S**2>=0.000
       9 -> 28         0.65437
       9 -> 32        -0.18090

 Excited State  86:      Singlet-A1    17.7832 eV   69.72 nm  f=0.0251  <S**2>=0.000
       7 -> 21        -0.14339
       8 -> 22         0.14338
       9 -> 27         0.57854
      10 -> 29         0.16270
      10 -> 33         0.15447
      11 -> 28        -0.16270
      11 -> 32        -0.15447

 Excited state symmetry could not be determined.
 Excited State  87:      Singlet-?Sym   17.7913 eV   69.69 nm  f=0.0000  <S**2>=0.000
       7 -> 22         0.47511
       8 -> 21         0.47511
      10 -> 32         0.12128
      11 -> 33         0.12128

 Excited state symmetry could not be determined.
 Excited State  88:      Singlet-?Sym   17.8783 eV   69.35 nm  f=0.0139  <S**2>=0.000
       6 -> 20        -0.15717
       7 -> 21        -0.35295
       8 -> 22         0.35295
       9 -> 30         0.11154
      10 -> 29        -0.18542
      10 -> 33        -0.22667
      11 -> 28         0.18541
      11 -> 32         0.22667

 Excited state symmetry could not be determined.
 Excited State  89:      Singlet-?Sym   17.9455 eV   69.09 nm  f=0.0000  <S**2>=0.000
       7 -> 22        -0.13056
       8 -> 21        -0.13056
      10 -> 32         0.47714
      11 -> 33         0.47714

 Excited state symmetry could not be determined.
 Excited State  90:      Singlet-?Sym   18.0278 eV   68.77 nm  f=0.0527  <S**2>=0.000
       8 -> 24         0.11142
       9 -> 29        -0.10279
      10 -> 33         0.46978
      11 -> 32         0.46978

 Excited state symmetry could not be determined.
 Excited State  91:      Singlet-?Sym   18.0278 eV   68.77 nm  f=0.0527  <S**2>=0.000
       7 -> 24         0.11142
       9 -> 28         0.10279
      10 -> 32         0.46978
      11 -> 33        -0.46977

 Excited State  92:      Singlet-A1    18.0702 eV   68.61 nm  f=0.0234  <S**2>=0.000
       6 -> 20         0.10799
       7 -> 21         0.24836
       8 -> 22        -0.24836
       9 -> 27         0.36436
       9 -> 30         0.19613
      10 -> 29        -0.23485
      11 -> 28         0.23485

 Excited State  93:      Singlet-A1    18.3723 eV   67.48 nm  f=0.0197  <S**2>=0.000
       9 -> 27        -0.12474
       9 -> 30         0.51693
      10 -> 33         0.29033
      11 -> 32        -0.29033

 Excited State  94:      Singlet-E     18.4582 eV   67.17 nm  f=0.1085  <S**2>=0.000
       7 -> 23         0.27796
       7 -> 24         0.61992

 Excited State  95:      Singlet-E     18.4582 eV   67.17 nm  f=0.1085  <S**2>=0.000
       8 -> 23         0.27796
       8 -> 24         0.61992

 Excited State  96:      Singlet-A2    18.5899 eV   66.69 nm  f=0.0000  <S**2>=0.000
       9 -> 31         0.70663

 Excited State  97:      Singlet-A1    18.6469 eV   66.49 nm  f=0.0587  <S**2>=0.000
       6 -> 20         0.13836
       9 -> 23        -0.15272
       9 -> 24        -0.10165
       9 -> 30         0.41272
      10 -> 29         0.20369
      10 -> 33        -0.23450
      11 -> 28        -0.20369
      11 -> 32         0.23450

 Excited State  98:      Singlet-E     18.7469 eV   66.14 nm  f=0.0400  <S**2>=0.000
       7 -> 23         0.62221
       7 -> 24        -0.26250
       9 -> 32        -0.15635

 Excited State  99:      Singlet-E     18.7469 eV   66.14 nm  f=0.0400  <S**2>=0.000
       8 -> 23         0.62220
       8 -> 24        -0.26250
       9 -> 33         0.15635

 Excited State 100:      Singlet-E     18.8585 eV   65.74 nm  f=0.0695  <S**2>=0.000
       7 -> 23         0.11162
       9 -> 28         0.19041
       9 -> 32         0.64241

 Excited State 101:      Singlet-E     18.8585 eV   65.74 nm  f=0.0695  <S**2>=0.000
       8 -> 23        -0.11162
       9 -> 29         0.19041
       9 -> 33         0.64240

 The electronic state is 1-A1.
 Alpha  occ. eigenvalues --  -14.39154 -10.29016 -10.27891  -0.93085  -0.79905
 Alpha  occ. eigenvalues --   -0.53331  -0.48421  -0.48421  -0.37841  -0.35131
 Alpha  occ. eigenvalues --   -0.35131
 Alpha virt. eigenvalues --    0.01454   0.03430   0.03430   0.08070   0.11431
 Alpha virt. eigenvalues --    0.11431   0.13786   0.13786   0.14386   0.22132
 Alpha virt. eigenvalues --    0.22132   0.24376   0.25144   0.30179   0.30179

 Mulliken charges:
               1
     1  C    0.167597
     2  C   -0.268546
     3  N   -0.104575
     4  H    0.068508
     5  H    0.068508
     6  H    0.068508
 Sum of Mulliken charges =  -0.00000

 Dipole moment (field-independent basis, Debye):
    X=             -0.0000    Y=              0.0000    Z=             -4.0132  Tot=              4.0132
 Quadrupole moment (field-independent basis, Debye-Ang):
   XX=            -17.5429   YY=            -17.5429   ZZ=            -20.8784
   XY=             -0.0000   XZ=              0.0000   YZ=             -0.0000

 1\1\GINC-HEL24\SP\RPBE1PBE TD-FC\Gen\C2H3N1\SABYASACHI\21-Mar-2022\0\\
 #P TD(Nstates=10000) pbe1pbe/Gen SCF(maxcycles=100) Int(Grid=ultrafine
 )\\xGDB7_00001_tier4.com\\0,1\C,0,0.,0.,-1.173653\C,0,0.,0.,0.280989\N
 ,0,0.,0.,1.427442\H,0,0.,1.024088,-1.545371\H,0,-0.886886,-0.512044,-1
 .545371\H,0,0.886886,-0.512044,-1.545371\\Version=EM64L-G16RevC.01\Sta
 te=1-A1\HF=-132.4977518\RMSD=1.930e-09\PG=C03V [C3(C1C1N1),3SGV(H1)]\\
 @
 The archive entry for this job was punched.

 Normal termination of Gaussian 16 at Mon Mar 21 20:21:39 2022.
