 Gaussian 16, Revision C.01,
 Gaussian 16:  EM64L-G16RevC.01  3-Jul-2019

 ----------------------------------------------------------------------
 #P TD(Nstates=10000) pbe1pbe/Gen SCF(maxcycles=100) Int(Grid=ultrafine
 )
 ----------------------------------------------------------------------

 ---------------------
 xGDB7_00001_tier4.com
 ---------------------
 Symbolic Z-matrix:
 Charge =  0 Multiplicity = 1

                         Standard orientation:
 ---------------------------------------------------------------------
 Center     Atomic      Atomic             Coordinates (Angstroms)
 Number     Number       Type             X           Y           Z
 ---------------------------------------------------------------------
      1          6           0        0.000000    0.865978    0.000000
      2          6           0        0.749967   -0.432983    0.000000
      3          6           0       -0.749954   -0.432999    0.000000
      4          1           0       -0.000033    1.451806   -0.909176
      5          1           0       -0.000033    1.451806    0.909176
      6          1           0        1.257295   -0.725894    0.909177
      7          1           0        1.257295   -0.725894   -0.909177
      8          1           0       -1.257302   -0.725899    0.909179
      9          1           0       -1.257302   -0.725899   -0.909179
 ---------------------------------------------------------------------

 SCF Done:  E(RPBE1PBE) =  -117.670770681     A.U. after   10 cycles

 Excitation energies and oscillator strengths:

 Excited State   1:      Singlet-A'     8.1897 eV  151.39 nm  f=0.0008  <S**2>=0.000
      12 -> 13         0.70414
 This state for optimization and/or second-order correction.
 Total Energy, E(TD-HF/TD-DFT) =  -117.369803765
 Copying the excited state density for this state as the 1-particle RhoCI density.

 Excited State   2:      Singlet-A'     8.1899 eV  151.39 nm  f=0.0008  <S**2>=0.000
      11 -> 13         0.70414

 Excited State   3:      Singlet-A'     8.8096 eV  140.74 nm  f=0.0000  <S**2>=0.000
      11 -> 14         0.46377
      11 -> 15        -0.18306
      12 -> 14         0.18348
      12 -> 15         0.46436

 Excited State   4:      Singlet-A'     8.8814 eV  139.60 nm  f=0.0000  <S**2>=0.000
      11 -> 14        -0.18289
      11 -> 15        -0.46210
      12 -> 14         0.46562
      12 -> 15        -0.18350

 Excited State   5:      Singlet-A'     8.9118 eV  139.12 nm  f=0.0977  <S**2>=0.000
      11 -> 14         0.38648
      11 -> 15         0.31504
      12 -> 14         0.31260
      12 -> 15        -0.38530

 Excited State   6:      Singlet-A'     8.9118 eV  139.12 nm  f=0.0977  <S**2>=0.000
      11 -> 14        -0.31371
      11 -> 15         0.38711
      12 -> 14         0.38467
      12 -> 15         0.31392

 Excited State   7:      Singlet-A"     8.9875 eV  137.95 nm  f=0.0000  <S**2>=0.000
      12 -> 16         0.70397

 Excited State   8:      Singlet-A"     8.9876 eV  137.95 nm  f=0.0000  <S**2>=0.000
      11 -> 16         0.70397

 Excited State   9:      Singlet-A"     9.8985 eV  125.26 nm  f=0.0000  <S**2>=0.000
      10 -> 13         0.69018

 Excited State  10:      Singlet-A"     9.8986 eV  125.25 nm  f=0.0000  <S**2>=0.000
       9 -> 13         0.69018

 Excited State  11:      Singlet-A'    10.2790 eV  120.62 nm  f=0.0042  <S**2>=0.000
      12 -> 17         0.69919

 Excited State  12:      Singlet-A'    10.2792 eV  120.62 nm  f=0.0042  <S**2>=0.000
      11 -> 17         0.69919

 Excited State  13:      Singlet-A"    10.5895 eV  117.08 nm  f=0.1923  <S**2>=0.000
       9 -> 14        -0.48340
       9 -> 15         0.11833
      10 -> 14         0.11864
      10 -> 15         0.48380

 Excited State  14:      Singlet-A"    10.6421 eV  116.50 nm  f=0.0000  <S**2>=0.000
       9 -> 13        -0.13953
       9 -> 14         0.48479
      10 -> 15         0.48436

 Excited State  15:      Singlet-A"    10.6421 eV  116.50 nm  f=0.0000  <S**2>=0.000
       9 -> 15        -0.48376
      10 -> 13         0.13951
      10 -> 14         0.48541

 Excited State  16:      Singlet-A"    10.6791 eV  116.10 nm  f=0.0000  <S**2>=0.000
       9 -> 14         0.11805
       9 -> 15         0.48240
      10 -> 14         0.48067
      10 -> 15        -0.11792

 Excited State  17:      Singlet-A'    10.9443 eV  113.29 nm  f=0.3213  <S**2>=0.000
      10 -> 16         0.58566
      12 -> 18         0.35599

 Excited State  18:      Singlet-A'    10.9444 eV  113.29 nm  f=0.3212  <S**2>=0.000
       9 -> 16         0.58572
      11 -> 18        -0.35589

 Excited State  19:      Singlet-A'    11.0660 eV  112.04 nm  f=0.0262  <S**2>=0.000
      10 -> 16        -0.37821
      12 -> 18         0.56746

 Excited State  20:      Singlet-A'    11.0661 eV  112.04 nm  f=0.0262  <S**2>=0.000
       9 -> 16         0.37812
      11 -> 18         0.56753

 Excited State  21:      Singlet-A"    11.2441 eV  110.27 nm  f=0.0000  <S**2>=0.000
      11 -> 19        -0.49717
      12 -> 20         0.49790

 Excited State  22:      Singlet-A"    11.3359 eV  109.37 nm  f=0.0000  <S**2>=0.000
      11 -> 19         0.43027
      11 -> 20        -0.24888
      12 -> 19         0.25000
      12 -> 20         0.42964

 Excited State  23:      Singlet-A"    11.3359 eV  109.37 nm  f=0.0000  <S**2>=0.000
      11 -> 19        -0.24962
      11 -> 20        -0.42898
      12 -> 19         0.43093
      12 -> 20        -0.24926

 Excited State  24:      Singlet-A"    11.3864 eV  108.89 nm  f=0.0154  <S**2>=0.000
      11 -> 20         0.49811
      12 -> 19         0.49587

 Excited State  25:      Singlet-A'    11.8663 eV  104.48 nm  f=0.0165  <S**2>=0.000
      11 -> 21        -0.48890
      12 -> 22         0.48961

 Excited State  26:      Singlet-A'    11.8664 eV  104.48 nm  f=0.0165  <S**2>=0.000
      11 -> 22         0.48202
      12 -> 21         0.49638

 Excited State  27:      Singlet-A'    11.8739 eV  104.42 nm  f=0.0000  <S**2>=0.000
      11 -> 22         0.49045
      12 -> 21        -0.47562

 Excited State  28:      Singlet-A"    12.0640 eV  102.77 nm  f=0.0000  <S**2>=0.000
       9 -> 18         0.11720
      10 -> 17         0.67335
      11 -> 25         0.14626

 Excited State  29:      Singlet-A"    12.0641 eV  102.77 nm  f=0.0000  <S**2>=0.000
       9 -> 17         0.67329
      10 -> 18        -0.11752
      12 -> 25         0.14630

 Excited State  30:      Singlet-A"    12.1274 eV  102.23 nm  f=0.0000  <S**2>=0.000
       9 -> 17         0.10917
      10 -> 18         0.68877

 Excited State  31:      Singlet-A"    12.1275 eV  102.23 nm  f=0.0000  <S**2>=0.000
       9 -> 18         0.68882
      10 -> 17        -0.10887

 Excited State  32:      Singlet-A'    12.1763 eV  101.82 nm  f=0.0000  <S**2>=0.000
       7 -> 16        -0.10905
       9 -> 19         0.16981
      10 -> 20         0.16982
      11 -> 21         0.44671
      12 -> 22         0.44653

 Excited State  33:      Singlet-A'    12.4879 eV   99.28 nm  f=0.0000  <S**2>=0.000
      11 -> 23         0.45860
      11 -> 24        -0.17300
      12 -> 23         0.17321
      12 -> 24         0.45896

 Excited State  34:      Singlet-A"    12.6152 eV   98.28 nm  f=0.0000  <S**2>=0.000
       9 -> 17        -0.15344
      12 -> 25         0.68543

 Excited State  35:      Singlet-A"    12.6154 eV   98.28 nm  f=0.0000  <S**2>=0.000
      10 -> 17        -0.15338
      11 -> 25         0.68544

 Excited State  36:      Singlet-A'    12.6267 eV   98.19 nm  f=0.0000  <S**2>=0.000
      11 -> 23        -0.17469
      11 -> 24        -0.46254
      12 -> 23         0.46546
      12 -> 24        -0.17546

 Excited State  37:      Singlet-A'    12.6624 eV   97.92 nm  f=0.0321  <S**2>=0.000
      11 -> 23         0.44851
      11 -> 24         0.19148
      12 -> 23         0.18980
      12 -> 24        -0.44761

 Excited State  38:      Singlet-A'    12.6624 eV   97.92 nm  f=0.0321  <S**2>=0.000
      11 -> 23        -0.19037
      11 -> 24         0.44925
      12 -> 23         0.44686
      12 -> 24         0.19092

 Excited State  39:      Singlet-A"    12.9345 eV   95.86 nm  f=0.0000  <S**2>=0.000
      11 -> 26        -0.48371
      11 -> 27        -0.10180
      12 -> 26        -0.10207
      12 -> 27         0.48442

 Excited State  40:      Singlet-A"    12.9345 eV   95.86 nm  f=0.0000  <S**2>=0.000
      11 -> 26        -0.10187
      11 -> 27         0.48346
      12 -> 26         0.48467
      12 -> 27         0.10200

 Excited State  41:      Singlet-A'    12.9607 eV   95.66 nm  f=0.0000  <S**2>=0.000
       8 -> 13         0.65169
       9 -> 19         0.18824
      10 -> 20         0.18828

 Excited State  42:      Singlet-A"    13.0198 eV   95.23 nm  f=0.0000  <S**2>=0.000
      11 -> 27         0.49535
      12 -> 26        -0.49411

 Excited State  43:      Singlet-A"    13.0253 eV   95.19 nm  f=0.0389  <S**2>=0.000
       7 -> 13        -0.10011
       9 -> 23         0.10231
      10 -> 24        -0.10230
      11 -> 26         0.47576
      12 -> 27         0.47502

 Excited State  44:      Singlet-A'    13.2145 eV   93.82 nm  f=0.0509  <S**2>=0.000
       9 -> 19         0.41956
       9 -> 20        -0.20414
      10 -> 19        -0.20464
      10 -> 20        -0.41951
      12 -> 28        -0.22618

 Excited State  45:      Singlet-A'    13.2145 eV   93.82 nm  f=0.0509  <S**2>=0.000
       9 -> 19         0.20433
       9 -> 20         0.41900
      10 -> 19         0.42016
      10 -> 20        -0.20448
      11 -> 28         0.22600

 Excited State  46:      Singlet-A'    13.2696 eV   93.43 nm  f=0.0000  <S**2>=0.000
       9 -> 20         0.49214
      10 -> 19        -0.49098

 Excited State  47:      Singlet-A'    13.4074 eV   92.47 nm  f=0.0432  <S**2>=0.000
       8 -> 14        -0.21119
       9 -> 19         0.14230
      10 -> 20        -0.14234
      12 -> 28         0.59948

 Excited State  48:      Singlet-A'    13.4075 eV   92.47 nm  f=0.0432  <S**2>=0.000
       8 -> 15         0.21130
       9 -> 20        -0.14227
      10 -> 19        -0.14212
      11 -> 28         0.59950

 Excited State  49:      Singlet-A"    13.5352 eV   91.60 nm  f=0.0000  <S**2>=0.000
       9 -> 21        -0.46577
       9 -> 22        -0.15779
      10 -> 21        -0.15816
      10 -> 22         0.46611

 Excited State  50:      Singlet-A"    13.5966 eV   91.19 nm  f=0.0000  <S**2>=0.000
       7 -> 15         0.13885
       9 -> 21         0.47685
      10 -> 22         0.47664

 Excited State  51:      Singlet-A"    13.5966 eV   91.19 nm  f=0.0000  <S**2>=0.000
       7 -> 14        -0.13886
       9 -> 22        -0.47650
      10 -> 21         0.47699

 Excited State  52:      Singlet-A'    13.6108 eV   91.09 nm  f=0.2853  <S**2>=0.000
       8 -> 14         0.65868
      12 -> 28         0.20980

 Excited State  53:      Singlet-A'    13.6108 eV   91.09 nm  f=0.2853  <S**2>=0.000
       8 -> 15         0.65865
      11 -> 28        -0.20990

 Excited State  54:      Singlet-A"    13.6666 eV   90.72 nm  f=0.0119  <S**2>=0.000
       7 -> 13        -0.24652
       8 -> 16         0.40974
       9 -> 21         0.11488
       9 -> 22        -0.33901
      10 -> 21        -0.33833
      10 -> 22        -0.11477

 Excited State  55:      Singlet-A'    13.6957 eV   90.53 nm  f=0.0000  <S**2>=0.000
       7 -> 16         0.19674
       8 -> 13        -0.24051
       9 -> 19         0.40634
      10 -> 20         0.40629
      11 -> 21        -0.14508
      12 -> 22        -0.14507

 Excited State  56:      Singlet-A"    13.7434 eV   90.21 nm  f=0.0256  <S**2>=0.000
       7 -> 13         0.53467
       8 -> 16        -0.19296
       9 -> 22        -0.27703
      10 -> 21        -0.27679

 Excited State  57:      Singlet-A"    13.7986 eV   89.85 nm  f=0.1900  <S**2>=0.000
       7 -> 13         0.36577
       8 -> 16         0.49800
       9 -> 22         0.17410
       9 -> 23         0.13708
      10 -> 21         0.17399
      10 -> 24        -0.13710

 Excited State  58:      Singlet-A"    14.3982 eV   86.11 nm  f=0.0000  <S**2>=0.000
       9 -> 24        -0.48710
      10 -> 23         0.48771

 Excited State  59:      Singlet-A"    14.3982 eV   86.11 nm  f=0.0000  <S**2>=0.000
       9 -> 23         0.48733
      10 -> 24         0.48742

 Excited State  60:      Singlet-A"    14.4051 eV   86.07 nm  f=0.0000  <S**2>=0.000
       7 -> 14         0.68490
       9 -> 22        -0.10438
      10 -> 21         0.10436

 Excited State  61:      Singlet-A"    14.4052 eV   86.07 nm  f=0.0000  <S**2>=0.000
       7 -> 15         0.68498
       9 -> 21        -0.10436
      10 -> 22        -0.10435

 Excited State  62:      Singlet-A"    14.5043 eV   85.48 nm  f=0.0000  <S**2>=0.000
       9 -> 23         0.11104
       9 -> 24         0.48543
      10 -> 23         0.48480
      10 -> 24        -0.11097

 Excited State  63:      Singlet-A'    14.5762 eV   85.06 nm  f=0.0000  <S**2>=0.000
       8 -> 18        -0.12119
       9 -> 26        -0.48601
      10 -> 27         0.48655

 Excited State  64:      Singlet-A'    14.5903 eV   84.98 nm  f=0.0607  <S**2>=0.000
       9 -> 26         0.14441
      10 -> 25         0.63661
      10 -> 27         0.14288
      11 -> 29         0.11655
      12 -> 30         0.11657

 Excited State  65:      Singlet-A'    14.5904 eV   84.98 nm  f=0.0607  <S**2>=0.000
       9 -> 25         0.63659
       9 -> 27        -0.14362
      10 -> 26         0.14374
      11 -> 30         0.11655
      12 -> 29        -0.11659

 Excited State  66:      Singlet-A"    14.7382 eV   84.12 nm  f=0.9158  <S**2>=0.000
       7 -> 17        -0.10465
       8 -> 16        -0.17661
       9 -> 23         0.43894
       9 -> 24        -0.10045
      10 -> 23        -0.10041
      10 -> 24        -0.43886
      11 -> 26        -0.11247
      12 -> 27        -0.11246

 Excited State  67:      Singlet-A'    14.7794 eV   83.89 nm  f=0.0000  <S**2>=0.000
       7 -> 16         0.47656
       8 -> 17        -0.37164
       9 -> 27        -0.23437
      10 -> 26        -0.23450

 Excited State  68:      Singlet-A'    14.8867 eV   83.29 nm  f=0.0000  <S**2>=0.000
       8 -> 18         0.52087
      11 -> 29        -0.19075
      11 -> 30        -0.26536
      12 -> 29        -0.26546
      12 -> 30         0.19081

 Excited State  69:      Singlet-A'    14.9209 eV   83.09 nm  f=0.4721  <S**2>=0.000
       9 -> 25        -0.14617
       9 -> 27        -0.45912
      10 -> 26         0.46225
      12 -> 28        -0.10375

 Excited State  70:      Singlet-A'    14.9209 eV   83.09 nm  f=0.4721  <S**2>=0.000
       9 -> 26         0.46069
      10 -> 25        -0.14612
      10 -> 27         0.46070
      11 -> 28        -0.10377

 Excited State  71:      Singlet-A'    14.9307 eV   83.04 nm  f=0.0000  <S**2>=0.000
       7 -> 16         0.13890
       8 -> 17        -0.32934
       9 -> 27         0.42478
      10 -> 26         0.42128

 Excited State  72:      Singlet-A"    15.0732 eV   82.25 nm  f=0.0000  <S**2>=0.000
      10 -> 28         0.69454

 Excited State  73:      Singlet-A"    15.0733 eV   82.25 nm  f=0.0000  <S**2>=0.000
       9 -> 28         0.69455

 Excited State  74:      Singlet-A'    15.2792 eV   81.15 nm  f=0.0000  <S**2>=0.000
       7 -> 16         0.37334
       8 -> 17         0.47940
      11 -> 29         0.15692
      11 -> 30        -0.11280
      12 -> 29        -0.11286
      12 -> 30        -0.15701

 Excited State  75:      Singlet-A'    15.3284 eV   80.89 nm  f=0.0000  <S**2>=0.000
       8 -> 18         0.45716
      11 -> 29         0.21660
      11 -> 30         0.30131
      12 -> 29         0.30148
      12 -> 30        -0.21669

 Excited State  76:      Singlet-A'    15.4276 eV   80.36 nm  f=0.0000  <S**2>=0.000
       7 -> 16         0.20444
       8 -> 17         0.10426
      11 -> 29        -0.36196
      11 -> 30         0.26012
      12 -> 29         0.26042
      12 -> 30         0.36220

 Excited State  77:      Singlet-A'    15.5573 eV   79.70 nm  f=0.3576  <S**2>=0.000
      10 -> 25        -0.16695
      11 -> 29         0.23456
      11 -> 30         0.37024
      11 -> 31         0.11828
      12 -> 29        -0.36997
      12 -> 30         0.23454
      12 -> 33         0.14474

 Excited State  78:      Singlet-A'    15.5573 eV   79.70 nm  f=0.3576  <S**2>=0.000
       9 -> 25         0.16696
      11 -> 29         0.37027
      11 -> 30        -0.23468
      11 -> 33         0.14471
      12 -> 29         0.23441
      12 -> 30         0.36992
      12 -> 31        -0.11833

 Excited State  79:      Singlet-A"    15.7369 eV   78.79 nm  f=0.0000  <S**2>=0.000
       7 -> 18         0.69658

 Excited State  80:      Singlet-A'    15.9027 eV   77.96 nm  f=0.0296  <S**2>=0.000
      12 -> 31         0.68103

 Excited State  81:      Singlet-A'    15.9029 eV   77.96 nm  f=0.0296  <S**2>=0.000
      11 -> 31         0.68103

 Excited State  82:      Singlet-A"    15.9588 eV   77.69 nm  f=0.2651  <S**2>=0.000
       7 -> 17         0.68110
       8 -> 25         0.11808

 Excited State  83:      Singlet-A"    15.9991 eV   77.49 nm  f=0.0000  <S**2>=0.000
       8 -> 19         0.69526

 Excited State  84:      Singlet-A"    15.9992 eV   77.49 nm  f=0.0000  <S**2>=0.000
       8 -> 20         0.69526

 Excited State  85:      Singlet-A'    16.1860 eV   76.60 nm  f=0.0006  <S**2>=0.000
       6 -> 13         0.30367
       8 -> 21         0.26511
      12 -> 33         0.54918

 Excited State  86:      Singlet-A'    16.1861 eV   76.60 nm  f=0.0006  <S**2>=0.000
       5 -> 13        -0.30365
       8 -> 22        -0.26513
      11 -> 33         0.54918

 Excited State  87:      Singlet-A"    16.4664 eV   75.30 nm  f=0.0000  <S**2>=0.000
      11 -> 34         0.40013
      12 -> 32         0.57432

 Excited State  88:      Singlet-A"    16.4665 eV   75.29 nm  f=0.0000  <S**2>=0.000
      11 -> 32         0.56808
      12 -> 34        -0.40880

 Excited State  89:      Singlet-A"    16.4777 eV   75.24 nm  f=0.0000  <S**2>=0.000
      11 -> 32         0.41341
      12 -> 34         0.56574

 Excited State  90:      Singlet-A"    16.4778 eV   75.24 nm  f=0.0000  <S**2>=0.000
      11 -> 34         0.57191
      12 -> 32        -0.40470

 Excited State  91:      Singlet-A'    16.5043 eV   75.12 nm  f=0.0150  <S**2>=0.000
       6 -> 13         0.55860
       8 -> 21        -0.39157

 Excited State  92:      Singlet-A'    16.5044 eV   75.12 nm  f=0.0150  <S**2>=0.000
       5 -> 13         0.55861
       8 -> 22        -0.39158

 Excited State  93:      Singlet-A'    16.7546 eV   74.00 nm  f=0.0660  <S**2>=0.000
       5 -> 13         0.15713
       7 -> 19         0.49975
       7 -> 20         0.14515
       8 -> 22         0.34919
       8 -> 23         0.10100
      11 -> 33         0.17896

 Excited State  94:      Singlet-A'    16.7546 eV   74.00 nm  f=0.0661  <S**2>=0.000
       6 -> 13         0.15714
       7 -> 19        -0.14517
       7 -> 20         0.49970
       8 -> 21         0.34923
       8 -> 24        -0.10100
      12 -> 33        -0.17897

 Excited State  95:      Singlet-A"    17.0444 eV   72.74 nm  f=0.0000  <S**2>=0.000
       6 -> 16         0.27691
       9 -> 29        -0.25566
       9 -> 30         0.36320
      10 -> 29         0.36386
      10 -> 30         0.25559

 Excited State  96:      Singlet-A"    17.0444 eV   72.74 nm  f=0.0000  <S**2>=0.000
       5 -> 16         0.27681
       9 -> 29        -0.36323
       9 -> 30        -0.25532
      10 -> 29        -0.25597
      10 -> 30         0.36389

 Excited State  97:      Singlet-A'    17.0756 eV   72.61 nm  f=0.0212  <S**2>=0.000
       5 -> 14         0.26062
       5 -> 15        -0.36532
       6 -> 13         0.10434
       6 -> 14         0.36629
       6 -> 15         0.26040
       8 -> 21         0.23219

 Excited State  98:      Singlet-A'    17.0756 eV   72.61 nm  f=0.0212  <S**2>=0.000
       5 -> 13        -0.10434
       5 -> 14         0.36565
       5 -> 15         0.26011
       6 -> 14        -0.26091
       6 -> 15         0.36596
       8 -> 22        -0.23219

 Excited State  99:      Singlet-A"    17.0875 eV   72.56 nm  f=0.0819  <S**2>=0.000
       9 -> 29         0.34024
       9 -> 30         0.35884
      10 -> 29        -0.35801
      10 -> 30         0.33985

 Excited State 100:      Singlet-A'    17.1203 eV   72.42 nm  f=0.0000  <S**2>=0.000
       5 -> 14         0.16655
       5 -> 15         0.46825
       6 -> 14         0.46713
       6 -> 15        -0.16644

 Excited State 101:      Singlet-A"    17.1544 eV   72.28 nm  f=0.0000  <S**2>=0.000
       9 -> 29         0.35713
       9 -> 30        -0.33883
      10 -> 29         0.33860
      10 -> 30         0.35691

 Excited State 102:      Singlet-A'    17.1980 eV   72.09 nm  f=0.0002  <S**2>=0.000
       5 -> 13        -0.11624
       7 -> 19         0.40875
       7 -> 20         0.10977
       8 -> 22        -0.22308
       8 -> 23        -0.29311
       8 -> 24         0.21096
      11 -> 33        -0.20332
      11 -> 38        -0.10911
      12 -> 37         0.10914

 Excited State 103:      Singlet-A'    17.1980 eV   72.09 nm  f=0.0002  <S**2>=0.000
       6 -> 13        -0.11623
       7 -> 19        -0.10975
       7 -> 20         0.40880
       8 -> 21        -0.22306
       8 -> 23         0.21098
       8 -> 24         0.29304
      11 -> 37        -0.10913
      12 -> 33         0.20330
      12 -> 38        -0.10914

 Excited State 104:      Singlet-A'    17.2723 eV   71.78 nm  f=0.0000  <S**2>=0.000
       5 -> 14         0.44768
       5 -> 15        -0.15940
       6 -> 14        -0.15931
       6 -> 15        -0.44759

 Excited State 105:      Singlet-A"    17.2782 eV   71.76 nm  f=0.0000  <S**2>=0.000
       6 -> 16         0.36659
       7 -> 21         0.51651
       8 -> 26         0.10348
       9 -> 30        -0.14609
       9 -> 33         0.11238
      10 -> 29        -0.14601

 Excited State 106:      Singlet-A"    17.2782 eV   71.76 nm  f=0.0000  <S**2>=0.000
       5 -> 16         0.36652
       7 -> 22         0.51656
       8 -> 27         0.10352
       9 -> 29         0.14602
      10 -> 30        -0.14602
      10 -> 33        -0.11243

 Excited State 107:      Singlet-A"    17.3300 eV   71.54 nm  f=0.0000  <S**2>=0.000
       6 -> 16         0.50517
       7 -> 21        -0.39382
       8 -> 26        -0.11318
       9 -> 30        -0.10872
       9 -> 33        -0.13749
      10 -> 29        -0.10864

 Excited State 108:      Singlet-A"    17.3300 eV   71.54 nm  f=0.0000  <S**2>=0.000
       5 -> 16         0.50528
       7 -> 22        -0.39372
       8 -> 27        -0.11315
       9 -> 29         0.10866
      10 -> 30        -0.10863
      10 -> 33         0.13748

 The electronic state is 1-A'.
 Alpha  occ. eigenvalues --  -10.23276 -10.23241 -10.23241  -0.87289  -0.60928
 Alpha  occ. eigenvalues --   -0.60928  -0.51067  -0.48156  -0.37361  -0.37360
 Alpha  occ. eigenvalues --   -0.30995  -0.30994
 Alpha virt. eigenvalues --    0.04009   0.06186   0.06186   0.07697   0.11876
 Alpha virt. eigenvalues --    0.13777   0.15598   0.15599   0.17979   0.17979
 Alpha virt. eigenvalues --    0.20421   0.20421   0.20834   0.21869   0.21869

 Mulliken charges:
               1
     1  C    0.353287
     2  C    0.353378
     3  C    0.353282
     4  H   -0.176651
     5  H   -0.176651
     6  H   -0.176665
     7  H   -0.176665
     8  H   -0.176657
     9  H   -0.176657
 Sum of Mulliken charges =  -0.00000

 Dipole moment (field-independent basis, Debye):
    X=             -0.0000    Y=              0.0000    Z=              0.0000  Tot=              0.0000
 Quadrupole moment (field-independent basis, Debye-Ang):
   XX=            -20.6964   YY=            -20.6964   ZZ=            -18.4593
   XY=             -0.0001   XZ=              0.0000   YZ=              0.0000

 Normal termination of Gaussian 16 at Mon Mar 21 20:14:29 2022.
