 Gaussian 16, Revision C.01,
 Gaussian 16:  EM64L-G16RevC.01  3-Jul-2019

 ----------------------------------------------------------------------
 #P TD(Nstates=10000) pbe1pbe/Gen SCF(maxcycles=100) Int(Grid=ultrafine
 )
 ----------------------------------------------------------------------

 ---------------------
 xGDB7_00001_tier4.com
 ---------------------
 Symbolic Z-matrix:
 Charge =  0 Multiplicity = 1

                         Standard orientation:
 ---------------------------------------------------------------------
 Center     Atomic      Atomic             Coordinates (Angstroms)
 Number     Number       Type             X           Y           Z
 ---------------------------------------------------------------------
      1          7           0        1.111035   -0.177046   -0.052467
      2          6           0       -0.122009    0.419593    0.001774
      3          7           0       -1.267607   -0.121443    0.008098
      4          1           0        1.920558    0.367802    0.180104
      5          1           0        1.180700   -1.165617    0.115308
      6          1           0       -0.065701    1.508813    0.004046
      7          1           0       -1.207497   -1.139126    0.000481
 ---------------------------------------------------------------------

 SCF Done:  E(RPBE1PBE) =  -149.733159715     A.U. after   13 cycles

 Excitation energies and oscillator strengths:

 Excited State   1:      Singlet-A      6.2999 eV  196.80 nm  f=0.0076  <S**2>=0.000
      11 -> 13        -0.36663
      11 -> 14         0.51529
      12 -> 13         0.30628
 This state for optimization and/or second-order correction.
 Total Energy, E(TD-HF/TD-DFT) =  -149.501641289
 Copying the excited state density for this state as the 1-particle RhoCI density.

 Excited State   2:      Singlet-A      6.4474 eV  192.30 nm  f=0.0008  <S**2>=0.000
      11 -> 13         0.16725
      11 -> 14        -0.18139
      12 -> 13         0.56474
      12 -> 14         0.33894

 Excited State   3:      Singlet-A      7.0194 eV  176.63 nm  f=0.0194  <S**2>=0.000
      11 -> 13         0.39023
      11 -> 14         0.42452
      12 -> 13        -0.18396
      12 -> 14         0.34905

 Excited State   4:      Singlet-A      7.2582 eV  170.82 nm  f=0.0133  <S**2>=0.000
      11 -> 13         0.15025
      12 -> 14        -0.13942
      12 -> 15         0.66353

 Excited State   5:      Singlet-A      7.4277 eV  166.92 nm  f=0.2625  <S**2>=0.000
      11 -> 13        -0.36555
      11 -> 15        -0.12183
      11 -> 16         0.17531
      12 -> 13        -0.20710
      12 -> 14         0.44911
      12 -> 15         0.21086

 Excited State   6:      Singlet-A      7.8811 eV  157.32 nm  f=0.0932  <S**2>=0.000
      11 -> 15         0.67555
      12 -> 16        -0.13574

 Excited State   7:      Singlet-A      7.9420 eV  156.11 nm  f=0.0391  <S**2>=0.000
      11 -> 15         0.12406
      12 -> 16         0.68055

 Excited State   8:      Singlet-A      8.4486 eV  146.75 nm  f=0.0305  <S**2>=0.000
      11 -> 13         0.13362
      11 -> 16         0.67151
      12 -> 14        -0.10142

 Excited State   9:      Singlet-A      9.0315 eV  137.28 nm  f=0.0068  <S**2>=0.000
      12 -> 17         0.69390

 Excited State  10:      Singlet-A      9.3993 eV  131.91 nm  f=0.0031  <S**2>=0.000
      12 -> 18         0.69956

 Excited State  11:      Singlet-A      9.6676 eV  128.25 nm  f=0.0112  <S**2>=0.000
      11 -> 17         0.69408

 Excited State  12:      Singlet-A     10.0344 eV  123.56 nm  f=0.0463  <S**2>=0.000
      10 -> 13         0.63880
      10 -> 14         0.28679

 Excited State  13:      Singlet-A     10.0847 eV  122.94 nm  f=0.0066  <S**2>=0.000
      11 -> 18         0.68897

 Excited State  14:      Singlet-A     10.2241 eV  121.27 nm  f=0.0007  <S**2>=0.000
       9 -> 13        -0.39145
       9 -> 14         0.55637
      12 -> 20        -0.12228

 Excited State  15:      Singlet-A     10.2458 eV  121.01 nm  f=0.0159  <S**2>=0.000
      12 -> 19         0.63077
      12 -> 20         0.23137

 Excited State  16:      Singlet-A     10.3317 eV  120.00 nm  f=0.0193  <S**2>=0.000
      10 -> 14        -0.15703
      12 -> 19        -0.21492
      12 -> 20         0.62951

 Excited State  17:      Singlet-A     10.6266 eV  116.67 nm  f=0.0531  <S**2>=0.000
       9 -> 13        -0.17148
       9 -> 14        -0.12177
      10 -> 13        -0.22337
      10 -> 14         0.49822
      11 -> 19         0.22185
      12 -> 19        -0.16816
      12 -> 20         0.14173
      12 -> 21         0.15238

 Excited State  18:      Singlet-A     10.7309 eV  115.54 nm  f=0.0194  <S**2>=0.000
      10 -> 14        -0.17445
      11 -> 19         0.64950
      11 -> 21        -0.10072

 Excited State  19:      Singlet-A     10.8537 eV  114.23 nm  f=0.0273  <S**2>=0.000
      10 -> 15         0.47144
      11 -> 20         0.45993
      12 -> 21        -0.17909

 Excited State  20:      Singlet-A     10.8967 eV  113.78 nm  f=0.0241  <S**2>=0.000
      10 -> 15         0.47861
      11 -> 20        -0.47125
      12 -> 21         0.15104

 Excited State  21:      Singlet-A     11.0544 eV  112.16 nm  f=0.0239  <S**2>=0.000
       9 -> 13         0.42493
       9 -> 14         0.29341
      11 -> 20         0.14842
      12 -> 21         0.41234

 Excited State  22:      Singlet-A     11.1418 eV  111.28 nm  f=0.1255  <S**2>=0.000
       9 -> 13        -0.32711
       9 -> 14        -0.22040
      10 -> 13         0.11915
      10 -> 14        -0.23718
      11 -> 20         0.15587
      12 -> 21         0.45403

 Excited State  23:      Singlet-A     11.3512 eV  109.23 nm  f=0.0011  <S**2>=0.000
      11 -> 19         0.11253
      11 -> 21         0.65812
      12 -> 22         0.19521

 Excited State  24:      Singlet-A     11.3974 eV  108.78 nm  f=0.0040  <S**2>=0.000
      11 -> 21        -0.18709
      12 -> 22         0.66862

 Excited State  25:      Singlet-A     11.5505 eV  107.34 nm  f=0.0067  <S**2>=0.000
      10 -> 16         0.67682
      12 -> 23         0.15057

 Excited State  26:      Singlet-A     11.7428 eV  105.58 nm  f=0.0884  <S**2>=0.000
      10 -> 16        -0.15815
      12 -> 23         0.67768

 Excited State  27:      Singlet-A     11.7696 eV  105.34 nm  f=0.0332  <S**2>=0.000
       9 -> 15        -0.33626
      11 -> 22         0.60167

 Excited State  28:      Singlet-A     11.8950 eV  104.23 nm  f=0.2192  <S**2>=0.000
       9 -> 15         0.60046
      11 -> 22         0.32280
      12 -> 24        -0.10392

 Excited State  29:      Singlet-A     12.1554 eV  102.00 nm  f=0.0785  <S**2>=0.000
      11 -> 23         0.62561
      12 -> 24         0.29577

 Excited State  30:      Singlet-A     12.4048 eV   99.95 nm  f=0.0299  <S**2>=0.000
       9 -> 16         0.58159
      11 -> 23        -0.11938
      12 -> 24         0.36208

 Excited State  31:      Singlet-A     12.6453 eV   98.05 nm  f=0.0034  <S**2>=0.000
      10 -> 17         0.68538

 Excited State  32:      Singlet-A     12.6864 eV   97.73 nm  f=0.1040  <S**2>=0.000
       9 -> 16        -0.37403
      11 -> 23        -0.25897
      12 -> 24         0.48914

 Excited State  33:      Singlet-A     12.7346 eV   97.36 nm  f=0.0048  <S**2>=0.000
      11 -> 24         0.69368

 Excited State  34:      Singlet-A     12.9652 eV   95.63 nm  f=0.0539  <S**2>=0.000
       8 -> 13         0.11319
       8 -> 14        -0.18772
      10 -> 18         0.43002
      12 -> 25         0.43156
      12 -> 26         0.18045
      12 -> 27        -0.16904

 Excited State  35:      Singlet-A     13.0181 eV   95.24 nm  f=0.0102  <S**2>=0.000
       8 -> 13        -0.27982
       8 -> 14         0.41588
      10 -> 18        -0.20066
      12 -> 25         0.41456

 Excited State  36:      Singlet-A     13.1011 eV   94.64 nm  f=0.0182  <S**2>=0.000
       8 -> 13        -0.24622
       8 -> 14         0.32884
      10 -> 18         0.47235
      12 -> 25        -0.28744

 Excited State  37:      Singlet-A     13.3299 eV   93.01 nm  f=0.0951  <S**2>=0.000
      10 -> 18        -0.10847
      12 -> 25        -0.17160
      12 -> 26         0.64962

 Excited State  38:      Singlet-A     13.5989 eV   91.17 nm  f=0.0299  <S**2>=0.000
       9 -> 17         0.54818
      10 -> 19         0.23244
      11 -> 25        -0.32891

 Excited State  39:      Singlet-A     13.6349 eV   90.93 nm  f=0.1269  <S**2>=0.000
       8 -> 13         0.14699
       8 -> 14         0.10042
       9 -> 17         0.31620
      10 -> 19         0.10268
      11 -> 25         0.55361
      11 -> 26        -0.16041

 Excited State  40:      Singlet-A     13.7687 eV   90.05 nm  f=0.0273  <S**2>=0.000
       8 -> 13         0.36748
       8 -> 14         0.25248
       9 -> 17        -0.10588
      10 -> 20        -0.11505
      11 -> 26         0.41571
      12 -> 27         0.27124

 Excited State  41:      Singlet-A     13.7896 eV   89.91 nm  f=0.0543  <S**2>=0.000
       8 -> 13         0.17283
       8 -> 14         0.13452
       9 -> 17        -0.19645
       9 -> 18         0.29364
      10 -> 19         0.45314
      10 -> 20         0.16648
      12 -> 27        -0.22796

 Excited State  42:      Singlet-A     13.8188 eV   89.72 nm  f=0.0713  <S**2>=0.000
       7 -> 14         0.15145
       9 -> 18         0.17185
      10 -> 18         0.10235
      10 -> 19         0.10278
      10 -> 20        -0.11088
      11 -> 26        -0.40742
      12 -> 27         0.44948

 Excited State  43:      Singlet-A     13.9099 eV   89.13 nm  f=0.0512  <S**2>=0.000
       8 -> 13        -0.16196
       9 -> 18         0.48416
      10 -> 20        -0.37736
      11 -> 25         0.12349
      11 -> 26         0.19196
      11 -> 27         0.12095

 Excited State  44:      Singlet-A     13.9263 eV   89.03 nm  f=0.0497  <S**2>=0.000
       7 -> 13         0.11138
       8 -> 13        -0.27032
       8 -> 14        -0.19946
      10 -> 19         0.20889
      10 -> 20         0.35417
      11 -> 25         0.17217
      11 -> 26         0.22765
      11 -> 27         0.15610
      12 -> 27         0.27509

 Excited State  45:      Singlet-A     13.9948 eV   88.59 nm  f=0.0160  <S**2>=0.000
       7 -> 13        -0.13021
       8 -> 13         0.14351
       9 -> 17         0.11646
       9 -> 18         0.34908
      10 -> 19        -0.34138
      10 -> 20         0.38895

 Excited State  46:      Singlet-A     14.1207 eV   87.80 nm  f=0.0100  <S**2>=0.000
       7 -> 13        -0.40590
       7 -> 14         0.51592
       8 -> 14        -0.14514
      11 -> 26         0.11913
      12 -> 27        -0.11682

 Excited State  47:      Singlet-A     14.4495 eV   85.81 nm  f=0.0236  <S**2>=0.000
       7 -> 13         0.13957
       7 -> 14         0.16161
       8 -> 13         0.10459
       8 -> 15        -0.26356
      10 -> 21         0.47004
      11 -> 27         0.33687

 Excited State  48:      Singlet-A     14.4969 eV   85.52 nm  f=0.1933  <S**2>=0.000
       7 -> 13         0.46284
       7 -> 14         0.36415
       9 -> 19         0.21043
       9 -> 20         0.14288
      10 -> 21        -0.18687
      11 -> 27        -0.14687

 Excited State  49:      Singlet-A     14.5667 eV   85.12 nm  f=0.0543  <S**2>=0.000
       7 -> 13        -0.11441
       7 -> 14        -0.11244
       8 -> 15        -0.19679
       9 -> 19         0.56432
       9 -> 20        -0.11330
      10 -> 21        -0.16852
      11 -> 27         0.19896

 Excited State  50:      Singlet-A     14.6102 eV   84.86 nm  f=0.0166  <S**2>=0.000
       8 -> 15         0.36859
       8 -> 16        -0.10531
       9 -> 19         0.31676
       9 -> 20        -0.12358
      10 -> 21         0.40246
      11 -> 27        -0.21272

 Excited State  51:      Singlet-A     14.7624 eV   83.99 nm  f=0.0221  <S**2>=0.000
       8 -> 15         0.45384
       8 -> 16         0.12704
       9 -> 20         0.22358
      10 -> 21        -0.10496
      10 -> 24         0.10595
      11 -> 27         0.35486
      12 -> 32         0.12779

 Excited State  52:      Singlet-A     14.8556 eV   83.46 nm  f=0.0250  <S**2>=0.000
       7 -> 15        -0.12609
       8 -> 16        -0.10074
       9 -> 20         0.44320
      10 -> 22         0.18728
      12 -> 28         0.36690
      12 -> 29         0.19196

 Excited State  53:      Singlet-A     14.8658 eV   83.40 nm  f=0.0306  <S**2>=0.000
       9 -> 20        -0.38453
      10 -> 23         0.11887
      12 -> 28         0.46723
      12 -> 29         0.19275

 Excited State  54:      Singlet-A     15.0154 eV   82.57 nm  f=0.0091  <S**2>=0.000
      10 -> 22        -0.41920
      12 -> 29         0.51776
      12 -> 30        -0.11939

 Excited State  55:      Singlet-A     15.0203 eV   82.54 nm  f=0.0009  <S**2>=0.000
      10 -> 22         0.45918
      12 -> 28        -0.28850
      12 -> 29         0.35154
      12 -> 30         0.19929

 Excited State  56:      Singlet-A     15.2436 eV   81.34 nm  f=0.0144  <S**2>=0.000
       8 -> 16        -0.13607
       9 -> 21         0.64841
      12 -> 30        -0.12893

 Excited State  57:      Singlet-A     15.2632 eV   81.23 nm  f=0.0274  <S**2>=0.000
       8 -> 16         0.11641
       9 -> 21         0.15256
      10 -> 22        -0.19928
      10 -> 23         0.15139
      11 -> 28        -0.11207
      12 -> 30         0.60099

 Excited State  58:      Singlet-A     15.3352 eV   80.85 nm  f=0.1557  <S**2>=0.000
       7 -> 15         0.16522
       8 -> 16         0.38543
      10 -> 23         0.32815
      11 -> 28         0.35794
      12 -> 30        -0.11072

 Excited State  59:      Singlet-A     15.3761 eV   80.63 nm  f=0.0155  <S**2>=0.000
       9 -> 21         0.10423
      10 -> 23        -0.39521
      11 -> 28         0.46564
      12 -> 28         0.11982
      12 -> 30         0.16955
      12 -> 31         0.17803
      12 -> 32         0.10497

 Excited State  60:      Singlet-A     15.3995 eV   80.51 nm  f=0.0765  <S**2>=0.000
       8 -> 16         0.39236
       9 -> 21         0.14158
      10 -> 23        -0.37615
      11 -> 28        -0.23663
      11 -> 31         0.10136
      12 -> 32        -0.19902

 Excited State  61:      Singlet-A     15.5048 eV   79.97 nm  f=0.0523  <S**2>=0.000
       7 -> 15         0.52039
       8 -> 16        -0.18429
      11 -> 29         0.29320
      12 -> 32         0.16489

 Excited State  62:      Singlet-A     15.5438 eV   79.76 nm  f=0.0108  <S**2>=0.000
       7 -> 15         0.23860
      11 -> 29        -0.30415
      11 -> 32         0.10545
      12 -> 31         0.43983
      12 -> 32        -0.29297

 Excited State  63:      Singlet-A     15.5764 eV   79.60 nm  f=0.0275  <S**2>=0.000
       7 -> 15        -0.15712
      10 -> 23         0.13333
      11 -> 29         0.44043
      11 -> 31         0.15360
      12 -> 31         0.43709

 Excited State  64:      Singlet-A     15.6723 eV   79.11 nm  f=0.0358  <S**2>=0.000
       8 -> 16         0.10155
       9 -> 22         0.15417
      11 -> 28        -0.13999
      11 -> 29        -0.15321
      11 -> 30         0.42478
      11 -> 31        -0.20743
      11 -> 32        -0.24044
      12 -> 31         0.16549
      12 -> 32         0.26194

 Excited State  65:      Singlet-A     15.8012 eV   78.47 nm  f=0.0321  <S**2>=0.000
       7 -> 15        -0.13254
       7 -> 16        -0.12072
       9 -> 22        -0.36089
       9 -> 23         0.10021
      10 -> 24        -0.19903
      11 -> 29         0.12409
      11 -> 30         0.38231
      12 -> 32        -0.26439

 Excited State  66:      Singlet-A     15.8599 eV   78.17 nm  f=0.0285  <S**2>=0.000
       9 -> 22         0.11970
       9 -> 23         0.12086
      11 -> 30         0.30986
      11 -> 31         0.15267
      11 -> 32         0.56588

 Excited State  67:      Singlet-A     15.9446 eV   77.76 nm  f=0.0100  <S**2>=0.000
       9 -> 22         0.32317
      10 -> 24         0.37243
      11 -> 28         0.14040
      11 -> 30         0.15209
      11 -> 32        -0.11969
      12 -> 31        -0.11256
      12 -> 32        -0.34125
      12 -> 34        -0.10764

 Excited State  68:      Singlet-A     16.0343 eV   77.32 nm  f=0.0274  <S**2>=0.000
       7 -> 16         0.58319
       8 -> 17         0.11497
       9 -> 22        -0.20379
       9 -> 23         0.18011
      10 -> 24         0.16679
      11 -> 31        -0.12181

 Excited State  69:      Singlet-A     16.0672 eV   77.17 nm  f=0.0428  <S**2>=0.000
       9 -> 22        -0.20998
      10 -> 24         0.22836
      11 -> 29        -0.19879
      11 -> 31         0.53378
      11 -> 32        -0.14684

 Excited State  70:      Singlet-A     16.1528 eV   76.76 nm  f=0.0128  <S**2>=0.000
       7 -> 16        -0.29391
       8 -> 18        -0.15162
       9 -> 22        -0.21198
       9 -> 23         0.11209
      10 -> 24         0.39317
      11 -> 31        -0.25101
      11 -> 32         0.13896
      12 -> 33        -0.10274

 Excited State  71:      Singlet-A     16.2484 eV   76.31 nm  f=0.0104  <S**2>=0.000
       9 -> 22         0.12438
       9 -> 23         0.62885
      10 -> 24        -0.13725
      11 -> 30        -0.10567

 Excited State  72:      Singlet-A     16.2784 eV   76.16 nm  f=0.0203  <S**2>=0.000
      12 -> 33         0.60483
      12 -> 34        -0.19659

 Excited State  73:      Singlet-A     16.4231 eV   75.49 nm  f=0.0112  <S**2>=0.000
       6 -> 13         0.16524
       6 -> 14        -0.13253
      10 -> 25        -0.23296
      10 -> 26        -0.10821
      12 -> 33         0.15222
      12 -> 34         0.56691

 Excited State  74:      Singlet-A     16.5531 eV   74.90 nm  f=0.0228  <S**2>=0.000
       6 -> 13         0.32104
       6 -> 14        -0.24551
       8 -> 17         0.26833
       9 -> 24         0.42352
      12 -> 33        -0.10625
      12 -> 34        -0.11441

 Excited State  75:      Singlet-A     16.5837 eV   74.76 nm  f=0.0637  <S**2>=0.000
       6 -> 14         0.15171
       8 -> 17         0.50880
       9 -> 24        -0.17408
      10 -> 25         0.29694
      11 -> 33         0.10217
      12 -> 34         0.12695

 Excited State  76:      Singlet-A     16.5966 eV   74.70 nm  f=0.0167  <S**2>=0.000
       8 -> 17        -0.23458
       9 -> 24         0.23074
      10 -> 25         0.52478
      10 -> 26         0.10064
      12 -> 33         0.18569
      12 -> 34         0.19172

 Excited State  77:      Singlet-A     16.7333 eV   74.09 nm  f=0.1655  <S**2>=0.000
       6 -> 13         0.43175
       8 -> 17        -0.10158
       9 -> 24        -0.38594
      10 -> 25         0.13221
      10 -> 26         0.12587
      11 -> 33        -0.19454
      11 -> 34         0.10646

 Excited State  78:      Singlet-A     16.8013 eV   73.79 nm  f=0.1266  <S**2>=0.000
       6 -> 14        -0.34656
       9 -> 24        -0.15376
      10 -> 26        -0.13263
      10 -> 27         0.10474
      11 -> 33         0.49215

 Excited State  79:      Singlet-A     16.8405 eV   73.62 nm  f=0.0217  <S**2>=0.000
       6 -> 13         0.17955
       6 -> 14         0.12461
       8 -> 18         0.55051
       9 -> 22        -0.12776
      10 -> 26         0.14419
      11 -> 33         0.17561
      12 -> 35         0.15644

 Excited State  80:      Singlet-A     16.8966 eV   73.38 nm  f=0.0593  <S**2>=0.000
       6 -> 13         0.18687
       6 -> 14         0.29712
       7 -> 17        -0.12315
       8 -> 18        -0.27026
      10 -> 25        -0.12313
      10 -> 26         0.28453
      11 -> 33         0.27707
      11 -> 34        -0.13525
      12 -> 35        -0.18138

 Excited State  81:      Singlet-A     16.9277 eV   73.24 nm  f=0.0358  <S**2>=0.000
       6 -> 13        -0.20743
       6 -> 14        -0.28931
       7 -> 17         0.12792
      10 -> 25        -0.10096
      10 -> 26         0.54469
      12 -> 35        -0.11289

 Excited State  82:      Singlet-A     17.0912 eV   72.54 nm  f=0.0033  <S**2>=0.000
       7 -> 17         0.23281
      11 -> 33         0.21263
      11 -> 34         0.61126

 Excited State  83:      Singlet-A     17.2410 eV   71.91 nm  f=0.0634  <S**2>=0.000
       6 -> 15        -0.23269
       7 -> 17         0.45188
       7 -> 18         0.16321
       8 -> 17        -0.11552
       8 -> 19        -0.11576
       8 -> 20        -0.13791
      10 -> 27         0.16718
      11 -> 34        -0.16788
      12 -> 35        -0.25947

 Excited State  84:      Singlet-A     17.3088 eV   71.63 nm  f=0.0296  <S**2>=0.000
       7 -> 17         0.22964
       8 -> 18        -0.14763
       8 -> 19         0.15277
       8 -> 20        -0.10488
      11 -> 34        -0.11438
      12 -> 35         0.53292

 Excited State  85:      Singlet-A     17.4096 eV   71.22 nm  f=0.0237  <S**2>=0.000
       8 -> 19         0.57199
       8 -> 21        -0.11736
       9 -> 25        -0.10891
       9 -> 26         0.13897
      10 -> 27        -0.19764
      12 -> 35        -0.17696

 Excited State  86:      Singlet-A     17.4392 eV   71.10 nm  f=0.0272  <S**2>=0.000
       6 -> 14         0.12689
       7 -> 18        -0.13336
       8 -> 19         0.23777
       9 -> 24         0.10915
      10 -> 27         0.58139

 Excited State  87:      Singlet-A     17.5675 eV   70.58 nm  f=0.0411  <S**2>=0.000
       6 -> 15        -0.17874
       7 -> 17         0.14693
       7 -> 18        -0.28623
       8 -> 19         0.14671
       8 -> 20         0.22458
       8 -> 21         0.12947
       9 -> 25         0.42794
       9 -> 26        -0.18481
      10 -> 27        -0.14203

 Excited State  88:      Singlet-A     17.5757 eV   70.54 nm  f=0.0532  <S**2>=0.000
       7 -> 18         0.52502
       8 -> 20         0.31981
       9 -> 25         0.15407
       9 -> 26        -0.14116
      11 -> 35         0.13921

 Excited State  89:      Singlet-A     17.6548 eV   70.23 nm  f=0.0165  <S**2>=0.000
       6 -> 15        -0.34862
       8 -> 20         0.37628
       9 -> 25        -0.17136
       9 -> 26         0.33078
      11 -> 35        -0.19886

 Excited State  90:      Singlet-A     17.6912 eV   70.08 nm  f=0.0350  <S**2>=0.000
       7 -> 18        -0.13649

 The electronic state is 1-A.
 Alpha  occ. eigenvalues --  -14.41947 -14.35580 -10.30320  -0.96844  -0.87033
 Alpha  occ. eigenvalues --   -0.63935  -0.56066  -0.53097  -0.42661  -0.39600
 Alpha  occ. eigenvalues --   -0.27927  -0.26380
 Alpha virt. eigenvalues --    0.02340   0.02949   0.05633   0.07786   0.12179
 Alpha virt. eigenvalues --    0.13798   0.16214   0.16935   0.18898   0.20920
 Alpha virt. eigenvalues --    0.21916   0.24079   0.26926   0.27709   0.30155

 Mulliken charges:
               1
     1  N   -0.009236
     2  C    0.711061
     3  N   -0.266770
     4  H   -0.055923
     5  H   -0.089122
     6  H   -0.269534
     7  H   -0.020477
 Sum of Mulliken charges =  -0.00000

 Dipole moment (field-independent basis, Debye):
    X=              3.4486    Y=             -0.7507    Z=              0.5629  Tot=              3.5740
 Quadrupole moment (field-independent basis, Debye-Ang):
   XX=            -20.6026   YY=            -14.6986   ZZ=            -20.6633
   XY=              1.2906   XZ=              1.1443   YZ=             -0.1560

 1\1\GINC-HEL25\SP\RPBE1PBE TD-FC\Gen\C1H4N2\SABYASACHI\21-Mar-2022\0\\
 #P TD(Nstates=10000) pbe1pbe/Gen SCF(maxcycles=100) Int(Grid=ultrafine
 )\\xGDB7_00001_tier4.com\\0,1\N,0,1.111035,-0.177046,-0.052467\C,0,-0.
 122009,0.419593,0.001774\N,0,-1.267607,-0.121443,0.008098\H,0,1.920558
 ,0.367802,0.180104\H,0,1.1807,-1.165617,0.115308\H,0,-0.065701,1.50881
 3,0.004046\H,0,-1.207497,-1.139126,0.000481\\Version=EM64L-G16RevC.01\
 State=1-A\HF=-149.7331597\RMSD=5.215e-09\PG=C01 [X(C1H4N2)]\\@
 The archive entry for this job was punched.

 Normal termination of Gaussian 16 at Mon Mar 21 20:14:13 2022.
