 Gaussian 16, Revision C.01,
 Gaussian 16:  EM64L-G16RevC.01  3-Jul-2019

 ----------------------------------------------------------------------
 #P TD(Nstates=10000) pbe1pbe/Gen SCF(maxcycles=100) Int(Grid=ultrafine
 )
 ----------------------------------------------------------------------

 ---------------------
 xGDB7_00001_tier4.com
 ---------------------
 Symbolic Z-matrix:
 Charge =  0 Multiplicity = 1

                         Standard orientation:
 ---------------------------------------------------------------------
 Center     Atomic      Atomic             Coordinates (Angstroms)
 Number     Number       Type             X           Y           Z
 ---------------------------------------------------------------------
      1          6           0       -1.131573   -0.504386    0.000000
      2          6           0        0.000000    0.472223    0.000000
      3          6           0        1.284136    0.150792    0.000000
      4          1           0       -1.767446   -0.362776    0.877699
      5          1           0       -0.770122   -1.533458    0.000000
      6          1           0       -1.767446   -0.362776   -0.877699
      7          1           0       -0.276551    1.523465    0.000000
      8          1           0        1.608435   -0.884555    0.000000
      9          1           0        2.057749    0.908327    0.000000
 ---------------------------------------------------------------------

 SCF Done:  E(RPBE1PBE) =  -117.674291356     A.U. after   12 cycles

 Excitation energies and oscillator strengths:

 Excited State   1:      Singlet-A"     7.1866 eV  172.52 nm  f=0.0150  <S**2>=0.000
      12 -> 14         0.69524
 This state for optimization and/or second-order correction.
 Total Energy, E(TD-HF/TD-DFT) =  -117.410190372
 Copying the excited state density for this state as the 1-particle RhoCI density.

 Excited State   2:      Singlet-A'     7.6090 eV  162.94 nm  f=0.4075  <S**2>=0.000
      12 -> 13         0.69588

 Excited State   3:      Singlet-A"     7.9275 eV  156.40 nm  f=0.0005  <S**2>=0.000
      11 -> 13         0.10265
      12 -> 15        -0.25764
      12 -> 16         0.64330

 Excited State   4:      Singlet-A"     7.9785 eV  155.40 nm  f=0.0347  <S**2>=0.000
      12 -> 14         0.10942
      12 -> 15         0.64994
      12 -> 16         0.24796

 Excited State   5:      Singlet-A"     8.2470 eV  150.34 nm  f=0.0000  <S**2>=0.000
      11 -> 13         0.69487
      12 -> 16        -0.10145

 Excited State   6:      Singlet-A"     9.0659 eV  136.76 nm  f=0.0020  <S**2>=0.000
       8 -> 13        -0.10218
      10 -> 13         0.61132
      12 -> 17        -0.31783

 Excited State   7:      Singlet-A"     9.1560 eV  135.41 nm  f=0.0009  <S**2>=0.000
      10 -> 13         0.31795
      12 -> 17         0.62065

 Excited State   8:      Singlet-A'     9.4636 eV  131.01 nm  f=0.0288  <S**2>=0.000
      11 -> 14         0.22829
      12 -> 18         0.66490

 Excited State   9:      Singlet-A'     9.5675 eV  129.59 nm  f=0.0431  <S**2>=0.000
      11 -> 14         0.65674
      12 -> 18        -0.22607

 Excited State  10:      Singlet-A"     9.6001 eV  129.15 nm  f=0.0306  <S**2>=0.000
      12 -> 19         0.69845

 Excited State  11:      Singlet-A"    10.1308 eV  122.38 nm  f=0.0097  <S**2>=0.000
      12 -> 20         0.69534

 Excited State  12:      Singlet-A'    10.1611 eV  122.02 nm  f=0.0373  <S**2>=0.000
      10 -> 14         0.60518
      11 -> 15         0.35180

 Excited State  13:      Singlet-A'    10.3051 eV  120.31 nm  f=0.0491  <S**2>=0.000
      10 -> 14        -0.22539
      11 -> 15         0.43186
      11 -> 16         0.45162
      12 -> 21         0.19962

 Excited State  14:      Singlet-A'    10.3507 eV  119.78 nm  f=0.2176  <S**2>=0.000
      10 -> 14         0.25408
      11 -> 15        -0.39997
      11 -> 16         0.51603

 Excited State  15:      Singlet-A"    10.3536 eV  119.75 nm  f=0.0000  <S**2>=0.000
       8 -> 13         0.67801
      10 -> 13         0.11186
      12 -> 22         0.13359

 Excited State  16:      Singlet-A'    10.5145 eV  117.92 nm  f=0.0679  <S**2>=0.000
      11 -> 15        -0.12000
      11 -> 16        -0.12838
      12 -> 21         0.66373

 Excited State  17:      Singlet-A"    10.5914 eV  117.06 nm  f=0.0487  <S**2>=0.000
       8 -> 13        -0.12670
      12 -> 22         0.68133

 Excited State  18:      Singlet-A'    10.8706 eV  114.06 nm  f=0.0321  <S**2>=0.000
       9 -> 13         0.68475

 Excited State  19:      Singlet-A"    10.9212 eV  113.53 nm  f=0.0037  <S**2>=0.000
      12 -> 23         0.69821

 Excited State  20:      Singlet-A'    11.0668 eV  112.03 nm  f=0.0546  <S**2>=0.000
      10 -> 15         0.31452
      10 -> 16         0.59308
      12 -> 24         0.17865

 Excited State  21:      Singlet-A'    11.1252 eV  111.44 nm  f=0.0043  <S**2>=0.000
      10 -> 15         0.58659
      10 -> 16        -0.35114
      12 -> 24         0.11335

 Excited State  22:      Singlet-A"    11.3344 eV  109.39 nm  f=0.1177  <S**2>=0.000
       9 -> 14         0.68320
       9 -> 15         0.15150

 Excited State  23:      Singlet-A'    11.3963 eV  108.79 nm  f=0.0392  <S**2>=0.000
      10 -> 15        -0.16382
      10 -> 16        -0.12926
      11 -> 17        -0.27318
      12 -> 24         0.58099

 Excited State  24:      Singlet-A'    11.5874 eV  107.00 nm  f=0.0525  <S**2>=0.000
       8 -> 15        -0.11275
      11 -> 17         0.60884
      12 -> 24         0.25751

 Excited State  25:      Singlet-A"    11.6449 eV  106.47 nm  f=0.0002  <S**2>=0.000
       7 -> 13         0.62750
      11 -> 18         0.20098
      12 -> 25        -0.22481

 Excited State  26:      Singlet-A"    11.6558 eV  106.37 nm  f=0.0019  <S**2>=0.000
       7 -> 13        -0.21050
      11 -> 18         0.66140

 Excited State  27:      Singlet-A'    11.7573 eV  105.45 nm  f=0.0164  <S**2>=0.000
       8 -> 14         0.67823
      11 -> 17         0.10895

 Excited State  28:      Singlet-A"    11.8643 eV  104.50 nm  f=0.0975  <S**2>=0.000
       7 -> 13         0.20534
      12 -> 25         0.64722

 Excited State  29:      Singlet-A'    11.9717 eV  103.56 nm  f=0.0918  <S**2>=0.000
      10 -> 17         0.12357
      11 -> 19         0.67239

 Excited State  30:      Singlet-A'    12.1875 eV  101.73 nm  f=0.0994  <S**2>=0.000
       8 -> 15        -0.13352
       8 -> 16        -0.10532
      10 -> 17         0.62110
      11 -> 19        -0.13221
      11 -> 20        -0.19173
      12 -> 26         0.10389

 Excited State  31:      Singlet-A"    12.2144 eV  101.51 nm  f=0.0105  <S**2>=0.000
       9 -> 15         0.16399
       9 -> 16         0.55391
      10 -> 18        -0.38989

 Excited State  32:      Singlet-A"    12.2772 eV  100.99 nm  f=0.0426  <S**2>=0.000
       9 -> 15        -0.11893
       9 -> 16         0.41812
      10 -> 18         0.52998

 Excited State  33:      Singlet-A'    12.3628 eV  100.29 nm  f=0.0411  <S**2>=0.000
       8 -> 15        -0.24773
       8 -> 16         0.35414
      10 -> 17         0.16419
      10 -> 19        -0.14581
      11 -> 20         0.49384

 Excited State  34:      Singlet-A"    12.3660 eV  100.26 nm  f=0.0012  <S**2>=0.000
       9 -> 14        -0.13879
       9 -> 15         0.64755
       9 -> 17        -0.10720
      10 -> 18         0.19979

 Excited State  35:      Singlet-A'    12.5152 eV   99.07 nm  f=0.0073  <S**2>=0.000
       8 -> 15         0.28125
       8 -> 16        -0.26131
      11 -> 20         0.36564
      12 -> 26         0.42789

 Excited State  36:      Singlet-A'    12.5438 eV   98.84 nm  f=0.0117  <S**2>=0.000
       8 -> 15         0.43112
       8 -> 16         0.46765
      10 -> 17         0.10309
      11 -> 20        -0.16376
      12 -> 26         0.15440

 Excited State  37:      Singlet-A"    12.6311 eV   98.16 nm  f=0.0055  <S**2>=0.000
      11 -> 21         0.41676
      12 -> 27         0.54733
      12 -> 28        -0.10865

 Excited State  38:      Singlet-A'    12.6649 eV   97.90 nm  f=0.2225  <S**2>=0.000
       8 -> 15        -0.35078
       8 -> 16         0.14562
      10 -> 17        -0.16970
      11 -> 17        -0.10377
      11 -> 20        -0.20210
      12 -> 26         0.49522

 Excited State  39:      Singlet-A"    12.6869 eV   97.73 nm  f=0.0505  <S**2>=0.000
      11 -> 21         0.54996
      12 -> 27        -0.40851
      12 -> 28         0.10791

 Excited State  40:      Singlet-A'    12.7510 eV   97.23 nm  f=0.0598  <S**2>=0.000
       8 -> 16         0.17926
      10 -> 19         0.64882

 Excited State  41:      Singlet-A'    12.9604 eV   95.66 nm  f=0.0728  <S**2>=0.000
       8 -> 17         0.11718
      10 -> 20         0.10298
      11 -> 22         0.66134
      12 -> 26         0.10489

 Excited State  42:      Singlet-A'    13.0181 eV   95.24 nm  f=0.0247  <S**2>=0.000
       7 -> 14         0.66948
      11 -> 23        -0.15589

 Excited State  43:      Singlet-A"    13.0861 eV   94.74 nm  f=0.0006  <S**2>=0.000
       9 -> 17        -0.19125
      12 -> 27         0.14991
      12 -> 28         0.64748

 Excited State  44:      Singlet-A'    13.1367 eV   94.38 nm  f=0.0048  <S**2>=0.000
       7 -> 16        -0.12335
       9 -> 18        -0.30681
      10 -> 20         0.59669

 Excited State  45:      Singlet-A"    13.2368 eV   93.67 nm  f=0.0086  <S**2>=0.000
       9 -> 17        -0.41426
       9 -> 19         0.16839
      10 -> 21         0.50981
      12 -> 28        -0.12359

 Excited State  46:      Singlet-A"    13.3631 eV   92.78 nm  f=0.0131  <S**2>=0.000
       9 -> 17         0.46986
      10 -> 21         0.42700
      11 -> 24         0.19957
      12 -> 28         0.13815

 Excited State  47:      Singlet-A'    13.3823 eV   92.65 nm  f=0.0724  <S**2>=0.000
       7 -> 14         0.11315
       7 -> 16         0.10343
       9 -> 18        -0.19801
      11 -> 23         0.61657

 Excited State  48:      Singlet-A"    13.4377 eV   92.27 nm  f=0.0014  <S**2>=0.000
       8 -> 18        -0.11266
       9 -> 17        -0.16840
      10 -> 21        -0.10374
      11 -> 24         0.65576

 Excited State  49:      Singlet-A'    13.5901 eV   91.23 nm  f=0.1352  <S**2>=0.000
       8 -> 17         0.38145
       9 -> 18        -0.30446
      10 -> 20        -0.18802
      10 -> 22         0.43175

 Excited State  50:      Singlet-A'    13.7237 eV   90.34 nm  f=0.2100  <S**2>=0.000
       7 -> 16        -0.28213
       8 -> 17         0.41697
      10 -> 22        -0.31512
      11 -> 22        -0.10022
      12 -> 29         0.31065

 Excited State  51:      Singlet-A'    13.7442 eV   90.21 nm  f=0.0387  <S**2>=0.000
       7 -> 15         0.54583
       7 -> 16        -0.28140
       8 -> 17        -0.14232
       9 -> 18        -0.10837
      10 -> 20        -0.14115
      10 -> 23         0.10961
      12 -> 29         0.20051

 Excited State  52:      Singlet-A'    13.8019 eV   89.83 nm  f=0.0426  <S**2>=0.000
       7 -> 15         0.21823
       7 -> 16         0.42344
       8 -> 17         0.10063
       9 -> 18         0.25746
      10 -> 20         0.18444
      10 -> 22         0.15267
      12 -> 29         0.33560

 Excited State  53:      Singlet-A"    13.8275 eV   89.67 nm  f=0.0011  <S**2>=0.000
       8 -> 18         0.64034
       9 -> 19         0.19982
      11 -> 24         0.11888

 Excited State  54:      Singlet-A'    13.9100 eV   89.13 nm  f=0.0167  <S**2>=0.000
       7 -> 15        -0.27644
       7 -> 16        -0.10608
       8 -> 17        -0.16441
       8 -> 19        -0.22133
      10 -> 22         0.23235
      10 -> 23         0.39803
      11 -> 25         0.11495
      12 -> 29         0.26088

 Excited State  55:      Singlet-A"    13.9531 eV   88.86 nm  f=0.0534  <S**2>=0.000
       6 -> 13         0.23655
       8 -> 18        -0.21792
       9 -> 19         0.58298
      10 -> 21        -0.14865

 Excited State  56:      Singlet-A'    13.9889 eV   88.63 nm  f=0.0957  <S**2>=0.000
       7 -> 16        -0.29523
       8 -> 19         0.35750
       8 -> 20        -0.12969
       9 -> 18         0.28346
      10 -> 22         0.28789
      10 -> 23        -0.11691
      11 -> 23         0.22063

 Excited State  57:      Singlet-A'    14.0670 eV   88.14 nm  f=0.0070  <S**2>=0.000
       7 -> 15         0.14346
       8 -> 17         0.13145
       8 -> 19        -0.38014
       8 -> 20        -0.14430
       9 -> 18         0.10959
       9 -> 21         0.12920
      10 -> 23        -0.13837
      11 -> 25         0.39022
      12 -> 29        -0.19562

 Excited State  58:      Singlet-A'    14.1180 eV   87.82 nm  f=0.0263  <S**2>=0.000
       7 -> 15         0.15959
       8 -> 17         0.23293
       9 -> 18         0.14707
      10 -> 23         0.48718
      12 -> 29        -0.30597

 Excited State  59:      Singlet-A"    14.1409 eV   87.68 nm  f=0.0082  <S**2>=0.000
       9 -> 19        -0.11800
       9 -> 20         0.21194
      12 -> 30         0.64241

 Excited State  60:      Singlet-A'    14.2222 eV   87.18 nm  f=0.0100  <S**2>=0.000
       8 -> 19         0.37235
       9 -> 18        -0.11082
      10 -> 23         0.12513
      10 -> 25        -0.11916
      11 -> 25         0.52837

 Excited State  61:      Singlet-A"    14.2636 eV   86.92 nm  f=0.0001  <S**2>=0.000
       6 -> 13         0.12774
       9 -> 20         0.61773
       9 -> 22         0.11023
      12 -> 30        -0.25085

 Excited State  62:      Singlet-A"    14.2950 eV   86.73 nm  f=0.0013  <S**2>=0.000
       6 -> 13         0.29499
       7 -> 18         0.12220
       9 -> 20        -0.12502
      10 -> 24         0.58303

 Excited State  63:      Singlet-A'    14.4467 eV   85.82 nm  f=0.0279  <S**2>=0.000
       8 -> 20         0.15310
       9 -> 21         0.11785
      12 -> 31         0.66170

 Excited State  64:      Singlet-A"    14.6094 eV   84.87 nm  f=0.1191  <S**2>=0.000
       6 -> 13         0.33081
       8 -> 21         0.38545
       9 -> 19        -0.16689
      10 -> 24        -0.30571
      11 -> 26        -0.26139

 Excited State  65:      Singlet-A'    14.6333 eV   84.73 nm  f=0.0158  <S**2>=0.000
       8 -> 20         0.16568
       9 -> 21         0.62228
      11 -> 28         0.10219
      12 -> 31        -0.15290

 Excited State  66:      Singlet-A"    14.6992 eV   84.35 nm  f=0.1096  <S**2>=0.000
       6 -> 13        -0.36999
       8 -> 21         0.44610
       9 -> 22        -0.13217
      10 -> 24         0.17631
      11 -> 26        -0.21215

 Excited State  67:      Singlet-A'    14.7162 eV   84.25 nm  f=0.0390  <S**2>=0.000
       7 -> 17         0.27392
       8 -> 20         0.52622
       9 -> 21        -0.13419
      10 -> 23        -0.11018
      10 -> 25         0.24453
      11 -> 25         0.14343
      12 -> 31        -0.10019

 Excited State  68:      Singlet-A"    14.8719 eV   83.37 nm  f=0.0153  <S**2>=0.000
       9 -> 22         0.27529
      12 -> 32         0.61998

 Excited State  69:      Singlet-A"    14.9105 eV   83.15 nm  f=0.0213  <S**2>=0.000
       8 -> 21         0.33447
       9 -> 22         0.35904
      11 -> 26         0.46281
      12 -> 32        -0.12800

 Excited State  70:      Singlet-A"    14.9360 eV   83.01 nm  f=0.0186  <S**2>=0.000
       6 -> 13        -0.11864
       8 -> 21        -0.11458
       9 -> 22         0.47063
      11 -> 26        -0.38596
      12 -> 32        -0.26309

 Excited State  71:      Singlet-A'    14.9490 eV   82.94 nm  f=0.0074  <S**2>=0.000
       7 -> 17        -0.40610
       8 -> 22        -0.23182
      10 -> 25         0.48598

 Excited State  72:      Singlet-A'    15.1175 eV   82.01 nm  f=0.0146  <S**2>=0.000
       7 -> 17         0.37618
       7 -> 19        -0.18761
       8 -> 20        -0.27697
       8 -> 22         0.12066
      10 -> 25         0.36725
      11 -> 28         0.12953

 Excited State  73:      Singlet-A'    15.1802 eV   81.68 nm  f=0.0191  <S**2>=0.000
       7 -> 17        -0.13727
       8 -> 22         0.48315
      11 -> 27         0.45871

 Excited State  74:      Singlet-A"    15.1983 eV   81.58 nm  f=0.0490  <S**2>=0.000
       7 -> 18         0.50090
       9 -> 23         0.39136
      12 -> 33        -0.24260

 Excited State  75:      Singlet-A"    15.2137 eV   81.50 nm  f=0.0196  <S**2>=0.000
       9 -> 23         0.25672
      12 -> 33         0.62957

 Excited State  76:      Singlet-A"    15.2744 eV   81.17 nm  f=0.1079  <S**2>=0.000
       6 -> 13         0.12842
       7 -> 18        -0.42861
       9 -> 20        -0.12180
       9 -> 22         0.13904
       9 -> 23         0.46719
      12 -> 33        -0.12433

 Excited State  77:      Singlet-A'    15.3042 eV   81.01 nm  f=0.3541  <S**2>=0.000
       6 -> 14         0.43219
       7 -> 17         0.13321
       8 -> 22        -0.29917
       8 -> 23        -0.17439
      10 -> 28         0.10991
      11 -> 27         0.31924
      11 -> 28         0.13116

 Excited State  78:      Singlet-A'    15.3977 eV   80.52 nm  f=0.0521  <S**2>=0.000
       6 -> 14         0.50110
       7 -> 17        -0.11427
       7 -> 19        -0.19774
       8 -> 22         0.19133
      10 -> 28        -0.12521
      11 -> 27        -0.31862

 Excited State  79:      Singlet-A'    15.4545 eV   80.23 nm  f=0.0974  <S**2>=0.000
       6 -> 14         0.10200
       7 -> 19         0.21035
       8 -> 23         0.62611

 Excited State  80:      Singlet-A"    15.4790 eV   80.10 nm  f=0.0096  <S**2>=0.000
      10 -> 26        -0.14325
      12 -> 34         0.66589

 Excited State  81:      Singlet-A"    15.5632 eV   79.66 nm  f=0.0390  <S**2>=0.000
       8 -> 24        -0.29847
      10 -> 26         0.57950
      11 -> 29         0.18754
      12 -> 34         0.13000

 Excited State  82:      Singlet-A'    15.5648 eV   79.66 nm  f=0.0536  <S**2>=0.000
       6 -> 14         0.11484
       6 -> 16        -0.15628
       7 -> 17         0.11373
       7 -> 19         0.49362
       8 -> 20        -0.14231
       8 -> 23        -0.18387
       9 -> 24         0.12983
      10 -> 28        -0.12572
      11 -> 28        -0.24553

 Excited State  83:      Singlet-A"    15.6118 eV   79.42 nm  f=0.0082  <S**2>=0.000
       8 -> 24         0.45574
      10 -> 26         0.33160
      11 -> 29        -0.38157

 Excited State  84:      Singlet-A'    15.6301 eV   79.32 nm  f=0.1612  <S**2>=0.000
       7 -> 17        -0.10788
       9 -> 24         0.48977
      10 -> 27        -0.13863
      11 -> 28         0.40395

 Excited State  85:      Singlet-A'    15.7550 eV   78.70 nm  f=0.0445  <S**2>=0.000
       7 -> 19        -0.11619
       9 -> 24         0.33480
      10 -> 27         0.34299
      11 -> 28        -0.14599
      12 -> 35         0.43798

 Excited State  86:      Singlet-A'    15.7838 eV   78.55 nm  f=0.0490  <S**2>=0.000
       6 -> 15         0.16254
       7 -> 19         0.19245
       7 -> 20         0.15095
       9 -> 24        -0.30084
      11 -> 28         0.30499
      12 -> 35         0.42276

 Excited State  87:      Singlet-A'    15.8717 eV   78.12 nm  f=0.1148  <S**2>=0.000
       7 -> 20         0.11360
       7 -> 22         0.15606
      10 -> 27         0.52994
      11 -> 28         0.20833
      12 -> 35        -0.29139

 Excited State  88:      Singlet-A"    15.9070 eV   77.94 nm  f=0.0195  <S**2>=0.000
       7 -> 21         0.14989
       8 -> 24         0.42269
      11 -> 29         0.49950
      12 -> 36        -0.14161

 Excited State  89:      Singlet-A'    15.9196 eV   77.88 nm  f=0.0101  <S**2>=0.000
       6 -> 15        -0.23319
       7 -> 20         0.62751

 Excited State  90:      Singlet-A"    15.9273 eV   77.84 nm  f=0.0004  <S**2>=0.000
       9 -> 25         0.21416
      12 -> 36         0.64702

 Excited State  91:      Singlet-A"    16.0462 eV   77.27 nm  f=0.0027  <S**2>=0.000
       7 -> 21         0.32863
       9 -> 25         0.54132
      11 -> 29        -0.15392
      12 -> 36        -0.18492

 Excited State  92:      Singlet-A'    16.1460 eV   76.79 nm  f=0.0339  <S**2>=0.000
       6 -> 15         0.41936
       6 -> 16         0.44267
       7 -> 20         0.11871
       8 -> 25         0.22389
      10 -> 28        -0.15673

 Excited State  93:      Singlet-A'    16.1820 eV   76.62 nm  f=0.0281  <S**2>=0.000
       6 -> 15        -0.40220
       6 -> 16         0.40626
       7 -> 19         0.12813
       8 -> 25         0.13197
      10 -> 28         0.21262
      11 -> 30         0.11822

 Excited State  94:      Singlet-A'    16.2628 eV   76.24 nm  f=0.0704  <S**2>=0.000
       6 -> 15        -0.17713
       7 -> 22         0.40393
       8 -> 25         0.22709
      10 -> 28        -0.40279
      11 -> 28         0.13036
      11 -> 30        -0.10529
      12 -> 40        -0.11255

 Excited State  95:      Singlet-A"    16.2821 eV   76.15 nm  f=0.0848  <S**2>=0.000
       7 -> 21         0.56558
       9 -> 25        -0.35401

 Excited State  96:      Singlet-A'    16.3554 eV   75.81 nm  f=0.0248  <S**2>=0.000
       6 -> 16        -0.21235
       7 -> 19        -0.10167
       7 -> 22        -0.10448
       8 -> 25         0.52070
      11 -> 30         0.26648
      12 -> 38        -0.11244
      12 -> 40         0.13014

 Excited State  97:      Singlet-A'    16.4802 eV   75.23 nm  f=0.0148  <S**2>=0.000
       7 -> 22         0.16239
       8 -> 25        -0.24295
      10 -> 28        -0.11883
      11 -> 30         0.61101

 Excited State  98:      Singlet-A"    16.4938 eV   75.17 nm  f=0.0003  <S**2>=0.000
      12 -> 37         0.66735
      12 -> 39         0.17685

 Excited State  99:      Singlet-A"    16.5611 eV   74.86 nm  f=0.0013  <S**2>=0.000
      12 -> 37        -0.18264
      12 -> 39         0.67138

 Excited State 100:      Singlet-A'    16.5811 eV   74.77 nm  f=0.1964  <S**2>=0.000
       6 -> 15         0.10432
       7 -> 22         0.47412
       8 -> 28         0.10068
      10 -> 27        -0.14276
      10 -> 28         0.34653
      11 -> 28        -0.12803
      12 -> 40         0.12016

 Excited State 101:      Singlet-A'    16.6507 eV   74.46 nm  f=0.0203  <S**2>=0.000
       6 -> 16         0.12349
      10 -> 28        -0.14417
      12 -> 38        -0.27589
      12 -> 40         0.56625

 Excited State 102:      Singlet-A"    16.6710 eV   74.37 nm  f=0.0001  <S**2>=0.000
       7 -> 24         0.25411
      10 -> 29         0.61863

 Excited State 103:      Singlet-A"    16.7327 eV   74.10 nm  f=0.1802  <S**2>=0.000
       8 -> 26         0.14649
      11 -> 31         0.66564

 Excited State 104:      Singlet-A'    16.7853 eV   73.86 nm  f=0.0213  <S**2>=0.000
       7 -> 23         0.12541

 The electronic state is 1-A'.
 Alpha  occ. eigenvalues --  -10.23823 -10.22992 -10.22284  -0.80564  -0.70097
 Alpha  occ. eigenvalues --   -0.56610  -0.48291  -0.43675  -0.42726  -0.38423
 Alpha  occ. eigenvalues --   -0.35685  -0.27236
 Alpha virt. eigenvalues --    0.01642   0.03852   0.06511   0.06790   0.11265
 Alpha virt. eigenvalues --    0.12044   0.13225   0.14729   0.15857   0.16788
 Alpha virt. eigenvalues --    0.17811   0.19166   0.21055   0.23767   0.24618

 Mulliken charges:
               1
     1  C    0.433816
     2  C   -0.462446
     3  C   -0.033708
     4  H    0.056399
     5  H    0.068009
     6  H    0.056399
     7  H   -0.145247
     8  H    0.001477
     9  H    0.025301
 Sum of Mulliken charges =  -0.00000

 Dipole moment (field-independent basis, Debye):
    X=             -0.4062    Y=             -0.0478    Z=              0.0000  Tot=              0.4090
 Quadrupole moment (field-independent basis, Debye-Ang):
   XX=            -19.2084   YY=            -19.1205   ZZ=            -21.7309
   XY=             -0.2117   XZ=             -0.0000   YZ=              0.0000

 Normal termination of Gaussian 16 at Mon Mar 21 20:19:12 2022.
