 Gaussian 16, Revision C.01,
 Gaussian 16:  EM64L-G16RevC.01  3-Jul-2019

 ----------------------------------------------------------------------
 #P TD(Nstates=10000) pbe1pbe/Gen SCF(maxcycles=100) Int(Grid=ultrafine
 )
 ----------------------------------------------------------------------

 ---------------------
 xGDB7_00001_tier4.com
 ---------------------
 Symbolic Z-matrix:
 Charge =  0 Multiplicity = 1

                         Standard orientation:
 ---------------------------------------------------------------------
 Center     Atomic      Atomic             Coordinates (Angstroms)
 Number     Number       Type             X           Y           Z
 ---------------------------------------------------------------------
      1          6           0        0.000000    0.000000    0.660866
      2          6           0        0.000000    0.000000   -0.660866
      3          1           0        0.000000    0.922586    1.229258
      4          1           0       -0.000000   -0.922586    1.229258
      5          1           0        0.000000    0.922586   -1.229258
      6          1           0       -0.000000   -0.922586   -1.229258
 ---------------------------------------------------------------------

 SCF Done:  E(RPBE1PBE) =  -78.4289594223     A.U. after    9 cycles

 Excitation energies and oscillator strengths:

 Excited State   1:      Singlet-B3U    7.7348 eV  160.29 nm  f=0.0695  <S**2>=0.000
       8 -> 10         0.70556
 This state for optimization and/or second-order correction.
 Total Energy, E(TD-HF/TD-DFT) =  -78.1447089919
 Copying the excited state density for this state as the 1-particle RhoCI density.

 Excited State   2:      Singlet-B1U    7.9421 eV  156.11 nm  f=0.3633  <S**2>=0.000
       8 ->  9         0.69957

 Excited State   3:      Singlet-B1G    8.1149 eV  152.79 nm  f=0.0000  <S**2>=0.000
       7 ->  9         0.70156

 Excited State   4:      Singlet-B2G    8.4494 eV  146.74 nm  f=0.0000  <S**2>=0.000
       8 -> 11         0.70543

 Excited State   5:      Singlet-B1G    9.0909 eV  136.38 nm  f=0.0000  <S**2>=0.000
       8 -> 12         0.70063

 Excited State   6:      Singlet-B2G    9.7421 eV  127.27 nm  f=0.0000  <S**2>=0.000
       6 ->  9         0.70209

 Excited State   7:      Singlet-B3G    9.7842 eV  126.72 nm  f=0.0000  <S**2>=0.000
       7 -> 10         0.70496

 Excited State   8:      Singlet-B3U   10.2505 eV  120.95 nm  f=0.0629  <S**2>=0.000
       8 -> 13         0.70326

 Excited State   9:      Singlet-B2U   10.4912 eV  118.18 nm  f=0.1211  <S**2>=0.000
       7 -> 11         0.70477

 Excited State  10:      Singlet-AU    10.8283 eV  114.50 nm  f=0.0000  <S**2>=0.000
       5 ->  9        -0.12509
       8 -> 14         0.69452

 Excited State  11:      Singlet-B3U   11.2342 eV  110.36 nm  f=0.1803  <S**2>=0.000
       8 -> 15         0.69809

 Excited State  12:      Singlet-AU    11.2639 eV  110.07 nm  f=0.0000  <S**2>=0.000
       5 ->  9         0.69448
       8 -> 14         0.12555

 Excited State  13:      Singlet-B1U   11.4214 eV  108.55 nm  f=0.2116  <S**2>=0.000
       7 -> 12         0.69975

 Excited State  14:      Singlet-AG    11.5744 eV  107.12 nm  f=0.0000  <S**2>=0.000
       6 -> 10         0.34452
       7 -> 14        -0.10043
       8 -> 16         0.60147

 Excited State  15:      Singlet-B2U   11.6655 eV  106.28 nm  f=0.1020  <S**2>=0.000
       8 -> 17         0.69272

 Excited State  16:      Singlet-AG    11.9219 eV  104.00 nm  f=0.0000  <S**2>=0.000
       6 -> 10         0.60689
       7 -> 14         0.16565
       8 -> 16        -0.30767

 Excited State  17:      Singlet-B2G   12.0710 eV  102.71 nm  f=0.0000  <S**2>=0.000
       8 -> 18         0.70330

 Excited State  18:      Singlet-B1G   12.3172 eV  100.66 nm  f=0.0000  <S**2>=0.000
       8 -> 19         0.70518

 Excited State  19:      Singlet-B3G   12.3478 eV  100.41 nm  f=0.0000  <S**2>=0.000
       7 -> 13         0.69718

 Excited State  20:      Singlet-B1U   12.3950 eV  100.03 nm  f=0.2508  <S**2>=0.000
       6 -> 11         0.70253

 Excited State  21:      Singlet-B2U   13.0951 eV   94.68 nm  f=0.0140  <S**2>=0.000
       5 -> 10         0.55250
       6 -> 12        -0.43256

 Excited State  22:      Singlet-B3G   13.1481 eV   94.30 nm  f=0.0000  <S**2>=0.000
       5 -> 11         0.16234
       7 -> 15         0.67926

 Excited State  23:      Singlet-B2U   13.1835 eV   94.04 nm  f=0.2909  <S**2>=0.000
       5 -> 10         0.43547
       6 -> 12         0.53241
       7 -> 18         0.12236

 Excited State  24:      Singlet-AG    13.2806 eV   93.36 nm  f=0.0000  <S**2>=0.000
       7 -> 14         0.66823
       8 -> 16         0.14266

 Excited State  25:      Singlet-AU    13.3795 eV   92.67 nm  f=0.0000  <S**2>=0.000
       7 -> 16         0.70485

 Excited State  26:      Singlet-B2G   13.6206 eV   91.03 nm  f=0.0000  <S**2>=0.000
       7 -> 17         0.63575
       8 -> 21        -0.30434

 Excited State  27:      Singlet-B3G   13.8036 eV   89.82 nm  f=0.0000  <S**2>=0.000
       5 -> 11         0.67711
       7 -> 15        -0.15876
       8 -> 22         0.10522

 Excited State  28:      Singlet-B2G   13.9026 eV   89.18 nm  f=0.0000  <S**2>=0.000
       7 -> 17         0.30132
       8 -> 21         0.63462

 Excited State  29:      Singlet-B1U   14.0441 eV   88.28 nm  f=0.0354  <S**2>=0.000
       7 -> 19        -0.13355
       8 -> 20         0.67232

 Excited State  30:      Singlet-B3G   14.0724 eV   88.10 nm  f=0.0000  <S**2>=0.000
       8 -> 22         0.69405

 Excited State  31:      Singlet-AG    14.1651 eV   87.53 nm  f=0.0000  <S**2>=0.000
       5 -> 12         0.12161
       6 -> 13         0.69103

 Excited State  32:      Singlet-B2U   14.4683 eV   85.69 nm  f=0.4872  <S**2>=0.000
       6 -> 12        -0.10772
       6 -> 19         0.10489
       7 -> 18         0.67757

 Excited State  33:      Singlet-AG    14.7218 eV   84.22 nm  f=0.0000  <S**2>=0.000
       5 -> 12         0.54756
       6 -> 15        -0.43099

 Excited State  34:      Singlet-B3G   14.7247 eV   84.20 nm  f=0.0000  <S**2>=0.000
       6 -> 14         0.70148

 Excited State  35:      Singlet-B1U   14.8225 eV   83.65 nm  f=0.3718  <S**2>=0.000
       5 -> 14        -0.10296
       7 -> 19         0.67560
       8 -> 20         0.10757

 Excited State  36:      Singlet-B3U   14.8858 eV   83.29 nm  f=0.0541  <S**2>=0.000
       4 ->  9         0.60071
       5 -> 17        -0.11937
       6 -> 16         0.28057
       7 -> 22        -0.13412
       8 -> 23        -0.13430

 Excited State  37:      Singlet-B1G   15.4156 eV   80.43 nm  f=0.0000  <S**2>=0.000
       5 -> 16        -0.14460
       6 -> 17         0.55942
       7 -> 20        -0.40446

 Excited State  38:      Singlet-B3U   15.4326 eV   80.34 nm  f=0.1551  <S**2>=0.000
       6 -> 16         0.46268
       8 -> 23         0.52304

 Excited State  39:      Singlet-B3U   15.4729 eV   80.13 nm  f=0.0271  <S**2>=0.000
       4 ->  9         0.26970
       6 -> 16        -0.44861
       8 -> 23         0.45430

 Excited State  40:      Singlet-B1G   15.6240 eV   79.35 nm  f=0.0000  <S**2>=0.000
       5 -> 16         0.13697
       6 -> 17         0.42960
       7 -> 20         0.54096

 Excited State  41:      Singlet-B2U   15.6820 eV   79.06 nm  f=0.1705  <S**2>=0.000
       5 -> 13         0.61984
       6 -> 19        -0.24614
       7 -> 21         0.20650

 Excited State  42:      Singlet-AG    15.7008 eV   78.97 nm  f=0.0000  <S**2>=0.000
       4 -> 11        -0.14842
       5 -> 12         0.37169
       6 -> 13        -0.10263
       6 -> 15         0.53207
       8 -> 16        -0.10681

 Excited State  43:      Singlet-B2U   15.8316 eV   78.31 nm  f=0.0313  <S**2>=0.000
       5 -> 13        -0.19117
       5 -> 15        -0.22408
       7 -> 21         0.63364

 Excited State  44:      Singlet-B1G   15.9817 eV   77.58 nm  f=0.0000  <S**2>=0.000
       8 -> 24         0.70244

 Excited State  45:      Singlet-B1U   16.0317 eV   77.34 nm  f=0.0113  <S**2>=0.000
       4 -> 10         0.44233
       5 -> 14         0.18679
       6 -> 18         0.51602

 Excited State  46:      Singlet-B3U   16.1597 eV   76.72 nm  f=0.3189  <S**2>=0.000
       4 ->  9         0.14198
       7 -> 22         0.68242

 Excited State  47:      Singlet-B1U   16.2069 eV   76.50 nm  f=0.0160  <S**2>=0.000
       4 -> 10        -0.36521
       5 -> 14        -0.39468
       6 -> 18         0.45479

 Excited State  48:      Singlet-AG    16.2300 eV   76.39 nm  f=0.0000  <S**2>=0.000
       8 -> 26         0.68854

 Excited State  49:      Singlet-B2G   16.4140 eV   75.54 nm  f=0.0000  <S**2>=0.000
       8 -> 25         0.70439

 Excited State  50:      Singlet-B2U   16.4523 eV   75.36 nm  f=0.0008  <S**2>=0.000
       5 -> 15         0.66622
       7 -> 21         0.22578

 Excited State  51:      Singlet-B1U   16.5836 eV   74.76 nm  f=0.0181  <S**2>=0.000
       4 -> 10        -0.38199
       5 -> 14         0.52567
       6 -> 18         0.12764
       6 -> 21         0.14539
       8 -> 20         0.12750

 Excited State  52:      Singlet-B2U   16.6550 eV   74.44 nm  f=0.2346  <S**2>=0.000
       5 -> 13         0.23616
       6 -> 19         0.64039

 Excited State  53:      Singlet-AU    16.7144 eV   74.18 nm  f=0.0000  <S**2>=0.000
       8 -> 27         0.70577

 Excited State  54:      Singlet-B1G   16.7515 eV   74.01 nm  f=0.0000  <S**2>=0.000
       5 -> 16         0.67742
       7 -> 20        -0.19805

 Excited State  55:      Singlet-AG    16.9170 eV   73.29 nm  f=0.0000  <S**2>=0.000
       4 -> 11         0.67529
       5 -> 12         0.12159

 Excited State  56:      Singlet-B3U   17.0572 eV   72.69 nm  f=0.1735  <S**2>=0.000
       5 -> 17         0.65526
       8 -> 28        -0.21488

 Excited State  57:      Singlet-B3G   17.3543 eV   71.44 nm  f=0.0000  <S**2>=0.000
       4 -> 12         0.58017
       5 -> 18        -0.10834
       7 -> 23         0.37876

 Excited State  58:      Singlet-B2G   17.4069 eV   71.23 nm  f=0.0000  <S**2>=0.000
       6 -> 20         0.69469

 Excited State  59:      Singlet-B3G   17.4526 eV   71.04 nm  f=0.0000  <S**2>=0.000
       4 -> 12         0.25603
       5 -> 18         0.61698
       7 -> 23        -0.21756

 Excited State  60:      Singlet-B3G   17.6649 eV   70.19 nm  f=0.0000  <S**2>=0.000
       4 -> 12        -0.30108
       5 -> 18         0.31408
       7 -> 23         0.55207

 Excited State  61:      Singlet-AG    17.8687 eV   69.39 nm  f=0.0000  <S**2>=0.000
       5 -> 19         0.68974

 Excited State  62:      Singlet-B1U   17.8823 eV   69.33 nm  f=0.2327  <S**2>=0.000
       4 -> 15        -0.12227
       6 -> 21         0.60449
       7 -> 24         0.30311

 Excited State  63:      Singlet-AU    17.9288 eV   69.15 nm  f=0.0000  <S**2>=0.000
       6 -> 22         0.69408

 Excited State  64:      Singlet-B3U   18.0199 eV   68.80 nm  f=0.2866  <S**2>=0.000
       4 ->  9         0.11619
       5 -> 17         0.18743
       8 -> 28         0.65799

 Excited State  65:      Singlet-B1G   18.2477 eV   67.95 nm  f=0.0000  <S**2>=0.000
       8 -> 29         0.70548

 Excited State  66:      Singlet-AU    18.3244 eV   67.66 nm  f=0.0000  <S**2>=0.000
       5 -> 20        -0.10669
       7 -> 26         0.69493

 Excited State  67:      Singlet-B1U   18.4871 eV   67.07 nm  f=0.2606  <S**2>=0.000
       4 -> 13         0.55673
       6 -> 21         0.17117
       7 -> 24        -0.38409

 Excited State  68:      Singlet-AU    18.4919 eV   67.05 nm  f=0.0000  <S**2>=0.000
       8 -> 30         0.70256

 Excited State  69:      Singlet-B1U   18.5266 eV   66.92 nm  f=0.1279  <S**2>=0.000
       4 -> 13         0.42915
       6 -> 21        -0.24950
       7 -> 24         0.47753
       7 -> 29         0.10206

 Excited State  70:      Singlet-B2U   18.5505 eV   66.84 nm  f=0.0432  <S**2>=0.000
       4 -> 14        -0.10608
       7 -> 25         0.65971
       8 -> 32        -0.21386

 Excited State  71:      Singlet-B2G   18.5827 eV   66.72 nm  f=0.0000  <S**2>=0.000
       8 -> 33         0.70051

 Excited State  72:      Singlet-B2U   18.7305 eV   66.19 nm  f=0.1379  <S**2>=0.000
       7 -> 25         0.22473
       8 -> 32         0.64605

 Excited State  73:      Singlet-B3U   18.7347 eV   66.18 nm  f=0.1125  <S**2>=0.000
       8 -> 31         0.69421

 Excited State  74:      Singlet-AG    18.7359 eV   66.17 nm  f=0.0000  <S**2>=0.000
       7 -> 27         0.69570

 Excited State  75:      Singlet-AU    18.9467 eV   65.44 nm  f=0.0000  <S**2>=0.000
       5 -> 20         0.68763
       7 -> 26         0.10718

 Excited State  76:      Singlet-B3G   19.1185 eV   64.85 nm  f=0.0000  <S**2>=0.000
       5 -> 21         0.69351
       7 -> 28         0.11615

 Excited State  77:      Singlet-B2U   19.2085 eV   64.55 nm  f=0.0323  <S**2>=0.000
       4 -> 14         0.68385

 Excited State  78:      Singlet-B2G   19.3151 eV   64.19 nm  f=0.0000  <S**2>=0.000
       3 ->  9        -0.11406
       4 -> 16        -0.12950
       5 -> 22         0.67735

 Excited State  79:      Singlet-B1U   19.3733 eV   64.00 nm  f=0.0320  <S**2>=0.000
       4 -> 15         0.56471
       8 -> 34        -0.40264

 Excited State  80:      Singlet-B1U   19.4882 eV   63.62 nm  f=0.0683  <S**2>=0.000
       4 -> 15         0.38602
       7 -> 24         0.10416
       8 -> 34         0.57736

 Excited State  81:      Singlet-B2G   19.5241 eV   63.50 nm  f=0.0000  <S**2>=0.000
       3 ->  9         0.60858
       4 -> 16        -0.25174
       8 -> 35         0.21341

 Excited State  82:      Singlet-AG    19.5434 eV   63.44 nm  f=0.0000  <S**2>=0.000
       4 -> 18        -0.12085
       6 -> 23         0.67791

 Excited State  83:      Singlet-B2G   19.6813 eV   63.00 nm  f=0.0000  <S**2>=0.000
       3 ->  9         0.19336
       4 -> 16         0.63510
       5 -> 22         0.15504
       8 -> 35         0.16162

 Excited State  84:      Singlet-B3G   19.7283 eV   62.85 nm  f=0.0000  <S**2>=0.000
       5 -> 21        -0.11657
       7 -> 28         0.68951

 Excited State  85:      Singlet-AU    19.8664 eV   62.41 nm  f=0.0000  <S**2>=0.000
       4 -> 17         0.69674

 Excited State  86:      Singlet-B2U   20.0941 eV   61.70 nm  f=0.0151  <S**2>=0.000
       5 -> 23         0.11621
       6 -> 24         0.62891
       7 -> 33         0.27294

 Excited State  87:      Singlet-B3U   20.3331 eV   60.98 nm  f=0.2217  <S**2>=0.000
       4 -> 20        -0.11835
       6 -> 26         0.68794

 Excited State  88:      Singlet-B1U   20.4587 eV   60.60 nm  f=0.1024  <S**2>=0.000
       6 -> 25         0.69685

 Excited State  89:      Singlet-AG    20.4679 eV   60.58 nm  f=0.0000  <S**2>=0.000
       4 -> 18         0.67629
       7 -> 30         0.14480

 Excited State  90:      Singlet-B3G   20.5182 eV   60.43 nm  f=0.0000  <S**2>=0.000
       4 -> 19         0.35257
       6 -> 27         0.57778
       7 -> 31        -0.17663

 Excited State  91:      Singlet-B2G   20.6624 eV   60.00 nm  f=0.0000  <S**2>=0.000
       3 ->  9         0.12984
       7 -> 32         0.54252
       8 -> 35        -0.42381

 Excited State  92:      Singlet-B3G   20.7185 eV   59.84 nm  f=0.0000  <S**2>=0.000
       4 -> 19        -0.31092
       6 -> 27         0.35107
       7 -> 31         0.51855

 Excited State  93:      Singlet-B1U   20.7233 eV   59.83 nm  f=0.1053  <S**2>=0.000
       7 -> 29         0.67668

 Excited State  94:      Singlet-B2U   20.8601 eV   59.44 nm  f=0.0874  <S**2>=0.000
       5 -> 23         0.67368
       7 -> 33        -0.19283

 Excited State  95:      Singlet-AG    20.9130 eV   59.29 nm  f=0.0000  <S**2>=0.000
       3 -> 10         0.49175
       7 -> 30        -0.48644

 Excited State  96:      Singlet-B2G   20.9387 eV   59.21 nm  f=0.0000  <S**2>=0.000
       3 ->  9        -0.22021
       5 -> 22        -0.10303
       7 -> 32         0.43949
       8 -> 35         0.48798

 Excited State  97:      Singlet-B3G   20.9640 eV   59.14 nm  f=0.0000  <S**2>=0.000
       4 -> 19         0.50884
       6 -> 27        -0.19369
       7 -> 31         0.42180

 Excited State  98:      Singlet-AG    21.3411 eV   58.10 nm  f=0.0000  <S**2>=0.000
       3 -> 10         0.47015
       5 -> 24        -0.24554
       6 -> 23        -0.12584
       7 -> 30         0.41662

 Excited State  99:      Singlet-B1G   21.3418 eV   58.09 nm  f=0.0000  <S**2>=0.000
       5 -> 26         0.44046
       7 -> 34         0.55128

 Excited State 100:      Singlet-B2U   21.4044 eV   57.92 nm  f=0.3789  <S**2>=0.000
       3 -> 12        -0.14632
       5 -> 23         0.11150
       6 -> 24        -0.23905
       6 -> 29        -0.26449
       7 -> 33         0.53328
       7 -> 35         0.15641

 Excited State 101:      Singlet-AG    21.6060 eV   57.38 nm  f=0.0000  <S**2>=0.000
       4 -> 21         0.23900
       5 -> 24         0.39200
       6 -> 28         0.52587

 Excited State 102:      Singlet-B1G   21.7071 eV   57.12 nm  f=0.0000  <S**2>=0.000
       4 -> 22         0.12359
       5 -> 26         0.54525
       7 -> 34        -0.42786

 Excited State 103:      Singlet-AG    21.7241 eV   57.07 nm  f=0.0000  <S**2>=0.000
       4 -> 21        -0.25985
       5 -> 24        -0.39466
       6 -> 28         0.44586
       6 -> 31        -0.19560

 Excited State 104:      Singlet-B1U   21.7978 eV   56.88 nm  f=0.0040  <S**2>=0.000
       3 -> 11         0.66651
       5 -> 27        -0.16549
       6 -> 33         0.12028

 Excited State 105:      Singlet-B3G   21.8483 eV   56.75 nm  f=0.0000  <S**2>=0.000
       5 -> 25         0.69278
       7 -> 31        -0.10930

 Excited State 106:      Singlet-B3U   22.0243 eV   56.29 nm  f=0.0000  <S**2>=0.000
       4 -> 20         0.69041
       6 -> 26         0.10557

 Excited State 107:      Singlet-B1U   22.0433 eV   56.25 nm  f=0.0565  <S**2>=0.000
       3 -> 11         0.16964
       5 -> 27         0.67966

 Excited State 108:      Singlet-B1G   22.2345 eV   55.76 nm  f=0.0000  <S**2>=0.000
       4 -> 22         0.65672
       6 -> 32         0.21610
       7 -> 34         0.11162

 Excited State 109:      Singlet-AG    22.2830 eV   55.64 nm  f=0.0000  <S**2>=0.000
       4 -> 21         0.57131
       5 -> 24        -0.23361
       6 -> 31        -0.28929
       7 -> 30        -0.10317

 Excited State 110:      Singlet-B2U   22.3396 eV   55.50 nm  f=0.0340  <S**2>=0.000
       3 -> 12        -0.27482
       5 -> 28        -0.13549
       6 -> 29         0.51428
       7 -> 35         0.36107

 Excited State 111:      Singlet-B3G   22.4241 eV   55.29 nm  f=0.0000  <S**2>=0.000
       6 -> 30         0.67359
       8 -> 37        -0.18187

 Excited State 112:      Singlet-B2G   22.5599 eV   54.96 nm  f=0.0000  <S**2>=0.000
       8 -> 36         0.69774

 Excited State 113:      Singlet-B3G   22.6246 eV   54.80 nm  f=0.0000  <S**2>=0.000
       5 -> 33         0.10426
       6 -> 30         0.17087
       8 -> 37         0.66724

 Excited State 114:      Singlet-B2U   22.6291 eV   54.79 nm  f=0.1340  <S**2>=0.000
       3 -> 12         0.32834
       5 -> 28        -0.24379
       6 -> 29        -0.21426
       7 -> 33        -0.13877
       7 -> 35         0.49870

 Excited State 115:      Singlet-B1G   22.6892 eV   54.64 nm  f=0.0000  <S**2>=0.000
       4 -> 22        -0.22227
       6 -> 32         0.66956

 Excited State 116:      Singlet-B2U   22.7948 eV   54.39 nm  f=0.0773  <S**2>=0.000
       3 -> 12         0.46743
       5 -> 28        -0.24115
       5 -> 31         0.19921
       6 -> 29         0.28318
       7 -> 33         0.21532
       7 -> 35        -0.19294

 Excited State 117:      Singlet-B1U   22.9238 eV   54.09 nm  f=0.1583  <S**2>=0.000
       4 -> 23        -0.14673
       5 -> 30         0.10155
       6 -> 33         0.66241

 Excited State 118:      Singlet-AG    22.9829 eV   53.95 nm  f=0.0000  <S**2>=0.000
       3 -> 15        -0.10604
       4 -> 21         0.15940
       5 -> 24        -0.20959
       6 -> 31         0.59640
       7 -> 30        -0.12823
       8 -> 40         0.13490

 Excited State 119:      Singlet-B2U   23.1679 eV   53.52 nm  f=0.0097  <S**2>=0.000
       3 -> 12         0.24493
       5 -> 28         0.59519
       5 -> 31         0.11650
       6 -> 29         0.10870
       7 -> 35         0.21791

 Excited State 120:      Singlet-B2G   23.3718 eV   53.05 nm  f=0.0000  <S**2>=0.000
       6 -> 34         0.69873

 Excited State 121:      Singlet-AU    23.4676 eV   52.83 nm  f=0.0000  <S**2>=0.000
       8 -> 38         0.70586

 Excited State 122:      Singlet-AG    23.5536 eV   52.64 nm  f=0.0000  <S**2>=0.000
       3 -> 13         0.69590

 Excited State 123:      Singlet-AG    23.7815 eV   52.13 nm  f=0.0000  <S**2>=0.000
       5 -> 29         0.69150

 Excited State 124:      Singlet-B1U   23.8806 eV   51.92 nm  f=0.0011  <S**2>=0.000
       4 -> 23         0.55704
       5 -> 30         0.42650

 Excited State 125:      Singlet-B3U   24.1082 eV   51.43 nm  f=0.0871  <S**2>=0.000
       3 -> 16         0.12256
       5 -> 32         0.68432
       8 -> 39        -0.10600

 Excited State 126:      Singlet-B1U   24.1123 eV   51.42 nm  f=0.1235  <S**2>=0.000
       4 -> 23        -0.33077
       5 -> 30         0.47612
       6 -> 35         0.37516

 Excited State 127:      Singlet-B3G   24.1420 eV   51.36 nm  f=0.0000  <S**2>=0.000
       3 -> 14         0.48817
       4 -> 24         0.17788
       5 -> 33         0.46472

 Excited State 128:      Singlet-B3G   24.3333 eV   50.95 nm  f=0.0000  <S**2>=0.000
       3 -> 14        -0.45027
       4 -> 24         0.45386
       5 -> 33         0.28614

 Excited State 129:      Singlet-B2U   24.3860 eV   50.84 nm  f=0.2336  <S**2>=0.000
       5 -> 31        -0.46519
       6 -> 29         0.12454
       7 -> 33         0.11579
       7 -> 36         0.47961

 Excited State 130:      Singlet-B3G   24.5099 eV   50.59 nm  f=0.0000  <S**2>=0.000
       3 -> 14         0.22826
       4 -> 24         0.49872
       5 -> 33        -0.40907

 Excited State 131:      Singlet-AG    24.5761 eV   50.45 nm  f=0.0000  <S**2>=0.000
       3 -> 15         0.68346

 Excited State 132:      Singlet-B2G   24.6534 eV   50.29 nm  f=0.0000  <S**2>=0.000
       4 -> 26         0.69287
       6 -> 34        -0.10178

 Excited State 133:      Singlet-AU    24.7726 eV   50.05 nm  f=0.0000  <S**2>=0.000
       5 -> 34         0.70403

 Excited State 134:      Singlet-B2U   24.7798 eV   50.03 nm  f=0.1597  <S**2>=0.000
       3 -> 12        -0.10156
       4 -> 27         0.10480
       5 -> 31         0.43905
       7 -> 36         0.49820

 Excited State 135:      Singlet-B3U   24.7876 eV   50.02 nm  f=0.0652  <S**2>=0.000
       3 -> 16         0.57294
       5 -> 32        -0.11920
       7 -> 37        -0.39476

 Excited State 136:      Singlet-B3U   24.8991 eV   49.79 nm  f=0.0262  <S**2>=0.000
       3 -> 16         0.35335
       7 -> 37         0.52143
       8 -> 39         0.31810

 Excited State 137:      Singlet-B2U   24.8996 eV   49.79 nm  f=0.0062  <S**2>=0.000
       4 -> 27         0.68883
       5 -> 31        -0.11914

 Excited State 138:      Singlet-B1G   24.9127 eV   49.77 nm  f=0.0000  <S**2>=0.000
       3 -> 17         0.70512

 The electronic state is 1-AG.
 Alpha  occ. eigenvalues --  -10.23537 -10.23442  -0.78032  -0.59259  -0.48625
 Alpha  occ. eigenvalues --   -0.43667  -0.36639  -0.29163
 Alpha virt. eigenvalues --    0.00502   0.04443   0.06538   0.10219   0.13878
 Alpha virt. eigenvalues --    0.15768   0.17488   0.18509   0.19233   0.20591
 Alpha virt. eigenvalues --    0.22168   0.26946   0.27083   0.27549   0.33199

 Mulliken charges:
               1
     1  C    0.079088
     2  C    0.079088
     3  H   -0.039544
     4  H   -0.039544
     5  H   -0.039544
     6  H   -0.039544
 Sum of Mulliken charges =  -0.00000

 Dipole moment (field-independent basis, Debye):
    X=              0.0000    Y=             -0.0000    Z=              0.0000  Tot=              0.0000
 Quadrupole moment (field-independent basis, Debye-Ang):
   XX=            -15.3999   YY=            -12.3703   ZZ=            -12.3115
   XY=              0.0000   XZ=             -0.0000   YZ=             -0.0000

 Normal termination of Gaussian 16 at Mon Mar 21 20:20:52 2022.
