 Gaussian 16, Revision C.01,
 Gaussian 16:  EM64L-G16RevC.01  3-Jul-2019

 ----------------------------------------------------------------------
 #P TD(Nstates=10000) pbe1pbe/Gen SCF(maxcycles=100) Int(Grid=ultrafine
 )
 ----------------------------------------------------------------------

 ---------------------
 xGDB7_00001_tier4.com
 ---------------------
 Symbolic Z-matrix:
 Charge =  0 Multiplicity = 1

                         Standard orientation:
 ---------------------------------------------------------------------
 Center     Atomic      Atomic             Coordinates (Angstroms)
 Number     Number       Type             X           Y           Z
 ---------------------------------------------------------------------
      1          7           0        1.106441    0.142513   -0.090982
      2          7           0       -0.080753   -0.512520    0.006066
      3          6           0       -1.148696    0.167456    0.008166
      4          1           0        1.854749   -0.409916    0.291533
      5          1           0        1.109676    1.100453    0.242713
      6          1           0       -2.089851   -0.366199    0.035249
      7          1           0       -1.162209    1.260974   -0.024080
 ---------------------------------------------------------------------

 SCF Done:  E(RPBE1PBE) =  -149.688379654     A.U. after   13 cycles

 Excitation energies and oscillator strengths:

 Excited State   1:      Singlet-A      5.8319 eV  212.60 nm  f=0.0079  <S**2>=0.000
      11 -> 13         0.68173
      12 -> 13         0.17347
 This state for optimization and/or second-order correction.
 Total Energy, E(TD-HF/TD-DFT) =  -149.474062503
 Copying the excited state density for this state as the 1-particle RhoCI density.

 Excited State   2:      Singlet-A      6.1306 eV  202.24 nm  f=0.1630  <S**2>=0.000
      11 -> 13        -0.16032
      12 -> 13         0.62980
      12 -> 14         0.24852

 Excited State   3:      Singlet-A      6.5083 eV  190.50 nm  f=0.0568  <S**2>=0.000
      12 -> 13        -0.23620
      12 -> 14         0.65359

 Excited State   4:      Singlet-A      7.3777 eV  168.05 nm  f=0.0279  <S**2>=0.000
      12 -> 15         0.69294

 Excited State   5:      Singlet-A      7.6466 eV  162.14 nm  f=0.0442  <S**2>=0.000
      11 -> 14         0.69804

 Excited State   6:      Singlet-A      7.9775 eV  155.42 nm  f=0.0156  <S**2>=0.000
      12 -> 16         0.69496

 Excited State   7:      Singlet-A      8.4486 eV  146.75 nm  f=0.0255  <S**2>=0.000
      11 -> 15         0.69801

 Excited State   8:      Singlet-A      8.7428 eV  141.81 nm  f=0.0114  <S**2>=0.000
      12 -> 17         0.69209

 Excited State   9:      Singlet-A      9.1205 eV  135.94 nm  f=0.0340  <S**2>=0.000
      11 -> 16        -0.37458
      12 -> 18         0.58876

 Excited State  10:      Singlet-A      9.1602 eV  135.35 nm  f=0.0919  <S**2>=0.000
      11 -> 16         0.58554
      12 -> 18         0.37175

 Excited State  11:      Singlet-A      9.5568 eV  129.73 nm  f=0.0080  <S**2>=0.000
       9 -> 13         0.23659
      10 -> 13         0.13460
      12 -> 19         0.64292

 Excited State  12:      Singlet-A      9.7077 eV  127.72 nm  f=0.0090  <S**2>=0.000
       9 -> 13         0.55566
      10 -> 13         0.30860
      12 -> 19        -0.28086

 Excited State  13:      Singlet-A      9.8504 eV  125.87 nm  f=0.0444  <S**2>=0.000
       9 -> 13        -0.10501
      11 -> 17         0.64319
      11 -> 18         0.23776

 Excited State  14:      Singlet-A     10.1390 eV  122.28 nm  f=0.0794  <S**2>=0.000
      11 -> 17        -0.22970
      11 -> 18         0.65616

 Excited State  15:      Singlet-A     10.3761 eV  119.49 nm  f=0.0976  <S**2>=0.000
       9 -> 13        -0.31782
      10 -> 13         0.53859
      10 -> 14         0.11044
      11 -> 17        -0.10020
      11 -> 19         0.14587
      12 -> 20         0.10776
      12 -> 21         0.10431

 Excited State  16:      Singlet-A     10.5558 eV  117.46 nm  f=0.0196  <S**2>=0.000
      11 -> 19         0.64146
      12 -> 20        -0.26238

 Excited State  17:      Singlet-A     10.7077 eV  115.79 nm  f=0.0205  <S**2>=0.000
      10 -> 14        -0.15115
      12 -> 20        -0.20834
      12 -> 21         0.64286

 Excited State  18:      Singlet-A     10.7695 eV  115.13 nm  f=0.0475  <S**2>=0.000
      10 -> 13        -0.10881
      10 -> 14        -0.16572
      11 -> 19         0.21697
      12 -> 20         0.57804
      12 -> 21         0.18011

 Excited State  19:      Singlet-A     10.8123 eV  114.67 nm  f=0.0377  <S**2>=0.000
      10 -> 13        -0.12263
      10 -> 14         0.64517
      12 -> 21         0.18158

 Excited State  20:      Singlet-A     11.0819 eV  111.88 nm  f=0.0657  <S**2>=0.000
      12 -> 22         0.69401

 Excited State  21:      Singlet-A     11.4621 eV  108.17 nm  f=0.0239  <S**2>=0.000
      11 -> 20         0.68997

 Excited State  22:      Singlet-A     11.5443 eV  107.40 nm  f=0.1120  <S**2>=0.000
       9 -> 14         0.66041
      10 -> 15         0.12203
      11 -> 21         0.14842

 Excited State  23:      Singlet-A     11.6991 eV  105.98 nm  f=0.0037  <S**2>=0.000
      10 -> 15         0.64409
      11 -> 21        -0.20143

 Excited State  24:      Singlet-A     11.7368 eV  105.64 nm  f=0.0301  <S**2>=0.000
       9 -> 14        -0.12618
      10 -> 15         0.19394
      11 -> 21         0.55239
      12 -> 23         0.30635
      12 -> 24        -0.16245

 Excited State  25:      Singlet-A     11.8126 eV  104.96 nm  f=0.0585  <S**2>=0.000
       9 -> 14        -0.10430
      11 -> 21         0.30773
      12 -> 23        -0.35873
      12 -> 24         0.48962

 Excited State  26:      Singlet-A     11.8820 eV  104.35 nm  f=0.0203  <S**2>=0.000
      11 -> 22         0.14745
      12 -> 23         0.47572
      12 -> 24         0.44961

 Excited State  27:      Singlet-A     12.0822 eV  102.62 nm  f=0.0181  <S**2>=0.000
       8 -> 13         0.55035
      11 -> 22         0.38178
      12 -> 25         0.11589

 Excited State  28:      Singlet-A     12.0994 eV  102.47 nm  f=0.0616  <S**2>=0.000
       8 -> 13        -0.36890
      11 -> 22         0.54421
      12 -> 25        -0.12464

 Excited State  29:      Singlet-A     12.2894 eV  100.89 nm  f=0.0133  <S**2>=0.000
      10 -> 16         0.66001
      12 -> 25        -0.15717

 Excited State  30:      Singlet-A     12.4156 eV   99.86 nm  f=0.0675  <S**2>=0.000
       9 -> 15         0.67631

 Excited State  31:      Singlet-A     12.4588 eV   99.52 nm  f=0.1231  <S**2>=0.000
       8 -> 13        -0.14170
      10 -> 16         0.14099
      11 -> 23         0.17129
      12 -> 25         0.62558

 Excited State  32:      Singlet-A     12.5766 eV   98.58 nm  f=0.0253  <S**2>=0.000
      11 -> 23         0.67234
      12 -> 25        -0.15280

 Excited State  33:      Singlet-A     12.6736 eV   97.83 nm  f=0.0791  <S**2>=0.000
       9 -> 15        -0.10255
      10 -> 16         0.10742
      11 -> 24        -0.10308
      12 -> 26         0.56227
      12 -> 27        -0.34490

 Excited State  34:      Singlet-A     13.0022 eV   95.36 nm  f=0.0466  <S**2>=0.000
       9 -> 16        -0.11469
      10 -> 17        -0.19755
      11 -> 24         0.24612
      12 -> 26         0.36768
      12 -> 27         0.47575

 Excited State  35:      Singlet-A     13.0373 eV   95.10 nm  f=0.0649  <S**2>=0.000
       7 -> 13        -0.11455
       9 -> 16         0.18215
      10 -> 17        -0.29895
      11 -> 24         0.48173
      11 -> 25         0.10338
      12 -> 27        -0.29204

 Excited State  36:      Singlet-A     13.1033 eV   94.62 nm  f=0.0025  <S**2>=0.000
       7 -> 13         0.23519
       9 -> 16        -0.12622
      10 -> 17         0.50055
      11 -> 24         0.36832
      11 -> 25         0.13005

 Excited State  37:      Singlet-A     13.1349 eV   94.39 nm  f=0.0009  <S**2>=0.000
       7 -> 13         0.62708
      10 -> 17        -0.27298

 Excited State  38:      Singlet-A     13.1769 eV   94.09 nm  f=0.0451  <S**2>=0.000
       7 -> 13         0.12791
       9 -> 16         0.63680
      10 -> 17         0.12455
      12 -> 26         0.10483
      12 -> 27         0.15054

 Excited State  39:      Singlet-A     13.4652 eV   92.08 nm  f=0.0245  <S**2>=0.000
      10 -> 18         0.64885
      11 -> 25        -0.19447
      11 -> 26        -0.10301

 Excited State  40:      Singlet-A     13.5265 eV   91.66 nm  f=0.0249  <S**2>=0.000
       8 -> 14         0.11506
      10 -> 18         0.23222
      11 -> 25         0.57682
      11 -> 26         0.17877
      11 -> 27        -0.12718

 Excited State  41:      Singlet-A     13.7273 eV   90.32 nm  f=0.0259  <S**2>=0.000
      11 -> 25        -0.23126
      11 -> 26         0.61945
      11 -> 27        -0.17619

 Excited State  42:      Singlet-A     13.8840 eV   89.30 nm  f=0.0848  <S**2>=0.000
       9 -> 17         0.22274
       9 -> 18         0.12492
      10 -> 19         0.63187

 Excited State  43:      Singlet-A     13.8902 eV   89.26 nm  f=0.0215  <S**2>=0.000
       8 -> 14         0.43810
       9 -> 17         0.36615
       9 -> 18         0.32195
      10 -> 19        -0.22505

 Excited State  44:      Singlet-A     14.0162 eV   88.46 nm  f=0.0084  <S**2>=0.000
       8 -> 14         0.42396
       9 -> 17        -0.38539
      10 -> 19         0.15457
      11 -> 25        -0.11142
      11 -> 26        -0.15500
      11 -> 27        -0.26329

 Excited State  45:      Singlet-A     14.1306 eV   87.74 nm  f=0.0424  <S**2>=0.000
       8 -> 14         0.24218
       9 -> 17        -0.16329
       9 -> 18        -0.10669
      11 -> 26         0.16999
      11 -> 27         0.58370

 Excited State  46:      Singlet-A     14.2226 eV   87.17 nm  f=0.0058  <S**2>=0.000
       8 -> 14        -0.14151
       9 -> 17        -0.28032
       9 -> 18         0.54483
       9 -> 19         0.19439
      10 -> 20         0.16858

 Excited State  47:      Singlet-A     14.4480 eV   85.81 nm  f=0.0064  <S**2>=0.000
       7 -> 14        -0.17235
       8 -> 15        -0.12962
      12 -> 28         0.60196
      12 -> 29        -0.22593

 Excited State  48:      Singlet-A     14.5438 eV   85.25 nm  f=0.0914  <S**2>=0.000
       7 -> 14         0.61216
       7 -> 15        -0.14074
       9 -> 19        -0.20263
      12 -> 28         0.20413

 Excited State  49:      Singlet-A     14.5934 eV   84.96 nm  f=0.0179  <S**2>=0.000
       7 -> 14        -0.11527
       8 -> 15         0.20136
       9 -> 19        -0.10192
      12 -> 28         0.24990
      12 -> 29         0.57922

 Excited State  50:      Singlet-A     14.6682 eV   84.53 nm  f=0.1768  <S**2>=0.000
       7 -> 14         0.19493
       9 -> 18        -0.10960
       9 -> 19         0.59532
      10 -> 20        -0.18278
      12 -> 29         0.12986

 Excited State  51:      Singlet-A     14.7562 eV   84.02 nm  f=0.0384  <S**2>=0.000
       8 -> 15        -0.40514
      10 -> 20         0.45362
      12 -> 29         0.26035
      12 -> 30        -0.13485

 Excited State  52:      Singlet-A     14.8403 eV   83.55 nm  f=0.0164  <S**2>=0.000
      10 -> 20         0.22824
      10 -> 21        -0.13506
      12 -> 30         0.62931

 Excited State  53:      Singlet-A     14.9804 eV   82.76 nm  f=0.0362  <S**2>=0.000
       7 -> 16        -0.12860
       8 -> 15         0.46491
       9 -> 17         0.10829
       9 -> 18        -0.11943
      10 -> 20         0.34111
      10 -> 21         0.20558
      12 -> 30        -0.14325

 Excited State  54:      Singlet-A     15.0406 eV   82.43 nm  f=0.0229  <S**2>=0.000
       8 -> 15        -0.10387
      10 -> 21         0.64187
      12 -> 30         0.18065

 Excited State  55:      Singlet-A     15.3314 eV   80.87 nm  f=0.0147  <S**2>=0.000
       6 -> 13        -0.13016
       8 -> 16         0.23317
      10 -> 22         0.27651
      11 -> 28         0.49460
      11 -> 29        -0.27830

 Excited State  56:      Singlet-A     15.3669 eV   80.68 nm  f=0.0551  <S**2>=0.000
       7 -> 15         0.15140
       8 -> 16         0.52686
       9 -> 20         0.26076
      10 -> 22         0.12853
      11 -> 28        -0.21808
      11 -> 30         0.14442

 Excited State  57:      Singlet-A     15.4317 eV   80.34 nm  f=0.0061  <S**2>=0.000
       6 -> 13         0.13508
       7 -> 15        -0.11752
       8 -> 16        -0.16184
       9 -> 20         0.58987
       9 -> 21         0.12441
      10 -> 22        -0.10857
      11 -> 28         0.19224

 Excited State  58:      Singlet-A     15.4587 eV   80.20 nm  f=0.0276  <S**2>=0.000
       7 -> 15        -0.10309
       8 -> 16         0.22559
      10 -> 22        -0.40182
      10 -> 23        -0.11169
      12 -> 31         0.43682

 Excited State  59:      Singlet-A     15.4981 eV   80.00 nm  f=0.0806  <S**2>=0.000
       6 -> 13        -0.16328
       7 -> 15        -0.11395
       8 -> 16        -0.12666
      10 -> 22         0.35459
      11 -> 28        -0.17501
      12 -> 31         0.48559

 Excited State  60:      Singlet-A     15.5392 eV   79.79 nm  f=0.0255  <S**2>=0.000
       7 -> 14         0.12463
       7 -> 15         0.54614
       8 -> 16        -0.13270
      11 -> 28        -0.12946
      11 -> 29        -0.26336
      11 -> 30        -0.14939
      12 -> 31         0.12181

 Excited State  61:      Singlet-A     15.5749 eV   79.61 nm  f=0.0189  <S**2>=0.000
       6 -> 13         0.44327
       7 -> 15         0.17462
       9 -> 20        -0.13841
       9 -> 21         0.14726
       9 -> 22        -0.11687
       9 -> 23         0.10624
      10 -> 22         0.13631
      10 -> 23         0.11332
      10 -> 24         0.10978
      11 -> 28         0.19217
      11 -> 29         0.21360
      12 -> 31         0.18363

 Excited State  62:      Singlet-A     15.6818 eV   79.06 nm  f=0.0481  <S**2>=0.000
       6 -> 13        -0.32500
       7 -> 15         0.22412
      10 -> 22        -0.14637
      11 -> 28         0.22308
      11 -> 29         0.40528
      11 -> 30         0.14494
      12 -> 33         0.10815

 Excited State  63:      Singlet-A     15.8151 eV   78.40 nm  f=0.0031  <S**2>=0.000
       9 -> 21        -0.11864
      11 -> 30         0.12084
      12 -> 32         0.58644
      12 -> 33         0.28354

 Excited State  64:      Singlet-A     15.8178 eV   78.38 nm  f=0.0450  <S**2>=0.000
       7 -> 16        -0.10159
       9 -> 21         0.60174
      11 -> 28        -0.10769
      11 -> 29        -0.11145
      11 -> 30        -0.16573

 Excited State  65:      Singlet-A     15.9238 eV   77.86 nm  f=0.0059  <S**2>=0.000
       9 -> 22        -0.24639
       9 -> 23         0.13756
      10 -> 23         0.36120
      10 -> 24        -0.24109
      11 -> 29        -0.13111
      11 -> 30         0.15476
      12 -> 32        -0.18912
      12 -> 33         0.32799

 Excited State  66:      Singlet-A     15.9469 eV   77.75 nm  f=0.0653  <S**2>=0.000
       8 -> 16        -0.12620
       8 -> 17        -0.16573
       9 -> 21         0.12067
      10 -> 23        -0.15324
      11 -> 29        -0.23084
      11 -> 30         0.55611
      12 -> 33        -0.13269

 Excited State  67:      Singlet-A     16.0625 eV   77.19 nm  f=0.0425  <S**2>=0.000
      10 -> 23         0.45229
      12 -> 32         0.22197
      12 -> 33        -0.40701
      12 -> 34         0.17649

 Excited State  68:      Singlet-A     16.1050 eV   76.98 nm  f=0.1091  <S**2>=0.000
       6 -> 13         0.14552
       8 -> 17        -0.17317
       9 -> 22         0.50483
      10 -> 23         0.10894
      10 -> 24        -0.32676
      12 -> 34        -0.13809

 Excited State  69:      Singlet-A     16.2016 eV   76.53 nm  f=0.0744  <S**2>=0.000
       7 -> 16        -0.23471
       8 -> 17         0.22612
       9 -> 22         0.24785
      10 -> 23         0.17463
      10 -> 24         0.43898
      12 -> 32        -0.11135
      12 -> 33         0.17639

 Excited State  70:      Singlet-A     16.2687 eV   76.21 nm  f=0.0417  <S**2>=0.000
       7 -> 16        -0.27991
       8 -> 17         0.39784
       8 -> 18        -0.12000
       9 -> 23        -0.17428
      10 -> 24        -0.29327
      12 -> 33        -0.20094

 Excited State  71:      Singlet-A     16.3778 eV   75.70 nm  f=0.1853  <S**2>=0.000
       7 -> 16         0.22731
       8 -> 17         0.32011
       8 -> 18         0.42504
       9 -> 23         0.27246
      12 -> 36        -0.11928

 Excited State  72:      Singlet-A     16.4205 eV   75.51 nm  f=0.0415  <S**2>=0.000
       8 -> 17         0.13053
      10 -> 25        -0.14338
      12 -> 32        -0.10621
      12 -> 34         0.56285
      12 -> 35         0.24866

 Excited State  73:      Singlet-A     16.4447 eV   75.39 nm  f=0.0730  <S**2>=0.000
       7 -> 16        -0.32418
       8 -> 18        -0.11497
       9 -> 23         0.52144
      10 -> 23        -0.13619

 Excited State  74:      Singlet-A     16.5397 eV   74.96 nm  f=0.1286  <S**2>=0.000
       6 -> 14         0.15676
       7 -> 16        -0.21176
       8 -> 17        -0.12616
       8 -> 18         0.38359
       9 -> 23        -0.11444
       9 -> 24         0.11544
      11 -> 31        -0.37827
      11 -> 32        -0.18876

 Excited State  75:      Singlet-A     16.5914 eV   74.73 nm  f=0.0563  <S**2>=0.000
       6 -> 14         0.12205
       7 -> 16        -0.15410
       8 -> 18         0.26012
       9 -> 22        -0.10167
      11 -> 31         0.57554

 Excited State  76:      Singlet-A     16.6692 eV   74.38 nm  f=0.0376  <S**2>=0.000
      10 -> 25         0.58309
      12 -> 35         0.36089

 Excited State  77:      Singlet-A     16.7535 eV   74.00 nm  f=0.0306  <S**2>=0.000
       6 -> 13        -0.11878
       6 -> 14        -0.11135
       8 -> 19        -0.17013
       9 -> 22        -0.12233
      10 -> 25        -0.29667
      12 -> 34        -0.24899
      12 -> 35         0.41356
      12 -> 36        -0.23134

 Excited State  78:      Singlet-A     16.7862 eV   73.86 nm  f=0.0441  <S**2>=0.000
       6 -> 14         0.28266
       7 -> 17        -0.13422
       8 -> 19         0.25126
       9 -> 24        -0.20335
      11 -> 32         0.39296
      12 -> 35         0.19963
      12 -> 36         0.18834

 Excited State  79:      Singlet-A     16.7983 eV   73.81 nm  f=0.0208  <S**2>=0.000
       6 -> 14        -0.13972
       8 -> 19         0.59672
       9 -> 24         0.17245
      11 -> 32        -0.22248

 Excited State  80:      Singlet-A     16.8672 eV   73.51 nm  f=0.1433  <S**2>=0.000
       7 -> 17         0.36147
       8 -> 19        -0.10949
       9 -> 24         0.37097
      11 -> 32         0.15658
      11 -> 33         0.10705
      12 -> 35         0.11761
      12 -> 36         0.34947

 Excited State  81:      Singlet-A     16.9102 eV   73.32 nm  f=0.0060  <S**2>=0.000
       6 -> 14        -0.22691
       9 -> 24        -0.19771
      10 -> 26         0.41005
      10 -> 27        -0.30814
      11 -> 32        -0.12235
      11 -> 33        -0.22613
      12 -> 35         0.10330
      12 -> 36         0.19354

 Excited State  82:      Singlet-A     16.9578 eV   73.11 nm  f=0.0506  <S**2>=0.000
       6 -> 14         0.12579
       7 -> 17        -0.24115
       8 -> 18        -0.10145
       9 -> 24         0.39480
      10 -> 26         0.32138
      10 -> 27        -0.10768
      11 -> 32         0.15990
      12 -> 36        -0.29917

 Excited State  83:      Singlet-A     17.0402 eV   72.76 nm  f=0.0195  <S**2>=0.000
       6 -> 14         0.43763
       7 -> 16         0.15808
       7 -> 17         0.12406
       7 -> 18         0.23221
       7 -> 19         0.13713
       9 -> 25         0.18935
      11 -> 32        -0.26579
      11 -> 33        -0.16683

 Excited State  84:      Singlet-A     17.0981 eV   72.51 nm  f=0.0344  <S**2>=0.000
       7 -> 17        -0.14863
       9 -> 24        -0.11404
      10 -> 27        -0.12608
      11 -> 32        -0.15093
      11 -> 33         0.58960
      12 -> 36         0.10266

 Excited State  85:      Singlet-A     17.1562 eV   72.27 nm  f=0.1604  <S**2>=0.000
       7 -> 17         0.38000
       7 -> 18         0.13185
       8 -> 17        -0.17082
       9 -> 24        -0.19471
      10 -> 26         0.23121
      11 -> 32         0.18805
      11 -> 33         0.17293
      12 -> 36        -0.26533

 Excited State  86:      Singlet-A     17.3019 eV   71.66 nm  f=0.0747  <S**2>=0.000
       7 -> 18        -0.32817
      10 -> 26         0.33024
      10 -> 27         0.46314
      11 -> 32        -0.11183

 Excited State  87:      Singlet-A     17.4048 eV   71.24 nm  f=0.1078  <S**2>=0.000
       6 -> 14        -0.17937
       7 -> 17        -0.19030
       7 -> 18         0.33689
       7 -> 19         0.13492
       9 -> 25         0.20823
       9 -> 26         0.10342
       9 -> 27        -0.11540
      10 -> 27         0.27564
      11 -> 34         0.24128
      11 -> 35         0.15284

 Excited State  88:      Singlet-A     17.4821 eV   70.92 nm  f=0.0399  <S**2>=0.000
       6 -> 15         0.21344
       9 -> 26        -0.11472
      10 -> 26        -0.10121
      11 -> 34         0.58484
      11 -> 35        -0.19094

 Excited State  89:      Singlet-A     17.5459 eV   70.66 nm  f=0.0715  <S**2>=0.000
       6 -> 15         0.17817
       7 -> 18        -0.29920
       9 -> 25         0.55304
      11 -> 35         0.14909

 Excited State  90:      Singlet-A     17.6376 eV   70.30 nm  f=0.0251  <S**2>=0.000
       6 -> 15         0.17517
       8 -> 20         0.44847
       8 -> 21         0.12665
      11 -> 34         0.12684
      11 -> 35         0.41092

 Excited State  91:      Singlet-A     17.7035 eV   70.03 nm  f=0.0353  <S**2>=0.000
       6 -> 15         0.40718
       7 -> 19         0.34274
       8 -> 20        -0.22238
       9 -> 25        -0.24744
       9 -> 26         0.15535
      11 -> 35         0.13531

 Excited State  92:      Singlet-A     17.7559 eV   69.83 nm  f=0.0473  <S**2>=0.000
       7 -> 19         0.17810
       8 -> 20         0.35933
       9 -> 26         0.37654
      11 -> 35        -0.35754

 The electronic state is 1-A.
 Alpha  occ. eigenvalues --  -14.42709 -14.42421 -10.25560  -1.02098  -0.82490
 Alpha  occ. eigenvalues --   -0.62830  -0.54914  -0.52231  -0.43594  -0.41057
 Alpha  occ. eigenvalues --   -0.28926  -0.25273
 Alpha virt. eigenvalues --   -0.00085   0.03654   0.06605   0.09497   0.12715
 Alpha virt. eigenvalues --    0.13541   0.14961   0.18488   0.19364   0.20706
 Alpha virt. eigenvalues --    0.22561   0.23468   0.25683   0.26864   0.28671

 Mulliken charges:
               1
     1  N    0.120065
     2  N   -0.327531
     3  C    0.566594
     4  H    0.018067
     5  H    0.021302
     6  H   -0.301937
     7  H   -0.096559
 Sum of Mulliken charges =  -0.00000

 Dipole moment (field-independent basis, Debye):
    X=              0.4865    Y=              1.6211    Z=              0.9899  Tot=              1.9607
 Quadrupole moment (field-independent basis, Debye-Ang):
   XX=            -14.8426   YY=            -18.5843   ZZ=            -20.5742
   XY=             -0.2878   XZ=              1.8149   YZ=              0.2854

 1\1\GINC-HEL23\SP\RPBE1PBE TD-FC\Gen\C1H4N2\SABYASACHI\21-Mar-2022\0\\
 #P TD(Nstates=10000) pbe1pbe/Gen SCF(maxcycles=100) Int(Grid=ultrafine
 )\\xGDB7_00001_tier4.com\\0,1\N,0,1.106441,0.142513,-0.090982\N,0,-0.0
 80753,-0.51252,0.006066\C,0,-1.148696,0.167456,0.008166\H,0,1.854749,-
 0.409916,0.291533\H,0,1.109677,1.100453,0.242713\H,0,-2.089851,-0.3661
 99,0.035249\H,0,-1.162208,1.260974,-0.02408\\Version=EM64L-G16RevC.01\
 State=1-A\HF=-149.6883797\RMSD=4.406e-09\PG=C01 [X(C1H4N2)]\\@
 The archive entry for this job was punched.

 Normal termination of Gaussian 16 at Mon Mar 21 20:14:49 2022.
