 Gaussian 16, Revision C.01,
 Gaussian 16:  EM64L-G16RevC.01  3-Jul-2019

 ----------------------------------------------------------------------
 #P TD(Nstates=10000) pbe1pbe/Gen SCF(maxcycles=100) Int(Grid=ultrafine
 )
 ----------------------------------------------------------------------

 ---------------------
 xGDB7_00001_tier4.com
 ---------------------
 Symbolic Z-matrix:
 Charge =  0 Multiplicity = 1

                         Standard orientation:
 ---------------------------------------------------------------------
 Center     Atomic      Atomic             Coordinates (Angstroms)
 Number     Number       Type             X           Y           Z
 ---------------------------------------------------------------------
      1          6           0       -1.240791   -0.237624   -0.027525
      2          6           0        0.048946    0.559205    0.053709
      3          7           0        1.202342   -0.317606   -0.116703
      4          1           0       -2.109817    0.415828    0.064703
      5          1           0       -1.292929   -0.976209    0.776809
      6          1           0       -1.300329   -0.769884   -0.977746
      7          1           0        0.066306    1.122818    0.997967
      8          1           0        0.069957    1.296574   -0.752592
      9          1           0        1.236408   -1.003082    0.627159
     10          1           0        2.065080    0.207710   -0.076483
 ---------------------------------------------------------------------

 SCF Done:  E(RPBE1PBE) =  -134.920767910     A.U. after   12 cycles

 Excitation energies and oscillator strengths:

 Excited State   1:      Singlet-A      6.2638 eV  197.94 nm  f=0.0110  <S**2>=0.000
      13 -> 14         0.68425
      13 -> 15        -0.15213
 This state for optimization and/or second-order correction.
 Total Energy, E(TD-HF/TD-DFT) =  -134.690576323
 Copying the excited state density for this state as the 1-particle RhoCI density.

 Excited State   2:      Singlet-A      7.2553 eV  170.89 nm  f=0.0065  <S**2>=0.000
      13 -> 14         0.15957
      13 -> 15         0.66920

 Excited State   3:      Singlet-A      7.4242 eV  167.00 nm  f=0.0284  <S**2>=0.000
      13 -> 16         0.68985

 Excited State   4:      Singlet-A      8.1094 eV  152.89 nm  f=0.0740  <S**2>=0.000
      13 -> 15         0.11298
      13 -> 17         0.68935

 Excited State   5:      Singlet-A      8.5788 eV  144.52 nm  f=0.0328  <S**2>=0.000
      13 -> 18         0.68640

 Excited State   6:      Singlet-A      9.0462 eV  137.06 nm  f=0.0037  <S**2>=0.000
      13 -> 19         0.66473
      13 -> 20        -0.13288
      13 -> 21        -0.15147

 Excited State   7:      Singlet-A      9.2354 eV  134.25 nm  f=0.0022  <S**2>=0.000
      12 -> 14         0.69416

 Excited State   8:      Singlet-A      9.3533 eV  132.56 nm  f=0.0012  <S**2>=0.000
      13 -> 19         0.12111
      13 -> 20         0.66810

 Excited State   9:      Singlet-A      9.5832 eV  129.38 nm  f=0.0167  <S**2>=0.000
      13 -> 19         0.15135
      13 -> 21         0.67411

 Excited State  10:      Singlet-A      9.7783 eV  126.80 nm  f=0.0044  <S**2>=0.000
      10 -> 14         0.15026
      11 -> 14         0.67420
      12 -> 15        -0.11739

 Excited State  11:      Singlet-A      9.9261 eV  124.91 nm  f=0.0680  <S**2>=0.000
      10 -> 14         0.67669
      10 -> 15         0.11285
      11 -> 14        -0.14194

 Excited State  12:      Singlet-A     10.0613 eV  123.23 nm  f=0.0527  <S**2>=0.000
      11 -> 14         0.11058
      12 -> 15         0.67692
      13 -> 22        -0.11563

 Excited State  13:      Singlet-A     10.1532 eV  122.11 nm  f=0.0005  <S**2>=0.000
      13 -> 22         0.53808
      13 -> 23        -0.35767
      13 -> 24         0.23309

 Excited State  14:      Singlet-A     10.3043 eV  120.32 nm  f=0.0074  <S**2>=0.000
      12 -> 15         0.12363
      13 -> 22         0.39403
      13 -> 23         0.52792
      13 -> 24        -0.11790
      13 -> 25        -0.10724

 Excited State  15:      Singlet-A     10.3954 eV  119.27 nm  f=0.1256  <S**2>=0.000
      12 -> 16         0.67473
      13 -> 23        -0.14683

 Excited State  16:      Singlet-A     10.5271 eV  117.78 nm  f=0.0059  <S**2>=0.000
      12 -> 16         0.14674
      13 -> 22        -0.11148
      13 -> 23         0.21718
      13 -> 24         0.62702

 Excited State  17:      Singlet-A     10.5993 eV  116.97 nm  f=0.0899  <S**2>=0.000
      11 -> 15         0.68246
      13 -> 25        -0.11810

 Excited State  18:      Singlet-A     10.7381 eV  115.46 nm  f=0.0296  <S**2>=0.000
      10 -> 15         0.67097
      13 -> 25        -0.11689

 Excited State  19:      Singlet-A     10.8795 eV  113.96 nm  f=0.0416  <S**2>=0.000
      11 -> 15         0.11965
      11 -> 16        -0.16838
      13 -> 25         0.62785
      13 -> 26         0.10491

 Excited State  20:      Singlet-A     10.9158 eV  113.58 nm  f=0.0151  <S**2>=0.000
      11 -> 16         0.64882
      12 -> 17         0.19751
      13 -> 25         0.14794

 Excited State  21:      Singlet-A     11.0169 eV  112.54 nm  f=0.0256  <S**2>=0.000
      10 -> 16        -0.25500
      11 -> 16        -0.16955
      12 -> 17         0.62062

 Excited State  22:      Singlet-A     11.0981 eV  111.72 nm  f=0.0302  <S**2>=0.000
      10 -> 16         0.64082
      12 -> 17         0.23390

 Excited State  23:      Singlet-A     11.3608 eV  109.13 nm  f=0.0234  <S**2>=0.000
      11 -> 17         0.18181
      12 -> 18         0.65620

 Excited State  24:      Singlet-A     11.4202 eV  108.57 nm  f=0.0129  <S**2>=0.000
       9 -> 14         0.26572
      11 -> 17        -0.15185
      13 -> 26         0.50406
      13 -> 27         0.34727

 Excited State  25:      Singlet-A     11.4873 eV  107.93 nm  f=0.0452  <S**2>=0.000
      11 -> 17         0.59736
      12 -> 18        -0.14444
      13 -> 27         0.29478

 Excited State  26:      Singlet-A     11.5086 eV  107.73 nm  f=0.0627  <S**2>=0.000
       9 -> 14         0.56285
      10 -> 17        -0.23022
      11 -> 17         0.20770
      13 -> 26        -0.10000
      13 -> 27        -0.22923

 Excited State  27:      Singlet-A     11.5937 eV  106.94 nm  f=0.0495  <S**2>=0.000
       9 -> 14         0.19178
      11 -> 17        -0.13220
      12 -> 18         0.11192
      12 -> 19        -0.13654
      13 -> 26        -0.42824
      13 -> 27         0.44167

 Excited State  28:      Singlet-A     11.6296 eV  106.61 nm  f=0.0727  <S**2>=0.000
       9 -> 14         0.21687
      10 -> 17         0.63298
      13 -> 27        -0.11926

 Excited State  29:      Singlet-A     11.9045 eV  104.15 nm  f=0.0274  <S**2>=0.000
      10 -> 18         0.15134
      11 -> 18         0.65505

 Excited State  30:      Singlet-A     11.9301 eV  103.93 nm  f=0.0104  <S**2>=0.000
       9 -> 15         0.15124
      10 -> 18        -0.20883
      12 -> 19         0.61733

 Excited State  31:      Singlet-A     12.0246 eV  103.11 nm  f=0.0804  <S**2>=0.000
       9 -> 15        -0.12199
      10 -> 18         0.51105
      11 -> 18        -0.14708
      12 -> 19         0.21880
      12 -> 20        -0.29418
      13 -> 28        -0.19047

 Excited State  32:      Singlet-A     12.1402 eV  102.13 nm  f=0.0653  <S**2>=0.000
       9 -> 15         0.12235
      10 -> 18         0.22962
      11 -> 18        -0.10963
      13 -> 28         0.62135

 Excited State  33:      Singlet-A     12.1813 eV  101.78 nm  f=0.0514  <S**2>=0.000
       9 -> 16         0.14823
      10 -> 18         0.25133
      12 -> 20         0.54123
      12 -> 21         0.25738
      13 -> 28        -0.11045

 Excited State  34:      Singlet-A     12.3084 eV  100.73 nm  f=0.0257  <S**2>=0.000
       9 -> 15        -0.18740
      10 -> 18        -0.13504
      11 -> 19         0.37118
      12 -> 21         0.51096

 Excited State  35:      Singlet-A     12.3703 eV  100.23 nm  f=0.0581  <S**2>=0.000
       9 -> 15         0.46499
      11 -> 19        -0.27196
      12 -> 20        -0.15075
      12 -> 21         0.34676

 Excited State  36:      Singlet-A     12.4263 eV   99.78 nm  f=0.0775  <S**2>=0.000
       9 -> 15         0.40628
      10 -> 18         0.11135
      11 -> 19         0.43236
      11 -> 20        -0.21242
      12 -> 21        -0.10720
      13 -> 28        -0.11608
      13 -> 29         0.13598

 Excited State  37:      Singlet-A     12.5474 eV   98.81 nm  f=0.0065  <S**2>=0.000
       9 -> 16         0.23868
      10 -> 19         0.57034
      10 -> 20        -0.16928
      11 -> 19        -0.10335
      12 -> 20        -0.10121
      13 -> 29        -0.17971

 Excited State  38:      Singlet-A     12.5713 eV   98.62 nm  f=0.0300  <S**2>=0.000
       8 -> 14         0.35803
      10 -> 20        -0.11899
      11 -> 19        -0.16662
      12 -> 21         0.10167
      13 -> 29         0.51558

 Excited State  39:      Singlet-A     12.6433 eV   98.06 nm  f=0.1209  <S**2>=0.000
       9 -> 16         0.50601
      10 -> 19        -0.32259
      11 -> 20        -0.16752
      12 -> 20        -0.17846
      13 -> 29        -0.17630

 Excited State  40:      Singlet-A     12.6559 eV   97.97 nm  f=0.0903  <S**2>=0.000
       8 -> 14         0.49243
      11 -> 19         0.13797
      11 -> 20         0.39359
      13 -> 29        -0.20951

 Excited State  41:      Singlet-A     12.6657 eV   97.89 nm  f=0.0609  <S**2>=0.000
       8 -> 14        -0.26710
       9 -> 16         0.29163
      11 -> 20         0.48699
      12 -> 22         0.10211
      13 -> 29         0.21915

 Excited State  42:      Singlet-A     12.8391 eV   96.57 nm  f=0.0942  <S**2>=0.000
       9 -> 16         0.10291
      10 -> 20         0.33587
      10 -> 21         0.24317
      11 -> 21         0.50498

 Excited State  43:      Singlet-A     12.8485 eV   96.50 nm  f=0.0093  <S**2>=0.000
       9 -> 16         0.12213
      10 -> 20         0.49371
      10 -> 21        -0.23848
      11 -> 21        -0.17612
      12 -> 22        -0.30873

 Excited State  44:      Singlet-A     12.9195 eV   95.97 nm  f=0.0420  <S**2>=0.000
       9 -> 17        -0.17225
      10 -> 21         0.54886
      11 -> 21        -0.17404
      12 -> 22        -0.26014
      13 -> 31        -0.11445

 Excited State  45:      Singlet-A     12.9835 eV   95.49 nm  f=0.0280  <S**2>=0.000
       9 -> 17         0.14177
      10 -> 20         0.23515
      10 -> 21         0.16042
      11 -> 21        -0.29116
      12 -> 22         0.45084
      12 -> 23         0.13499

 Excited State  46:      Singlet-A     13.1504 eV   94.28 nm  f=0.0558  <S**2>=0.000
       8 -> 15        -0.12705
       9 -> 17         0.35473
      12 -> 22        -0.19386
      12 -> 23         0.48477
      12 -> 24        -0.12839

 Excited State  47:      Singlet-A     13.2295 eV   93.72 nm  f=0.0153  <S**2>=0.000
       7 -> 14         0.46855
      12 -> 23         0.20605
      12 -> 24         0.31168
      13 -> 30         0.28174

 Excited State  48:      Singlet-A     13.2903 eV   93.29 nm  f=0.0228  <S**2>=0.000
       7 -> 14        -0.36928
       9 -> 17         0.11143
      11 -> 22        -0.12245
      12 -> 22        -0.12530
      12 -> 23        -0.13757
      12 -> 24         0.22397
      13 -> 30         0.45763

 Excited State  49:      Singlet-A     13.3261 eV   93.04 nm  f=0.0295  <S**2>=0.000
       7 -> 14         0.17385
       9 -> 17         0.42056
      10 -> 22        -0.14157
      12 -> 22        -0.12846
      12 -> 23        -0.26403
      12 -> 24         0.26828
      13 -> 30        -0.16639
      13 -> 31        -0.20031

 Excited State  50:      Singlet-A     13.3561 eV   92.83 nm  f=0.0219  <S**2>=0.000
       7 -> 14         0.15611
       8 -> 15         0.23605
       9 -> 17         0.22629
      11 -> 22         0.25356
      12 -> 23        -0.12812
      12 -> 24        -0.29560
      13 -> 30         0.24990
      13 -> 31         0.30511

 Excited State  51:      Singlet-A     13.3923 eV   92.58 nm  f=0.0733  <S**2>=0.000
       8 -> 15         0.11787
      11 -> 21        -0.12445
      11 -> 22        -0.24488
      12 -> 24         0.20566
      13 -> 30        -0.27145
      13 -> 31         0.49458

 Excited State  52:      Singlet-A     13.4527 eV   92.16 nm  f=0.0493  <S**2>=0.000
       8 -> 15         0.51820
      10 -> 22        -0.29611
      11 -> 22        -0.20742
      12 -> 23         0.13531
      13 -> 31        -0.18185

 Excited State  53:      Singlet-A     13.5022 eV   91.82 nm  f=0.0510  <S**2>=0.000
       7 -> 14        -0.18547
       8 -> 15         0.24793
      10 -> 22         0.17172
      10 -> 23        -0.10079
      11 -> 22         0.42382
      11 -> 23        -0.21885
      12 -> 23         0.19508
      12 -> 24         0.21589

 Excited State  54:      Singlet-A     13.5553 eV   91.47 nm  f=0.0670  <S**2>=0.000
       8 -> 15         0.18420
       8 -> 16         0.11826
       9 -> 17         0.13951
       9 -> 18         0.17009
      10 -> 22         0.49653
      11 -> 22        -0.21198
      11 -> 23         0.22628

 Excited State  55:      Singlet-A     13.6456 eV   90.86 nm  f=0.0383  <S**2>=0.000
       8 -> 15        -0.15018
       8 -> 16        -0.23081
       9 -> 18         0.54816
      10 -> 23         0.22745
      12 -> 25         0.13141

 Excited State  56:      Singlet-A     13.6994 eV   90.50 nm  f=0.0916  <S**2>=0.000
       8 -> 16         0.57639
       9 -> 18         0.14053
      10 -> 22        -0.16356
      11 -> 24         0.19199
      12 -> 25         0.14063

 Excited State  57:      Singlet-A     13.7603 eV   90.10 nm  f=0.0156  <S**2>=0.000
       8 -> 16         0.18514
       9 -> 18        -0.10559
      10 -> 23         0.46437
      10 -> 24         0.18096
      11 -> 23        -0.28052
      11 -> 24        -0.23498
      12 -> 25         0.11564

 Excited State  58:      Singlet-A     13.8155 eV   89.74 nm  f=0.0199  <S**2>=0.000
       8 -> 16        -0.14284
       9 -> 18        -0.23469
      11 -> 23         0.32995
      12 -> 25         0.51043

 Excited State  59:      Singlet-A     13.8478 eV   89.53 nm  f=0.0027  <S**2>=0.000
      10 -> 24         0.17015
      11 -> 22         0.14076
      11 -> 23         0.38131
      11 -> 24        -0.31080
      12 -> 24         0.14088
      12 -> 25        -0.29086
      12 -> 26         0.12373

 Excited State  60:      Singlet-A     13.9626 eV   88.80 nm  f=0.0453  <S**2>=0.000
       9 -> 18        -0.12753
       9 -> 19         0.21905
      10 -> 23         0.17786
      10 -> 24         0.26199
      11 -> 24         0.48674
      11 -> 25        -0.10666
      12 -> 25        -0.17783

 Excited State  61:      Singlet-A     14.0381 eV   88.32 nm  f=0.0295  <S**2>=0.000
       7 -> 16         0.12791
       8 -> 17         0.10361
       9 -> 19        -0.22609
      10 -> 23        -0.24388
      10 -> 24         0.53710

 Excited State  62:      Singlet-A     14.1530 eV   87.60 nm  f=0.0678  <S**2>=0.000
       7 -> 15         0.32456
       8 -> 17         0.15591
       9 -> 19         0.18146
      10 -> 23        -0.11917
      11 -> 25        -0.19569
      12 -> 26         0.41660
      12 -> 27         0.14407
      13 -> 33        -0.10663

 Excited State  63:      Singlet-A     14.1987 eV   87.32 nm  f=0.0149  <S**2>=0.000
       7 -> 15         0.37662
       7 -> 16        -0.12854
       9 -> 19         0.32504
      11 -> 25         0.21354
      12 -> 26        -0.32790
      13 -> 32        -0.14658

 Excited State  64:      Singlet-A     14.2389 eV   87.07 nm  f=0.0228  <S**2>=0.000
       7 -> 15         0.40779
       8 -> 17        -0.35823
       9 -> 19        -0.30797
      13 -> 32         0.10274
      13 -> 34         0.10683

 Excited State  65:      Singlet-A     14.2935 eV   86.74 nm  f=0.0159  <S**2>=0.000
       9 -> 19         0.15150
      11 -> 25         0.12454
      12 -> 26        -0.10504
      13 -> 32         0.64737

 Excited State  66:      Singlet-A     14.3369 eV   86.48 nm  f=0.0113  <S**2>=0.000
       7 -> 16        -0.25119
       8 -> 17         0.30894
       9 -> 20         0.14102
      13 -> 33         0.38051
      13 -> 34         0.32111

 Excited State  67:      Singlet-A     14.3606 eV   86.34 nm  f=0.0901  <S**2>=0.000
       7 -> 16         0.21814
       8 -> 17        -0.31508
       9 -> 19         0.19394
       9 -> 20        -0.13408
       9 -> 21         0.12080
      12 -> 27         0.14650
      13 -> 33         0.42361
      13 -> 34         0.12792

 Excited State  68:      Singlet-A     14.4212 eV   85.97 nm  f=0.0380  <S**2>=0.000
       7 -> 16        -0.25753
       8 -> 18        -0.11731
       9 -> 19        -0.11183
       9 -> 20        -0.16645
       9 -> 21        -0.16093
      11 -> 25        -0.11935
      12 -> 26        -0.21449
      12 -> 27         0.49432

 Excited State  69:      Singlet-A     14.4541 eV   85.78 nm  f=0.0364  <S**2>=0.000
       7 -> 16         0.30705
       9 -> 20         0.20832
      11 -> 25        -0.11464
      12 -> 26        -0.17640
      12 -> 27         0.22028
      13 -> 33        -0.21539
      13 -> 34         0.41127

 Excited State  70:      Singlet-A     14.5015 eV   85.50 nm  f=0.0212  <S**2>=0.000
       7 -> 16        -0.25818
       9 -> 21         0.38127
      10 -> 25         0.40134
      11 -> 25         0.12372
      12 -> 27         0.15277
      13 -> 33        -0.16978
      13 -> 34         0.10158

 Excited State  71:      Singlet-A     14.5189 eV   85.39 nm  f=0.0004  <S**2>=0.000
       7 -> 15         0.11255
       7 -> 16         0.25369
       8 -> 17         0.24376
       8 -> 18        -0.11415
       9 -> 21        -0.12456
      10 -> 25         0.44539
      13 -> 33         0.16884
      13 -> 34        -0.20034

 Excited State  72:      Singlet-A     14.5436 eV   85.25 nm  f=0.0574  <S**2>=0.000
       8 -> 18         0.18919
       9 -> 20         0.44159
       9 -> 21         0.20281
      11 -> 25        -0.20200
      12 -> 27         0.12270
      13 -> 33         0.10238
      13 -> 34        -0.31687

 Excited State  73:      Singlet-A     14.6097 eV   84.86 nm  f=0.1958  <S**2>=0.000
       9 -> 20         0.21475
       9 -> 21        -0.14238
      10 -> 26        -0.26604
      11 -> 25         0.43383
      11 -> 27        -0.11491
      12 -> 26         0.20733
      12 -> 27         0.18603

 Excited State  74:      Singlet-A     14.6886 eV   84.41 nm  f=0.0584  <S**2>=0.000
       7 -> 16         0.10075
       7 -> 17         0.10421
       8 -> 17         0.10163
       8 -> 18        -0.28620
       9 -> 20        -0.14085
       9 -> 21         0.42185
      10 -> 23         0.13904
      10 -> 25        -0.23990
      11 -> 25         0.11317
      11 -> 27        -0.14528
      13 -> 34        -0.10766

 Excited State  75:      Singlet-A     14.7894 eV   83.83 nm  f=0.0839  <S**2>=0.000
       9 -> 21         0.11208
      10 -> 27        -0.16247
      11 -> 26         0.43953
      11 -> 27         0.41377
      12 -> 28        -0.17148

 Excited State  76:      Singlet-A     14.8630 eV   83.42 nm  f=0.0756  <S**2>=0.000
       7 -> 17         0.29645
       8 -> 18         0.38097
      10 -> 26         0.12966
      11 -> 26         0.27252
      11 -> 27        -0.27640

 Excited State  77:      Singlet-A     14.8969 eV   83.23 nm  f=0.0100  <S**2>=0.000
       7 -> 17         0.22021
       8 -> 18         0.29667
       9 -> 20        -0.13664
       9 -> 22        -0.10458
      10 -> 26        -0.20487
      10 -> 27         0.14500
      11 -> 26        -0.32197
      11 -> 27         0.33857

 Excited State  78:      Singlet-A     14.9091 eV   83.16 nm  f=0.0496  <S**2>=0.000
      10 -> 25        -0.12127
      10 -> 26         0.46462
      10 -> 27         0.28955
      11 -> 25         0.13916
      11 -> 27         0.12112
      12 -> 27         0.10730
      12 -> 28        -0.13345
      13 -> 35        -0.16479

 Excited State  79:      Singlet-A     14.9344 eV   83.02 nm  f=0.0211  <S**2>=0.000
      10 -> 27         0.10387
      11 -> 27         0.13050
      12 -> 28        -0.11761
      13 -> 35         0.63345

 Excited State  80:      Singlet-A     15.0688 eV   82.28 nm  f=0.0493  <S**2>=0.000
       9 -> 22        -0.22496
      10 -> 26        -0.26235
      10 -> 27         0.44745
      11 -> 26         0.20243
      11 -> 27        -0.14657
      12 -> 28        -0.23598

 Excited State  81:      Singlet-A     15.1532 eV   81.82 nm  f=0.1215  <S**2>=0.000
       7 -> 17        -0.17247
       8 -> 19        -0.23537
      10 -> 27         0.23001
      11 -> 26         0.16113
      12 -> 28         0.48313

 Excited State  82:      Singlet-A     15.2229 eV   81.45 nm  f=0.0258  <S**2>=0.000
       7 -> 17        -0.27749
       7 -> 18        -0.12502
       8 -> 18         0.15054
       8 -> 19         0.42001
       9 -> 22         0.29631
      10 -> 27         0.15314
      13 -> 36        -0.11404

 Excited State  83:      Singlet-A     15.2577 eV   81.26 nm  f=0.0092  <S**2>=0.000
       7 -> 17         0.36589
       8 -> 18        -0.11796
       8 -> 20        -0.15033
       9 -> 22         0.42236
       9 -> 23        -0.14827
       9 -> 24         0.18917
      10 -> 26        -0.11394
      10 -> 27         0.13742

 Excited State  84:      Singlet-A     15.3137 eV   80.96 nm  f=0.0204  <S**2>=0.000
       8 -> 19         0.36642
       8 -> 20        -0.11630
       9 -> 22        -0.31423
       9 -> 23        -0.31374
      10 -> 26         0.13682
      11 -> 28        -0.18125
      12 -> 28         0.15320

 Excited State  85:      Singlet-A     15.3786 eV   80.62 nm  f=0.0336  <S**2>=0.000
       8 -> 19         0.13390
       9 -> 23         0.11988
      13 -> 36         0.57834
      13 -> 38         0.23217

 Excited State  86:      Singlet-A     15.4466 eV   80.27 nm  f=0.0149  <S**2>=0.000
       7 -> 18         0.32111
       8 -> 20         0.28868
       9 -> 23        -0.13951
       9 -> 24        -0.16536
      10 -> 28         0.10444
      11 -> 28         0.37826
      13 -> 38         0.16923

 Excited State  87:      Singlet-A     15.4724 eV   80.13 nm  f=0.0104  <S**2>=0.000
       8 -> 20        -0.24382

 The electronic state is 1-A.
 Alpha  occ. eigenvalues --  -14.37174 -10.25262 -10.21938  -0.89846  -0.74552
 Alpha  occ. eigenvalues --   -0.61573  -0.50525  -0.47927  -0.43915  -0.38053
 Alpha  occ. eigenvalues --   -0.37630  -0.35661  -0.25117
 Alpha virt. eigenvalues --    0.03066   0.05895   0.07125   0.09520   0.11192
 Alpha virt. eigenvalues --    0.13109   0.13989   0.14669   0.16727   0.17842
 Alpha virt. eigenvalues --    0.18322   0.20351   0.21586   0.21972   0.24964

 Mulliken charges:
               1
     1  C    0.187826
     2  C    0.070275
     3  N   -0.247563
     4  H    0.037684
     5  H    0.021745
     6  H    0.063202
     7  H   -0.064545
     8  H   -0.097410
     9  H    0.048703
    10  H   -0.019917
 Sum of Mulliken charges =  -0.00000

 Dipole moment (field-independent basis, Debye):
    X=              0.1555    Y=              0.5937    Z=              1.1018  Tot=              1.2612
 Quadrupole moment (field-independent basis, Debye-Ang):
   XX=            -19.5462   YY=            -20.8076   ZZ=            -21.5017
   XY=              0.7186   XZ=              1.5521   YZ=             -1.7022

 1\1\GINC-HEL22\SP\RPBE1PBE TD-FC\Gen\C2H7N1\SABYASACHI\21-Mar-2022\0\\
 #P TD(Nstates=10000) pbe1pbe/Gen SCF(maxcycles=100) Int(Grid=ultrafine
 )\\xGDB7_00001_tier4.com\\0,1\C,0,-1.240791,-0.237624,-0.027525\C,0,0.
 048946,0.559205,0.053709\N,0,1.202342,-0.317606,-0.116703\H,0,-2.10981
 7,0.415828,0.064703\H,0,-1.292929,-0.976209,0.776809\H,0,-1.300329,-0.
 769884,-0.977746\H,0,0.066306,1.122818,0.997967\H,0,0.069957,1.296574,
 -0.752592\H,0,1.236408,-1.003082,0.627159\H,0,2.06508,0.20771,-0.07648
 3\\Version=EM64L-G16RevC.01\State=1-A\HF=-134.9207679\RMSD=6.930e-09\P

 Normal termination of Gaussian 16 at Mon Mar 21 20:24:50 2022.
