 Gaussian 16, Revision C.01,
 Gaussian 16:  EM64L-G16RevC.01  3-Jul-2019

 ----------------------------------------------------------------------
 #P TD(Nstates=10000) pbe1pbe/Gen SCF(maxcycles=100) Int(Grid=ultrafine
 )
 ----------------------------------------------------------------------

 ---------------------
 xGDB7_00001_tier4.com
 ---------------------
 Symbolic Z-matrix:
 Charge =  0 Multiplicity = 1

                         Standard orientation:
 ---------------------------------------------------------------------
 Center     Atomic      Atomic             Coordinates (Angstroms)
 Number     Number       Type             X           Y           Z
 ---------------------------------------------------------------------
      1          6           0        0.000000    1.163894   -0.193136
      2          8           0       -0.000000   -0.000000    0.585449
      3          6           0       -0.000000   -1.163894   -0.193136
      4          1           0        0.000000    2.015478    0.485827
      5          1           0       -0.890390    1.219204   -0.834404
      6          1           0        0.890390    1.219204   -0.834404
      7          1           0       -0.000000   -2.015478    0.485827
      8          1           0        0.890390   -1.219204   -0.834404
      9          1           0       -0.890390   -1.219204   -0.834404
 ---------------------------------------------------------------------

 SCF Done:  E(RPBE1PBE) =  -154.738076065     A.U. after   11 cycles

 Excitation energies and oscillator strengths:

 Excited State   1:      Singlet-B1     6.9894 eV  177.39 nm  f=0.0308  <S**2>=0.000
      13 -> 14         0.69905
 This state for optimization and/or second-order correction.
 Total Energy, E(TD-HF/TD-DFT) =  -154.481220045
 Copying the excited state density for this state as the 1-particle RhoCI density.

 Excited State   2:      Singlet-A2     7.8956 eV  157.03 nm  f=0.0000  <S**2>=0.000
      13 -> 15         0.70493

 Excited State   3:      Singlet-B1     8.0528 eV  153.96 nm  f=0.0209  <S**2>=0.000
      13 -> 16         0.68829
      13 -> 18         0.11293

 Excited State   4:      Singlet-A1     8.6465 eV  143.39 nm  f=0.0197  <S**2>=0.000
      12 -> 14         0.32629
      13 -> 17         0.62289

 Excited State   5:      Singlet-B1     8.6745 eV  142.93 nm  f=0.0291  <S**2>=0.000
      13 -> 16        -0.11923
      13 -> 18         0.69377

 Excited State   6:      Singlet-A1     8.7643 eV  141.47 nm  f=0.0578  <S**2>=0.000
      12 -> 14         0.61045
      12 -> 16         0.10913
      13 -> 17        -0.32780

 Excited State   7:      Singlet-A2     9.3590 eV  132.48 nm  f=0.0000  <S**2>=0.000
      13 -> 19         0.70144

 Excited State   8:      Singlet-B2     9.5716 eV  129.53 nm  f=0.0008  <S**2>=0.000
      11 -> 14        -0.16658
      12 -> 15         0.68517

 Excited State   9:      Singlet-A1     9.6943 eV  127.89 nm  f=0.0362  <S**2>=0.000
      12 -> 16         0.64585
      13 -> 20         0.25622

 Excited State  10:      Singlet-B1     9.7045 eV  127.76 nm  f=0.0020  <S**2>=0.000
      13 -> 21         0.70228

 Excited State  11:      Singlet-A1     9.9751 eV  124.29 nm  f=0.0659  <S**2>=0.000
      12 -> 16        -0.24095
      13 -> 20         0.64838

 Excited State  12:      Singlet-B2    10.1584 eV  122.05 nm  f=0.0278  <S**2>=0.000
      11 -> 14         0.32632
      13 -> 22         0.61508

 Excited State  13:      Singlet-B2    10.2339 eV  121.15 nm  f=0.1491  <S**2>=0.000
      11 -> 14         0.59453
      12 -> 15         0.14106
      13 -> 22        -0.33962

 Excited State  14:      Singlet-B1    10.3458 eV  119.84 nm  f=0.0588  <S**2>=0.000
      12 -> 17         0.70482

 Excited State  15:      Singlet-A1    10.4320 eV  118.85 nm  f=0.0089  <S**2>=0.000
      12 -> 18         0.69898

 Excited State  16:      Singlet-A2    10.5822 eV  117.16 nm  f=0.0000  <S**2>=0.000
      10 -> 14         0.68475
      13 -> 24         0.11750

 Excited State  17:      Singlet-B1    10.8647 eV  114.12 nm  f=0.0023  <S**2>=0.000
      13 -> 23         0.70056

 Excited State  18:      Singlet-A2    10.9327 eV  113.41 nm  f=0.0000  <S**2>=0.000
      10 -> 14        -0.13102
      13 -> 24         0.68186

 Excited State  19:      Singlet-B2    11.0104 eV  112.61 nm  f=0.0512  <S**2>=0.000
      11 -> 16        -0.25342
      12 -> 19         0.64976

 Excited State  20:      Singlet-A1    11.0895 eV  111.80 nm  f=0.0325  <S**2>=0.000
      11 -> 15         0.69515

 Excited State  21:      Singlet-B2    11.1923 eV  110.78 nm  f=0.0000  <S**2>=0.000
      11 -> 16         0.16672
      13 -> 25         0.67920

 Excited State  22:      Singlet-B2    11.3687 eV  109.06 nm  f=0.1240  <S**2>=0.000
      11 -> 16         0.58643
      11 -> 18         0.20440
      12 -> 19         0.25554
      13 -> 25        -0.17690

 Excited State  23:      Singlet-B1    11.3949 eV  108.81 nm  f=0.0066  <S**2>=0.000
      10 -> 15         0.10968
      12 -> 20         0.69433

 Excited State  24:      Singlet-B1    11.5333 eV  107.50 nm  f=0.1140  <S**2>=0.000
      10 -> 15         0.69022
      12 -> 20        -0.11070

 Excited State  25:      Singlet-A1    11.5408 eV  107.43 nm  f=0.0587  <S**2>=0.000
      12 -> 21         0.69906

 Excited State  26:      Singlet-A2    11.6802 eV  106.15 nm  f=0.0000  <S**2>=0.000
      10 -> 16        -0.14952
      11 -> 17        -0.45631
      12 -> 22         0.50419

 Excited State  27:      Singlet-A2    11.7587 eV  105.44 nm  f=0.0000  <S**2>=0.000
      10 -> 16         0.62749
      10 -> 18         0.11173
      11 -> 17        -0.24624

 Excited State  28:      Singlet-A2    11.8613 eV  104.53 nm  f=0.0000  <S**2>=0.000
      10 -> 16         0.12332
      13 -> 26         0.66645
      13 -> 28        -0.12722

 Excited State  29:      Singlet-B2    11.9454 eV  103.79 nm  f=0.1529  <S**2>=0.000
      10 -> 17         0.14664
      11 -> 16        -0.20318
      11 -> 18         0.65121

 Excited State  30:      Singlet-A2    11.9719 eV  103.56 nm  f=0.0000  <S**2>=0.000
      10 -> 16         0.19112
      11 -> 17         0.47105
      12 -> 22         0.48211

 Excited State  31:      Singlet-A1    12.1197 eV  102.30 nm  f=0.0107  <S**2>=0.000
      12 -> 23         0.22204
      13 -> 27         0.65598

 Excited State  32:      Singlet-A2    12.3691 eV  100.24 nm  f=0.0000  <S**2>=0.000
      10 -> 16        -0.12503
      10 -> 18         0.66963

 Excited State  33:      Singlet-B2    12.4661 eV   99.46 nm  f=0.0081  <S**2>=0.000
      10 -> 17         0.65769
      11 -> 18        -0.13374
      12 -> 24         0.12741

 Excited State  34:      Singlet-B2    12.6723 eV   97.84 nm  f=0.0149  <S**2>=0.000
      10 -> 17        -0.12452
      12 -> 24         0.68356

 Excited State  35:      Singlet-A2    12.7070 eV   97.57 nm  f=0.0000  <S**2>=0.000
      10 -> 21        -0.22519
      11 -> 20        -0.31445
      12 -> 25         0.49825
      13 -> 28        -0.28680

 Excited State  36:      Singlet-A1    12.7719 eV   97.08 nm  f=0.0996  <S**2>=0.000
      10 -> 22        -0.10841
      11 -> 19         0.67427

 Excited State  37:      Singlet-A1    12.8383 eV   96.57 nm  f=0.0000  <S**2>=0.000
       8 -> 14         0.20589
      12 -> 23         0.62422
      13 -> 27        -0.18301

 Excited State  38:      Singlet-B1    12.9099 eV   96.04 nm  f=0.0858  <S**2>=0.000
       9 -> 14         0.66925
      10 -> 19         0.18358

 Excited State  39:      Singlet-A2    12.9305 eV   95.89 nm  f=0.0000  <S**2>=0.000
      12 -> 25         0.33025
      13 -> 26         0.15437
      13 -> 28         0.57817

 Excited State  40:      Singlet-A1    12.9613 eV   95.66 nm  f=0.0543  <S**2>=0.000
       8 -> 14         0.65968
      12 -> 23        -0.16990

 Excited State  41:      Singlet-B2    13.0256 eV   95.19 nm  f=0.0001  <S**2>=0.000
       7 -> 14         0.16536
      10 -> 20        -0.11994
      11 -> 21         0.65574
      12 -> 26         0.10785

 Excited State  42:      Singlet-A2    13.0300 eV   95.15 nm  f=0.0000  <S**2>=0.000
      11 -> 20         0.59230
      12 -> 25         0.33916
      13 -> 28        -0.12554

 Excited State  43:      Singlet-B1    13.0523 eV   94.99 nm  f=0.0201  <S**2>=0.000
       9 -> 14        -0.18583
       9 -> 16         0.10526
      10 -> 19         0.65889

 Excited State  44:      Singlet-B1    13.1978 eV   93.94 nm  f=0.0009  <S**2>=0.000
       8 -> 17         0.11021
      11 -> 22         0.65840
      12 -> 27         0.16183
      13 -> 29         0.13290

 Excited State  45:      Singlet-B2    13.2182 eV   93.80 nm  f=0.0023  <S**2>=0.000
       7 -> 14         0.66573
      11 -> 21        -0.19148

 Excited State  46:      Singlet-B1    13.4189 eV   92.40 nm  f=0.0103  <S**2>=0.000
      11 -> 22        -0.12548
      13 -> 29         0.63158
      13 -> 30        -0.23366

 Excited State  47:      Singlet-A2    13.4578 eV   92.13 nm  f=0.0000  <S**2>=0.000
      10 -> 21         0.64713
      11 -> 20        -0.18080
      12 -> 25         0.10208
      13 -> 28        -0.10271

 Excited State  48:      Singlet-B2    13.5100 eV   91.77 nm  f=0.0013  <S**2>=0.000
      10 -> 20         0.64898
      12 -> 26         0.20642

 Excited State  49:      Singlet-B2    13.6750 eV   90.66 nm  f=0.1465  <S**2>=0.000
       8 -> 15        -0.18693
      10 -> 20        -0.17479
      11 -> 21        -0.11710
      11 -> 23        -0.10332
      12 -> 26         0.61878

 Excited State  50:      Singlet-B1    13.7212 eV   90.36 nm  f=0.0070  <S**2>=0.000
      11 -> 22        -0.16591
      11 -> 25         0.13231
      12 -> 27         0.66361

 Excited State  51:      Singlet-A2    13.8017 eV   89.83 nm  f=0.0000  <S**2>=0.000
       9 -> 15         0.69013

 Excited State  52:      Singlet-B2    13.8595 eV   89.46 nm  f=0.0487  <S**2>=0.000
       7 -> 16         0.11649
       8 -> 15         0.66303
      12 -> 26         0.16131

 Excited State  53:      Singlet-A1    13.8746 eV   89.36 nm  f=0.0104  <S**2>=0.000
       8 -> 16         0.26352
       8 -> 18         0.20723
      10 -> 22         0.47486
      11 -> 24        -0.37345

 Excited State  54:      Singlet-A1    13.9671 eV   88.77 nm  f=0.0006  <S**2>=0.000
       7 -> 15         0.55468
       8 -> 16        -0.25727
      10 -> 22         0.28990
      11 -> 24         0.14789

 Excited State  55:      Singlet-B1    13.9970 eV   88.58 nm  f=0.0039  <S**2>=0.000
       9 -> 16         0.57620
       9 -> 18         0.13630
      10 -> 24        -0.11905
      11 -> 25        -0.10885
      13 -> 29        -0.17764
      13 -> 30        -0.26100

 Excited State  56:      Singlet-B1    14.0656 eV   88.15 nm  f=0.0328  <S**2>=0.000
       9 -> 16         0.21890
      11 -> 25        -0.30745
      12 -> 27         0.10514
      13 -> 29         0.16756
      13 -> 30         0.55157

 Excited State  57:      Singlet-A1    14.1420 eV   87.67 nm  f=0.0734  <S**2>=0.000
       7 -> 15         0.34558
       8 -> 16         0.52582
      10 -> 22        -0.21609
      13 -> 33        -0.10825

 Excited State  58:      Singlet-B1    14.2564 eV   86.97 nm  f=0.0328  <S**2>=0.000
       9 -> 16         0.28862
       9 -> 18        -0.19472
      10 -> 24         0.22765
      11 -> 25         0.49589
      12 -> 27        -0.10410
      13 -> 30         0.17373

 Excited State  59:      Singlet-B2    14.2818 eV   86.81 nm  f=0.0252  <S**2>=0.000
       7 -> 16        -0.25900
      11 -> 23         0.63556
      12 -> 26         0.12245

 Excited State  60:      Singlet-B2    14.3406 eV   86.46 nm  f=0.3684  <S**2>=0.000
       7 -> 16         0.61462
      10 -> 20         0.10362
      11 -> 23         0.26250
      12 -> 28        -0.13865

 Excited State  61:      Singlet-A1    14.3745 eV   86.25 nm  f=0.0085  <S**2>=0.000
       7 -> 15        -0.16376
       8 -> 16         0.17862
       9 -> 17        -0.30136
      10 -> 22         0.27112
      11 -> 24         0.48676

 Excited State  62:      Singlet-A2    14.4412 eV   85.85 nm  f=0.0000  <S**2>=0.000
      10 -> 23         0.26386
      13 -> 28         0.11772
      13 -> 31         0.62250

 Excited State  63:      Singlet-B1    14.5796 eV   85.04 nm  f=0.0001  <S**2>=0.000
       8 -> 17         0.59175
      11 -> 22        -0.10622
      13 -> 32        -0.34223

 Excited State  64:      Singlet-B1    14.5865 eV   85.00 nm  f=0.0620  <S**2>=0.000
       8 -> 17         0.31551
       9 -> 18         0.34658
      10 -> 24        -0.13713
      11 -> 25         0.10694
      13 -> 32         0.47817

 Excited State  65:      Singlet-A1    14.6081 eV   84.87 nm  f=0.0650  <S**2>=0.000
      13 -> 33         0.67571

 Excited State  66:      Singlet-A1    14.6246 eV   84.78 nm  f=0.0237  <S**2>=0.000
       8 -> 18         0.43113
       9 -> 17         0.48276
      11 -> 24         0.23176
      13 -> 33        -0.11559

 Excited State  67:      Singlet-A2    14.6813 eV   84.45 nm  f=0.0000  <S**2>=0.000
       7 -> 17         0.17259
       9 -> 19         0.11938
      10 -> 23         0.61325
      13 -> 31        -0.25432

 Excited State  68:      Singlet-A2    14.7125 eV   84.27 nm  f=0.0000  <S**2>=0.000
       7 -> 17         0.67632
      10 -> 23        -0.14250

 Excited State  69:      Singlet-B1    14.7231 eV   84.21 nm  f=0.0843  <S**2>=0.000
       8 -> 17        -0.11410
       9 -> 18         0.50690
       9 -> 21         0.10004
      11 -> 25         0.20461
      13 -> 30         0.13077
      13 -> 32        -0.36270

 Excited State  70:      Singlet-B2    14.7463 eV   84.08 nm  f=0.0058  <S**2>=0.000
       7 -> 18         0.49962
      12 -> 28        -0.45618

 Excited State  71:      Singlet-B1    14.8506 eV   83.49 nm  f=0.1306  <S**2>=0.000
       8 -> 17         0.10150
       9 -> 18         0.18757
      10 -> 24         0.53714
      11 -> 25        -0.16422
      13 -> 34         0.33787

 Excited State  72:      Singlet-A1    14.8514 eV   83.48 nm  f=0.0019  <S**2>=0.000
       7 -> 15         0.13007
       8 -> 18         0.38687
       8 -> 21        -0.11686
       9 -> 17        -0.32885
      10 -> 25         0.18835
      11 -> 26         0.32095

 Excited State  73:      Singlet-B1    14.9537 eV   82.91 nm  f=0.0932  <S**2>=0.000
      10 -> 24        -0.30582
      11 -> 25         0.12416
      13 -> 34         0.60397

 Excited State  74:      Singlet-A1    14.9811 eV   82.76 nm  f=0.1025  <S**2>=0.000
       7 -> 19        -0.10932
       8 -> 16         0.15106
       8 -> 18        -0.14883
       8 -> 21        -0.13558
       9 -> 17         0.11294
      10 -> 25         0.60075
      12 -> 29        -0.10248

 Excited State  75:      Singlet-B2    14.9965 eV   82.68 nm  f=0.2475  <S**2>=0.000
       7 -> 18         0.46000
       8 -> 19         0.14305
      12 -> 28         0.46663

 Excited State  76:      Singlet-A1    15.1020 eV   82.10 nm  f=0.0978  <S**2>=0.000
      10 -> 25         0.13258
      11 -> 26        -0.38075
      11 -> 28         0.10810
      12 -> 29         0.48204
      12 -> 30        -0.16891
      13 -> 36         0.10693

 Excited State  77:      Singlet-A2    15.1893 eV   81.63 nm  f=0.0000  <S**2>=0.000
       8 -> 22        -0.15515
      11 -> 27         0.68017

 Excited State  78:      Singlet-A1    15.3047 eV   81.01 nm  f=0.0171  <S**2>=0.000
       7 -> 19        -0.15276
       8 -> 18        -0.19729
       9 -> 17         0.13973
       9 -> 20         0.12637
      10 -> 25        -0.12329
      11 -> 26         0.42731
      12 -> 29         0.41336

 Excited State  79:      Singlet-A2    15.3367 eV   80.84 nm  f=0.0000  <S**2>=0.000
       9 -> 19         0.67979
      10 -> 23        -0.15716

 Excited State  80:      Singlet-B2    15.4199 eV   80.41 nm  f=0.0011  <S**2>=0.000
       8 -> 19         0.64717
       9 -> 22        -0.15493
      10 -> 27         0.12098

 Excited State  81:      Singlet-B1    15.4863 eV   80.06 nm  f=0.0702  <S**2>=0.000
       8 -> 20         0.30441
       9 -> 21         0.47780
      10 -> 26        -0.27289
      11 -> 25        -0.12589
      13 -> 35         0.24979

 Excited State  82:      Singlet-A1    15.5775 eV   79.59 nm  f=0.0401  <S**2>=0.000
       7 -> 19         0.55455
       9 -> 20        -0.23130
      11 -> 26         0.10450
      13 -> 36        -0.25323
      13 -> 38        -0.15083

 Excited State  83:      Singlet-B1    15.6461 eV   79.24 nm  f=0.0074  <S**2>=0.000
       8 -> 20        -0.26797
      10 -> 26         0.17806
      13 -> 35         0.61779

 Excited State  84:      Singlet-B2    15.6787 eV   79.08 nm  f=0.2726  <S**2>=0.000
       8 -> 19        -0.14736
       9 -> 22        -0.16731
      10 -> 27         0.65252

 Excited State  85:      Singlet-B1    15.7175 eV   78.88 nm  f=0.0006  <S**2>=0.000
       9 -> 21         0.35107
      10 -> 26         0.57378
      13 -> 35        -0.12861

 Excited State  86:      Singlet-A1    15.7268 eV   78.84 nm  f=0.0000  <S**2>=0.000
       8 -> 21        -0.31727
      11 -> 26        -0.14858
      12 -> 29         0.14944
      12 -> 30         0.54859
      13 -> 36        -0.19771

 Excited State  87:      Singlet-A1    15.7640 eV   78.65 nm  f=0.0009  <S**2>=0.000
       8 -> 21        -0.26444
       9 -> 20         0.47619
      10 -> 25        -0.12791
      12 -> 29        -0.13952
      12 -> 30        -0.23447
      13 -> 36        -0.28804

 Excited State  88:      Singlet-B2    15.7743 eV   78.60 nm  f=0.0212  <S**2>=0.000
       7 -> 21         0.63999
       9 -> 22         0.16301
      13 -> 37         0.22906

 Excited State  89:      Singlet-A2    15.8027 eV   78.46 nm  f=0.0000  <S**2>=0.000
       7 -> 20         0.69421

 Excited State  90:      Singlet-B1    15.8429 eV   78.26 nm  f=0.2130  <S**2>=0.000
       7 -> 22         0.20415
       8 -> 20         0.53958
       9 -> 21        -0.27276
      10 -> 26         0.16563
      13 -> 35         0.15583

 Excited State  91:      Singlet-A1    15.8501 eV   78.22 nm  f=0.0036  <S**2>=0.000
       7 -> 19         0.31367
       9 -> 20         0.31818
      12 -> 30         0.22524
      12 -> 32        -0.12808
      13 -> 36         0.43415

 Excited State  92:      Singlet-A1    15.9181 eV   77.89 nm  f=0.0711  <S**2>=0.000
       8 -> 21         0.43443
       9 -> 20         0.22102
      12 -> 30         0.15967
      13 -> 36        -0.30615
      13 -> 38         0.35531

 Excited State  93:      Singlet-B2    16.0326 eV   77.33 nm  f=0.1141  <S**2>=0.000
       7 -> 21        -0.20185
      12 -> 28        -0.10397
      12 -> 31        -0.35373
      13 -> 37         0.53096

 Excited State  94:      Singlet-A2    16.0628 eV   77.19 nm  f=0.0000  <S**2>=0.000
       8 -> 22         0.67787
      11 -> 27         0.15117

 Excited State  95:      Singlet-A1    16.1615 eV   76.72 nm  f=0.0552  <S**2>=0.000
       8 -> 21        -0.25642
       9 -> 20        -0.12744
      11 -> 28        -0.14201
      12 -> 30        -0.15026
      12 -> 32        -0.26551
      13 -> 38         0.51622

 Excited State  96:      Singlet-B2    16.1749 eV   76.65 nm  f=0.0059  <S**2>=0.000
       9 -> 22         0.47948
      10 -> 27         0.19569
      12 -> 31        -0.32114
      13 -> 37        -0.32041

 Excited State  97:      Singlet-B1    16.2098 eV   76.49 nm  f=0.2042  <S**2>=0.000
       7 -> 22         0.63292
       8 -> 20        -0.11677
      12 -> 33         0.24346

 Excited State  98:      Singlet-B2    16.2738 eV   76.19 nm  f=0.0069  <S**2>=0.000
       7 -> 21        -0.15621
       8 -> 24        -0.10439
       9 -> 22         0.35724
      11 -> 29        -0.22939
      12 -> 31         0.47230
      13 -> 37         0.15451

 Excited State  99:      Singlet-B1    16.3407 eV   75.87 nm  f=0.1500  <S**2>=0.000
       7 -> 22        -0.19690
       9 -> 21        -0.10811
      12 -> 33         0.64302

 Excited State 100:      Singlet-A2    16.3595 eV   75.79 nm  f=0.0000  <S**2>=0.000
      13 -> 39         0.68330

 Excited State 101:      Singlet-A1    16.4404 eV   75.41 nm  f=0.0757  <S**2>=0.000
      11 -> 28        -0.21551
      12 -> 32         0.60265
      13 -> 38         0.15538

 Excited State 102:      Singlet-A1    16.6043 eV   74.67 nm  f=0.0180  <S**2>=0.000
       8 -> 23         0.10318
      11 -> 28         0.14039
      12 -> 34         0.66284

 Excited State 103:      Singlet-A1    16.6527 eV   74.45 nm  f=0.2778  <S**2>=0.000
       8 -> 21        -0.12561
       8 -> 23         0.21561
      11 -> 28         0.56399
      12 -> 32         0.13926
      12 -> 34        -0.14743
      13 -> 38         0.13353

 Excited State 104:      Singlet-B2    16.7116 eV   74.19 nm  f=0.0144  <S**2>=0.000
       9 -> 22         0.10283
       9 -> 25         0.12082
      13 -> 40         0.67628

 Excited State 105:      Singlet-B1    16.7179 eV   74.16 nm  f=0.0020  <S**2>=0.000
       9 -> 21         0.13894
       9 -> 23        -0.26055
      10 -> 28         0.62734

 Excited State 106:      Singlet-A2    16.7488 eV   74.03 nm  f=0.0000  <S**2>=0.000
       9 -> 24        -0.46977
      13 -> 39         0.13713
      13 -> 41         0.48161

 Excited State 107:      Singlet-B2    16.8368 eV   73.64 nm  f=0.1618  <S**2>=0.000
       7 -> 23        -0.11745
       8 -> 24         0.59595
      11 -> 29        -0.29973

 Excited State 108:      Singlet-B1    16.8970 eV   73.38 nm  f=0.0162  <S**2>=0.000
       9 -> 23         0.63406
      10 -> 28         0.27073

 Excited State 109:      Singlet-A2    16.9213 eV   73.27 nm  f=0.0000  <S**2>=0.000
       8 -> 25         0.46923
       9 -> 24         0.33872
      10 -> 29        -0.12280
      13 -> 41         0.34415

 Excited State 110:      Singlet-A1    16.9483 eV   73.15 nm  f=0.1013  <S**2>=0.000
       7 -> 24        -0.11377
       8 -> 23         0.62811
      11 -> 28        -0.16014

 Excited State 111:      Singlet-B2    16.9762 eV   73.03 nm  f=0.1116  <S**2>=0.000
       7 -> 23        -0.20415
       8 -> 24         0.24945
       9 -> 22         0.12628
      11 -> 29         0.53215
      11 -> 34        -0.12541
      12 -> 31         0.17007

 Excited State 112:      Singlet-B2    17.0641 eV   72.66 nm  f=0.0082  <S**2>=0.000
       7 -> 23         0.62551
       8 -> 24         0.18414
       9 -> 25         0.21619
      11 -> 29         0.11515

 Excited State 113:      Singlet-A2    17.1171 eV   72.43 nm  f=0.0000  <S**2>=0.000
       8 -> 25         0.43931
       9 -> 24        -0.35878
      10 -> 29        -0.17313
      12 -> 37        -0.11378
      13 -> 41        -0.32308

 Excited State 114:      Singlet-B2    17.1594 eV   72.25 nm  f=0.0179  <S**2>=0.000
       7 -> 23        -0.18138
       9 -> 25         0.64047
      13 -> 40        -0.12486

 Excited State 115:      Singlet-A2    17.1644 eV   72.23 nm  f=0.0000  <S**2>=0.000

 The electronic state is 1-A1.
 Alpha  occ. eigenvalues --  -19.22256 -10.27504 -10.27503  -1.06057  -0.74155
 Alpha  occ. eigenvalues --   -0.65092  -0.49921  -0.49174  -0.49081  -0.40892
 Alpha  occ. eigenvalues --   -0.39132  -0.33681  -0.27494
 Alpha virt. eigenvalues --    0.02973   0.05880   0.07749   0.09153   0.09487
 Alpha virt. eigenvalues --    0.11926   0.13522   0.13602   0.14609   0.17652
 Alpha virt. eigenvalues --    0.17966   0.18454   0.21529   0.21635   0.26206

 Mulliken charges:
               1
     1  C    0.500979
     2  O   -0.848511
     3  C    0.500979
     4  H   -0.144274
     5  H    0.033775
     6  H    0.033775
     7  H   -0.144274
     8  H    0.033775
     9  H    0.033775
 Sum of Mulliken charges =   0.00000

 Dipole moment (field-independent basis, Debye):
    X=              0.0000    Y=             -0.0000    Z=             -1.2959  Tot=              1.2959
 Quadrupole moment (field-independent basis, Debye-Ang):
   XX=            -20.2790   YY=            -17.5126   ZZ=            -21.3745
   XY=             -0.0000   XZ=              0.0000   YZ=             -0.0000

 1\1\GINC-HEL12\SP\RPBE1PBE TD-FC\Gen\C2H6O1\SABYASACHI\21-Mar-2022\0\\
 #P TD(Nstates=10000) pbe1pbe/Gen SCF(maxcycles=100) Int(Grid=ultrafine
 )\\xGDB7_00001_tier4.com\\0,1\C,0,0.,1.163894,-0.193136\O,0,0.,0.,0.58
 5449\C,0,0.,-1.163894,-0.193136\H,0,0.,2.015478,0.485827\H,0,-0.89039,
 1.219204,-0.834404\H,0,0.89039,1.219204,-0.834404\H,0,0.,-2.015478,0.4
 85827\H,0,0.89039,-1.219204,-0.834404\H,0,-0.89039,-1.219204,-0.834404
 \\Version=EM64L-G16RevC.01\State=1-A1\HF=-154.7380761\RMSD=6.495e-09\P
 G=C02V [C2(O1),SGV(C2H2),X(H4)]\\@

 Normal termination of Gaussian 16 at Mon Mar 21 20:11:16 2022.
