 Gaussian 16, Revision C.01,
 Gaussian 16:  EM64L-G16RevC.01  3-Jul-2019

 ----------------------------------------------------------------------
 #P TD(Nstates=10000) pbe1pbe/Gen SCF(maxcycles=100) Int(Grid=ultrafine
 )
 ----------------------------------------------------------------------

 ---------------------
 xGDB7_00001_tier4.com
 ---------------------
 Symbolic Z-matrix:
 Charge =  0 Multiplicity = 1

                         Standard orientation:
 ---------------------------------------------------------------------
 Center     Atomic      Atomic             Coordinates (Angstroms)
 Number     Number       Type             X           Y           Z
 ---------------------------------------------------------------------
      1          8           0       -1.028621   -0.395177   -0.000000
      2          7           0       -0.000000    0.526228   -0.000000
      3          6           0        1.132746   -0.030907    0.000000
      4          1           0       -1.816572    0.151791   -0.000000
      5          1           0        1.994262    0.623439    0.000000
      6          1           0        1.254802   -1.111965    0.000000
 ---------------------------------------------------------------------

 SCF Done:  E(RPBE1PBE) =  -169.508073689     A.U. after   13 cycles

 Excitation energies and oscillator strengths:

 Excited State   1:      Singlet-A"     5.8849 eV  210.68 nm  f=0.0009  <S**2>=0.000
      11 -> 13         0.70578
 This state for optimization and/or second-order correction.
 Total Energy, E(TD-HF/TD-DFT) =  -169.291807202
 Copying the excited state density for this state as the 1-particle RhoCI density.

 Excited State   2:      Singlet-A'     6.9402 eV  178.65 nm  f=0.1690  <S**2>=0.000
       9 -> 13         0.10495
      12 -> 13         0.68027

 Excited State   3:      Singlet-A"     7.1903 eV  172.43 nm  f=0.0015  <S**2>=0.000
      12 -> 14         0.70019

 Excited State   4:      Singlet-A'     7.5955 eV  163.23 nm  f=0.0258  <S**2>=0.000
      11 -> 14         0.69898

 Excited State   5:      Singlet-A"     8.1022 eV  153.02 nm  f=0.0184  <S**2>=0.000
      12 -> 15         0.69508

 Excited State   6:      Singlet-A'     8.5323 eV  145.31 nm  f=0.0313  <S**2>=0.000
      11 -> 15         0.69476

 Excited State   7:      Singlet-A"     8.9845 eV  138.00 nm  f=0.0028  <S**2>=0.000
      12 -> 16        -0.41857
      12 -> 17         0.53375

 Excited State   8:      Singlet-A"     9.4079 eV  131.79 nm  f=0.0116  <S**2>=0.000
      10 -> 13        -0.20693
      12 -> 16         0.52723
      12 -> 17         0.41356

 Excited State   9:      Singlet-A'     9.5516 eV  129.80 nm  f=0.1022  <S**2>=0.000
      11 -> 16        -0.15322
      11 -> 17         0.63900
      12 -> 18         0.21403

 Excited State  10:      Singlet-A"     9.5614 eV  129.67 nm  f=0.0002  <S**2>=0.000
      10 -> 13         0.66761
      12 -> 16         0.18958

 Excited State  11:      Singlet-A'     9.7897 eV  126.65 nm  f=0.1272  <S**2>=0.000
      11 -> 16         0.65161
      11 -> 17         0.20903
      12 -> 18        -0.15464

 Excited State  12:      Singlet-A'    10.1464 eV  122.20 nm  f=0.0344  <S**2>=0.000
      11 -> 16         0.18930
      11 -> 17        -0.16162
      12 -> 18         0.63419

 Excited State  13:      Singlet-A"    10.2264 eV  121.24 nm  f=0.0237  <S**2>=0.000
      11 -> 18         0.67863
      12 -> 20        -0.16129

 Excited State  14:      Singlet-A"    10.2959 eV  120.42 nm  f=0.0076  <S**2>=0.000
      11 -> 18         0.13942
      12 -> 19         0.65742
      12 -> 20         0.19558

 Excited State  15:      Singlet-A"    10.4327 eV  118.84 nm  f=0.0242  <S**2>=0.000
      11 -> 18         0.13095
      12 -> 17         0.11276
      12 -> 19        -0.22347
      12 -> 20         0.63386

 Excited State  16:      Singlet-A'    10.6632 eV  116.27 nm  f=0.0082  <S**2>=0.000
       9 -> 13        -0.24613
      11 -> 19         0.64260

 Excited State  17:      Singlet-A'    10.7093 eV  115.77 nm  f=0.0953  <S**2>=0.000
       9 -> 13         0.50750
      11 -> 19         0.20091
      11 -> 20         0.39962

 Excited State  18:      Singlet-A'    10.8475 eV  114.30 nm  f=0.0174  <S**2>=0.000
       9 -> 13        -0.34441
      11 -> 19        -0.17163
      11 -> 20         0.57123

 Excited State  19:      Singlet-A"    11.0170 eV  112.54 nm  f=0.0003  <S**2>=0.000
       8 -> 13         0.62381
      12 -> 21         0.28781

 Excited State  20:      Singlet-A"    11.2485 eV  110.22 nm  f=0.0000  <S**2>=0.000
       8 -> 13        -0.28641
       9 -> 14         0.30095
      12 -> 20         0.10518
      12 -> 21         0.54880

 Excited State  21:      Singlet-A"    11.2949 eV  109.77 nm  f=0.0316  <S**2>=0.000
       9 -> 14         0.61855
      12 -> 21        -0.30120

 Excited State  22:      Singlet-A'    11.5055 eV  107.76 nm  f=0.2077  <S**2>=0.000
      10 -> 14         0.67806
      11 -> 21         0.11296

 Excited State  23:      Singlet-A'    11.6960 eV  106.01 nm  f=0.0448  <S**2>=0.000
      10 -> 14        -0.10767
      11 -> 21         0.66719

 Excited State  24:      Singlet-A'    12.0883 eV  102.57 nm  f=0.0931  <S**2>=0.000
      10 -> 15         0.68516

 Excited State  25:      Singlet-A"    12.3016 eV  100.79 nm  f=0.0182  <S**2>=0.000
       9 -> 14         0.10133
       9 -> 15         0.67288
       9 -> 16        -0.10135
       9 -> 17         0.10573

 Excited State  26:      Singlet-A'    12.3259 eV  100.59 nm  f=0.0769  <S**2>=0.000
       8 -> 14         0.10416
      12 -> 22         0.67741

 Excited State  27:      Singlet-A"    12.5565 eV   98.74 nm  f=0.0022  <S**2>=0.000
       7 -> 13         0.10695
      11 -> 22         0.68995

 Excited State  28:      Singlet-A"    12.6653 eV   97.89 nm  f=0.0001  <S**2>=0.000
       7 -> 13         0.21339
       9 -> 15        -0.14336
       9 -> 16        -0.15384
       9 -> 17         0.22166
      12 -> 25         0.57138

 Excited State  29:      Singlet-A'    12.6922 eV   97.69 nm  f=0.1202  <S**2>=0.000
       8 -> 14         0.56209
      10 -> 16         0.15135
      11 -> 25         0.10082
      12 -> 23         0.33585

 Excited State  30:      Singlet-A'    12.8133 eV   96.76 nm  f=0.0532  <S**2>=0.000
       8 -> 14        -0.35659
      10 -> 16         0.18607
      10 -> 17        -0.10874
      12 -> 22         0.10802
      12 -> 23         0.53820

 Excited State  31:      Singlet-A"    12.8135 eV   96.76 nm  f=0.0001  <S**2>=0.000
       7 -> 13         0.57671
      11 -> 23         0.12974
      12 -> 24        -0.30850
      12 -> 25        -0.17984

 Excited State  32:      Singlet-A"    12.9053 eV   96.07 nm  f=0.0033  <S**2>=0.000
      11 -> 23         0.62121
      12 -> 24         0.31312

 Excited State  33:      Singlet-A"    13.0250 eV   95.19 nm  f=0.0915  <S**2>=0.000
       6 -> 13        -0.11610
       7 -> 13         0.28577
      11 -> 23        -0.28829
      12 -> 24         0.52967
      12 -> 25        -0.14101

 Excited State  34:      Singlet-A'    13.1654 eV   94.17 nm  f=0.0275  <S**2>=0.000
      10 -> 16         0.13883
      10 -> 17        -0.19794
      11 -> 24         0.53623
      11 -> 25         0.33658

 Excited State  35:      Singlet-A"    13.2008 eV   93.92 nm  f=0.0050  <S**2>=0.000
       9 -> 15        -0.10004
       9 -> 16        -0.30424
       9 -> 17         0.51674
      12 -> 25        -0.30354

 Excited State  36:      Singlet-A'    13.3636 eV   92.78 nm  f=0.0122  <S**2>=0.000
       8 -> 14        -0.10053
      10 -> 16        -0.10733
      10 -> 17         0.19113
      11 -> 24        -0.28138
      11 -> 25         0.57105

 Excited State  37:      Singlet-A'    13.4581 eV   92.13 nm  f=0.0074  <S**2>=0.000
       9 -> 18        -0.13578
      10 -> 16         0.42529
      10 -> 17        -0.32186
      10 -> 19        -0.11261
      11 -> 24        -0.33588
      12 -> 23        -0.19966

 Excited State  38:      Singlet-A"    13.5603 eV   91.43 nm  f=0.0076  <S**2>=0.000
       9 -> 16         0.59825
       9 -> 17         0.35786

 Excited State  39:      Singlet-A'    13.6415 eV   90.89 nm  f=0.0140  <S**2>=0.000
       8 -> 15        -0.28376
      10 -> 16         0.40887
      10 -> 17         0.45301

 Excited State  40:      Singlet-A'    13.7910 eV   89.90 nm  f=0.0112  <S**2>=0.000
       8 -> 15         0.59409
      10 -> 16         0.18169
      10 -> 17         0.20663
      11 -> 26         0.16183

 Excited State  41:      Singlet-A"    13.8715 eV   89.38 nm  f=0.0000  <S**2>=0.000
      12 -> 26         0.69634

 Excited State  42:      Singlet-A'    14.0511 eV   88.24 nm  f=0.0201  <S**2>=0.000
       8 -> 15        -0.13356
       9 -> 18         0.59012
      10 -> 19        -0.16896
      10 -> 20        -0.12412
      11 -> 26         0.22592

 Excited State  43:      Singlet-A"    14.0581 eV   88.19 nm  f=0.0012  <S**2>=0.000
      10 -> 18         0.69517

 Excited State  44:      Singlet-A'    14.2236 eV   87.17 nm  f=0.0081  <S**2>=0.000
       7 -> 14        -0.17798
       8 -> 17         0.11249
       9 -> 18        -0.17494
      10 -> 19         0.26150
      11 -> 26         0.56659

 Excited State  45:      Singlet-A'    14.4021 eV   86.09 nm  f=0.0213  <S**2>=0.000
       8 -> 17        -0.10465
      10 -> 19        -0.22018
      10 -> 20        -0.13738
      12 -> 27         0.61639

 Excited State  46:      Singlet-A"    14.4975 eV   85.52 nm  f=0.0474  <S**2>=0.000
       6 -> 13        -0.13106
       9 -> 19         0.47263
       9 -> 20         0.48181

 Excited State  47:      Singlet-A'    14.5458 eV   85.24 nm  f=0.0108  <S**2>=0.000
       7 -> 14         0.25103
       8 -> 16        -0.14815
       8 -> 17         0.11547
       9 -> 18         0.14390
      10 -> 19         0.37855
      10 -> 20         0.35169
      11 -> 26        -0.10811
      12 -> 27         0.27093

 Excited State  48:      Singlet-A"    14.6250 eV   84.78 nm  f=0.0177  <S**2>=0.000
       6 -> 13         0.14746
       9 -> 19         0.51606
       9 -> 20        -0.43672

 Excited State  49:      Singlet-A'    14.6841 eV   84.43 nm  f=0.1720  <S**2>=0.000
       7 -> 14         0.21803
      10 -> 19        -0.35086
      10 -> 20         0.46583
      11 -> 26         0.21044

 Excited State  50:      Singlet-A"    14.7044 eV   84.32 nm  f=0.0003  <S**2>=0.000
      11 -> 27         0.69447

 Excited State  51:      Singlet-A'    14.7793 eV   83.89 nm  f=0.0999  <S**2>=0.000
       7 -> 14         0.52097
       8 -> 16         0.31352
      10 -> 19         0.11649
      10 -> 20        -0.26364
      11 -> 26         0.10148

 Excited State  52:      Singlet-A'    14.9346 eV   83.02 nm  f=0.0500  <S**2>=0.000
       7 -> 14        -0.13885
       8 -> 16         0.43529
       8 -> 17        -0.37119
       9 -> 18         0.14156
      10 -> 17        -0.12066
      10 -> 19         0.12565
      10 -> 20         0.18383
      10 -> 21         0.12943

 Excited State  53:      Singlet-A'    15.0801 eV   82.22 nm  f=0.1485  <S**2>=0.000
       7 -> 14        -0.18832
       7 -> 15        -0.13985
       8 -> 16         0.36845
       8 -> 17         0.50647

 Excited State  54:      Singlet-A"    15.2586 eV   81.26 nm  f=0.0125  <S**2>=0.000
       6 -> 13         0.30879
       9 -> 21        -0.13186
      12 -> 28         0.58515
      12 -> 29        -0.11474

 Excited State  55:      Singlet-A"    15.3079 eV   80.99 nm  f=0.0009  <S**2>=0.000
       9 -> 21         0.66412
      12 -> 29        -0.11408

 Excited State  56:      Singlet-A"    15.3942 eV   80.54 nm  f=0.0007  <S**2>=0.000
       8 -> 18         0.66508
      12 -> 28         0.13838

 Excited State  57:      Singlet-A'    15.4744 eV   80.12 nm  f=0.0312  <S**2>=0.000
       7 -> 15         0.60732
      10 -> 21        -0.27014
      11 -> 28        -0.11542

 Excited State  58:      Singlet-A"    15.5329 eV   79.82 nm  f=0.0782  <S**2>=0.000
       6 -> 13         0.51049
       8 -> 18         0.18830
       9 -> 20         0.16247
      10 -> 22        -0.23623
      12 -> 28        -0.27731
      12 -> 29         0.10604

 Excited State  59:      Singlet-A'    15.5450 eV   79.76 nm  f=0.1249  <S**2>=0.000
       7 -> 15         0.27573
       8 -> 17         0.14662
      10 -> 21         0.56956
      11 -> 28         0.18815

 Excited State  60:      Singlet-A'    15.7533 eV   78.70 nm  f=0.0665  <S**2>=0.000
       8 -> 19         0.26810
      10 -> 21        -0.19096
      11 -> 28         0.59426

 Excited State  61:      Singlet-A"    15.8492 eV   78.23 nm  f=0.0417  <S**2>=0.000
      12 -> 28         0.19143
      12 -> 29         0.66578

 Excited State  62:      Singlet-A'    15.9310 eV   77.83 nm  f=0.0370  <S**2>=0.000
       8 -> 19         0.11716
       8 -> 20         0.61400
      11 -> 28        -0.11414
      12 -> 30        -0.23773

 Excited State  63:      Singlet-A'    16.0338 eV   77.33 nm  f=0.1252  <S**2>=0.000
       8 -> 19         0.56248
       8 -> 20        -0.22783
      10 -> 21         0.10523
      11 -> 28        -0.13013
      12 -> 30        -0.25544

 Excited State  64:      Singlet-A'    16.1925 eV   76.57 nm  f=0.0797  <S**2>=0.000
       7 -> 16         0.10659
      11 -> 29         0.64666
      12 -> 30         0.17639

 Excited State  65:      Singlet-A"    16.2587 eV   76.26 nm  f=0.0707  <S**2>=0.000
       6 -> 13         0.14839
      10 -> 22         0.54645
      10 -> 23         0.15865
      11 -> 30         0.33725

 Excited State  66:      Singlet-A'    16.2597 eV   76.25 nm  f=0.0160  <S**2>=0.000
       6 -> 14         0.11836
       8 -> 19         0.22105
       8 -> 20         0.10159
       9 -> 23        -0.10191
      11 -> 28        -0.20688
      11 -> 29        -0.17102
      12 -> 30         0.54002

 Excited State  67:      Singlet-A"    16.2836 eV   76.14 nm  f=0.1210  <S**2>=0.000
       6 -> 13        -0.12425
      10 -> 22        -0.23449
      11 -> 30         0.56504
      12 -> 31        -0.26485

 Excited State  68:      Singlet-A"    16.3793 eV   75.70 nm  f=0.0644  <S**2>=0.000
       9 -> 25         0.10285
      10 -> 22        -0.15068
      10 -> 23        -0.10604
      11 -> 30         0.20746
      12 -> 31         0.62073

 Excited State  69:      Singlet-A'    16.4488 eV   75.38 nm  f=0.0548  <S**2>=0.000
       6 -> 14         0.25993
       7 -> 16         0.38983
       7 -> 17        -0.32217
       8 -> 20         0.10672
       8 -> 21         0.21671
       9 -> 23         0.17526
      11 -> 29        -0.13998
      11 -> 31        -0.12347

 Excited State  70:      Singlet-A"    16.5099 eV   75.10 nm  f=0.0014  <S**2>=0.000
       7 -> 18        -0.14099
      10 -> 22        -0.16711
      10 -> 23         0.65116

 Excited State  71:      Singlet-A'    16.5354 eV   74.98 nm  f=0.0379  <S**2>=0.000
       7 -> 16         0.12064
       9 -> 22         0.62790
       9 -> 23        -0.18696
      11 -> 31        -0.14634

 Excited State  72:      Singlet-A'    16.6463 eV   74.48 nm  f=0.0388  <S**2>=0.000
       7 -> 16        -0.10217
       8 -> 21         0.34775
       9 -> 22         0.15994
      10 -> 24        -0.12987
      11 -> 31         0.53307

 Excited State  73:      Singlet-A'    16.7335 eV   74.09 nm  f=0.0697  <S**2>=0.000
       6 -> 14         0.31999
       7 -> 16         0.35184
       7 -> 17         0.45183
       8 -> 21        -0.11945
      11 -> 31         0.12043

 Excited State  74:      Singlet-A'    16.8031 eV   73.79 nm  f=0.0880  <S**2>=0.000
       6 -> 14         0.44216
       7 -> 16        -0.28723
       8 -> 21         0.16192
       9 -> 23        -0.28221
      10 -> 25         0.12432
      11 -> 31        -0.19890
      11 -> 34         0.10327

 Excited State  75:      Singlet-A"    16.8327 eV   73.66 nm  f=0.0036  <S**2>=0.000
       9 -> 25        -0.37047
      12 -> 31         0.14405
      12 -> 32         0.55545
      12 -> 33         0.10085

 Excited State  76:      Singlet-A'    16.8591 eV   73.54 nm  f=0.0214  <S**2>=0.000
       6 -> 15        -0.11382
       7 -> 16        -0.19083
       7 -> 17         0.16499
       8 -> 21         0.10233
       9 -> 22         0.16313
       9 -> 23         0.44114
      10 -> 25        -0.25374
      11 -> 31        -0.26472
      11 -> 32        -0.14607

 Excited State  77:      Singlet-A'    16.9306 eV   73.23 nm  f=0.0029  <S**2>=0.000
       6 -> 14         0.13070
       6 -> 15        -0.13045
       7 -> 17        -0.23590
       8 -> 21        -0.21804
       9 -> 22         0.12615
       9 -> 23         0.29121
      10 -> 24         0.20384
      10 -> 25         0.38612
      11 -> 31         0.15302

 Excited State  78:      Singlet-A"    16.9381 eV   73.20 nm  f=0.0005  <S**2>=0.000
       9 -> 24         0.24017
       9 -> 25         0.52611
      12 -> 32         0.37172

 Excited State  79:      Singlet-A'    17.0354 eV   72.78 nm  f=0.0462  <S**2>=0.000
       6 -> 14        -0.17671
       7 -> 20         0.13453
       8 -> 21         0.38733
      10 -> 24         0.45494
      10 -> 25         0.16996
      11 -> 32        -0.13634

 Excited State  80:      Singlet-A"    17.0506 eV   72.72 nm  f=0.0206  <S**2>=0.000
       9 -> 24         0.62279
       9 -> 25        -0.20298
      12 -> 32        -0.12225
      12 -> 33        -0.19759

 Excited State  81:      Singlet-A'    17.2108 eV   72.04 nm  f=0.1081  <S**2>=0.000
       6 -> 15        -0.21122
      10 -> 24         0.18008
      10 -> 25        -0.13599
      11 -> 32         0.60432

 Excited State  82:      Singlet-A"    17.2233 eV   71.99 nm  f=0.0000  <S**2>=0.000
       7 -> 18         0.68066
      10 -> 23         0.13917

 Excited State  83:      Singlet-A"    17.4130 eV   71.20 nm  f=0.0993  <S**2>=0.000
       6 -> 13        -0.10024
       9 -> 24         0.18604
      10 -> 22        -0.11730
      12 -> 33         0.63850

 Excited State  84:      Singlet-A'    17.4179 eV   71.18 nm  f=0.0656  <S**2>=0.000
       6 -> 14        -0.11781
       6 -> 15        -0.13730
       7 -> 17         0.16289
       7 -> 20         0.13939
       8 -> 21         0.14168
       9 -> 23         0.12623
      10 -> 24        -0.38461
      10 -> 25         0.39132
      11 -> 32         0.12449
      12 -> 35         0.13014

 Excited State  85:      Singlet-A'    17.5397 eV   70.69 nm  f=0.0144  <S**2>=0.000
       6 -> 15        -0.28217
       7 -> 20         0.11520
      11 -> 33         0.60599

 Excited State  86:      Singlet-A"    17.5687 eV   70.57 nm  f=0.0004  <S**2>=0.000
      12 -> 34         0.69707

 Excited State  87:      Singlet-A'    17.6867 eV   70.10 nm  f=0.0278  <S**2>=0.000
       7 -> 19         0.59385
       7 -> 20         0.17907
      10 -> 26         0.14094
      11 -> 33        -0.16328
      11 -> 34        -0.10988

 Excited State  88:      Singlet-A'    17.7404 eV   69.89 nm  f=0.0001  <S**2>=0.000
       6 -> 15         0.53573
       7 -> 19         0.13428
       7 -> 20         0.11952
       9 -> 23         0.10615
      11 -> 32         0.16041
      11 -> 33         0.25614
      12 -> 35         0.15275

 Excited State  89:      Singlet-A"    17.8198 eV   69.58 nm  f=0.0410  <S**2>=0.000
       8 -> 22         0.66839
       9 -> 26         0.12980

 Excited State  90:      Singlet-A'    17.8348 eV   69.52 nm  f=0.0271  <S**2>=0.000
       7 -> 19        -0.24115
       7 -> 20         0.51640
      10 -> 26         0.17101
      11 -> 34        -0.16068
      12 -> 35        -0.26093

 Excited State  91:      Singlet-A"    17.9862 eV   68.93 nm  f=0.0312  <S**2>=0.000
       8 -> 22        -0.13285
       9 -> 26         0.67738

 Excited State  92:      Singlet-A"    18.0713 eV   68.61 nm  f=0.0001  <S**2>=0.000
       8 -> 23         0.67797
      10 -> 27         0.11752

 Excited State  93:      Singlet-A'    18.0902 eV   68.54 nm  f=0.0547  <S**2>=0.000
      10 -> 25         0.10106
      10 -> 26         0.63530
      11 -> 34         0.17066
      12 -> 35         0.13428

 Excited State  94:      Singlet-A'    18.1331 eV   68.37 nm  f=0.0457  <S**2>=0.000
       6 -> 17        -0.12869
       7 -> 20         0.24033
       8 -> 24         0.14274
       8 -> 25         0.11292
      10 -> 26        -0.10299
      11 -> 34         0.57879

 Excited State  95:      Singlet-A'    18.2872 eV   67.80 nm  f=0.1180  <S**2>=0.000
       6 -> 16         0.19726
       7 -> 19        -0.11301
       7 -> 20         0.14084
       8 -> 21        -0.11257
       8 -> 24         0.10605
       8 -> 25         0.34764
       9 -> 27         0.10625
      11 -> 34        -0.13563
      12 -> 35         0.44374

 Excited State  96:      Singlet-A"    18.4565 eV   67.18 nm  f=0.1056  <S**2>=0.000
       8 -> 23        -0.10923
      10 -> 27         0.62001
      11 -> 35        -0.26802

 Excited State  97:      Singlet-A'    18.4672 eV   67.14 nm  f=0.0083  <S**2>=0.000
       7 -> 21        -0.21802
       8 -> 24         0.57546
       8 -> 25        -0.22548
       9 -> 27         0.17189

 Excited State  98:      Singlet-A'    18.4931 eV   67.04 nm  f=0.0556  <S**2>=0.000
       6 -> 16        -0.22745
       6 -> 17         0.10033
       7 -> 21        -0.34040
       8 -> 25         0.47261
       9 -> 27        -0.16955
      12 -> 35        -0.16432

 Excited State  99:      Singlet-A'    18.5567 eV   66.81 nm  f=0.0315  <S**2>=0.000
       6 -> 17        -0.12882
       7 -> 21        -0.16457
       8 -> 24        -0.20138
       9 -> 27         0.60052
      12 -> 35        -0.15499

 Excited State 100:      Singlet-A"    18.5827 eV   66.72 nm  f=0.0001  <S**2>=0.000
      10 -> 27         0.25735
      11 -> 35         0.64309

 Excited State 101:      Singlet-A'    18.6709 eV   66.41 nm  f=0.0276  <S**2>=0.000
       6 -> 16        -0.24831
       6 -> 17         0.22675
       7 -> 21         0.49778
       8 -> 24         0.16038
       8 -> 25         0.19914
       9 -> 27         0.18423

 Excited State 102:      Singlet-A"    18.7426 eV   66.15 nm  f=0.0022  <S**2>=0.000
      12 -> 36         0.68257

 Excited State 103:      Singlet-A'    18.8986 eV   65.61 nm  f=0.0018  <S**2>=0.000
       6 -> 16         0.52865
       6 -> 17         0.33811
      11 -> 36        -0.19297
      12 -> 35        -0.14379

 Excited State 104:      Singlet-A'    19.1718 eV   64.67 nm  f=0.0271  <S**2>=0.000

 The electronic state is 1-A'.
 Alpha  occ. eigenvalues --  -19.26741 -14.45561 -10.27020  -1.12290  -0.88798
 Alpha  occ. eigenvalues --   -0.63359  -0.55737  -0.49401  -0.44329  -0.43962
 Alpha  occ. eigenvalues --   -0.30228  -0.29155
 Alpha virt. eigenvalues --   -0.01202   0.02755   0.05368   0.10278   0.10909
 Alpha virt. eigenvalues --    0.12522   0.14013   0.14763   0.17640   0.21226
 Alpha virt. eigenvalues --    0.22590   0.23864   0.23965   0.27318   0.29055

 Mulliken charges:
               1
     1  O   -0.407251
     2  N   -0.061656
     3  C    0.497590
     4  H    0.216381
     5  H   -0.166065
     6  H   -0.078999
 Sum of Mulliken charges =  -0.00000

 Dipole moment (field-independent basis, Debye):
    X=              0.2468    Y=             -0.1418    Z=              0.0000  Tot=              0.2846
 Quadrupole moment (field-independent basis, Debye-Ang):
   XX=            -12.0120   YY=            -19.4777   ZZ=            -19.1456
   XY=             -1.4964   XZ=              0.0000   YZ=              0.0000

 Normal termination of Gaussian 16 at Mon Mar 21 04:16:25 2022.
