 Gaussian 16, Revision C.01,
 Gaussian 16:  EM64L-G16RevC.01  3-Jul-2019

 ----------------------------------------------------------------------
 #P TD(Nstates=10000) pbe1pbe/Gen SCF(maxcycles=100) Int(Grid=ultrafine
 )
 ----------------------------------------------------------------------

 ---------------------
 xGDB7_00001_tier4.com
 ---------------------
 Symbolic Z-matrix:
 Charge =  0 Multiplicity = 1

                         Standard orientation:
 ---------------------------------------------------------------------
 Center     Atomic      Atomic             Coordinates (Angstroms)
 Number     Number       Type             X           Y           Z
 ---------------------------------------------------------------------
      1          8           0        0.000000   -0.000000    0.116015
      2          1           0        0.000000    0.761895   -0.464058
      3          1           0       -0.000000   -0.761895   -0.464058
 ---------------------------------------------------------------------

 SCF Done:  E(RPBE1PBE) =  -76.2956368907     A.U. after    9 cycles

 Excitation energies and oscillator strengths:

 Excited State   1:      Singlet-B1     7.6733 eV  161.58 nm  f=0.0543  <S**2>=0.000
       5 ->  6         0.70549
 This state for optimization and/or second-order correction.
 Total Energy, E(TD-HF/TD-DFT) =  -76.0136471413
 Copying the excited state density for this state as the 1-particle RhoCI density.

 Excited State   2:      Singlet-A2     9.4587 eV  131.08 nm  f=0.0000  <S**2>=0.000
       5 ->  7         0.69981

 Excited State   3:      Singlet-A1     9.7847 eV  126.71 nm  f=0.1000  <S**2>=0.000
       4 ->  6         0.69452
       5 ->  8         0.11748

 Excited State   4:      Singlet-B1    10.9517 eV  113.21 nm  f=0.0058  <S**2>=0.000
       5 ->  9         0.70433

 Excited State   5:      Singlet-A1    11.3130 eV  109.59 nm  f=0.0012  <S**2>=0.000
       4 ->  6        -0.10455
       4 ->  9        -0.15197
       5 ->  8         0.67543

 Excited State   6:      Singlet-B2    11.5931 eV  106.95 nm  f=0.0164  <S**2>=0.000
       4 ->  7         0.70379

 Excited State   7:      Singlet-A2    12.0347 eV  103.02 nm  f=0.0000  <S**2>=0.000
       5 -> 10         0.69987

 Excited State   8:      Singlet-B1    12.7820 eV   97.00 nm  f=0.0467  <S**2>=0.000
       4 ->  8         0.32168
       5 -> 11         0.62712

 Excited State   9:      Singlet-B1    12.9133 eV   96.01 nm  f=0.0052  <S**2>=0.000
       4 ->  8         0.62812
       5 -> 11        -0.32211

 Excited State  10:      Singlet-A1    13.2868 eV   93.31 nm  f=0.0336  <S**2>=0.000
       3 ->  7        -0.12427
       4 ->  9         0.67330
       5 ->  8         0.12418

 Excited State  11:      Singlet-B2    13.7177 eV   90.38 nm  f=0.0792  <S**2>=0.000
       3 ->  6         0.68410
       4 -> 10        -0.12199
       5 -> 12        -0.12211

 Excited State  12:      Singlet-B2    13.9300 eV   89.00 nm  f=0.0297  <S**2>=0.000
       4 -> 10        -0.31949
       5 -> 12         0.62572

 Excited State  13:      Singlet-B1    14.3005 eV   86.70 nm  f=0.0610  <S**2>=0.000
       5 -> 13         0.70120

 Excited State  14:      Singlet-B2    14.4941 eV   85.54 nm  f=0.3202  <S**2>=0.000
       3 ->  6         0.16450
       4 -> 10         0.61371
       5 -> 12         0.29894

 Excited State  15:      Singlet-A1    14.8151 eV   83.69 nm  f=0.0668  <S**2>=0.000
       4 -> 11         0.68844
       5 -> 14         0.14095

 Excited State  16:      Singlet-A1    15.1377 eV   81.90 nm  f=0.0189  <S**2>=0.000
       3 ->  7         0.25070
       4 -> 11        -0.11943
       5 -> 14         0.63657

 Excited State  17:      Singlet-A1    15.9575 eV   77.70 nm  f=0.0004  <S**2>=0.000
       3 ->  7         0.51424
       4 -> 13        -0.44901
       5 -> 14        -0.11448

 Excited State  18:      Singlet-A2    15.9893 eV   77.54 nm  f=0.0000  <S**2>=0.000
       4 -> 12         0.70559

 Excited State  19:      Singlet-A2    16.9002 eV   73.36 nm  f=0.0000  <S**2>=0.000
       3 ->  8         0.69755

 Excited State  20:      Singlet-B2    17.0541 eV   72.70 nm  f=0.0349  <S**2>=0.000
       3 ->  9         0.70220

 Excited State  21:      Singlet-B1    17.0742 eV   72.62 nm  f=0.0037  <S**2>=0.000
       4 -> 14         0.44529
       5 -> 15         0.54645

 Excited State  22:      Singlet-A2    17.2464 eV   71.89 nm  f=0.0000  <S**2>=0.000
       5 -> 16         0.66308
       5 -> 17        -0.21707

 Excited State  23:      Singlet-A1    17.2860 eV   71.73 nm  f=0.0509  <S**2>=0.000
       3 ->  7         0.36145
       3 -> 10         0.31602
       4 -> 13         0.46737
       5 -> 14        -0.17126

 Excited State  24:      Singlet-B1    17.3395 eV   71.50 nm  f=0.2198  <S**2>=0.000
       4 -> 14         0.54353
       5 -> 15        -0.44542

 Excited State  25:      Singlet-A2    18.2219 eV   68.04 nm  f=0.0000  <S**2>=0.000
       5 -> 16         0.22333
       5 -> 17         0.66860

 Excited State  26:      Singlet-A1    18.8118 eV   65.91 nm  f=0.2501  <S**2>=0.000
       3 ->  7        -0.10081
       3 -> 10         0.56487
       4 -> 13        -0.21814
       4 -> 15         0.29782
       5 -> 14         0.11813

 Excited State  27:      Singlet-B2    19.0038 eV   65.24 nm  f=0.2073  <S**2>=0.000
       3 -> 11         0.66690
       4 -> 16         0.13510
       4 -> 17        -0.16555

 Excited State  28:      Singlet-A1    19.1577 eV   64.72 nm  f=0.0873  <S**2>=0.000
       3 -> 10        -0.26134
       4 -> 15         0.63934

 Excited State  29:      Singlet-B2    19.3299 eV   64.14 nm  f=0.0128  <S**2>=0.000
       3 -> 11        -0.15130
       4 -> 16         0.68069

 Excited State  30:      Singlet-B1    19.9941 eV   62.01 nm  f=0.1021  <S**2>=0.000
       3 -> 12         0.69973

 Excited State  31:      Singlet-B2    20.2677 eV   61.17 nm  f=0.0003  <S**2>=0.000
       3 -> 13         0.65255
       4 -> 17        -0.24662

 Excited State  32:      Singlet-B2    20.4951 eV   60.49 nm  f=0.0314  <S**2>=0.000
       3 -> 11         0.13473
       3 -> 13         0.25226
       4 -> 17         0.62986

 Excited State  33:      Singlet-A2    21.0336 eV   58.95 nm  f=0.0000  <S**2>=0.000
       3 -> 14         0.70381

 Excited State  34:      Singlet-A2    21.4263 eV   57.87 nm  f=0.0000  <S**2>=0.000
       5 -> 18         0.70503

 Excited State  35:      Singlet-B1    22.2258 eV   55.78 nm  f=0.2164  <S**2>=0.000
       4 -> 20        -0.13146
       5 -> 19         0.68480

 Excited State  36:      Singlet-A1    22.9784 eV   53.96 nm  f=0.0819  <S**2>=0.000
       3 -> 16        -0.13867
       4 -> 19         0.18933
       4 -> 21         0.10021
       5 -> 20         0.65329

 Excited State  37:      Singlet-B2    23.1347 eV   53.59 nm  f=0.0259  <S**2>=0.000
       3 -> 15         0.69462
       4 -> 18         0.12192

 Excited State  38:      Singlet-B2    23.5283 eV   52.70 nm  f=0.0073  <S**2>=0.000
       3 -> 15        -0.10561
       4 -> 18         0.55894
       5 -> 22        -0.41769

 Excited State  39:      Singlet-A1    23.6075 eV   52.52 nm  f=0.0065  <S**2>=0.000
       3 -> 16         0.53536
       3 -> 17         0.14638
       4 -> 19         0.43144

 Excited State  40:      Singlet-B1    23.6161 eV   52.50 nm  f=0.0002  <S**2>=0.000
       5 -> 21         0.70153

 Excited State  41:      Singlet-A1    23.9019 eV   51.87 nm  f=0.0341  <S**2>=0.000
       3 -> 16        -0.36099
       3 -> 17        -0.17823
       4 -> 19         0.51957
       4 -> 21        -0.11621
       5 -> 20        -0.21120

 Excited State  42:      Singlet-B2    24.5152 eV   50.57 nm  f=0.3527  <S**2>=0.000
       3 -> 19        -0.12476
       4 -> 18         0.39228
       5 -> 22         0.54978

 Excited State  43:      Singlet-A1    24.9476 eV   49.70 nm  f=0.0406  <S**2>=0.000
       2 ->  6        -0.18844
       3 -> 16        -0.18770
       3 -> 17         0.63217

 Excited State  44:      Singlet-B1    25.0361 eV   49.52 nm  f=0.2716  <S**2>=0.000
       4 -> 20         0.68620
       5 -> 19         0.12354

 Excited State  45:      Singlet-A2    25.7515 eV   48.15 nm  f=0.0000  <S**2>=0.000
       4 -> 22         0.70611

 Excited State  46:      Singlet-A1    25.9976 eV   47.69 nm  f=0.2976  <S**2>=0.000
       2 ->  6        -0.15125
       3 -> 17        -0.10616
       3 -> 18        -0.18486
       4 -> 21         0.64704

 Excited State  47:      Singlet-A1    27.3622 eV   45.31 nm  f=0.0397  <S**2>=0.000
       2 ->  6         0.62040
       3 -> 17         0.12545
       3 -> 18        -0.24600

 Excited State  48:      Singlet-B2    28.0966 eV   44.13 nm  f=0.1344  <S**2>=0.000
       2 ->  7         0.11578
       3 -> 19         0.67428
       3 -> 21         0.14033

 Excited State  49:      Singlet-A1    28.4306 eV   43.61 nm  f=0.2954  <S**2>=0.000
       2 ->  6         0.20241
       3 -> 18         0.62475
       4 -> 21         0.20138
       5 -> 20        -0.10579

 Excited State  50:      Singlet-B2    28.7559 eV   43.12 nm  f=0.0124  <S**2>=0.000
       2 ->  7         0.68057
       3 -> 21        -0.15310

 Excited State  51:      Singlet-A2    28.8234 eV   43.02 nm  f=0.0000  <S**2>=0.000
       3 -> 20         0.70618

 Excited State  52:      Singlet-B1    29.8992 eV   41.47 nm  f=0.1027  <S**2>=0.000
       2 ->  8         0.57508
       3 -> 22         0.40753

 Excited State  53:      Singlet-A1    30.1469 eV   41.13 nm  f=0.0043  <S**2>=0.000
       2 ->  9         0.69586

 Excited State  54:      Singlet-B2    30.4738 eV   40.69 nm  f=0.2886  <S**2>=0.000
       2 ->  7         0.12673
       3 -> 19        -0.13925
       3 -> 21         0.66619

 Excited State  55:      Singlet-B1    30.4749 eV   40.68 nm  f=0.1588  <S**2>=0.000
       2 ->  8        -0.39722
       3 -> 22         0.56755
       5 -> 23         0.10610

 Excited State  56:      Singlet-B2    31.2382 eV   39.69 nm  f=0.0058  <S**2>=0.000
       2 -> 10         0.70318

 Excited State  57:      Singlet-B1    31.7113 eV   39.10 nm  f=0.0032  <S**2>=0.000
       5 -> 23         0.69590

 Excited State  58:      Singlet-A1    31.9304 eV   38.83 nm  f=0.0024  <S**2>=0.000
       2 -> 11         0.70188

 Excited State  59:      Singlet-A2    32.9761 eV   37.60 nm  f=0.0000  <S**2>=0.000
       2 -> 12         0.70617

 Excited State  60:      Singlet-A1    33.4556 eV   37.06 nm  f=0.0063  <S**2>=0.000
       2 -> 13         0.67397
       4 -> 23        -0.19892

 Excited State  61:      Singlet-B1    34.1179 eV   36.34 nm  f=0.0097  <S**2>=0.000
       2 -> 14         0.70399

 Excited State  62:      Singlet-A1    34.1633 eV   36.29 nm  f=0.0260  <S**2>=0.000
       2 -> 13         0.18502
       2 -> 15        -0.11507
       4 -> 23         0.65803

 Excited State  63:      Singlet-A2    34.6026 eV   35.83 nm  f=0.0000  <S**2>=0.000
       5 -> 24         0.70584

 Excited State  64:      Singlet-B2    36.4183 eV   34.04 nm  f=0.0098  <S**2>=0.000
       2 -> 16         0.64178
       3 -> 23         0.10524
       4 -> 24        -0.26560

 Excited State  65:      Singlet-A1    36.5028 eV   33.97 nm  f=0.0065  <S**2>=0.000
       2 -> 15         0.67648
       5 -> 25         0.16667

 Excited State  66:      Singlet-B2    36.8899 eV   33.61 nm  f=0.0021  <S**2>=0.000
       2 -> 16         0.28248
       3 -> 23        -0.12706
       4 -> 24         0.63268

 Excited State  67:      Singlet-B2    37.3866 eV   33.16 nm  f=0.0034  <S**2>=0.000
       2 -> 17         0.68627
       3 -> 23        -0.13097

 Excited State  68:      Singlet-B2    38.3914 eV   32.29 nm  f=0.0602  <S**2>=0.000
       2 -> 17         0.15000
       3 -> 23         0.66816
       4 -> 24         0.14254

 Excited State  69:      Singlet-B1    39.2976 eV   31.55 nm  f=0.0089  <S**2>=0.000
       5 -> 26         0.70473

 Excited State  70:      Singlet-A1    39.7653 eV   31.18 nm  f=0.0099  <S**2>=0.000
       2 -> 19        -0.13508
       3 -> 24         0.28039
       4 -> 26        -0.31312
       5 -> 25         0.53867

 Excited State  71:      Singlet-B2    40.7949 eV   30.39 nm  f=0.0000  <S**2>=0.000
       2 -> 18         0.70279

 Excited State  72:      Singlet-B1    40.8282 eV   30.37 nm  f=0.0015  <S**2>=0.000
       4 -> 25         0.70454

 Excited State  73:      Singlet-A1    40.9206 eV   30.30 nm  f=0.0039  <S**2>=0.000
       2 -> 19         0.65956
       3 -> 24         0.24215

 Excited State  74:      Singlet-A1    41.2018 eV   30.09 nm  f=0.0235  <S**2>=0.000
       2 -> 19        -0.20989
       3 -> 24         0.52208
       4 -> 26         0.41553

 Excited State  75:      Singlet-B1    42.0218 eV   29.50 nm  f=0.0001  <S**2>=0.000
       2 -> 20         0.70479

 Excited State  76:      Singlet-A2    42.9717 eV   28.85 nm  f=0.0000  <S**2>=0.000
       2 -> 22         0.70360

 Excited State  77:      Singlet-A1    43.0219 eV   28.82 nm  f=0.0063  <S**2>=0.000
       2 -> 21         0.70442

 Excited State  78:      Singlet-A2    44.8154 eV   27.67 nm  f=0.0000  <S**2>=0.000
       3 -> 25         0.70384

 Excited State  79:      Singlet-B2    45.6010 eV   27.19 nm  f=0.0638  <S**2>=0.000
       3 -> 26         0.70249

 Excited State  80:      Singlet-A1    47.4368 eV   26.14 nm  f=0.0128  <S**2>=0.000
       2 -> 15        -0.10730
       2 -> 23        -0.25304
       3 -> 24        -0.26010
       3 -> 27         0.16437
       4 -> 26         0.42807
       5 -> 25         0.33722

 Excited State  81:      Singlet-A2    47.6880 eV   26.00 nm  f=0.0000  <S**2>=0.000
       5 -> 27         0.70644

 Excited State  82:      Singlet-B2    49.9366 eV   24.83 nm  f=0.0368  <S**2>=0.000
       4 -> 27         0.68285
       5 -> 29         0.17560

 Excited State  83:      Singlet-B1    50.7375 eV   24.44 nm  f=0.1029  <S**2>=0.000
       5 -> 28         0.70455

 Excited State  84:      Singlet-A1    51.5593 eV   24.05 nm  f=0.0875  <S**2>=0.000
       2 -> 23         0.63331
       3 -> 27         0.24329
       4 -> 26         0.10227
       5 -> 25         0.10369

 Excited State  85:      Singlet-B2    52.2061 eV   23.75 nm  f=0.1298  <S**2>=0.000
       4 -> 27        -0.16529
       5 -> 29         0.67453

 Excited State  86:      Singlet-A1    52.6647 eV   23.54 nm  f=0.0236  <S**2>=0.000
       3 -> 27         0.11574
       4 -> 28         0.69599

 Excited State  87:      Singlet-A2    53.6826 eV   23.10 nm  f=0.0000  <S**2>=0.000
       4 -> 29         0.70681

 Excited State  88:      Singlet-B2    53.9919 eV   22.96 nm  f=0.0531  <S**2>=0.000
       2 -> 24         0.70408

 Excited State  89:      Singlet-A1    55.7094 eV   22.26 nm  f=0.0098  <S**2>=0.000
       2 -> 23        -0.14778
       2 -> 26         0.13066
       3 -> 27         0.47116
       4 -> 26        -0.11272
       5 -> 25        -0.11839
       5 -> 30         0.42994

 Excited State  90:      Singlet-A1    56.4157 eV   21.98 nm  f=0.0569  <S**2>=0.000
       3 -> 27        -0.39416
       4 -> 32        -0.12454
       5 -> 30         0.54901

 Excited State  91:      Singlet-B2    56.9530 eV   21.77 nm  f=0.0120  <S**2>=0.000
       3 -> 28         0.69823

 Excited State  92:      Singlet-B1    57.8446 eV   21.43 nm  f=0.0006  <S**2>=0.000
       2 -> 25        -0.12641
       3 -> 29         0.50533
       4 -> 30        -0.47734

 Excited State  93:      Singlet-B1    58.0705 eV   21.35 nm  f=0.2361  <S**2>=0.000
       2 -> 25         0.68176
       3 -> 29         0.17964

 Excited State  94:      Singlet-B1    58.3002 eV   21.27 nm  f=0.1163  <S**2>=0.000
       2 -> 25        -0.13254
       3 -> 29         0.38437
       4 -> 30         0.45919
       5 -> 32         0.34490

 Excited State  95:      Singlet-A1    58.8444 eV   21.07 nm  f=0.0959  <S**2>=0.000
       2 -> 26         0.68928

 Excited State  96:      Singlet-A2    59.1223 eV   20.97 nm  f=0.0000  <S**2>=0.000
       5 -> 31         0.70423

 Excited State  97:      Singlet-B1    59.4392 eV   20.86 nm  f=0.1603  <S**2>=0.000
       3 -> 29        -0.24402
       4 -> 30        -0.24106
       5 -> 32         0.61456

 Excited State  98:      Singlet-B2    61.2778 eV   20.23 nm  f=0.0182  <S**2>=0.000
       4 -> 31         0.70444

 Excited State  99:      Singlet-A2    61.7998 eV   20.06 nm  f=0.0000  <S**2>=0.000
       3 -> 30         0.70326

 Excited State 100:      Singlet-A1    61.9320 eV   20.02 nm  f=0.2257  <S**2>=0.000
       3 -> 31         0.10402
       4 -> 32         0.68548

 Excited State 101:      Singlet-A1    65.3704 eV   18.97 nm  f=0.0000  <S**2>=0.000
       3 -> 31         0.69545

 Excited State 102:      Singlet-B2    65.3776 eV   18.96 nm  f=0.1018  <S**2>=0.000
       3 -> 32         0.69619

 Excited State 103:      Singlet-B2    67.1730 eV   18.46 nm  f=0.0449  <S**2>=0.000
       2 -> 27         0.69912

 Excited State 104:      Singlet-A2    67.3297 eV   18.41 nm  f=0.0000  <S**2>=0.000
       5 -> 33         0.70576

 Excited State 105:      Singlet-B2    70.0460 eV   17.70 nm  f=0.0118  <S**2>=0.000
       4 -> 33         0.70057

 Excited State 106:      Singlet-A2    70.7905 eV   17.51 nm  f=0.0000  <S**2>=0.000
       2 -> 29         0.70654

 Excited State 107:      Singlet-A1    71.2071 eV   17.41 nm  f=0.0026  <S**2>=0.000
       2 -> 28         0.66147
       3 -> 33        -0.16331
       4 -> 34        -0.13563

 Excited State 108:      Singlet-B1    72.0951 eV   17.20 nm  f=0.1470  <S**2>=0.000
       5 -> 34         0.69741

 Excited State 109:      Singlet-A1    72.8095 eV   17.03 nm  f=0.0090  <S**2>=0.000
       3 -> 33        -0.22172
       4 -> 34         0.66608

 Excited State 110:      Singlet-B1    74.8637 eV   16.56 nm  f=0.0269  <S**2>=0.000
       2 -> 30         0.70501

 Excited State 111:      Singlet-A1    74.8972 eV   16.55 nm  f=0.0308  <S**2>=0.000
       2 -> 28         0.18664
       3 -> 33         0.64247
       4 -> 34         0.18785

 Excited State 112:      Singlet-B2    76.8623 eV   16.13 nm  f=0.0144  <S**2>=0.000
       2 -> 31         0.11643
       3 -> 34         0.69248

 Excited State 113:      Singlet-B2    77.9740 eV   15.90 nm  f=0.0000  <S**2>=0.000
       2 -> 31         0.69673
       3 -> 34        -0.11589

 Excited State 114:      Singlet-A1    78.4792 eV   15.80 nm  f=0.0032  <S**2>=0.000
       2 -> 32         0.70570

 Excited State 115:      Singlet-B2    86.7727 eV   14.29 nm  f=0.0179  <S**2>=0.000
       2 -> 33         0.70481

 Excited State 116:      Singlet-A1    88.6493 eV   13.99 nm  f=0.1627  <S**2>=0.000
       4 -> 37        -0.20160
       5 -> 35         0.67361

 Excited State 117:      Singlet-B1    90.2507 eV   13.74 nm  f=0.0883  <S**2>=0.000
       3 -> 36        -0.17530
       4 -> 35         0.65983
       5 -> 37         0.16946

 Excited State 118:      Singlet-A1    90.4381 eV   13.71 nm  f=0.0155  <S**2>=0.000
       2 -> 34         0.70553

 Excited State 119:      Singlet-B2    90.6252 eV   13.68 nm  f=0.2055  <S**2>=0.000
       3 -> 37         0.11649
       5 -> 36         0.68946

 Excited State 120:      Singlet-A2    90.6818 eV   13.67 nm  f=0.0000  <S**2>=0.000
       4 -> 36         0.70632

 Excited State 121:      Singlet-B1    92.6814 eV   13.38 nm  f=0.0171  <S**2>=0.000
       3 -> 36         0.18817
       4 -> 35        -0.11866
       5 -> 37         0.67026

 Excited State 122:      Singlet-A2    92.8467 eV   13.35 nm  f=0.0000  <S**2>=0.000
       3 -> 35         0.70651

 Excited State 123:      Singlet-B1    96.6017 eV   12.83 nm  f=0.1924  <S**2>=0.000
       3 -> 36         0.64179
       4 -> 35         0.18727
       5 -> 37        -0.13786
       5 -> 38         0.17137

 Excited State 124:      Singlet-A1    97.3996 eV   12.73 nm  f=0.2896  <S**2>=0.000
       4 -> 37         0.67439
       5 -> 35         0.19328

 Excited State 125:      Singlet-B2    99.3209 eV   12.48 nm  f=0.0703  <S**2>=0.000
       3 -> 37         0.69402
       5 -> 36        -0.10580

 Excited State 126:      Singlet-B1   106.2814 eV   11.67 nm  f=0.1902  <S**2>=0.000
       2 -> 35        -0.34570
       3 -> 36        -0.11415
       5 -> 38         0.59747

 Excited State 127:      Singlet-A1   106.7829 eV   11.61 nm  f=0.0097  <S**2>=0.000
       4 -> 38         0.70557

 Excited State 128:      Singlet-B1   107.0511 eV   11.58 nm  f=0.1129  <S**2>=0.000
       2 -> 35         0.61643
       5 -> 38         0.33049

 Excited State 129:      Singlet-A2   108.4152 eV   11.44 nm  f=0.0000  <S**2>=0.000
       2 -> 36         0.70646

 Excited State 130:      Singlet-B2   111.1890 eV   11.15 nm  f=0.0559  <S**2>=0.000
       3 -> 38         0.69698
       4 -> 39         0.10119

 Excited State 131:      Singlet-A1   112.3116 eV   11.04 nm  f=0.0056  <S**2>=0.000
       2 -> 37         0.70606

 Excited State 132:      Singlet-A2   115.3050 eV   10.75 nm  f=0.0000  <S**2>=0.000
       5 -> 39         0.70674

 Excited State 133:      Singlet-B2   118.7812 eV   10.44 nm  f=0.1554  <S**2>=0.000
       4 -> 39         0.69698

 Excited State 134:      Singlet-A1   122.5411 eV   10.12 nm  f=0.0843  <S**2>=0.000
       3 -> 39         0.69917

 Excited State 135:      Singlet-A1   123.9211 eV   10.01 nm  f=0.0170  <S**2>=0.000
       2 -> 38         0.70199

 Excited State 136:      Singlet-B2   134.7954 eV    9.20 nm  f=0.0027  <S**2>=0.000
       2 -> 39         0.70698

 The electronic state is 1-A1.
 Alpha  occ. eigenvalues --  -19.22441  -1.03328  -0.55611  -0.40905  -0.33564
 Alpha virt. eigenvalues --    0.01284   0.07933   0.12706   0.12878   0.17571
 Alpha virt. eigenvalues --    0.20111   0.24267   0.26048   0.28783   0.36372
 Alpha virt. eigenvalues --    0.37089   0.40476   0.53245   0.54441   0.58462

 Mulliken charges:
               1
     1  O   -0.290623
     2  H    0.145312
     3  H    0.145312
 Sum of Mulliken charges =  -0.00000

 Dipole moment (field-independent basis, Debye):
    X=             -0.0000    Y=             -0.0000    Z=             -1.8844  Tot=              1.8844
 Quadrupole moment (field-independent basis, Debye-Ang):
   XX=             -7.7641   YY=             -4.4432   ZZ=             -6.4658
   XY=              0.0000   XZ=              0.0000   YZ=              0.0000

 Normal termination of Gaussian 16 at Mon Mar 21 20:23:46 2022.
