 Gaussian 16, Revision C.01,
 Gaussian 16:  EM64L-G16RevC.01  3-Jul-2019

 ----------------------------------------------------------------------
 #P TD(Nstates=10000) pbe1pbe/Gen SCF(maxcycles=100) Int(Grid=ultrafine
 )
 ----------------------------------------------------------------------

 ---------------------
 xGDB7_00001_tier4.com
 ---------------------
 Symbolic Z-matrix:
 Charge =  0 Multiplicity = 1

                         Standard orientation:
 ---------------------------------------------------------------------
 Center     Atomic      Atomic             Coordinates (Angstroms)
 Number     Number       Type             X           Y           Z
 ---------------------------------------------------------------------
      1          9           0       -1.139724   -0.269725    0.000000
      2          6           0        0.000000    0.430281    0.000000
      3          6           0        1.180852   -0.148760    0.000000
      4          1           0       -0.180450    1.498331    0.000000
      5          1           0        1.283634   -1.225170    0.000000
      6          1           0        2.069222    0.465238    0.000000
 ---------------------------------------------------------------------

 SCF Done:  E(RPBE1PBE) =  -177.508804863     A.U. after   12 cycles

 Excitation energies and oscillator strengths:

 Excited State   1:      Singlet-A"     7.4894 eV  165.55 nm  f=0.0435  <S**2>=0.000
      12 -> 14         0.70178
 This state for optimization and/or second-order correction.
 Total Energy, E(TD-HF/TD-DFT) =  -177.233575472
 Copying the excited state density for this state as the 1-particle RhoCI density.

 Excited State   2:      Singlet-A'     7.8050 eV  158.85 nm  f=0.3222  <S**2>=0.000
      12 -> 13         0.69604

 Excited State   3:      Singlet-A"     8.1062 eV  152.95 nm  f=0.0078  <S**2>=0.000
      12 -> 15         0.69191

 Excited State   4:      Singlet-A"     8.8468 eV  140.15 nm  f=0.0011  <S**2>=0.000
      11 -> 13         0.45171
      12 -> 16         0.52909

 Excited State   5:      Singlet-A"     8.9245 eV  138.93 nm  f=0.0015  <S**2>=0.000
      11 -> 13         0.53655
      12 -> 16        -0.42774
      12 -> 17        -0.11440

 Excited State   6:      Singlet-A"     9.3285 eV  132.91 nm  f=0.0026  <S**2>=0.000
      10 -> 13         0.10983
      12 -> 16        -0.15011
      12 -> 17         0.67128

 Excited State   7:      Singlet-A"     9.8570 eV  125.78 nm  f=0.0005  <S**2>=0.000
      10 -> 13         0.69423
      12 -> 17        -0.10817

 Excited State   8:      Singlet-A"    10.1993 eV  121.56 nm  f=0.0085  <S**2>=0.000
      12 -> 18         0.69926

 Excited State   9:      Singlet-A'    10.4382 eV  118.78 nm  f=0.0004  <S**2>=0.000
      11 -> 14         0.51444
      11 -> 15        -0.14139
      12 -> 19        -0.45284

 Excited State  10:      Singlet-A'    10.5324 eV  117.72 nm  f=0.0107  <S**2>=0.000
      11 -> 14         0.43394
      11 -> 15        -0.10849
      12 -> 19         0.53171

 Excited State  11:      Singlet-A"    10.7661 eV  115.16 nm  f=0.1296  <S**2>=0.000
       8 -> 13         0.11949
      12 -> 20         0.67229
      12 -> 21         0.16535

 Excited State  12:      Singlet-A'    11.1617 eV  111.08 nm  f=0.0913  <S**2>=0.000
      10 -> 14        -0.23475
      11 -> 14         0.18372
      11 -> 15         0.62829

 Excited State  13:      Singlet-A"    11.3065 eV  109.66 nm  f=0.0081  <S**2>=0.000
      12 -> 20        -0.16532
      12 -> 21         0.67499

 Excited State  14:      Singlet-A'    11.4280 eV  108.49 nm  f=0.0999  <S**2>=0.000
      10 -> 14         0.61420
      10 -> 15         0.10969
      11 -> 15         0.24384
      11 -> 16        -0.11042
      12 -> 22        -0.17549

 Excited State  15:      Singlet-A'    11.5381 eV  107.46 nm  f=0.0369  <S**2>=0.000
      11 -> 16        -0.31572
      12 -> 22         0.61207

 Excited State  16:      Singlet-A'    11.8412 eV  104.71 nm  f=0.1854  <S**2>=0.000
      10 -> 14         0.15578
      10 -> 15         0.16726
      11 -> 16         0.56543
      11 -> 17         0.14982
      12 -> 22         0.25201

 Excited State  17:      Singlet-A"    11.9310 eV  103.92 nm  f=0.0148  <S**2>=0.000
       8 -> 13        -0.44017
      12 -> 23         0.53736

 Excited State  18:      Singlet-A"    12.0263 eV  103.09 nm  f=0.0157  <S**2>=0.000
       8 -> 13         0.52578
      12 -> 23         0.45097

 Excited State  19:      Singlet-A'    12.0386 eV  102.99 nm  f=0.0833  <S**2>=0.000
      10 -> 14        -0.16383
      10 -> 15         0.66482
      11 -> 16        -0.11237

 Excited State  20:      Singlet-A'    12.1334 eV  102.18 nm  f=0.0505  <S**2>=0.000
       9 -> 13         0.66659

 Excited State  21:      Singlet-A'    12.4851 eV   99.31 nm  f=0.0854  <S**2>=0.000
      11 -> 16        -0.15665
      11 -> 17         0.65941

 Excited State  22:      Singlet-A'    12.9125 eV   96.02 nm  f=0.0217  <S**2>=0.000
      10 -> 16         0.50238
      10 -> 17        -0.16334
      11 -> 17        -0.10378
      12 -> 24        -0.44116

 Excited State  23:      Singlet-A"    13.0108 eV   95.29 nm  f=0.0523  <S**2>=0.000
       9 -> 14         0.66448
       9 -> 15        -0.19113
       9 -> 16        -0.10786

 Excited State  24:      Singlet-A'    13.0184 eV   95.24 nm  f=0.1704  <S**2>=0.000
       8 -> 14         0.12023
      10 -> 16         0.44819
      10 -> 17         0.28953
      12 -> 24         0.41071

 Excited State  25:      Singlet-A"    13.1683 eV   94.15 nm  f=0.0078  <S**2>=0.000
       7 -> 13        -0.30522
      11 -> 19         0.62522

 Excited State  26:      Singlet-A'    13.2450 eV   93.61 nm  f=0.0087  <S**2>=0.000
      11 -> 18         0.68905

 Excited State  27:      Singlet-A"    13.2845 eV   93.33 nm  f=0.0365  <S**2>=0.000
       7 -> 13         0.60148
      11 -> 19         0.31044
      12 -> 25        -0.16785

 Excited State  28:      Singlet-A"    13.3677 eV   92.75 nm  f=0.0082  <S**2>=0.000
       7 -> 13         0.18543
      12 -> 25         0.64034
      12 -> 27        -0.19462

 Excited State  29:      Singlet-A'    13.4695 eV   92.05 nm  f=0.0500  <S**2>=0.000
       8 -> 15        -0.12161
      10 -> 17         0.48076
      11 -> 20         0.37911
      12 -> 24        -0.23686
      12 -> 26        -0.11290

 Excited State  30:      Singlet-A'    13.6066 eV   91.12 nm  f=0.0169  <S**2>=0.000
       8 -> 14         0.64495
      10 -> 17        -0.20274
      12 -> 26        -0.16093

 Excited State  31:      Singlet-A"    13.6979 eV   90.51 nm  f=0.0044  <S**2>=0.000
       9 -> 15         0.16307
       9 -> 16         0.12995
      12 -> 25         0.19920
      12 -> 27         0.62529

 Excited State  32:      Singlet-A"    13.7593 eV   90.11 nm  f=0.0005  <S**2>=0.000
       9 -> 14         0.19149
       9 -> 15         0.63810
      12 -> 27        -0.18621

 Excited State  33:      Singlet-A'    13.7996 eV   89.85 nm  f=0.0359  <S**2>=0.000
      10 -> 17        -0.24441
      11 -> 20         0.57175
      12 -> 24         0.16355
      12 -> 26         0.18194

 Excited State  34:      Singlet-A'    13.9333 eV   88.98 nm  f=0.0167  <S**2>=0.000
       8 -> 14         0.13504
       8 -> 15        -0.15467
      10 -> 16        -0.10457
      10 -> 18         0.28700
      12 -> 26         0.57517

 Excited State  35:      Singlet-A'    14.1262 eV   87.77 nm  f=0.1022  <S**2>=0.000
       8 -> 15         0.26370
      11 -> 21         0.61266
      12 -> 26         0.13902

 Excited State  36:      Singlet-A'    14.2032 eV   87.29 nm  f=0.1152  <S**2>=0.000
       8 -> 15         0.47288
      10 -> 18         0.44482
      10 -> 20        -0.12795
      11 -> 21        -0.14855

 Excited State  37:      Singlet-A"    14.2190 eV   87.20 nm  f=0.0005  <S**2>=0.000
       9 -> 16         0.24650
      10 -> 19         0.59246
      11 -> 22        -0.26398

 Excited State  38:      Singlet-A"    14.2633 eV   86.93 nm  f=0.0188  <S**2>=0.000
       9 -> 15        -0.11507
       9 -> 16         0.58910
      10 -> 19        -0.29057
      12 -> 27        -0.13411

 Excited State  39:      Singlet-A'    14.3641 eV   86.32 nm  f=0.0568  <S**2>=0.000
       8 -> 14        -0.14307
       8 -> 15        -0.33966
       8 -> 17        -0.10219
      10 -> 17        -0.14410
      10 -> 18         0.38910
      10 -> 21         0.10865
      11 -> 21         0.23908
      12 -> 24         0.13348
      12 -> 26        -0.21443

 Excited State  40:      Singlet-A"    14.4746 eV   85.66 nm  f=0.0016  <S**2>=0.000
       9 -> 16         0.13461
      10 -> 19         0.22312
      11 -> 22         0.64737

 Excited State  41:      Singlet-A'    14.6447 eV   84.66 nm  f=0.0198  <S**2>=0.000
       7 -> 14        -0.10826
       8 -> 15         0.15331
       8 -> 16        -0.21273
      10 -> 20         0.61905

 Excited State  42:      Singlet-A'    14.9024 eV   83.20 nm  f=0.0341  <S**2>=0.000
       7 -> 14        -0.37051
       8 -> 16        -0.31538
      10 -> 20        -0.23167
      11 -> 23         0.42872

 Excited State  43:      Singlet-A"    14.9434 eV   82.97 nm  f=0.0042  <S**2>=0.000
       9 -> 16        -0.12407
       9 -> 17         0.63279
      12 -> 28         0.22034

 Excited State  44:      Singlet-A'    15.0287 eV   82.50 nm  f=0.1034  <S**2>=0.000
       7 -> 14         0.37583
       8 -> 16         0.19719
       9 -> 19         0.13935
      11 -> 23         0.50411

 Excited State  45:      Singlet-A'    15.0416 eV   82.43 nm  f=0.0247  <S**2>=0.000
       7 -> 14        -0.41910
       8 -> 16         0.48378
      10 -> 21        -0.16357

 Excited State  46:      Singlet-A"    15.1443 eV   81.87 nm  f=0.0159  <S**2>=0.000
       6 -> 13         0.12330
       9 -> 17        -0.21818
      12 -> 28         0.64564

 Excited State  47:      Singlet-A"    15.2823 eV   81.13 nm  f=0.0393  <S**2>=0.000
       6 -> 13        -0.20145
      10 -> 22         0.65993

 Excited State  48:      Singlet-A'    15.3135 eV   80.96 nm  f=0.0345  <S**2>=0.000
       8 -> 16        -0.14449
       8 -> 17         0.62189
      10 -> 21        -0.19667

 Excited State  49:      Singlet-A'    15.5428 eV   79.77 nm  f=0.0414  <S**2>=0.000
       7 -> 15        -0.37555
       8 -> 17         0.11838
       9 -> 19         0.28439
      10 -> 21         0.45308
      12 -> 31        -0.10474

 Excited State  50:      Singlet-A'    15.6266 eV   79.34 nm  f=0.0930  <S**2>=0.000
       7 -> 15         0.54489
       8 -> 17         0.13160
      10 -> 21         0.35264
      12 -> 31        -0.12829

 Excited State  51:      Singlet-A"    15.7381 eV   78.78 nm  f=0.0043  <S**2>=0.000
       6 -> 13        -0.28033
       9 -> 18         0.49080
      11 -> 24         0.11115
      12 -> 29         0.33181
      12 -> 30        -0.17123

 Excited State  52:      Singlet-A"    15.7621 eV   78.66 nm  f=0.0237  <S**2>=0.000
       6 -> 13        -0.18035
       8 -> 19        -0.11247
      10 -> 22        -0.11025
      11 -> 24         0.47143
      12 -> 29        -0.43618

 Excited State  53:      Singlet-A"    15.8123 eV   78.41 nm  f=0.0184  <S**2>=0.000
       9 -> 18         0.42066
      11 -> 24        -0.34573
      12 -> 29        -0.40666

 Excited State  54:      Singlet-A'    15.8533 eV   78.21 nm  f=0.0748  <S**2>=0.000
       7 -> 15         0.16065
       7 -> 16         0.28249
       8 -> 18         0.19775
       9 -> 19         0.52548
      11 -> 23        -0.11123
      11 -> 25         0.12606
      12 -> 31         0.11283

 Excited State  55:      Singlet-A"    15.8659 eV   78.15 nm  f=0.0409  <S**2>=0.000
       6 -> 13         0.31263
       9 -> 18         0.22442
       9 -> 20        -0.16489
      10 -> 22         0.10496
      11 -> 24         0.27784
      12 -> 29         0.11834
      12 -> 30         0.43155

 Excited State  56:      Singlet-A'    15.9523 eV   77.72 nm  f=0.0983  <S**2>=0.000
      10 -> 21         0.14019
      10 -> 23        -0.44936
      12 -> 31         0.47558

 Excited State  57:      Singlet-A"    15.9831 eV   77.57 nm  f=0.0413  <S**2>=0.000
       6 -> 13        -0.27485
       9 -> 20         0.34410
      11 -> 24        -0.10219
      12 -> 30         0.48903

 Excited State  58:      Singlet-A'    15.9991 eV   77.49 nm  f=0.0425  <S**2>=0.000
       7 -> 16         0.14726
      10 -> 21         0.10315
      10 -> 23         0.50433
      11 -> 25        -0.11457
      12 -> 31         0.42147

 Excited State  59:      Singlet-A'    16.1649 eV   76.70 nm  f=0.2558  <S**2>=0.000
       7 -> 16         0.54226
       8 -> 18        -0.33491
       9 -> 19        -0.10815
      12 -> 31        -0.18549

 Excited State  60:      Singlet-A'    16.3013 eV   76.06 nm  f=0.0075  <S**2>=0.000
       7 -> 16         0.24115
       8 -> 18         0.47541
       8 -> 20         0.15682
       9 -> 19        -0.14704
      11 -> 25        -0.33179
      11 -> 27         0.13601

 Excited State  61:      Singlet-A"    16.3549 eV   75.81 nm  f=0.1484  <S**2>=0.000
       6 -> 13         0.28436
       8 -> 19         0.11537
       9 -> 20         0.52985
       9 -> 21        -0.11312
      10 -> 22         0.10396
      11 -> 24         0.11339
      11 -> 26        -0.10203
      12 -> 30        -0.13633
      12 -> 32         0.15607

 Excited State  62:      Singlet-A'    16.3762 eV   75.71 nm  f=0.1274  <S**2>=0.000
       8 -> 17         0.13751
       8 -> 18         0.28474
       9 -> 19        -0.18630
      10 -> 21         0.11585
      11 -> 25         0.41548
      11 -> 27        -0.35076

 Excited State  63:      Singlet-A"    16.3846 eV   75.67 nm  f=0.0020  <S**2>=0.000
       8 -> 19         0.63712
      10 -> 24        -0.23847
      11 -> 24         0.11279

 Excited State  64:      Singlet-A"    16.4526 eV   75.36 nm  f=0.0144  <S**2>=0.000
      10 -> 24        -0.21960
      12 -> 32         0.64544

 Excited State  65:      Singlet-A"    16.4916 eV   75.18 nm  f=0.0207  <S**2>=0.000
       6 -> 13        -0.10071
       7 -> 19         0.10413
       8 -> 19         0.20998
      10 -> 24         0.58991
      11 -> 24         0.11443
      12 -> 32         0.18498

 Excited State  66:      Singlet-A"    16.5989 eV   74.69 nm  f=0.0002  <S**2>=0.000
       9 -> 20         0.15442
       9 -> 21         0.67286

 Excited State  67:      Singlet-A"    16.6960 eV   74.26 nm  f=0.0481  <S**2>=0.000
       8 -> 22         0.13434
      11 -> 26         0.67034

 Excited State  68:      Singlet-A'    16.7001 eV   74.24 nm  f=0.0298  <S**2>=0.000
       7 -> 17         0.11572
       8 -> 20        -0.35309
      11 -> 25         0.25376
      11 -> 27         0.49343

 Excited State  69:      Singlet-A'    16.7428 eV   74.05 nm  f=0.0279  <S**2>=0.000
       6 -> 14        -0.26882
       7 -> 17        -0.19983
       8 -> 20         0.47384
      11 -> 25         0.27888
      11 -> 27         0.24001

 Excited State  70:      Singlet-A'    16.8888 eV   73.41 nm  f=0.0041  <S**2>=0.000
       6 -> 14         0.51465
       7 -> 17        -0.39722
       8 -> 21        -0.11582

 Excited State  71:      Singlet-A'    17.0408 eV   72.76 nm  f=0.0196  <S**2>=0.000
       6 -> 14        -0.28994
       6 -> 15         0.14647
       7 -> 17        -0.34924
       8 -> 20        -0.26703
       9 -> 22         0.40473

 Excited State  72:      Singlet-A'    17.1619 eV   72.24 nm  f=0.0070  <S**2>=0.000
       7 -> 17        -0.19111
       7 -> 18        -0.11496
       9 -> 22        -0.26342
      10 -> 25         0.57938

 Excited State  73:      Singlet-A"    17.2021 eV   72.08 nm  f=0.0379  <S**2>=0.000
       8 -> 22         0.16788
      10 -> 26         0.10203
      12 -> 33         0.64386

 Excited State  74:      Singlet-A'    17.3127 eV   71.61 nm  f=0.0078  <S**2>=0.000
       7 -> 17         0.25646
       7 -> 18         0.10835
       8 -> 20         0.12364
       9 -> 22         0.45386
      10 -> 25         0.34959
      11 -> 27         0.10780
      11 -> 28        -0.10780

 Excited State  75:      Singlet-A"    17.3962 eV   71.27 nm  f=0.0016  <S**2>=0.000
       8 -> 22         0.11170
       9 -> 23         0.68348

 Excited State  76:      Singlet-A'    17.4196 eV   71.18 nm  f=0.0355  <S**2>=0.000
       7 -> 18         0.14497
       8 -> 21         0.62066
      12 -> 34        -0.20265

 Excited State  77:      Singlet-A"    17.4764 eV   70.94 nm  f=0.0695  <S**2>=0.000
       7 -> 19         0.13430
       8 -> 22         0.62247
      10 -> 26         0.14646
      11 -> 26        -0.13334
      12 -> 33        -0.15715

 Excited State  78:      Singlet-A'    17.5916 eV   70.48 nm  f=0.0001  <S**2>=0.000
       6 -> 15         0.43400
       7 -> 18         0.48021
      10 -> 27         0.17438

 Excited State  79:      Singlet-A"    17.5954 eV   70.46 nm  f=0.0544  <S**2>=0.000
       7 -> 19         0.67478
       8 -> 22        -0.10935
      10 -> 24        -0.10770

 Excited State  80:      Singlet-A'    17.6541 eV   70.23 nm  f=0.0106  <S**2>=0.000
       6 -> 15         0.21271
       7 -> 17         0.13164
       7 -> 18        -0.36775
      10 -> 27         0.46481
      12 -> 34        -0.19058

 Excited State  81:      Singlet-A"    17.6730 eV   70.15 nm  f=0.0855  <S**2>=0.000
       8 -> 22        -0.17580
      10 -> 26         0.65919

 Excited State  82:      Singlet-A'    17.7296 eV   69.93 nm  f=0.0031  <S**2>=0.000
       6 -> 14         0.15505
       6 -> 15         0.42485
       7 -> 18        -0.22889
      10 -> 27        -0.41733

 Excited State  83:      Singlet-A'    17.9409 eV   69.11 nm  f=0.0475  <S**2>=0.000
       7 -> 20         0.27648
       8 -> 21         0.16062
       8 -> 23        -0.25883
      11 -> 28         0.21601
      12 -> 34         0.49143

 Excited State  84:      Singlet-A'    17.9955 eV   68.90 nm  f=0.1163  <S**2>=0.000
       7 -> 20         0.39438
       8 -> 23         0.44514
      11 -> 28        -0.31511
      12 -> 34         0.14023

 Excited State  85:      Singlet-A'    18.0793 eV   68.58 nm  f=0.0525  <S**2>=0.000
       6 -> 16         0.11758
       7 -> 20         0.40266
       8 -> 21        -0.11519
       8 -> 23        -0.39073
      11 -> 28        -0.16426
      12 -> 34        -0.27953

 Excited State  86:      Singlet-A"    18.1093 eV   68.46 nm  f=0.0534  <S**2>=0.000
      12 -> 35         0.68758

 Excited State  87:      Singlet-A'    18.2783 eV   67.83 nm  f=0.1275  <S**2>=0.000
       6 -> 17         0.11876
       7 -> 20         0.24132
       7 -> 21         0.24110
       8 -> 23         0.19062
       9 -> 24        -0.10909
      10 -> 27        -0.13950
      11 -> 28         0.47698
      12 -> 34        -0.15700

 Excited State  88:      Singlet-A'    18.3621 eV   67.52 nm  f=0.0125  <S**2>=0.000
       6 -> 16         0.58938
       7 -> 21        -0.13810
       9 -> 24        -0.23315
      11 -> 29        -0.11736

 Excited State  89:      Singlet-A"    18.4840 eV   67.08 nm  f=0.0027  <S**2>=0.000
      12 -> 36         0.65171
      12 -> 37         0.21024

 Excited State  90:      Singlet-A'    18.5385 eV   66.88 nm  f=0.0050  <S**2>=0.000
       6 -> 16         0.17042
       9 -> 24         0.63957
      11 -> 29        -0.13680

 Excited State  91:      Singlet-A"    18.6037 eV   66.64 nm  f=0.0105  <S**2>=0.000
       6 -> 19         0.10963
       8 -> 24         0.64255
      11 -> 31        -0.16939

 Excited State  92:      Singlet-A'    18.7045 eV   66.29 nm  f=0.0032  <S**2>=0.000
       6 -> 16         0.10048
       6 -> 17        -0.33629
       7 -> 21         0.51398
      10 -> 28         0.13646
      11 -> 30        -0.16850

 Excited State  93:      Singlet-A"    18.7052 eV   66.28 nm  f=0.0001  <S**2>=0.000
       7 -> 22         0.13895
      12 -> 36        -0.18538
      12 -> 37         0.65226

 Excited State  94:      Singlet-A'    18.7685 eV   66.06 nm  f=0.0304  <S**2>=0.000
       6 -> 16         0.18960
       7 -> 23        -0.12478
      11 -> 29         0.48364
      11 -> 30         0.36804
      12 -> 38         0.17349

 Excited State  95:      Singlet-A"    18.7836 eV   66.01 nm  f=0.0100  <S**2>=0.000
       7 -> 22         0.33872
       8 -> 24        -0.12827
       9 -> 25         0.50060
       9 -> 27        -0.29485

 Excited State  96:      Singlet-A'    18.8310 eV   65.84 nm  f=0.0097  <S**2>=0.000
       6 -> 17        -0.20403
      10 -> 28         0.15718
      11 -> 29        -0.37936
      11 -> 30         0.49271
      11 -> 32         0.10466

 Excited State  97:      Singlet-A"    18.8666 eV   65.72 nm  f=0.0857  <S**2>=0.000
       7 -> 22         0.49676
       9 -> 25        -0.26453
       9 -> 27         0.17765
      11 -> 31        -0.31058

 Excited State  98:      Singlet-A'    18.9181 eV   65.54 nm  f=0.0069  <S**2>=0.000
       6 -> 16        -0.11632
      11 -> 29        -0.12542
      12 -> 38         0.64986

 Excited State  99:      Singlet-A'    19.0331 eV   65.14 nm  f=0.0475  <S**2>=0.000
       6 -> 17         0.27670
      10 -> 28         0.61149

 Excited State 100:      Singlet-A"    19.0619 eV   65.04 nm  f=0.0345  <S**2>=0.000
       7 -> 22         0.26600
       8 -> 24         0.13612
       9 -> 25        -0.16137
      11 -> 31         0.59516

 Excited State 101:      Singlet-A'    19.1050 eV   64.90 nm  f=0.0060  <S**2>=0.000
       6 -> 17         0.43259
       7 -> 21         0.29429
       7 -> 23        -0.18532
       9 -> 26         0.15028
      10 -> 28        -0.15752
      11 -> 28        -0.14694
      11 -> 29        -0.19035
      11 -> 30         0.13952

 Excited State 102:      Singlet-A"    19.2341 eV   64.46 nm  f=0.0017  <S**2>=0.000
       9 -> 25         0.35890
       9 -> 27         0.58671

 Excited State 103:      Singlet-A'    19.2517 eV   64.40 nm  f=0.0399  <S**2>=0.000
       7 -> 23         0.61343
       9 -> 26         0.18694
      10 -> 28        -0.12299
      11 -> 30         0.11349

 Excited State 104:      Singlet-A'    19.4181 eV   63.85 nm  f=0.2836  <S**2>=0.000
       6 -> 18        -0.21676
       7 -> 23        -0.12918
       8 -> 25         0.59616
       8 -> 27        -0.14557
      11 -> 32        -0.13005

 Excited State 105:      Singlet-A'    19.4859 eV   63.63 nm  f=0.0132  <S**2>=0.000
       6 -> 17        -0.13406
       8 -> 25        -0.10211
       8 -> 27        -0.19402
       9 -> 26         0.59585

 The electronic state is 1-A'.
 Alpha  occ. eigenvalues --  -24.79875 -10.32433 -10.23984  -1.24905  -0.79435
 Alpha  occ. eigenvalues --   -0.63056  -0.55536  -0.50737  -0.48952  -0.42904
 Alpha  occ. eigenvalues --   -0.39589  -0.28817
 Alpha virt. eigenvalues --    0.00663   0.03902   0.05960   0.09496   0.11176
 Alpha virt. eigenvalues --    0.13756   0.14451   0.15995   0.17986   0.18876
 Alpha virt. eigenvalues --    0.20058   0.23786   0.25632   0.27058   0.27605

 Mulliken charges:
               1
     1  F   -0.475605
     2  C    0.606887
     3  C   -0.027679
     4  H   -0.077793
     5  H   -0.058565
     6  H    0.032755
 Sum of Mulliken charges =  -0.00000

 Dipole moment (field-independent basis, Debye):
    X=              1.1732    Y=              0.7672    Z=              0.0000  Tot=              1.4018
 Quadrupole moment (field-independent basis, Debye-Ang):
   XX=            -17.6759   YY=            -15.6367   ZZ=            -19.0166
   XY=             -0.8463   XZ=              0.0000   YZ=              0.0000

 1\1\GINC-HEL10\SP\RPBE1PBE TD-FC\Gen\C2H3F1\SABYASACHI\21-Mar-2022\0\\
 #P TD(Nstates=10000) pbe1pbe/Gen SCF(maxcycles=100) Int(Grid=ultrafine
 )\\xGDB7_00001_tier4.com\\0,1\F,0,-1.139724,-0.269725,0.\C,0,0.,0.4302
 81,0.\C,0,1.180852,-0.14876,0.\H,0,-0.18045,1.498331,0.\H,0,1.283634,-
 1.22517,0.\H,0,2.069222,0.465238,0.\\Version=EM64L-G16RevC.01\State=1-
 A'\HF=-177.5088049\RMSD=5.479e-09\PG=CS [SG(C2H3F1)]\\@
 The archive entry for this job was punched.

 Normal termination of Gaussian 16 at Mon Mar 21 20:25:25 2022.
