 Gaussian 16, Revision C.01,
 Gaussian 16:  EM64L-G16RevC.01  3-Jul-2019

 ----------------------------------------------------------------------
 #P TD(Nstates=10000) pbe1pbe/Gen SCF(maxcycles=100) Int(Grid=ultrafine
 )
 ----------------------------------------------------------------------

 ---------------------
 xGDB7_00001_tier4.com
 ---------------------
 Symbolic Z-matrix:
 Charge =  0 Multiplicity = 1

                         Standard orientation:
 ---------------------------------------------------------------------
 Center     Atomic      Atomic             Coordinates (Angstroms)
 Number     Number       Type             X           Y           Z
 ---------------------------------------------------------------------
      1          7           0        1.078471   -0.156900   -0.000001
      2          6           0       -0.161963    0.384944   -0.000002
      3          8           0       -1.189170   -0.245458    0.000001
      4          1           0        1.898427    0.419427    0.000004
      5          1           0        1.178124   -1.157073    0.000005
      6          1           0       -0.140706    1.489948    0.000007
 ---------------------------------------------------------------------

 SCF Done:  E(RPBE1PBE) =  -169.596244332     A.U. after   13 cycles

 Excitation energies and oscillator strengths:

 Excited State   1:      Singlet-A      5.6927 eV  217.80 nm  f=0.0007  <S**2>=0.000
      12 -> 13         0.70500
 This state for optimization and/or second-order correction.
 Total Energy, E(TD-HF/TD-DFT) =  -169.387041870
 Copying the excited state density for this state as the 1-particle RhoCI density.

 Excited State   2:      Singlet-A      7.1058 eV  174.48 nm  f=0.0029  <S**2>=0.000
      11 -> 13         0.29526
      12 -> 14         0.63806

 Excited State   3:      Singlet-A      7.3845 eV  167.90 nm  f=0.0125  <S**2>=0.000
      11 -> 14         0.70367

 Excited State   4:      Singlet-A      7.8153 eV  158.64 nm  f=0.1163  <S**2>=0.000
      11 -> 13         0.29707
      12 -> 14        -0.10738
      12 -> 15         0.62245

 Excited State   5:      Singlet-A      8.1068 eV  152.94 nm  f=0.2989  <S**2>=0.000
      11 -> 13         0.54164
      12 -> 14        -0.26902
      12 -> 15        -0.32916

 Excited State   6:      Singlet-A      8.2455 eV  150.37 nm  f=0.0033  <S**2>=0.000
      11 -> 15         0.69651

 Excited State   7:      Singlet-A      8.8325 eV  140.37 nm  f=0.0644  <S**2>=0.000
      12 -> 16         0.69009

 Excited State   8:      Singlet-A      9.2136 eV  134.57 nm  f=0.0068  <S**2>=0.000
      11 -> 15        -0.10076
      11 -> 16         0.69221

 Excited State   9:      Singlet-A      9.5288 eV  130.12 nm  f=0.0090  <S**2>=0.000
      12 -> 18         0.70411

 Excited State  10:      Singlet-A      9.6222 eV  128.85 nm  f=0.0158  <S**2>=0.000
      12 -> 16        -0.10862
      12 -> 17         0.68720

 Excited State  11:      Singlet-A      9.9293 eV  124.87 nm  f=0.0020  <S**2>=0.000
       9 -> 13         0.12705
      11 -> 17         0.67941

 Excited State  12:      Singlet-A     10.0669 eV  123.16 nm  f=0.0033  <S**2>=0.000
      11 -> 18        -0.25143
      12 -> 19         0.65113

 Excited State  13:      Singlet-A     10.1428 eV  122.24 nm  f=0.0014  <S**2>=0.000
       9 -> 13         0.68556
      11 -> 17        -0.11140

 Excited State  14:      Singlet-A     10.2588 eV  120.86 nm  f=0.0114  <S**2>=0.000
      11 -> 18         0.63961
      12 -> 19         0.23441
      12 -> 20         0.12429

 Excited State  15:      Singlet-A     10.4630 eV  118.50 nm  f=0.0188  <S**2>=0.000
      11 -> 18        -0.11397
      12 -> 20         0.69438

 Excited State  16:      Singlet-A     10.4896 eV  118.20 nm  f=0.0021  <S**2>=0.000
      11 -> 19         0.68932

 Excited State  17:      Singlet-A     11.0136 eV  112.57 nm  f=0.0244  <S**2>=0.000
      11 -> 17        -0.10403
      11 -> 20         0.68004

 Excited State  18:      Singlet-A     11.1211 eV  111.49 nm  f=0.0481  <S**2>=0.000
      10 -> 14         0.69696

 Excited State  19:      Singlet-A     11.2437 eV  110.27 nm  f=0.0515  <S**2>=0.000
       9 -> 14        -0.37393
      10 -> 13         0.53831
      11 -> 21         0.12587
      12 -> 23        -0.15277

 Excited State  20:      Singlet-A     11.2659 eV  110.05 nm  f=0.0043  <S**2>=0.000
      12 -> 21         0.68855

 Excited State  21:      Singlet-A     11.3940 eV  108.82 nm  f=0.0061  <S**2>=0.000
       9 -> 14         0.10955
      12 -> 22         0.66795
      12 -> 23         0.15199

 Excited State  22:      Singlet-A     11.4738 eV  108.06 nm  f=0.0523  <S**2>=0.000
       9 -> 14         0.58205
      10 -> 13         0.31841
      11 -> 21         0.14481
      12 -> 22        -0.12818
      12 -> 23        -0.11285

 Excited State  23:      Singlet-A     11.6794 eV  106.16 nm  f=0.0667  <S**2>=0.000
      11 -> 21         0.46375
      12 -> 22        -0.14844
      12 -> 23         0.50397

 Excited State  24:      Singlet-A     11.8789 eV  104.37 nm  f=0.0008  <S**2>=0.000
       8 -> 13        -0.27189
      10 -> 15         0.63530

 Excited State  25:      Singlet-A     11.9352 eV  103.88 nm  f=0.0079  <S**2>=0.000
      11 -> 22         0.66739
      11 -> 23         0.16957

 Excited State  26:      Singlet-A     11.9993 eV  103.33 nm  f=0.0718  <S**2>=0.000
      10 -> 13        -0.22097
      11 -> 21         0.46652
      12 -> 23        -0.41404

 Excited State  27:      Singlet-A     12.0855 eV  102.59 nm  f=0.0030  <S**2>=0.000
       8 -> 13         0.62789
      10 -> 15         0.26042
      11 -> 23        -0.13474

 Excited State  28:      Singlet-A     12.1592 eV  101.97 nm  f=0.0018  <S**2>=0.000
      11 -> 23         0.21187
      12 -> 24         0.65703

 Excited State  29:      Singlet-A     12.1869 eV  101.74 nm  f=0.0727  <S**2>=0.000
       9 -> 15         0.69827

 Excited State  30:      Singlet-A     12.1910 eV  101.70 nm  f=0.0096  <S**2>=0.000
      11 -> 22        -0.17001
      11 -> 23         0.62384
      12 -> 24        -0.22986

 Excited State  31:      Singlet-A     12.7303 eV   97.39 nm  f=0.0133  <S**2>=0.000
       9 -> 16        -0.13973
      11 -> 24         0.66637

 Excited State  32:      Singlet-A     12.9467 eV   95.77 nm  f=0.0529  <S**2>=0.000
      10 -> 16         0.70050

 Excited State  33:      Singlet-A     13.0520 eV   94.99 nm  f=0.0101  <S**2>=0.000
       8 -> 14         0.56120
       9 -> 16         0.37052
       9 -> 17         0.11683
      12 -> 27         0.10138

 Excited State  34:      Singlet-A     13.2661 eV   93.46 nm  f=0.0404  <S**2>=0.000
       8 -> 14        -0.38882
       9 -> 16         0.52934
       9 -> 17         0.14378
      10 -> 18         0.12796
      11 -> 24         0.13331

 Excited State  35:      Singlet-A     13.6446 eV   90.87 nm  f=0.0014  <S**2>=0.000
      12 -> 25         0.69641

 Excited State  36:      Singlet-A     13.6754 eV   90.66 nm  f=0.0051  <S**2>=0.000
       9 -> 18         0.17698
      10 -> 17         0.62938
      12 -> 26         0.21535

 Excited State  37:      Singlet-A     13.7618 eV   90.09 nm  f=0.1020  <S**2>=0.000
       8 -> 15        -0.34884
       9 -> 17         0.54103
      10 -> 18        -0.24754

 Excited State  38:      Singlet-A     13.7926 eV   89.89 nm  f=0.0267  <S**2>=0.000
       9 -> 18         0.28916
      10 -> 17        -0.25756
      12 -> 26         0.57513

 Excited State  39:      Singlet-A     13.8408 eV   89.58 nm  f=0.0105  <S**2>=0.000
       9 -> 18         0.61489
      12 -> 26        -0.33685

 Excited State  40:      Singlet-A     13.8886 eV   89.27 nm  f=0.0870  <S**2>=0.000
       8 -> 15        -0.40498
      10 -> 18         0.53728
      12 -> 27        -0.11638

 Excited State  41:      Singlet-A     13.9244 eV   89.04 nm  f=0.1209  <S**2>=0.000
       8 -> 15         0.42899
       9 -> 16        -0.17394
       9 -> 17         0.39406
      10 -> 18         0.31205

 Excited State  42:      Singlet-A     14.0794 eV   88.06 nm  f=0.1441  <S**2>=0.000
       7 -> 13        -0.14148
      10 -> 17        -0.11734
      11 -> 25         0.65925

 Excited State  43:      Singlet-A     14.1902 eV   87.37 nm  f=0.0000  <S**2>=0.000
       7 -> 13         0.31523
      10 -> 19         0.62521

 Excited State  44:      Singlet-A     14.2522 eV   86.99 nm  f=0.0025  <S**2>=0.000
       7 -> 13         0.60372
      10 -> 19        -0.29802
      11 -> 25         0.17851

 Excited State  45:      Singlet-A     14.2812 eV   86.82 nm  f=0.0669  <S**2>=0.000
       9 -> 19         0.30357
      11 -> 26         0.47272
      12 -> 27         0.38719

 Excited State  46:      Singlet-A     14.3135 eV   86.62 nm  f=0.1634  <S**2>=0.000
       8 -> 15         0.12123
       8 -> 16        -0.10608
       9 -> 19         0.57731
       9 -> 20         0.10670
      12 -> 27        -0.32183

 Excited State  47:      Singlet-A     14.4571 eV   85.76 nm  f=0.0747  <S**2>=0.000
       8 -> 16        -0.12636
       9 -> 19        -0.21957
       9 -> 20         0.19880
      11 -> 26         0.48472
      12 -> 27        -0.35598

 Excited State  48:      Singlet-A     14.5125 eV   85.43 nm  f=0.0000  <S**2>=0.000
      10 -> 20         0.19708
      11 -> 27         0.66293

 Excited State  49:      Singlet-A     14.6635 eV   84.55 nm  f=0.0749  <S**2>=0.000
       6 -> 13        -0.11106
      10 -> 20         0.65356
      11 -> 27        -0.18734

 Excited State  50:      Singlet-A     14.8333 eV   83.58 nm  f=0.0150  <S**2>=0.000
       8 -> 16        -0.10233
       9 -> 20         0.62101
      11 -> 26        -0.11221
      12 -> 27         0.17130
      12 -> 28        -0.15522

 Excited State  51:      Singlet-A     14.9189 eV   83.11 nm  f=0.0229  <S**2>=0.000
       8 -> 16         0.65162
       9 -> 20         0.15728
      12 -> 28         0.10669

 Excited State  52:      Singlet-A     15.1470 eV   81.85 nm  f=0.0972  <S**2>=0.000
       7 -> 14         0.64782
       7 -> 15         0.12211
      10 -> 21        -0.14010

 Excited State  53:      Singlet-A     15.3877 eV   80.57 nm  f=0.0665  <S**2>=0.000
      10 -> 21         0.57767
      12 -> 28         0.34317

 Excited State  54:      Singlet-A     15.4699 eV   80.15 nm  f=0.0012  <S**2>=0.000
       8 -> 18        -0.37684
       9 -> 21         0.58616

 Excited State  55:      Singlet-A     15.5402 eV   79.78 nm  f=0.0061  <S**2>=0.000
      10 -> 22         0.64705
      10 -> 23         0.21558
      11 -> 28        -0.11504

 Excited State  56:      Singlet-A     15.5708 eV   79.63 nm  f=0.0028  <S**2>=0.000
       9 -> 22         0.19699
      10 -> 21        -0.30062
      12 -> 28         0.47124
      12 -> 29        -0.23213
      12 -> 31        -0.18343

 Excited State  57:      Singlet-A     15.6330 eV   79.31 nm  f=0.0069  <S**2>=0.000
       8 -> 17         0.53103
       8 -> 19         0.18505
       9 -> 22         0.27850
       9 -> 23         0.22854
      12 -> 29         0.14890

 Excited State  58:      Singlet-A     15.6978 eV   78.98 nm  f=0.0077  <S**2>=0.000
       8 -> 17        -0.27271
       9 -> 22         0.11191
       9 -> 23         0.14813
      12 -> 29         0.57921
      12 -> 31        -0.12520
      12 -> 32         0.10763

 Excited State  59:      Singlet-A     15.7357 eV   78.79 nm  f=0.0147  <S**2>=0.000
       8 -> 18         0.58382
       9 -> 21         0.37413

 Excited State  60:      Singlet-A     15.8034 eV   78.45 nm  f=0.0081  <S**2>=0.000
      10 -> 22        -0.16910
      10 -> 23         0.62256
      11 -> 28         0.24060

 Excited State  61:      Singlet-A     15.8729 eV   78.11 nm  f=0.0530  <S**2>=0.000
       8 -> 17        -0.11783
       9 -> 22         0.56029
       9 -> 23        -0.27933
      10 -> 24        -0.12744
      12 -> 28        -0.14270
      12 -> 31         0.13875

 Excited State  62:      Singlet-A     15.9022 eV   77.97 nm  f=0.0157  <S**2>=0.000
      10 -> 22         0.18687
      10 -> 23        -0.18974
      11 -> 28         0.58557
      12 -> 30        -0.25077

 Excited State  63:      Singlet-A     15.9655 eV   77.66 nm  f=0.0154  <S**2>=0.000
       7 -> 15         0.49545
       8 -> 17        -0.17776
       8 -> 19         0.15496
       9 -> 23         0.30781
      12 -> 31         0.24313
      12 -> 32        -0.11684

 Excited State  64:      Singlet-A     15.9712 eV   77.63 nm  f=0.0293  <S**2>=0.000
       6 -> 13        -0.13425
      11 -> 28         0.27234
      12 -> 30         0.62987

 Excited State  65:      Singlet-A     16.0344 eV   77.32 nm  f=0.0144  <S**2>=0.000
       7 -> 15         0.10140
       8 -> 17         0.12652
       8 -> 19        -0.15114
       9 -> 22        -0.12242
       9 -> 23        -0.30484
      10 -> 21        -0.14762
      12 -> 28         0.26125
      12 -> 29         0.24382
      12 -> 31         0.33240
      12 -> 32        -0.18196

 Excited State  66:      Singlet-A     16.1149 eV   76.94 nm  f=0.0196  <S**2>=0.000
       7 -> 15         0.40433
       8 -> 17         0.11981
       9 -> 23        -0.29798
      10 -> 24         0.17475
      12 -> 31        -0.36972
      12 -> 32         0.10624

 Excited State  67:      Singlet-A     16.1875 eV   76.59 nm  f=0.0000  <S**2>=0.000
      11 -> 29         0.67351
      11 -> 31         0.15155

 Excited State  68:      Singlet-A     16.2883 eV   76.12 nm  f=0.0290  <S**2>=0.000
       8 -> 19        -0.38741
      10 -> 24         0.51341
      11 -> 30        -0.14579
      12 -> 31         0.12920

 Excited State  69:      Singlet-A     16.3039 eV   76.05 nm  f=0.0251  <S**2>=0.000
       7 -> 15        -0.15942
       7 -> 16         0.12858
       8 -> 17        -0.14875
       8 -> 19         0.41584
       9 -> 23        -0.19523
      10 -> 24         0.33788
      11 -> 30        -0.15831
      12 -> 32        -0.20921

 Excited State  70:      Singlet-A     16.4051 eV   75.58 nm  f=0.0041  <S**2>=0.000
       6 -> 13        -0.22849
       9 -> 24         0.64684

 Excited State  71:      Singlet-A     16.4205 eV   75.51 nm  f=0.0023  <S**2>=0.000
      11 -> 29        -0.16203
      11 -> 31         0.55912
      11 -> 32        -0.35279

 Excited State  72:      Singlet-A     16.4958 eV   75.16 nm  f=0.0684  <S**2>=0.000
       8 -> 19         0.18933
      12 -> 31         0.25920
      12 -> 32         0.60246

 Excited State  73:      Singlet-A     16.5977 eV   74.70 nm  f=0.0207  <S**2>=0.000
       6 -> 14         0.13217
       8 -> 20         0.40439
      10 -> 24         0.14330
      11 -> 30         0.51980

 Excited State  74:      Singlet-A     16.6347 eV   74.53 nm  f=0.0604  <S**2>=0.000
       6 -> 14        -0.15653
       7 -> 16        -0.16630
       8 -> 20         0.52950
      10 -> 24        -0.11760
      11 -> 30        -0.36191

 Excited State  75:      Singlet-A     16.6845 eV   74.31 nm  f=0.1987  <S**2>=0.000
       6 -> 13         0.59347
       9 -> 24         0.23749
      10 -> 20         0.10171
      11 -> 31        -0.10021
      12 -> 30         0.13581

 Excited State  76:      Singlet-A     16.8362 eV   73.64 nm  f=0.0000  <S**2>=0.000
      11 -> 31         0.36707
      11 -> 32         0.58396

 Excited State  77:      Singlet-A     16.9760 eV   73.04 nm  f=0.0126  <S**2>=0.000
       6 -> 14         0.57435
       7 -> 16        -0.35155
      11 -> 30        -0.10308
      12 -> 33        -0.10851

 Excited State  78:      Singlet-A     17.1142 eV   72.45 nm  f=0.0304  <S**2>=0.000
       6 -> 14         0.17190
       7 -> 16         0.10425
      11 -> 30        -0.10111
      12 -> 33         0.64862

 Excited State  79:      Singlet-A     17.2403 eV   71.92 nm  f=0.0000  <S**2>=0.000
       8 -> 21         0.69538

 Excited State  80:      Singlet-A     17.2557 eV   71.85 nm  f=0.0955  <S**2>=0.000
       6 -> 14         0.26014
       6 -> 15        -0.18903
       7 -> 16         0.49292
       8 -> 20         0.12800
      10 -> 24        -0.11554
      12 -> 33        -0.21404
      12 -> 34        -0.14702

 Excited State  81:      Singlet-A     17.3556 eV   71.44 nm  f=0.0046  <S**2>=0.000
      11 -> 33         0.67830

 Excited State  82:      Singlet-A     17.5656 eV   70.58 nm  f=0.0642  <S**2>=0.000
       7 -> 17        -0.26291
       8 -> 22         0.60090
      12 -> 34        -0.14313

 Excited State  83:      Singlet-A     17.6876 eV   70.10 nm  f=0.0000  <S**2>=0.000
      10 -> 25         0.69083

 Excited State  84:      Singlet-A     17.7733 eV   69.76 nm  f=0.0268  <S**2>=0.000
       6 -> 15         0.28619
       7 -> 16         0.11670
       7 -> 17         0.52926
       7 -> 20         0.10986
       8 -> 22         0.22697
      12 -> 34        -0.19818

 Excited State  85:      Singlet-A     17.7945 eV   69.68 nm  f=0.0061  <S**2>=0.000
       7 -> 18         0.56927
       7 -> 21         0.10187
       8 -> 24        -0.35924
       9 -> 26        -0.10455

 Excited State  86:      Singlet-A     17.8556 eV   69.44 nm  f=0.0542  <S**2>=0.000
       6 -> 15        -0.20051
       7 -> 17         0.19075
       8 -> 22         0.13278
       8 -> 23        -0.33765
       9 -> 25         0.39290
       9 -> 27         0.10177
      10 -> 26        -0.15211
      12 -> 34         0.28792

 Excited State  87:      Singlet-A     17.8880 eV   69.31 nm  f=0.1550  <S**2>=0.000
       6 -> 15        -0.15029
       7 -> 17         0.10137
       7 -> 19        -0.11366
       8 -> 23         0.55161
       9 -> 25         0.31262
       9 -> 27         0.15868

 Excited State  88:      Singlet-A     17.9384 eV   69.12 nm  f=0.0746  <S**2>=0.000
       6 -> 15         0.27369
       7 -> 17        -0.12794
       8 -> 23        -0.16416
       9 -> 25         0.38595
      10 -> 26         0.42378
      12 -> 34        -0.17134

 Excited State  89:      Singlet-A     18.0075 eV   68.85 nm  f=0.0488  <S**2>=0.000
       6 -> 15        -0.12488
       7 -> 17         0.10916
       7 -> 19        -0.15859
       8 -> 22         0.10317
       9 -> 25        -0.24293
      10 -> 26         0.47907
      12 -> 34         0.34326

 Excited State  90:      Singlet-A     18.0535 eV   68.68 nm  f=0.0052  <S**2>=0.000
       7 -> 18         0.37506
       8 -> 24         0.48654
       9 -> 26         0.30727

 Excited State  91:      Singlet-A     18.0956 eV   68.52 nm  f=0.0012  <S**2>=0.000
       8 -> 24         0.24536
       9 -> 26        -0.37748
      10 -> 27         0.52179

 Excited State  92:      Singlet-A     18.1676 eV   68.24 nm  f=0.0200  <S**2>=0.000
       6 -> 15         0.38499
       7 -> 16         0.11759
       7 -> 17        -0.16347
       7 -> 19        -0.18821
       9 -> 27         0.35474
      10 -> 26        -0.13783
      12 -> 34         0.29918

 Excited State  93:      Singlet-A     18.2050 eV   68.10 nm  f=0.1207  <S**2>=0.000
       8 -> 24        -0.19943
       9 -> 26         0.48507
      10 -> 27         0.43067

 Excited State  94:      Singlet-A     18.3033 eV   67.74 nm  f=0.0046  <S**2>=0.000
      11 -> 33         0.10408
      11 -> 34         0.67648

 Excited State  95:      Singlet-A     18.3582 eV   67.54 nm  f=0.0271  <S**2>=0.000
       7 -> 19         0.61441
       7 -> 20        -0.11348
       9 -> 27         0.19561
      10 -> 26         0.13098
      12 -> 34         0.11838

 Excited State  96:      Singlet-A     18.5235 eV   66.93 nm  f=0.1265  <S**2>=0.000
       6 -> 15        -0.19034
       7 -> 16        -0.12516
       7 -> 20         0.15119
       8 -> 22        -0.12429
       8 -> 23        -0.12966
       9 -> 25        -0.14434
       9 -> 27         0.50537
      10 -> 26         0.10893
      12 -> 34        -0.22006

 Excited State  97:      Singlet-A     18.5438 eV   66.86 nm  f=0.0126  <S**2>=0.000
      12 -> 35         0.69154

 Excited State  98:      Singlet-A     18.7366 eV   66.17 nm  f=0.0260  <S**2>=0.000
      12 -> 36         0.67081
      12 -> 37        -0.10194

 Excited State  99:      Singlet-A     18.8073 eV   65.92 nm  f=0.0162  <S**2>=0.000
       6 -> 15        -0.10885
       6 -> 16         0.67773

 Excited State 100:      Singlet-A     18.8533 eV   65.76 nm  f=0.0390  <S**2>=0.000
       7 -> 17        -0.14521
       7 -> 19         0.10998
       7 -> 20         0.61772
      11 -> 35         0.18043

 Excited State 101:      Singlet-A     19.1520 eV   64.74 nm  f=0.0087  <S**2>=0.000
       7 -> 20        -0.15668
      11 -> 35         0.63257
      12 -> 37         0.19096

 Excited State 102:      Singlet-A     19.1593 eV   64.71 nm  f=0.0047  <S**2>=0.000
       7 -> 21        -0.12294
      10 -> 28        -0.14428
      11 -> 36         0.66312

 Excited State 103:      Singlet-A     19.3247 eV   64.16 nm  f=0.0940  <S**2>=0.000
       7 -> 21         0.66695
      11 -> 36         0.12781

 Excited State 104:      Singlet-A     19.5010 eV   63.58 nm  f=0.0255  <S**2>=0.000
       6 -> 17         0.49809
       6 -> 20         0.11901
       7 -> 22        -0.11841
       8 -> 25        -0.31889
       8 -> 27        -0.10086
      12 -> 37        -0.25327

 Excited State 105:      Singlet-A     19.5313 eV   63.48 nm  f=0.0032  <S**2>=0.000
       6 -> 18        -0.15850
      10 -> 28         0.65375
      11 -> 36         0.13896

 Excited State 106:      Singlet-A     19.6405 eV   63.13 nm  f=0.0105  <S**2>=0.000
       6 -> 18         0.61325
       8 -> 26         0.23853
      10 -> 28         0.15765

 Excited State 107:      Singlet-A     19.6658 eV   63.05 nm  f=0.0151  <S**2>=0.000
       6 -> 17        -0.35776
       7 -> 22         0.12132
       8 -> 25        -0.26394
       9 -> 28         0.39501
       9 -> 31        -0.13865
      12 -> 37        -0.26195

 Excited State 108:      Singlet-A     19.7364 eV   62.82 nm  f=0.1148  <S**2>=0.000
       6 -> 17         0.12111
       6 -> 19         0.11295
       7 -> 22        -0.12637
       7 -> 23        -0.10909
       8 -> 25         0.49490
       9 -> 28         0.30968
      10 -> 30        -0.12309
      12 -> 37        -0.22554

 Excited State 109:      Singlet-A     19.7859 eV   62.66 nm  f=0.0102  <S**2>=0.000
       6 -> 18        -0.23291
       8 -> 26         0.39027
      10 -> 29         0.48620
      11 -> 37        -0.14811

 Excited State 110:      Singlet-A     19.8151 eV   62.57 nm  f=0.0480  <S**2>=0.000
       6 -> 18        -0.14254
       8 -> 26         0.49470
      10 -> 29        -0.41676
      10 -> 31        -0.13759
      11 -> 37         0.12595

 The electronic state is 1-A.
 Alpha  occ. eigenvalues --  -19.19404 -14.43109 -10.34251  -1.06802  -0.93827
 Alpha  occ. eigenvalues --   -0.65089  -0.58534  -0.50584  -0.43973  -0.43516
 Alpha  occ. eigenvalues --   -0.30213  -0.28283
 Alpha virt. eigenvalues --    0.01397   0.02312   0.05256   0.09013   0.11954
 Alpha virt. eigenvalues --    0.12100   0.13451   0.15410   0.17991   0.19140
 Alpha virt. eigenvalues --    0.19614   0.21352   0.26713   0.27504   0.28906

 Mulliken charges:
               1
     1  N    0.099437
     2  C    0.654294
     3  O   -0.463926
     4  H   -0.087319
     5  H   -0.054866
     6  H   -0.147619
 Sum of Mulliken charges =  -0.00000

 Dipole moment (field-independent basis, Debye):
    X=              3.9161    Y=              0.8769    Z=              0.0000  Tot=              4.0131
 Quadrupole moment (field-independent basis, Debye-Ang):
   XX=            -18.1189   YY=            -15.5128   ZZ=            -18.8976
   XY=             -1.3119   XZ=              0.0000   YZ=             -0.0000

 Normal termination of Gaussian 16 at Mon Mar 21 20:14:25 2022.
