 Gaussian 16, Revision C.01,
 Gaussian 16:  EM64L-G16RevC.01  3-Jul-2019

 ----------------------------------------------------------------------
 #P TD(Nstates=10000) pbe1pbe/Gen SCF(maxcycles=100) Int(Grid=ultrafine
 )
 ----------------------------------------------------------------------

 ---------------------
 xGDB7_00001_tier4.com
 ---------------------
 Symbolic Z-matrix:
 Charge =  0 Multiplicity = 1

                         Standard orientation:
 ---------------------------------------------------------------------
 Center     Atomic      Atomic             Coordinates (Angstroms)
 Number     Number       Type             X           Y           Z
 ---------------------------------------------------------------------
      1          6           0        0.037922   -0.393776    0.738519
      2          6           0        0.037922   -0.393776   -0.738519
      3          7           0        0.037922    0.865964    0.000000
      4          1           0        0.953211   -0.606479    1.276872
      5          1           0       -0.870248   -0.700655    1.244917
      6          1           0       -0.870248   -0.700655   -1.244917
      7          1           0        0.953211   -0.606479   -1.276872
      8          1           0       -0.886454    1.277834    0.000000
 ---------------------------------------------------------------------

 SCF Done:  E(RPBE1PBE) =  -133.675317341     A.U. after   11 cycles

 Excitation energies and oscillator strengths:

 Excited State   1:      Singlet-A'     6.7674 eV  183.21 nm  f=0.0015  <S**2>=0.000
      12 -> 13         0.68511
      12 -> 15         0.16644
 This state for optimization and/or second-order correction.
 Total Energy, E(TD-HF/TD-DFT) =  -133.426621585
 Copying the excited state density for this state as the 1-particle RhoCI density.

 Excited State   2:      Singlet-A'     7.5752 eV  163.67 nm  f=0.0335  <S**2>=0.000
      12 -> 13        -0.16694
      12 -> 15         0.68401

 Excited State   3:      Singlet-A"     7.6198 eV  162.71 nm  f=0.0054  <S**2>=0.000
      12 -> 14         0.70472

 Excited State   4:      Singlet-A'     8.3240 eV  148.95 nm  f=0.0778  <S**2>=0.000
      12 -> 16         0.69995

 Excited State   5:      Singlet-A"     8.8701 eV  139.78 nm  f=0.0418  <S**2>=0.000
      12 -> 17         0.69242

 Excited State   6:      Singlet-A'     9.0597 eV  136.85 nm  f=0.0121  <S**2>=0.000
      11 -> 13         0.69012
      11 -> 15         0.10233

 Excited State   7:      Singlet-A'     9.4185 eV  131.64 nm  f=0.0066  <S**2>=0.000
      12 -> 18         0.68976

 Excited State   8:      Singlet-A"     9.4215 eV  131.60 nm  f=0.0005  <S**2>=0.000
      10 -> 13         0.69307
      10 -> 15         0.11956

 Excited State   9:      Singlet-A'     9.8704 eV  125.61 nm  f=0.0505  <S**2>=0.000
      11 -> 15         0.68901

 Excited State  10:      Singlet-A"     9.8716 eV  125.60 nm  f=0.0504  <S**2>=0.000
       9 -> 13        -0.18380
      10 -> 15         0.15551
      11 -> 14         0.66042

 Excited State  11:      Singlet-A"    10.0887 eV  122.89 nm  f=0.0044  <S**2>=0.000
       9 -> 13         0.52770
      10 -> 15        -0.10432
      11 -> 14         0.17040
      12 -> 19        -0.41796

 Excited State  12:      Singlet-A"    10.1031 eV  122.72 nm  f=0.0177  <S**2>=0.000
       9 -> 13         0.40237
      11 -> 14         0.12020
      12 -> 19         0.56469

 Excited State  13:      Singlet-A"    10.2016 eV  121.53 nm  f=0.0945  <S**2>=0.000
       9 -> 13         0.14628
      10 -> 13        -0.11083
      10 -> 15         0.66507
      11 -> 14        -0.12160

 Excited State  14:      Singlet-A'    10.2693 eV  120.73 nm  f=0.0084  <S**2>=0.000
      10 -> 14         0.53420
      12 -> 20        -0.45381

 Excited State  15:      Singlet-A'    10.2962 eV  120.42 nm  f=0.0338  <S**2>=0.000
      10 -> 14         0.45692
      12 -> 20         0.52747

 Excited State  16:      Singlet-A'    10.5700 eV  117.30 nm  f=0.0290  <S**2>=0.000
      11 -> 16         0.69572

 Excited State  17:      Singlet-A"    10.8067 eV  114.73 nm  f=0.0134  <S**2>=0.000
       9 -> 15         0.54495
      10 -> 16        -0.39465
      11 -> 17         0.12903
      12 -> 21         0.15290

 Excited State  18:      Singlet-A'    10.8836 eV  113.92 nm  f=0.0872  <S**2>=0.000
       9 -> 14         0.69616

 Excited State  19:      Singlet-A"    10.9116 eV  113.63 nm  f=0.0001  <S**2>=0.000
       9 -> 15         0.26683
      10 -> 16         0.46787
      11 -> 17        -0.17325
      12 -> 21         0.41003

 Excited State  20:      Singlet-A"    11.0052 eV  112.66 nm  f=0.0166  <S**2>=0.000
       9 -> 15        -0.34733
      10 -> 16        -0.29291
      12 -> 21         0.52522

 Excited State  21:      Singlet-A"    11.3473 eV  109.26 nm  f=0.0411  <S**2>=0.000
      11 -> 17        -0.24645
      12 -> 22         0.64598

 Excited State  22:      Singlet-A'    11.4170 eV  108.60 nm  f=0.0210  <S**2>=0.000
      10 -> 17        -0.32955
      12 -> 23         0.60233

 Excited State  23:      Singlet-A"    11.4817 eV  107.98 nm  f=0.1569  <S**2>=0.000
       9 -> 16        -0.16882
      10 -> 16         0.17198
      11 -> 17         0.56078
      12 -> 21         0.13500
      12 -> 22         0.25911

 Excited State  24:      Singlet-A'    11.5886 eV  106.99 nm  f=0.0477  <S**2>=0.000
      10 -> 17        -0.32067
      11 -> 18         0.35314
      12 -> 23        -0.23790
      12 -> 24         0.44066

 Excited State  25:      Singlet-A"    11.7324 eV  105.68 nm  f=0.0749  <S**2>=0.000
       9 -> 16         0.66997
      11 -> 17         0.16121

 Excited State  26:      Singlet-A'    11.7535 eV  105.49 nm  f=0.0128  <S**2>=0.000
      10 -> 17         0.12395
      11 -> 18         0.59384
      12 -> 23         0.15420
      12 -> 24        -0.29923

 Excited State  27:      Singlet-A'    11.9500 eV  103.75 nm  f=0.0066  <S**2>=0.000
       9 -> 17         0.66707
      12 -> 24         0.15472
      12 -> 25         0.10031

 Excited State  28:      Singlet-A"    12.0352 eV  103.02 nm  f=0.0054  <S**2>=0.000
      10 -> 18         0.69670

 Excited State  29:      Singlet-A'    12.1525 eV  102.02 nm  f=0.0123  <S**2>=0.000
      10 -> 17        -0.20976
      11 -> 20        -0.22008
      12 -> 23        -0.10093
      12 -> 24        -0.13904
      12 -> 25         0.59313

 Excited State  30:      Singlet-A'    12.1654 eV  101.92 nm  f=0.0256  <S**2>=0.000
       9 -> 17        -0.17514
      10 -> 17         0.31993
      11 -> 20         0.23497
      12 -> 23         0.12710
      12 -> 24         0.33179
      12 -> 25         0.34213
      12 -> 27         0.18317

 Excited State  31:      Singlet-A"    12.3050 eV  100.76 nm  f=0.0053  <S**2>=0.000
      11 -> 19         0.69578

 Excited State  32:      Singlet-A'    12.6899 eV   97.70 nm  f=0.0201  <S**2>=0.000
       8 -> 13         0.11922
      10 -> 19         0.67821
      11 -> 20        -0.12198

 Excited State  33:      Singlet-A"    12.7085 eV   97.56 nm  f=0.0004  <S**2>=0.000
       9 -> 18         0.68569

 Excited State  34:      Singlet-A"    12.8159 eV   96.74 nm  f=0.0486  <S**2>=0.000
      10 -> 20         0.15015
      12 -> 26         0.66644

 Excited State  35:      Singlet-A'    12.8390 eV   96.57 nm  f=0.0306  <S**2>=0.000
       8 -> 13         0.10964
       9 -> 19        -0.15682
      10 -> 19         0.10609
      10 -> 21         0.12792
      11 -> 20         0.52510
      12 -> 24        -0.10927
      12 -> 27        -0.29634
      12 -> 28         0.13447

 Excited State  36:      Singlet-A"    12.8643 eV   96.38 nm  f=0.0055  <S**2>=0.000
      10 -> 20         0.67955
      12 -> 26        -0.13480

 Excited State  37:      Singlet-A'    12.8853 eV   96.22 nm  f=0.0230  <S**2>=0.000
       8 -> 13         0.66575
       9 -> 19         0.10814
      10 -> 19        -0.12499

 Excited State  38:      Singlet-A'    13.1701 eV   94.14 nm  f=0.1108  <S**2>=0.000
       8 -> 15        -0.14787
      10 -> 17        -0.20065
      10 -> 21        -0.12988
      11 -> 20         0.16397
      12 -> 24        -0.10773
      12 -> 27         0.54660
      12 -> 28         0.15221

 Excited State  39:      Singlet-A"    13.2683 eV   93.44 nm  f=0.0084  <S**2>=0.000
      11 -> 21         0.65448
      11 -> 22        -0.20873

 Excited State  40:      Singlet-A'    13.4598 eV   92.11 nm  f=0.0314  <S**2>=0.000
       8 -> 15        -0.11409
       9 -> 19         0.57601
      10 -> 21         0.34678

 Excited State  41:      Singlet-A"    13.5438 eV   91.54 nm  f=0.0098  <S**2>=0.000
       8 -> 14        -0.38852
       9 -> 18        -0.10103
       9 -> 20         0.50465
      11 -> 22         0.26252

 Excited State  42:      Singlet-A'    13.5916 eV   91.22 nm  f=0.1071  <S**2>=0.000
       8 -> 15         0.42955
      10 -> 17        -0.11068
      10 -> 21         0.13712
      11 -> 20         0.12844
      11 -> 24         0.13855
      12 -> 28        -0.41850

 Excited State  43:      Singlet-A"    13.6126 eV   91.08 nm  f=0.0938  <S**2>=0.000
       8 -> 14         0.34862
      11 -> 21         0.16969
      11 -> 22         0.56920

 Excited State  44:      Singlet-A'    13.6375 eV   90.91 nm  f=0.1059  <S**2>=0.000
       8 -> 15         0.46343
      11 -> 23         0.16286
      12 -> 28         0.48029

 Excited State  45:      Singlet-A'    13.6905 eV   90.56 nm  f=0.0454  <S**2>=0.000
       8 -> 15        -0.14768
      11 -> 23         0.65125

 Excited State  46:      Singlet-A"    13.7224 eV   90.35 nm  f=0.0345  <S**2>=0.000
       8 -> 14         0.45970
       9 -> 20         0.45712
      11 -> 21        -0.12421
      11 -> 22        -0.21005

 Excited State  47:      Singlet-A'    13.8885 eV   89.27 nm  f=0.0022  <S**2>=0.000
       7 -> 13        -0.29967
       8 -> 16        -0.16946
       9 -> 19        -0.25004
      10 -> 21         0.46430
      10 -> 22        -0.11507
      11 -> 20        -0.10743
      11 -> 24         0.16964

 Excited State  48:      Singlet-A"    13.9553 eV   88.84 nm  f=0.0000  <S**2>=0.000
      10 -> 23         0.30021
      10 -> 24         0.11357
      12 -> 29         0.60974

 Excited State  49:      Singlet-A'    13.9598 eV   88.82 nm  f=0.0069  <S**2>=0.000
       9 -> 19        -0.10206
      10 -> 21         0.15946
      10 -> 22         0.53536
      11 -> 24        -0.39734

 Excited State  50:      Singlet-A"    14.0130 eV   88.48 nm  f=0.0113  <S**2>=0.000
      10 -> 23         0.62656
      12 -> 29        -0.30795

 Excited State  51:      Singlet-A'    14.0838 eV   88.03 nm  f=0.0142  <S**2>=0.000
       8 -> 16         0.12088
      10 -> 22         0.42258
      11 -> 24         0.49253

 Excited State  52:      Singlet-A"    14.3253 eV   86.55 nm  f=0.0426  <S**2>=0.000
       8 -> 17        -0.10585
      10 -> 24         0.67409
      12 -> 29        -0.11694

 Excited State  53:      Singlet-A'    14.3392 eV   86.47 nm  f=0.0393  <S**2>=0.000
       7 -> 13         0.35596
       8 -> 16        -0.26276
       9 -> 21         0.50313
       9 -> 22        -0.15240

 Excited State  54:      Singlet-A'    14.4600 eV   85.74 nm  f=0.0802  <S**2>=0.000
       7 -> 13        -0.26571
       8 -> 16         0.41125
       9 -> 21         0.43018
       9 -> 22         0.14299
      11 -> 25        -0.15155

 Excited State  55:      Singlet-A'    14.5971 eV   84.94 nm  f=0.1255  <S**2>=0.000
       7 -> 13         0.13249
       9 -> 21        -0.13707
      11 -> 25        -0.43411
      12 -> 30         0.48468

 Excited State  56:      Singlet-A"    14.6177 eV   84.82 nm  f=0.0125  <S**2>=0.000
       8 -> 17         0.31134
       9 -> 23         0.53271
      10 -> 25         0.30173

 Excited State  57:      Singlet-A'    14.6547 eV   84.60 nm  f=0.1055  <S**2>=0.000
       8 -> 16        -0.10680
      11 -> 25         0.40839
      12 -> 30         0.49377
      12 -> 32         0.11059

 Excited State  58:      Singlet-A"    14.6707 eV   84.51 nm  f=0.0012  <S**2>=0.000
       8 -> 17         0.58527
       9 -> 23        -0.20098
      10 -> 25        -0.29335

 Excited State  59:      Singlet-A'    14.7538 eV   84.04 nm  f=0.0254  <S**2>=0.000
       7 -> 13         0.35439
       7 -> 15        -0.17136
       8 -> 16         0.37633
       8 -> 18         0.12020
       9 -> 19        -0.12074
      10 -> 21         0.20451
      10 -> 26        -0.12338
      11 -> 25         0.20136
      11 -> 27         0.12742

 Excited State  60:      Singlet-A'    14.7949 eV   83.80 nm  f=0.2907  <S**2>=0.000
       7 -> 13         0.15203
       7 -> 15        -0.18686
       9 -> 22         0.60286
      10 -> 26         0.14255
      11 -> 24         0.10496

 Excited State  61:      Singlet-A"    14.9240 eV   83.08 nm  f=0.0553  <S**2>=0.000
       7 -> 14        -0.12753
       9 -> 23        -0.31645
       9 -> 24        -0.39528
      10 -> 25         0.42771
      11 -> 26        -0.13065

 Excited State  62:      Singlet-A"    15.0376 eV   82.45 nm  f=0.0007  <S**2>=0.000
       7 -> 14         0.53578
       9 -> 23        -0.15242
      10 -> 25         0.12309
      11 -> 26         0.33812
      12 -> 31         0.21896

 Excited State  63:      Singlet-A"    15.0580 eV   82.34 nm  f=0.0643  <S**2>=0.000
       9 -> 24         0.30338
      11 -> 26        -0.31092
      12 -> 31         0.52820

 Excited State  64:      Singlet-A'    15.0912 eV   82.16 nm  f=0.2183  <S**2>=0.000
       7 -> 15         0.57634
       8 -> 18         0.15234
       9 -> 22         0.14823
      11 -> 25         0.11792
      11 -> 27        -0.14168
      12 -> 32         0.18835

 Excited State  65:      Singlet-A"    15.1286 eV   81.95 nm  f=0.0018  <S**2>=0.000
       7 -> 14        -0.37040
       9 -> 24        -0.13556
      10 -> 25        -0.10244
      11 -> 26         0.43825
      12 -> 31         0.31852

 Excited State  66:      Singlet-A'    15.2325 eV   81.39 nm  f=0.0392  <S**2>=0.000
       7 -> 15         0.20636
       8 -> 18         0.15123
      11 -> 27         0.48539
      12 -> 32        -0.39286

 Excited State  67:      Singlet-A"    15.2336 eV   81.39 nm  f=0.4136  <S**2>=0.000
       7 -> 14        -0.20851
       8 -> 17         0.11283
       9 -> 23        -0.14511
       9 -> 24         0.42624
       9 -> 25         0.16420
      10 -> 25         0.27328
      11 -> 26         0.26234
      12 -> 31        -0.19057

 Excited State  68:      Singlet-A'    15.2941 eV   81.07 nm  f=0.1026  <S**2>=0.000
      10 -> 26         0.33111
      11 -> 27         0.39873
      12 -> 32         0.43621

 Excited State  69:      Singlet-A"    15.4798 eV   80.09 nm  f=0.0105  <S**2>=0.000
       9 -> 25         0.38809
      10 -> 27         0.54959
      10 -> 28        -0.10648

 Excited State  70:      Singlet-A'    15.4885 eV   80.05 nm  f=0.0285  <S**2>=0.000
       7 -> 16        -0.23603
       8 -> 16        -0.10682
       8 -> 18         0.43865
       9 -> 26        -0.10801
      10 -> 26        -0.38309
      12 -> 32         0.19488

 Excited State  71:      Singlet-A"    15.6347 eV   79.30 nm  f=0.0667  <S**2>=0.000
       7 -> 17         0.10053
       9 -> 24        -0.12646
       9 -> 25         0.52455
      10 -> 27        -0.37832
      11 -> 29         0.12553

 Excited State  72:      Singlet-A'    15.6483 eV   79.23 nm  f=0.2318  <S**2>=0.000
       7 -> 16        -0.14007
       8 -> 18         0.39030
      10 -> 26         0.34466
      11 -> 27        -0.15727
      12 -> 32        -0.12412
      12 -> 33         0.34050

 Excited State  73:      Singlet-A'    15.8749 eV   78.10 nm  f=0.2391  <S**2>=0.000
       7 -> 16        -0.20952
       8 -> 18        -0.21904
       9 -> 22         0.10279
      10 -> 26        -0.18830
      11 -> 28        -0.24467
      12 -> 33         0.50253

 Excited State  74:      Singlet-A"    15.9373 eV   77.80 nm  f=0.0057  <S**2>=0.000
       7 -> 17         0.55958
       9 -> 25        -0.10465
      10 -> 27         0.10164
      10 -> 28         0.19893
      11 -> 29         0.31869

 Excited State  75:      Singlet-A'    15.9538 eV   77.71 nm  f=0.0832  <S**2>=0.000
       7 -> 16        -0.18272
       8 -> 18        -0.10600
      11 -> 27         0.11012
      11 -> 28         0.60746
      12 -> 33         0.15283

 Excited State  76:      Singlet-A'    15.9824 eV   77.58 nm  f=0.0022  <S**2>=0.000
       7 -> 16         0.54108
       8 -> 16        -0.10526
       8 -> 18         0.11627
       9 -> 26         0.10918
      10 -> 26        -0.14456
      11 -> 28         0.13469
      12 -> 33         0.26796

 Excited State  77:      Singlet-A"    16.0833 eV   77.09 nm  f=0.0218  <S**2>=0.000
       8 -> 19         0.64259
      10 -> 28        -0.21027

 Excited State  78:      Singlet-A"    16.1787 eV   76.63 nm  f=0.0001  <S**2>=0.000
       7 -> 17        -0.17970
       8 -> 19         0.16663
       9 -> 27        -0.23909
      10 -> 28         0.42095
      11 -> 29         0.11607
      12 -> 34        -0.38993

 Excited State  79:      Singlet-A'    16.1843 eV   76.61 nm  f=0.2553  <S**2>=0.000
       7 -> 16        -0.12539
       9 -> 26         0.66295

 Excited State  80:      Singlet-A"    16.2396 eV   76.35 nm  f=0.0447  <S**2>=0.000
       7 -> 17        -0.14235
       9 -> 27        -0.29831
      10 -> 28         0.21044
      12 -> 34         0.55948

 Excited State  81:      Singlet-A"    16.3003 eV   76.06 nm  f=0.0001  <S**2>=0.000
       7 -> 17        -0.29695
       9 -> 27         0.47789
      10 -> 28         0.11636
      11 -> 29         0.37640

 Excited State  82:      Singlet-A'    16.3540 eV   75.81 nm  f=0.0500  <S**2>=0.000
       8 -> 20         0.66379
      10 -> 29         0.16908

 Excited State  83:      Singlet-A"    16.4444 eV   75.40 nm  f=0.2378  <S**2>=0.000
       6 -> 13        -0.15923
       7 -> 17        -0.10044
       9 -> 27        -0.28862
       9 -> 28         0.17753
      10 -> 28        -0.31484
      11 -> 29         0.42445
      12 -> 34        -0.10698

 Excited State  84:      Singlet-A"    16.7450 eV   74.04 nm  f=0.0009  <S**2>=0.000
       6 -> 13        -0.10551
      12 -> 35         0.57132
      12 -> 36        -0.35640

 Excited State  85:      Singlet-A"    16.8244 eV   73.69 nm  f=0.0001  <S**2>=0.000
       6 -> 13         0.62547
      10 -> 30         0.13471
      11 -> 31        -0.17047

 Excited State  86:      Singlet-A'    16.8256 eV   73.69 nm  f=0.0077  <S**2>=0.000
      11 -> 30         0.59798
      12 -> 37        -0.33226

 Excited State  87:      Singlet-A'    16.8739 eV   73.48 nm  f=0.0860  <S**2>=0.000
       7 -> 18         0.28425
       8 -> 20        -0.11714
      10 -> 29         0.47492
      11 -> 30         0.22131
      12 -> 37         0.27392

 Excited State  88:      Singlet-A'    16.9617 eV   73.10 nm  f=0.1494  <S**2>=0.000
       7 -> 18         0.55383
      10 -> 29        -0.34612
      12 -> 37         0.13797

 Excited State  89:      Singlet-A"    16.9824 eV   73.01 nm  f=0.0018  <S**2>=0.000
       8 -> 21        -0.10381
      12 -> 35         0.37394
      12 -> 36         0.56974

 Excited State  90:      Singlet-A"    17.0213 eV   72.84 nm  f=0.0092  <S**2>=0.000
       8 -> 21         0.18720
       9 -> 27         0.10332
       9 -> 28         0.62916
      10 -> 30        -0.11905

 Excited State  91:      Singlet-A'    17.0582 eV   72.68 nm  f=0.0875  <S**2>=0.000
       7 -> 18        -0.27754
       8 -> 23        -0.10297
      10 -> 29        -0.20681
      11 -> 30         0.26334
      12 -> 37         0.49623

 Excited State  92:      Singlet-A"    17.0924 eV   72.54 nm  f=0.0471  <S**2>=0.000
       8 -> 21         0.59251
       9 -> 28        -0.15833
      11 -> 31        -0.26031

 Excited State  93:      Singlet-A"    17.2602 eV   71.83 nm  f=0.0048  <S**2>=0.000
       6 -> 15         0.13364
       8 -> 21         0.13402
       8 -> 22        -0.27501
      10 -> 30         0.58498
      11 -> 31         0.10302

 Excited State  94:      Singlet-A'    17.3463 eV   71.48 nm  f=0.0391  <S**2>=0.000
       9 -> 29         0.58725
      11 -> 32         0.10592
      12 -> 38         0.30382
      12 -> 39        -0.15723

 Excited State  95:      Singlet-A"    17.3592 eV   71.42 nm  f=0.0014  <S**2>=0.000
       7 -> 19        -0.15107
       8 -> 21         0.14248
       8 -> 22         0.49347
      10 -> 30         0.15024
      11 -> 31         0.39243

 Excited State  96:      Singlet-A'    17.3755 eV   71.36 nm  f=0.0158  <S**2>=0.000
       9 -> 29        -0.32411
      12 -> 38         0.60814

 Excited State  97:      Singlet-A"    17.4239 eV   71.16 nm  f=0.0024  <S**2>=0.000
       6 -> 15         0.42134
       7 -> 19         0.49218
       8 -> 21         0.11416
       8 -> 22         0.15744
       9 -> 30        -0.10895

 Excited State  98:      Singlet-A'    17.4377 eV   71.10 nm  f=0.0170  <S**2>=0.000
       8 -> 23         0.66047
      10 -> 31        -0.17564

 Excited State  99:      Singlet-A"    17.4812 eV   70.92 nm  f=0.0399  <S**2>=0.000
       6 -> 15         0.35862
       7 -> 19        -0.31106
       8 -> 21         0.10394
       8 -> 22        -0.24810
      10 -> 30        -0.25055
      10 -> 32         0.13019
      11 -> 31         0.27663

 Excited State 100:      Singlet-A'    17.4957 eV   70.87 nm  f=0.0235  <S**2>=0.000
       6 -> 14        -0.25875
       7 -> 20         0.15128
       8 -> 24        -0.12274
      11 -> 32         0.60127

 Excited State 101:      Singlet-A'    17.6004 eV   70.44 nm  f=0.0736  <S**2>=0.000
       5 -> 13        -0.11290
       6 -> 14         0.26683
       7 -> 20        -0.26382
       8 -> 23         0.14408
      10 -> 31         0.47251
      11 -> 32         0.16801
      12 -> 39        -0.14139

 Excited State 102:      Singlet-A"    17.6317 eV   70.32 nm  f=0.0261  <S**2>=0.000
       6 -> 15         0.12552
      10 -> 32        -0.19405
      12 -> 40         0.65153

 Excited State 103:      Singlet-A'    17.6363 eV   70.30 nm  f=0.0069  <S**2>=0.000
       7 -> 20        -0.17024
       8 -> 24         0.25469
      10 -> 31         0.10393
      12 -> 38         0.11670
      12 -> 39         0.58932

 Excited State 104:      Singlet-A'    17.7050 eV   70.03 nm  f=0.0095  <S**2>=0.000
       6 -> 14         0.51593
       7 -> 20         0.29532
       8 -> 24         0.19223
      10 -> 31        -0.19122
      11 -> 32         0.18783

 Excited State 105:      Singlet-A"    17.7088 eV   70.01 nm  f=0.0096  <S**2>=0.000

 The electronic state is 1-A'.
 Alpha  occ. eigenvalues --  -14.39151 -10.26133 -10.26105  -0.98265  -0.67317
 Alpha  occ. eigenvalues --   -0.63000  -0.53995  -0.48731  -0.38731  -0.36405
 Alpha  occ. eigenvalues --   -0.35100  -0.26603
 Alpha virt. eigenvalues --    0.03420   0.05894   0.06281   0.09272   0.12017
 Alpha virt. eigenvalues --    0.13043   0.15104   0.16558   0.19361   0.20072
 Alpha virt. eigenvalues --    0.20396   0.21678   0.23496   0.25632   0.26615

 Mulliken charges:
               1
     1  C    0.540379
     2  C    0.540379
     3  N   -0.453030
     4  H   -0.188587
     5  H   -0.121781
     6  H   -0.121781
     7  H   -0.188587
     8  H   -0.006993
 Sum of Mulliken charges =  -0.00000

 Dipole moment (field-independent basis, Debye):
    X=             -1.3062    Y=             -1.0515    Z=              0.0000  Tot=              1.6769
 Quadrupole moment (field-independent basis, Debye-Ang):
   XX=            -17.7575   YY=            -21.2271   ZZ=            -18.6491
   XY=             -2.1334   XZ=              0.0000   YZ=             -0.0000

 1\1\GINC-HEL22\SP\RPBE1PBE TD-FC\Gen\C2H5N1\SABYASACHI\21-Mar-2022\0\\
 #P TD(Nstates=10000) pbe1pbe/Gen SCF(maxcycles=100) Int(Grid=ultrafine
 )\\xGDB7_00001_tier4.com\\0,1\C,0,0.738519,-0.394885,0.023737\C,0,-0.7
 38519,-0.394885,0.023737\N,0,0.,0.849548,-0.172046\H,0,1.276872,-0.747
 254,-0.847373\H,0,1.244917,-0.556892,0.968566\H,0,-1.244917,-0.556892,
 0.968566\H,0,-1.276872,-0.747254,-0.847373\H,0,0.,1.400076,0.677088\\V
 ersion=EM64L-G16RevC.01\State=1-A'\HF=-133.6753173\RMSD=9.855e-09\PG=C
 S [SG(H1N1),X(C2H4)]\\@

 Normal termination of Gaussian 16 at Mon Mar 21 20:22:26 2022.
