 Gaussian 16, Revision C.01,
 Gaussian 16:  EM64L-G16RevC.01  3-Jul-2019

 ----------------------------------------------------------------------
 #P TD(Nstates=10000) pbe1pbe/Gen SCF(maxcycles=100) Int(Grid=ultrafine
 )
 ----------------------------------------------------------------------

 ---------------------
 xGDB7_00001_tier4.com
 ---------------------
 Symbolic Z-matrix:
 Charge =  0 Multiplicity = 1

                         Standard orientation:
 ---------------------------------------------------------------------
 Center     Atomic      Atomic             Coordinates (Angstroms)
 Number     Number       Type             X           Y           Z
 ---------------------------------------------------------------------
      1          6           0        0.000000    0.000000   -0.524273
      2          8           0        0.000000    0.000000    0.670793
      3          1           0        0.000000    0.939221   -1.110351
      4          1           0       -0.000000   -0.939221   -1.110351
 ---------------------------------------------------------------------

 SCF Done:  E(RPBE1PBE) =  -114.293447843     A.U. after   11 cycles

 Excitation energies and oscillator strengths:

 Excited State   1:      Singlet-A2     4.0272 eV  307.87 nm  f=0.0000  <S**2>=0.000
       8 ->  9         0.70595
 This state for optimization and/or second-order correction.
 Total Energy, E(TD-HF/TD-DFT) =  -114.145452667
 Copying the excited state density for this state as the 1-particle RhoCI density.

 Excited State   2:      Singlet-B2     7.3986 eV  167.58 nm  f=0.0343  <S**2>=0.000
       8 -> 10         0.70484

 Excited State   3:      Singlet-B2     8.9220 eV  138.96 nm  f=0.0514  <S**2>=0.000
       8 -> 12         0.69819

 Excited State   4:      Singlet-A1     8.9911 eV  137.90 nm  f=0.0983  <S**2>=0.000
       8 -> 11         0.70558

 Excited State   5:      Singlet-B1     9.2357 eV  134.25 nm  f=0.0003  <S**2>=0.000
       6 ->  9         0.70435

 Excited State   6:      Singlet-A2     9.6249 eV  128.82 nm  f=0.0000  <S**2>=0.000
       8 -> 13         0.70570

 Excited State   7:      Singlet-A1     9.7518 eV  127.14 nm  f=0.1059  <S**2>=0.000
       7 ->  9         0.63621
       8 -> 16        -0.28262

 Excited State   8:      Singlet-B2    10.2288 eV  121.21 nm  f=0.0440  <S**2>=0.000
       8 -> 14         0.69535

 Excited State   9:      Singlet-A2    10.3056 eV  120.31 nm  f=0.0000  <S**2>=0.000
       5 ->  9         0.70393

 Excited State  10:      Singlet-B2    10.9282 eV  113.45 nm  f=0.0245  <S**2>=0.000
       8 -> 15         0.70150

 Excited State  11:      Singlet-B1    11.1459 eV  111.24 nm  f=0.0394  <S**2>=0.000
       7 -> 10         0.70399

 Excited State  12:      Singlet-A1    11.7251 eV  105.74 nm  f=0.2017  <S**2>=0.000
       6 -> 10        -0.16320
       7 ->  9         0.25514
       8 -> 16         0.62023

 Excited State  13:      Singlet-B1    11.9191 eV  104.02 nm  f=0.0160  <S**2>=0.000
       8 -> 17         0.70181

 Excited State  14:      Singlet-A2    12.6700 eV   97.86 nm  f=0.0000  <S**2>=0.000
       7 -> 11         0.69865

 Excited State  15:      Singlet-A1    12.6955 eV   97.66 nm  f=0.0541  <S**2>=0.000
       6 -> 10         0.67577
       7 -> 13        -0.13584
       8 -> 16         0.12413

 Excited State  16:      Singlet-B1    12.7351 eV   97.36 nm  f=0.0672  <S**2>=0.000
       7 -> 12         0.69655

 Excited State  17:      Singlet-A2    12.8010 eV   96.86 nm  f=0.0000  <S**2>=0.000
       8 -> 18         0.69706

 Excited State  18:      Singlet-A1    13.5674 eV   91.38 nm  f=0.0001  <S**2>=0.000
       5 -> 11         0.10891
       6 -> 10         0.10603
       7 -> 13         0.67398

 Excited State  19:      Singlet-B2    13.5989 eV   91.17 nm  f=0.1464  <S**2>=0.000
       5 -> 10         0.70442

 Excited State  20:      Singlet-B1    13.8929 eV   89.24 nm  f=0.0066  <S**2>=0.000
       4 ->  9        -0.11517
       7 -> 14         0.68697
       7 -> 15        -0.10219

 Excited State  21:      Singlet-A1    13.9936 eV   88.60 nm  f=0.1868  <S**2>=0.000
       6 -> 12         0.70206

 Excited State  22:      Singlet-B2    14.0537 eV   88.22 nm  f=0.0527  <S**2>=0.000
       6 -> 11         0.70434

 Excited State  23:      Singlet-B1    14.4013 eV   86.09 nm  f=0.0068  <S**2>=0.000
       4 ->  9         0.32855
       7 -> 14         0.14402
       7 -> 15         0.60390

 Excited State  24:      Singlet-B2    14.5469 eV   85.23 nm  f=0.0042  <S**2>=0.000
       8 -> 19         0.69459

 Excited State  25:      Singlet-A2    14.6319 eV   84.74 nm  f=0.0000  <S**2>=0.000
       7 -> 16         0.70412

 Excited State  26:      Singlet-B1    14.6575 eV   84.59 nm  f=0.0102  <S**2>=0.000
       4 ->  9        -0.11478
       6 -> 13         0.69056

 Excited State  27:      Singlet-A1    14.8617 eV   83.43 nm  f=0.2131  <S**2>=0.000
       8 -> 20         0.68755

 Excited State  28:      Singlet-B2    15.2501 eV   81.30 nm  f=0.0237  <S**2>=0.000
       5 -> 12         0.66401
       8 -> 21        -0.16997

 Excited State  29:      Singlet-A1    15.3312 eV   80.87 nm  f=0.0202  <S**2>=0.000
       5 -> 11         0.18716
       6 -> 14         0.66351

 Excited State  30:      Singlet-B2    15.3908 eV   80.56 nm  f=0.0397  <S**2>=0.000
       5 -> 12         0.19354
       7 -> 17         0.16106
       8 -> 21         0.64867

 Excited State  31:      Singlet-B1    15.3912 eV   80.55 nm  f=0.2642  <S**2>=0.000
       4 ->  9         0.57566
       5 -> 17        -0.12341
       6 -> 13         0.14443
       7 -> 15        -0.33111
       8 -> 24        -0.10387

 Excited State  32:      Singlet-A1    15.5719 eV   79.62 nm  f=0.0001  <S**2>=0.000
       5 -> 11         0.61990
       6 -> 14        -0.18311
       6 -> 15         0.22694

 Excited State  33:      Singlet-B2    15.7090 eV   78.93 nm  f=0.0641  <S**2>=0.000
       5 -> 14         0.16232
       6 -> 16         0.12178
       7 -> 17         0.64606
       8 -> 21        -0.15506

 Excited State  34:      Singlet-A1    15.9303 eV   77.83 nm  f=0.0135  <S**2>=0.000
       5 -> 11        -0.18213
       6 -> 15         0.64765
       8 -> 23         0.15598

 Excited State  35:      Singlet-A2    15.9393 eV   77.79 nm  f=0.0000  <S**2>=0.000
       5 -> 13         0.70212

 Excited State  36:      Singlet-B2    15.9834 eV   77.57 nm  f=0.0008  <S**2>=0.000
       5 -> 14        -0.11738
       6 -> 16         0.68109

 Excited State  37:      Singlet-B2    16.3049 eV   76.04 nm  f=0.0723  <S**2>=0.000
       8 -> 22         0.69027

 Excited State  38:      Singlet-A1    16.5465 eV   74.93 nm  f=0.0742  <S**2>=0.000
       6 -> 15        -0.10528
       7 -> 18        -0.20239
       8 -> 23         0.63620

 Excited State  39:      Singlet-B2    16.7372 eV   74.08 nm  f=0.2898  <S**2>=0.000
       5 -> 14         0.65635
       7 -> 17        -0.14172

 Excited State  40:      Singlet-A1    16.8035 eV   73.78 nm  f=0.0299  <S**2>=0.000
       5 -> 16         0.25420
       7 -> 18         0.59744
       8 -> 23         0.21484

 Excited State  41:      Singlet-B1    16.8568 eV   73.55 nm  f=0.1323  <S**2>=0.000
       8 -> 24         0.69632

 Excited State  42:      Singlet-A2    17.0695 eV   72.63 nm  f=0.0000  <S**2>=0.000
       6 -> 17         0.70438

 Excited State  43:      Singlet-B2    17.2521 eV   71.87 nm  f=0.1090  <S**2>=0.000
       5 -> 15         0.65828
       8 -> 26        -0.17713

 Excited State  44:      Singlet-A1    17.3035 eV   71.65 nm  f=0.0001  <S**2>=0.000
       4 -> 10         0.49259
       5 -> 16         0.48397
       7 -> 18        -0.10884

 Excited State  45:      Singlet-B2    17.4067 eV   71.23 nm  f=0.0031  <S**2>=0.000
       5 -> 15         0.18922
       8 -> 26         0.66883

 Excited State  46:      Singlet-A2    17.4421 eV   71.08 nm  f=0.0000  <S**2>=0.000
       8 -> 25         0.70520

 Excited State  47:      Singlet-A1    17.9126 eV   69.22 nm  f=0.0429  <S**2>=0.000
       4 -> 10         0.46095
       5 -> 11        -0.10005
       5 -> 16        -0.42554
       7 -> 18         0.23755

 Excited State  48:      Singlet-B1    17.9563 eV   69.05 nm  f=0.0100  <S**2>=0.000
       6 -> 18         0.69778

 Excited State  49:      Singlet-B1    18.2438 eV   67.96 nm  f=0.2467  <S**2>=0.000
       5 -> 17         0.59580
       7 -> 19        -0.33864
       7 -> 21        -0.10517

 Excited State  50:      Singlet-B1    18.3533 eV   67.55 nm  f=0.0120  <S**2>=0.000
       5 -> 17         0.32177
       7 -> 19         0.61514

 Excited State  51:      Singlet-A2    18.5525 eV   66.83 nm  f=0.0000  <S**2>=0.000
       7 -> 20         0.70521

 Excited State  52:      Singlet-B2    18.8788 eV   65.67 nm  f=0.0158  <S**2>=0.000
       4 -> 11         0.69742

 Excited State  53:      Singlet-A1    18.9278 eV   65.50 nm  f=0.0807  <S**2>=0.000
       4 -> 12         0.66122
       8 -> 27         0.19390

 Excited State  54:      Singlet-A2    19.0013 eV   65.25 nm  f=0.0000  <S**2>=0.000
       5 -> 18         0.70101

 Excited State  55:      Singlet-B1    19.0538 eV   65.07 nm  f=0.0832  <S**2>=0.000
       7 -> 21         0.68770

 Excited State  56:      Singlet-A1    19.5275 eV   63.49 nm  f=0.0023  <S**2>=0.000
       4 -> 12        -0.16428
       6 -> 19         0.49952
       6 -> 21         0.10224
       8 -> 27         0.44072

 Excited State  57:      Singlet-B1    19.6432 eV   63.12 nm  f=0.0000  <S**2>=0.000
       4 -> 13         0.67976
       7 -> 22         0.11018

 Excited State  58:      Singlet-B2    19.9215 eV   62.24 nm  f=0.0206  <S**2>=0.000
       6 -> 20         0.69425

 Excited State  59:      Singlet-A1    20.0048 eV   61.98 nm  f=0.0679  <S**2>=0.000
       4 -> 14         0.58389
       4 -> 15        -0.12880
       6 -> 19        -0.25987
       6 -> 21         0.14465
       8 -> 27         0.18649

 Excited State  60:      Singlet-A2    20.0491 eV   61.84 nm  f=0.0000  <S**2>=0.000
       7 -> 23         0.70299

 Excited State  61:      Singlet-B1    20.2790 eV   61.14 nm  f=0.1296  <S**2>=0.000
       7 -> 22         0.68204

 Excited State  62:      Singlet-A1    20.3503 eV   60.92 nm  f=0.0199  <S**2>=0.000
       4 -> 12         0.10118
       4 -> 14         0.34874
       6 -> 19         0.36312
       6 -> 21        -0.28461
       7 -> 25         0.20566
       8 -> 27        -0.29556

 Excited State  63:      Singlet-B2    20.5512 eV   60.33 nm  f=0.0000  <S**2>=0.000
       4 -> 16         0.12693
       5 -> 19         0.15718
       7 -> 24        -0.25325
       8 -> 28         0.60967
       8 -> 30         0.10899

 Excited State  64:      Singlet-B2    20.6178 eV   60.13 nm  f=0.0719  <S**2>=0.000
       4 -> 16        -0.13411
       5 -> 19         0.13201
       7 -> 24         0.61651
       8 -> 28         0.22678
       8 -> 30         0.11758

 Excited State  65:      Singlet-A1    20.6773 eV   59.96 nm  f=0.0460  <S**2>=0.000
       4 -> 15        -0.31898
       5 -> 20         0.11402
       6 -> 19         0.11282
       6 -> 21         0.52167
       6 -> 26        -0.11795
       7 -> 25         0.17661
       8 -> 27        -0.19662

 Excited State  66:      Singlet-B2    20.7891 eV   59.64 nm  f=0.0313  <S**2>=0.000
       4 -> 16        -0.38890
       5 -> 19         0.54488
       7 -> 24        -0.13759
       8 -> 28        -0.10303

 Excited State  67:      Singlet-A1    20.8385 eV   59.50 nm  f=0.0030  <S**2>=0.000
       4 -> 14         0.11652
       4 -> 15         0.59954
       6 -> 21         0.26525
       7 -> 25         0.16023

 Excited State  68:      Singlet-B2    20.9494 eV   59.18 nm  f=0.0705  <S**2>=0.000
       4 -> 16         0.53995
       5 -> 19         0.39502
       8 -> 28        -0.17457

 Excited State  69:      Singlet-A1    21.0279 eV   58.96 nm  f=0.0085  <S**2>=0.000
       5 -> 20         0.66827
       8 -> 29         0.13845

 Excited State  70:      Singlet-B1    21.2075 eV   58.46 nm  f=0.0028  <S**2>=0.000
       7 -> 26         0.69361

 Excited State  71:      Singlet-A1    21.4275 eV   57.86 nm  f=0.0002  <S**2>=0.000
       6 -> 19        -0.12300
       6 -> 21        -0.13150
       6 -> 22         0.27970
       6 -> 26         0.17756
       7 -> 25         0.52427
       8 -> 27         0.13789
       8 -> 29        -0.19595

 Excited State  72:      Singlet-A1    21.4716 eV   57.74 nm  f=0.0159  <S**2>=0.000
       6 -> 22         0.62863
       7 -> 25        -0.27799

 Excited State  73:      Singlet-B2    21.4802 eV   57.72 nm  f=0.0018  <S**2>=0.000
       5 -> 21         0.31867
       6 -> 23         0.52451
       8 -> 30         0.33776

 Excited State  74:      Singlet-B2    21.5504 eV   57.53 nm  f=0.0002  <S**2>=0.000
       5 -> 21         0.61460
       6 -> 23        -0.28759
       8 -> 30        -0.12734

 Excited State  75:      Singlet-A2    21.6389 eV   57.30 nm  f=0.0000  <S**2>=0.000
       4 -> 17         0.66361
       6 -> 24        -0.23177

 Excited State  76:      Singlet-A2    21.8009 eV   56.87 nm  f=0.0000  <S**2>=0.000
       8 -> 31         0.69876

 Excited State  77:      Singlet-B2    21.8295 eV   56.80 nm  f=0.0905  <S**2>=0.000
       5 -> 22        -0.16997
       6 -> 23        -0.32598
       8 -> 28        -0.12317
       8 -> 30         0.54900
       8 -> 32        -0.16123

 Excited State  78:      Singlet-A2    21.9865 eV   56.39 nm  f=0.0000  <S**2>=0.000
       4 -> 17         0.23395
       6 -> 24         0.65864

 Excited State  79:      Singlet-A1    22.0590 eV   56.21 nm  f=0.1079  <S**2>=0.000
       5 -> 20        -0.15377
       7 -> 25         0.15290
       8 -> 29         0.65425

 Excited State  80:      Singlet-B1    22.5836 eV   54.90 nm  f=0.0153  <S**2>=0.000
       4 -> 18        -0.34513
       6 -> 25         0.61039

 Excited State  81:      Singlet-B2    22.6490 eV   54.74 nm  f=0.0810  <S**2>=0.000
       5 -> 22         0.66864
       8 -> 30         0.11431

 Excited State  82:      Singlet-B1    22.7012 eV   54.62 nm  f=0.0105  <S**2>=0.000
       4 -> 18         0.60929
       6 -> 25         0.34421

 Excited State  83:      Singlet-A2    22.8524 eV   54.25 nm  f=0.0000  <S**2>=0.000
       7 -> 27         0.70349

 Excited State  84:      Singlet-A1    23.0963 eV   53.68 nm  f=0.0619  <S**2>=0.000
       4 -> 19         0.13759
       5 -> 23         0.65844

 Excited State  85:      Singlet-B2    23.1788 eV   53.49 nm  f=0.1923  <S**2>=0.000
       5 -> 26         0.18728
       6 -> 27        -0.10346
       8 -> 32         0.64943

 Excited State  86:      Singlet-B1    23.1863 eV   53.47 nm  f=0.0796  <S**2>=0.000
       5 -> 24         0.69530

 Excited State  87:      Singlet-A2    23.6879 eV   52.34 nm  f=0.0000  <S**2>=0.000
       5 -> 25         0.70433

 Excited State  88:      Singlet-A1    23.7182 eV   52.27 nm  f=0.4787  <S**2>=0.000
       4 -> 19         0.20121
       6 -> 26         0.59382
       7 -> 25        -0.10012
       8 -> 27        -0.16952

 Excited State  89:      Singlet-B2    24.0379 eV   51.58 nm  f=0.0886  <S**2>=0.000
       5 -> 26         0.55695
       6 -> 27         0.39581

 Excited State  90:      Singlet-B1    24.2434 eV   51.14 nm  f=0.0053  <S**2>=0.000
       3 ->  9        -0.12097
       7 -> 28         0.67475
       7 -> 30         0.10809
       8 -> 33        -0.10961

 Excited State  91:      Singlet-B2    24.4294 eV   50.75 nm  f=0.1513  <S**2>=0.000
       4 -> 20         0.19194
       5 -> 26        -0.34249
       6 -> 27         0.53214
       6 -> 29         0.10690
       8 -> 32         0.14574

 Excited State  92:      Singlet-B1    24.5850 eV   50.43 nm  f=0.0769  <S**2>=0.000
       7 -> 28         0.11667
       7 -> 30        -0.16114
       8 -> 33         0.66297

 Excited State  93:      Singlet-A1    24.6699 eV   50.26 nm  f=0.0094  <S**2>=0.000
       4 -> 19         0.60427
       4 -> 21         0.21782
       5 -> 27        -0.19070
       6 -> 26        -0.12585

 Excited State  94:      Singlet-B2    24.6711 eV   50.25 nm  f=0.0001  <S**2>=0.000
       4 -> 20         0.67056
       6 -> 27        -0.18957

 Excited State  95:      Singlet-A2    25.3733 eV   48.86 nm  f=0.0000  <S**2>=0.000
       7 -> 29         0.70311

 Excited State  96:      Singlet-A1    25.3786 eV   48.85 nm  f=0.0936  <S**2>=0.000
       4 -> 21        -0.41513
       4 -> 22        -0.12723
       6 -> 28         0.45032
       6 -> 30         0.12912
       7 -> 31        -0.26032

 Excited State  97:      Singlet-B1    25.3917 eV   48.83 nm  f=0.1149  <S**2>=0.000
       3 ->  9        -0.13351
       6 -> 31         0.13126
       7 -> 28        -0.10447
       7 -> 30         0.64720
       7 -> 32         0.10539
       8 -> 33         0.13510

 Excited State  98:      Singlet-A2    25.5080 eV   48.61 nm  f=0.0000  <S**2>=0.000
       8 -> 34         0.69921

 Excited State  99:      Singlet-A1    25.6125 eV   48.41 nm  f=0.0040  <S**2>=0.000
       4 -> 19        -0.13649
       4 -> 21         0.45905
       6 -> 28         0.26538
       7 -> 31        -0.39907

 Excited State 100:      Singlet-A1    25.8522 eV   47.96 nm  f=0.0045  <S**2>=0.000
       4 -> 19         0.15213
       5 -> 27         0.61756
       6 -> 28        -0.18227
       6 -> 30         0.14494
       7 -> 31        -0.12540

 Excited State 101:      Singlet-A1    26.0937 eV   47.51 nm  f=0.0323  <S**2>=0.000
       4 -> 22         0.57726
       5 -> 27         0.16327
       6 -> 28         0.26035
       7 -> 31         0.23315

 Excited State 102:      Singlet-B2    26.2295 eV   47.27 nm  f=0.0305  <S**2>=0.000
       4 -> 23         0.69511

 Excited State 103:      Singlet-B1    26.2413 eV   47.25 nm  f=0.0098  <S**2>=0.000
       3 ->  9         0.60596
       6 -> 31         0.10595
       7 -> 28         0.11600
       7 -> 32         0.30700

 Excited State 104:      Singlet-A1    26.2696 eV   47.20 nm  f=0.0002  <S**2>=0.000
       4 -> 21        -0.18054
       4 -> 22         0.36159
       5 -> 27        -0.18943
       6 -> 28        -0.30755
       6 -> 30         0.25330
       7 -> 31        -0.32629

 Excited State 105:      Singlet-B1    26.5712 eV   46.66 nm  f=0.0021  <S**2>=0.000
       3 ->  9        -0.17351
       6 -> 31        -0.43275
       7 -> 32         0.52347

 Excited State 106:      Singlet-A2    26.6740 eV   46.48 nm  f=0.0000  <S**2>=0.000
       4 -> 24         0.70297

 Excited State 107:      Singlet-B2    26.7374 eV   46.37 nm  f=0.0974  <S**2>=0.000
       5 -> 28         0.36963
       6 -> 29         0.58277

 Excited State 108:      Singlet-B2    27.0670 eV   45.81 nm  f=0.1544  <S**2>=0.000
       5 -> 28         0.58357
       6 -> 29        -0.34814

 Excited State 109:      Singlet-B1    27.1877 eV   45.60 nm  f=0.3365  <S**2>=0.000
       3 ->  9         0.12832
       4 -> 25         0.46489
       6 -> 31        -0.41162
       7 -> 30         0.13179
       7 -> 32        -0.24841

 Excited State 110:      Singlet-A1    27.2401 eV   45.52 nm  f=0.3421  <S**2>=0.000
       4 -> 26         0.21538
       5 -> 29        -0.16177
       6 -> 30         0.56993
       7 -> 31         0.18059
       7 -> 34        -0.13851

 Excited State 111:      Singlet-B1    27.4877 eV   45.11 nm  f=0.1618  <S**2>=0.000
       3 ->  9        -0.18972
       4 -> 25         0.52570
       6 -> 31         0.32211
       7 -> 30        -0.11863
       7 -> 32         0.22611

 Excited State 112:      Singlet-A1    27.7979 eV   44.60 nm  f=0.0451  <S**2>=0.000
       4 -> 26         0.59523
       5 -> 29         0.34165

 Excited State 113:      Singlet-A1    27.8543 eV   44.51 nm  f=0.0156  <S**2>=0.000
       6 -> 32         0.69500

 Excited State 114:      Singlet-B2    28.1040 eV   44.12 nm  f=0.0051  <S**2>=0.000
       5 -> 30         0.67258
       7 -> 33        -0.18936

 Excited State 115:      Singlet-B2    28.2995 eV   43.81 nm  f=0.1217  <S**2>=0.000
       5 -> 30         0.18869
       5 -> 32        -0.11151
       7 -> 33         0.65362

 Excited State 116:      Singlet-A2    28.3632 eV   43.71 nm  f=0.0000  <S**2>=0.000
       5 -> 31         0.70171

 Excited State 117:      Singlet-A1    28.6706 eV   43.24 nm  f=0.0001  <S**2>=0.000
       4 -> 26        -0.27214
       5 -> 29         0.56112
       6 -> 30         0.15813
       7 -> 31         0.12418
       7 -> 34        -0.19804

 Excited State 118:      Singlet-A1    29.1958 eV   42.47 nm  f=0.0000  <S**2>=0.000
       3 -> 10         0.69479
       7 -> 34        -0.10785

 Excited State 119:      Singlet-B2    29.2511 eV   42.39 nm  f=0.0187  <S**2>=0.000
       4 -> 27         0.57410
       5 -> 32         0.39275
       8 -> 35         0.11185

 Excited State 120:      Singlet-A2    29.4418 eV   42.11 nm  f=0.0000  <S**2>=0.000
       6 -> 33         0.70337

 Excited State 121:      Singlet-B2    29.4467 eV   42.10 nm  f=0.0014  <S**2>=0.000
       4 -> 27        -0.32482
       5 -> 32         0.55226
       7 -> 33         0.10596
       8 -> 35        -0.25660

 Excited State 122:      Singlet-A1    29.7169 eV   41.72 nm  f=0.0003  <S**2>=0.000
       3 -> 10         0.10208
       5 -> 29         0.12017
       7 -> 34         0.61866
       8 -> 36        -0.16787

 Excited State 123:      Singlet-B2    30.1108 eV   41.18 nm  f=0.0053  <S**2>=0.000
       4 -> 27        -0.21732
       5 -> 32         0.15289
       8 -> 35         0.53759
       8 -> 37         0.34466

 Excited State 124:      Singlet-A1    30.4748 eV   40.68 nm  f=0.0002  <S**2>=0.000
       4 -> 28         0.59619
       8 -> 36         0.35427

 Excited State 125:      Singlet-B1    30.5316 eV   40.61 nm  f=0.0032  <S**2>=0.000
       4 -> 31         0.10629
       6 -> 34         0.69426

 Excited State 126:      Singlet-B2    30.7673 eV   40.30 nm  f=0.0001  <S**2>=0.000
       3 -> 11         0.61661
       8 -> 35        -0.17314
       8 -> 37         0.28384

 Excited State 127:      Singlet-A1    30.8229 eV   40.22 nm  f=0.0085  <S**2>=0.000
       3 -> 12         0.53694
       4 -> 28         0.17907
       8 -> 36        -0.38420

 Excited State 128:      Singlet-B2    30.9229 eV   40.09 nm  f=0.0005  <S**2>=0.000
       3 -> 11        -0.34013
       4 -> 29         0.11591
       8 -> 35        -0.29018
       8 -> 37         0.52679

 Excited State 129:      Singlet-B1    30.9813 eV   40.02 nm  f=0.0061  <S**2>=0.000
       5 -> 33         0.69940

 Excited State 130:      Singlet-A1    31.2339 eV   39.70 nm  f=0.0001  <S**2>=0.000
       3 -> 12         0.42688
       3 -> 14         0.14349
       4 -> 28        -0.29589
       8 -> 36         0.40048

 Excited State 131:      Singlet-A2    31.5031 eV   39.36 nm  f=0.0000  <S**2>=0.000
       5 -> 34         0.70397

 Excited State 132:      Singlet-B1    31.5237 eV   39.33 nm  f=0.0008  <S**2>=0.000
       3 -> 13         0.69813

 Excited State 133:      Singlet-A1    31.8086 eV   38.98 nm  f=0.0199  <S**2>=0.000
       4 -> 30         0.69525

 The electronic state is 1-A1.
 Alpha  occ. eigenvalues --  -19.24136 -10.33976  -1.09243  -0.65193  -0.52056
 Alpha  occ. eigenvalues --   -0.47682  -0.42851  -0.29018
 Alpha virt. eigenvalues --   -0.05010   0.03214   0.09290   0.09582   0.11908
 Alpha virt. eigenvalues --    0.13806   0.16280   0.16674   0.20656   0.24151
 Alpha virt. eigenvalues --    0.29991   0.30921   0.33245   0.36707   0.37148

 Mulliken charges:
               1
     1  C    0.476979
     2  O   -0.352875
     3  H   -0.062052
     4  H   -0.062052
 Sum of Mulliken charges =   0.00000

 Dipole moment (field-independent basis, Debye):
    X=              0.0000    Y=             -0.0000    Z=             -2.3979  Tot=              2.3979
 Quadrupole moment (field-independent basis, Debye-Ang):
   XX=            -11.6740   YY=            -11.6422   ZZ=            -12.3087
   XY=              0.0000   XZ=              0.0000   YZ=              0.0000

 1\1\GINC-HEL25\SP\RPBE1PBE TD-FC\Gen\C1H2O1\SABYASACHI\21-Mar-2022\0\\
 #P TD(Nstates=10000) pbe1pbe/Gen SCF(maxcycles=100) Int(Grid=ultrafine
 )\\xGDB7_00001_tier4.com\\0,1\C,0,0.,0.,-0.524273\O,0,0.,0.,0.670793\H
 ,0,0.,0.939221,-1.110351\H,0,0.,-0.939221,-1.110351\\Version=EM64L-G16
 RevC.01\State=1-A1\HF=-114.2934478\RMSD=2.962e-09\PG=C02V [C2(C1O1),SG
 V(H2)]\\@
 The archive entry for this job was punched.

 Normal termination of Gaussian 16 at Mon Mar 21 20:12:39 2022.
