 Gaussian 16, Revision C.01,
 Gaussian 16:  EM64L-G16RevC.01  3-Jul-2019

 ----------------------------------------------------------------------
 #P TD(Nstates=10000) pbe1pbe/Gen SCF(maxcycles=100) Int(Grid=ultrafine
 )
 ----------------------------------------------------------------------

 ---------------------
 xGDB7_00001_tier4.com
 ---------------------
 Symbolic Z-matrix:
 Charge =  0 Multiplicity = 1

                         Standard orientation:
 ---------------------------------------------------------------------
 Center     Atomic      Atomic             Coordinates (Angstroms)
 Number     Number       Type             X           Y           Z
 ---------------------------------------------------------------------
      1          6           0        0.000000    0.729549   -0.367364
      2          6           0       -0.000000   -0.729549   -0.367364
      3          8           0       -0.000000   -0.000000    0.845033
      4          1           0       -0.918945    1.264243   -0.587975
      5          1           0        0.918945    1.264243   -0.587975
      6          1           0        0.918945   -1.264243   -0.587975
      7          1           0       -0.918945   -1.264243   -0.587975
 ---------------------------------------------------------------------

 SCF Done:  E(RPBE1PBE) =  -153.509589756     A.U. after   11 cycles

 Excitation energies and oscillator strengths:

 Excited State   1:      Singlet-B1     7.7122 eV  160.76 nm  f=0.0309  <S**2>=0.000
      12 -> 13         0.70089
 This state for optimization and/or second-order correction.
 Total Energy, E(TD-HF/TD-DFT) =  -153.226169816
 Copying the excited state density for this state as the 1-particle RhoCI density.

 Excited State   2:      Singlet-B1     8.0890 eV  153.28 nm  f=0.0113  <S**2>=0.000
      12 -> 15         0.69736

 Excited State   3:      Singlet-A2     8.2057 eV  151.10 nm  f=0.0000  <S**2>=0.000
      12 -> 14         0.63881
      12 -> 17        -0.29974

 Excited State   4:      Singlet-A2     8.5906 eV  144.33 nm  f=0.0000  <S**2>=0.000
      12 -> 14         0.29834
      12 -> 17         0.62889

 Excited State   5:      Singlet-A1     8.7411 eV  141.84 nm  f=0.0251  <S**2>=0.000
      11 -> 13         0.35128
      12 -> 16         0.61152

 Excited State   6:      Singlet-A1     8.8268 eV  140.46 nm  f=0.0191  <S**2>=0.000
      11 -> 13         0.60599
      12 -> 16        -0.34823

 Excited State   7:      Singlet-A1     9.2989 eV  133.33 nm  f=0.0564  <S**2>=0.000
      11 -> 15         0.69310

 Excited State   8:      Singlet-B2     9.4217 eV  131.59 nm  f=0.0694  <S**2>=0.000
      11 -> 14         0.70448

 Excited State   9:      Singlet-B1     9.7880 eV  126.67 nm  f=0.0001  <S**2>=0.000
      11 -> 16         0.59894
      12 -> 18        -0.36863

 Excited State  10:      Singlet-B1     9.9003 eV  125.23 nm  f=0.0253  <S**2>=0.000
      11 -> 16         0.36916
      12 -> 18         0.59754

 Excited State  11:      Singlet-B2    10.4282 eV  118.89 nm  f=0.1431  <S**2>=0.000
       9 -> 15        -0.14719
      11 -> 17         0.67146

 Excited State  12:      Singlet-A2    10.4949 eV  118.14 nm  f=0.0000  <S**2>=0.000
      10 -> 13         0.70198

 Excited State  13:      Singlet-B2    10.7958 eV  114.84 nm  f=0.0644  <S**2>=0.000
      12 -> 19         0.70113

 Excited State  14:      Singlet-B1    10.9527 eV  113.20 nm  f=0.0424  <S**2>=0.000
      10 -> 14        -0.36395
      12 -> 20         0.59695

 Excited State  15:      Singlet-A2    10.9693 eV  113.03 nm  f=0.0000  <S**2>=0.000
      10 -> 15         0.12804
      12 -> 21         0.68483

 Excited State  16:      Singlet-A1    10.9940 eV  112.77 nm  f=0.0090  <S**2>=0.000
      11 -> 18         0.69816

 Excited State  17:      Singlet-A2    11.1493 eV  111.20 nm  f=0.0000  <S**2>=0.000
      10 -> 15         0.68651
      12 -> 21        -0.12366

 Excited State  18:      Singlet-B1    11.1595 eV  111.10 nm  f=0.0499  <S**2>=0.000
      10 -> 14         0.57304
      10 -> 17        -0.17554
      12 -> 20         0.36673

 Excited State  19:      Singlet-B2    11.1698 eV  111.00 nm  f=0.0389  <S**2>=0.000
       9 -> 13         0.69930

 Excited State  20:      Singlet-A1    11.4858 eV  107.95 nm  f=0.0000  <S**2>=0.000
       9 -> 17         0.23082
      11 -> 20         0.15120
      12 -> 22         0.64342

 Excited State  21:      Singlet-B1    11.6697 eV  106.24 nm  f=0.0181  <S**2>=0.000
      10 -> 14         0.18564
      10 -> 17         0.67190

 Excited State  22:      Singlet-B2    11.7323 eV  105.68 nm  f=0.0848  <S**2>=0.000
       9 -> 15         0.66016
      11 -> 17         0.13181
      11 -> 21         0.16499

 Excited State  23:      Singlet-B2    11.7575 eV  105.45 nm  f=0.1182  <S**2>=0.000
      10 -> 16         0.68661
      11 -> 21        -0.13785

 Excited State  24:      Singlet-A2    11.7864 eV  105.19 nm  f=0.0000  <S**2>=0.000
      11 -> 19         0.70183

 Excited State  25:      Singlet-A1    11.8026 eV  105.05 nm  f=0.0153  <S**2>=0.000
       9 -> 14         0.70091

 Excited State  26:      Singlet-A2    11.9776 eV  103.51 nm  f=0.0000  <S**2>=0.000
      12 -> 23         0.69964

 Excited State  27:      Singlet-A1    12.1650 eV  101.92 nm  f=0.0072  <S**2>=0.000
      11 -> 20         0.13470
      12 -> 24         0.68877

 Excited State  28:      Singlet-A2    12.1892 eV  101.72 nm  f=0.0000  <S**2>=0.000
       9 -> 16         0.70351

 Excited State  29:      Singlet-A1    12.2277 eV  101.40 nm  f=0.0143  <S**2>=0.000
       9 -> 17        -0.31303
      11 -> 20         0.60707
      12 -> 24        -0.11071

 Excited State  30:      Singlet-B2    12.3950 eV  100.03 nm  f=0.0461  <S**2>=0.000
       9 -> 15        -0.14040
      10 -> 16         0.12768
      11 -> 21         0.64733
      11 -> 23        -0.16321

 Excited State  31:      Singlet-B1    12.4328 eV   99.72 nm  f=0.0007  <S**2>=0.000
      11 -> 22         0.70348

 Excited State  32:      Singlet-B1    12.7868 eV   96.96 nm  f=0.0012  <S**2>=0.000
      11 -> 24        -0.13259
      12 -> 25         0.67084
      12 -> 27         0.14351

 Excited State  33:      Singlet-A2    12.8658 eV   96.37 nm  f=0.0000  <S**2>=0.000
      10 -> 18         0.69198
      10 -> 20        -0.10580

 Excited State  34:      Singlet-B2    13.0271 eV   95.17 nm  f=0.0261  <S**2>=0.000
      11 -> 21         0.14099
      11 -> 23         0.67687

 Excited State  35:      Singlet-A1    13.1625 eV   94.19 nm  f=0.0288  <S**2>=0.000
       8 -> 13         0.27391
       8 -> 15        -0.16997
       9 -> 17         0.47920
      11 -> 20         0.22667
      11 -> 27        -0.16189
      12 -> 22        -0.19247

 Excited State  36:      Singlet-B1    13.2230 eV   93.76 nm  f=0.0190  <S**2>=0.000
      11 -> 24         0.68114
      12 -> 25         0.11600

 Excited State  37:      Singlet-B2    13.3693 eV   92.74 nm  f=0.0109  <S**2>=0.000
       9 -> 18         0.69790

 Excited State  38:      Singlet-A1    13.5712 eV   91.36 nm  f=0.0006  <S**2>=0.000
       8 -> 13         0.55525
       8 -> 15         0.10805
       9 -> 17        -0.12685
      10 -> 19        -0.38613

 Excited State  39:      Singlet-B2    13.7943 eV   89.88 nm  f=0.0327  <S**2>=0.000
      10 -> 22         0.11628
      10 -> 24        -0.10276
      12 -> 26         0.68383

 Excited State  40:      Singlet-B1    13.7954 eV   89.87 nm  f=0.0163  <S**2>=0.000
      10 -> 21        -0.24523
      12 -> 25        -0.15727
      12 -> 27         0.61926

 Excited State  41:      Singlet-A1    13.8845 eV   89.30 nm  f=0.0129  <S**2>=0.000
       8 -> 13        -0.19093
       8 -> 15         0.11228
       9 -> 17         0.14871
      10 -> 19        -0.36648
      11 -> 20         0.13764
      11 -> 25         0.48360
      12 -> 22        -0.11152

 Excited State  42:      Singlet-A2    13.9057 eV   89.16 nm  f=0.0000  <S**2>=0.000
      10 -> 18         0.10828
      10 -> 20         0.68108

 Excited State  43:      Singlet-B2    14.0152 eV   88.46 nm  f=0.1480  <S**2>=0.000
       8 -> 14         0.66579
       8 -> 17        -0.20950

 Excited State  44:      Singlet-A1    14.0760 eV   88.08 nm  f=0.0028  <S**2>=0.000
       8 -> 13         0.20658
       8 -> 15         0.39479
       9 -> 21         0.22210
      10 -> 19         0.36631
      11 -> 25         0.31193

 Excited State  45:      Singlet-B1    14.0784 eV   88.07 nm  f=0.0001  <S**2>=0.000
       9 -> 19        -0.11406
      10 -> 21         0.64599
      12 -> 27         0.23163

 Excited State  46:      Singlet-A1    14.1625 eV   87.54 nm  f=0.2707  <S**2>=0.000
       8 -> 13        -0.15923
       8 -> 15         0.49653
      10 -> 19        -0.14517
      11 -> 25        -0.37913
      11 -> 27        -0.14630
      12 -> 29        -0.12001

 Excited State  47:      Singlet-B1    14.2050 eV   87.28 nm  f=0.0354  <S**2>=0.000
       7 -> 13         0.12168
       8 -> 16        -0.14152
       9 -> 19         0.66158
      12 -> 27         0.12172

 Excited State  48:      Singlet-B1    14.3002 eV   86.70 nm  f=0.1503  <S**2>=0.000
       7 -> 13         0.68566
       9 -> 19        -0.10686

 Excited State  49:      Singlet-B2    14.3624 eV   86.33 nm  f=0.0003  <S**2>=0.000
       8 -> 17         0.16242
       9 -> 20        -0.13943
      10 -> 22         0.65234
      12 -> 26        -0.13104

 Excited State  50:      Singlet-A2    14.4184 eV   85.99 nm  f=0.0000  <S**2>=0.000
       7 -> 17        -0.14440
       9 -> 22        -0.12094
      12 -> 28         0.66236

 Excited State  51:      Singlet-B2    14.4739 eV   85.66 nm  f=0.0610  <S**2>=0.000
       8 -> 17        -0.27250
       9 -> 20         0.60263
      10 -> 22         0.20784

 Excited State  52:      Singlet-B1    14.5296 eV   85.33 nm  f=0.0151  <S**2>=0.000
       8 -> 16         0.66126
       9 -> 19         0.16945
      10 -> 23         0.14559

 Excited State  53:      Singlet-A1    14.6180 eV   84.82 nm  f=0.0013  <S**2>=0.000
       7 -> 16         0.16826
       9 -> 21         0.60955
      10 -> 19        -0.16382
      12 -> 29         0.18242

 Excited State  54:      Singlet-B2    14.6211 eV   84.80 nm  f=0.0042  <S**2>=0.000
       8 -> 14         0.20602
       8 -> 17         0.56203
       9 -> 20         0.32702

 Excited State  55:      Singlet-A2    14.7710 eV   83.94 nm  f=0.0000  <S**2>=0.000
       9 -> 22         0.67938
      12 -> 28         0.13303

 Excited State  56:      Singlet-A1    14.8037 eV   83.75 nm  f=0.0857  <S**2>=0.000
       9 -> 21        -0.13398
      11 -> 27        -0.30069
      12 -> 29         0.61741

 Excited State  57:      Singlet-A2    14.8210 eV   83.65 nm  f=0.0000  <S**2>=0.000
       7 -> 14         0.63182
       7 -> 17        -0.24751
       9 -> 22         0.11226

 Excited State  58:      Singlet-B1    14.8664 eV   83.40 nm  f=0.0001  <S**2>=0.000
       7 -> 15         0.62333
      10 -> 23         0.31242

 Excited State  59:      Singlet-A2    14.9122 eV   83.14 nm  f=0.0000  <S**2>=0.000
      11 -> 26         0.69290

 Excited State  60:      Singlet-B1    15.0839 eV   82.20 nm  f=0.4734  <S**2>=0.000
       7 -> 15        -0.26973
       8 -> 16        -0.15721
      10 -> 23         0.57083
      12 -> 30         0.20492

 Excited State  61:      Singlet-B2    15.1645 eV   81.76 nm  f=0.3068  <S**2>=0.000
       8 -> 17         0.10477
       9 -> 25         0.14958
      10 -> 24         0.66250

 Excited State  62:      Singlet-A2    15.2795 eV   81.14 nm  f=0.0000  <S**2>=0.000
       7 -> 14         0.27135
       7 -> 17         0.60445
      10 -> 25        -0.15609
      12 -> 28         0.12670

 Excited State  63:      Singlet-A1    15.3777 eV   80.63 nm  f=0.0754  <S**2>=0.000
       7 -> 16         0.15187
       8 -> 18         0.23963
       9 -> 23         0.51250
      11 -> 27        -0.32157
      12 -> 29        -0.14086

 Excited State  64:      Singlet-B1    15.4049 eV   80.48 nm  f=0.0314  <S**2>=0.000
      10 -> 23        -0.15130
      12 -> 30         0.66955

 Excited State  65:      Singlet-A1    15.4743 eV   80.12 nm  f=0.0731  <S**2>=0.000
       7 -> 16        -0.41813
       8 -> 18        -0.24536
       9 -> 23         0.43221
      11 -> 27         0.19072
      12 -> 29         0.10083
      12 -> 32         0.11249

 Excited State  66:      Singlet-A2    15.5042 eV   79.97 nm  f=0.0000  <S**2>=0.000
       9 -> 24        -0.28141
      12 -> 31         0.63267

 Excited State  67:      Singlet-A2    15.5873 eV   79.54 nm  f=0.0000  <S**2>=0.000
       9 -> 24         0.63818
      10 -> 25         0.12377
      12 -> 31         0.26498

 Excited State  68:      Singlet-B2    15.7431 eV   78.75 nm  f=0.0529  <S**2>=0.000
      11 -> 28         0.68906

 Excited State  69:      Singlet-A1    15.7928 eV   78.51 nm  f=0.1569  <S**2>=0.000
       7 -> 16         0.42992
       8 -> 15         0.12362
       8 -> 20        -0.19105
       9 -> 21        -0.17726
       9 -> 23         0.19632
      11 -> 27         0.34614
      12 -> 29         0.10772

 Excited State  70:      Singlet-A1    15.8274 eV   78.34 nm  f=0.0037  <S**2>=0.000
       7 -> 16        -0.21433
       8 -> 18         0.59033
      11 -> 27         0.14882
      12 -> 32         0.24397

 Excited State  71:      Singlet-A2    15.8695 eV   78.13 nm  f=0.0000  <S**2>=0.000
       7 -> 17         0.17406
      10 -> 25         0.65493
      10 -> 27         0.10329
      12 -> 31        -0.11496

 Excited State  72:      Singlet-B1    15.8913 eV   78.02 nm  f=0.0217  <S**2>=0.000
      11 -> 29         0.69972

 Excited State  73:      Singlet-A1    16.0580 eV   77.21 nm  f=0.0573  <S**2>=0.000
       7 -> 16         0.10913
       8 -> 18        -0.13871
      10 -> 26        -0.11459
      11 -> 27        -0.14368
      11 -> 30         0.11538
      12 -> 32         0.62314

 Excited State  74:      Singlet-B1    16.2910 eV   76.11 nm  f=0.1375  <S**2>=0.000
       7 -> 18         0.11220
      12 -> 33         0.68696

 Excited State  75:      Singlet-B2    16.3440 eV   75.86 nm  f=0.2387  <S**2>=0.000
       9 -> 25         0.58540
       9 -> 27         0.15844
      10 -> 24        -0.10250
      11 -> 31        -0.29132

 Excited State  76:      Singlet-A2    16.4634 eV   75.31 nm  f=0.0000  <S**2>=0.000
       8 -> 19         0.70002

 Excited State  77:      Singlet-A1    16.4824 eV   75.22 nm  f=0.0273  <S**2>=0.000
      11 -> 30         0.68291

 Excited State  78:      Singlet-B2    16.6170 eV   74.61 nm  f=0.0306  <S**2>=0.000
       7 -> 19         0.12748
       8 -> 21         0.38579
       9 -> 25         0.24136
      11 -> 31         0.48019

 Excited State  79:      Singlet-B1    16.6444 eV   74.49 nm  f=0.1721  <S**2>=0.000
       7 -> 18         0.66128
       9 -> 26         0.11237
      11 -> 32        -0.11099

 Excited State  80:      Singlet-A1    16.7388 eV   74.07 nm  f=0.2200  <S**2>=0.000
       8 -> 20         0.11015
      10 -> 26         0.67370

 Excited State  81:      Singlet-B2    16.8480 eV   73.59 nm  f=0.0369  <S**2>=0.000
       8 -> 21         0.31298
      11 -> 31        -0.13166
      12 -> 34         0.61002

 Excited State  82:      Singlet-A2    16.8667 eV   73.51 nm  f=0.0000  <S**2>=0.000
       7 -> 21         0.13399
      10 -> 25        -0.11592
      10 -> 27         0.67247

 Excited State  83:      Singlet-B2    16.9407 eV   73.19 nm  f=0.1098  <S**2>=0.000
       7 -> 19        -0.16373
       8 -> 21         0.47707
       9 -> 25        -0.10334
      11 -> 31        -0.31810
      12 -> 34        -0.33102

 Excited State  84:      Singlet-A1    17.0043 eV   72.91 nm  f=0.0352  <S**2>=0.000
       8 -> 20         0.63274
       9 -> 28         0.12610
      11 -> 33         0.18886

 Excited State  85:      Singlet-B1    17.0534 eV   72.70 nm  f=0.0024  <S**2>=0.000
       8 -> 22         0.24729
      11 -> 32         0.64147

 Excited State  86:      Singlet-B1    17.1459 eV   72.31 nm  f=0.0408  <S**2>=0.000
       8 -> 22         0.65026
      11 -> 32        -0.22328

 Excited State  87:      Singlet-B2    17.2457 eV   71.89 nm  f=0.0024  <S**2>=0.000
       6 -> 13        -0.10029
       7 -> 19         0.29809
       9 -> 25        -0.18395
       9 -> 27         0.57133

 Excited State  88:      Singlet-B1    17.3180 eV   71.59 nm  f=0.0817  <S**2>=0.000
       8 -> 24        -0.16297
       9 -> 26         0.64710
      12 -> 36         0.15696

 Excited State  89:      Singlet-A2    17.3394 eV   71.50 nm  f=0.0000  <S**2>=0.000
      10 -> 30        -0.10144
      12 -> 35         0.59227
      12 -> 37         0.34511

 Excited State  90:      Singlet-B2    17.4426 eV   71.08 nm  f=0.0000  <S**2>=0.000
       6 -> 13         0.47180
       7 -> 19        -0.42437
       9 -> 27         0.27501

 Excited State  91:      Singlet-A1    17.4794 eV   70.93 nm  f=0.1252  <S**2>=0.000
       8 -> 20        -0.13985
      11 -> 33         0.66225

 Excited State  92:      Singlet-B1    17.4870 eV   70.90 nm  f=0.0004  <S**2>=0.000
       7 -> 20         0.40839
       8 -> 24        -0.11346
      10 -> 28        -0.38497
      12 -> 36        -0.39757

 Excited State  93:      Singlet-B1    17.5436 eV   70.67 nm  f=0.0478  <S**2>=0.000
       7 -> 20         0.18390
       9 -> 26        -0.15501
      10 -> 28        -0.36129
      12 -> 36         0.52278
      12 -> 38         0.10412

 Excited State  94:      Singlet-B2    17.6341 eV   70.31 nm  f=0.0268  <S**2>=0.000
       6 -> 13         0.38964
       7 -> 19         0.35054
       8 -> 23         0.42196
      11 -> 31        -0.10676

 Excited State  95:      Singlet-A2    17.6556 eV   70.22 nm  f=0.0000  <S**2>=0.000
       7 -> 21        -0.10795
      12 -> 35        -0.35272
      12 -> 37         0.59364

 Excited State  96:      Singlet-B1    17.7237 eV   69.95 nm  f=0.0064  <S**2>=0.000
       7 -> 20         0.50615
      10 -> 28         0.44100
      12 -> 36         0.12257

 Excited State  97:      Singlet-B2    17.7382 eV   69.90 nm  f=0.0180  <S**2>=0.000
      10 -> 29         0.67700

 Excited State  98:      Singlet-A2    17.7529 eV   69.84 nm  f=0.0000  <S**2>=0.000
       7 -> 21         0.67190
      10 -> 27        -0.14651

 Excited State  99:      Singlet-B2    17.9178 eV   69.20 nm  f=0.0735  <S**2>=0.000
       6 -> 13        -0.22169
       6 -> 15         0.11933
       7 -> 19        -0.12551
       8 -> 23         0.50400
      11 -> 31         0.13660
      11 -> 35         0.25916
      11 -> 37         0.15576
      12 -> 39         0.12735

 Excited State 100:      Singlet-A2    17.9180 eV   69.20 nm  f=0.0000  <S**2>=0.000
      11 -> 34         0.69642

 Excited State 101:      Singlet-B1    18.0003 eV   68.88 nm  f=0.1175  <S**2>=0.000
       7 -> 20         0.14798
       8 -> 24         0.64748
       9 -> 26         0.14323

 Excited State 102:      Singlet-A1    18.0146 eV   68.82 nm  f=0.0538  <S**2>=0.000
       6 -> 14         0.27522
       7 -> 22         0.60425
       9 -> 28        -0.21910

 Excited State 103:      Singlet-B2    18.0995 eV   68.50 nm  f=0.0007  <S**2>=0.000
       6 -> 15         0.65137
       9 -> 27        -0.11912
       9 -> 30        -0.12306
      12 -> 39         0.12578

 Excited State 104:      Singlet-B2    18.1473 eV   68.32 nm  f=0.0285  <S**2>=0.000
       6 -> 15        -0.14419
      12 -> 39         0.66962

 Excited State 105:      Singlet-B1    18.1474 eV   68.32 nm  f=0.0014  <S**2>=0.000
      12 -> 38         0.68903

 Excited State 106:      Singlet-A1    18.1736 eV   68.22 nm  f=0.0071  <S**2>=0.000
       6 -> 14         0.59952
       6 -> 17        -0.12232
       7 -> 22        -0.25160
       7 -> 24         0.10027
       9 -> 31        -0.11235

 Excited State 107:      Singlet-A2    18.1941 eV   68.15 nm  f=0.0000  <S**2>=0.000
       6 -> 16         0.14445
       7 -> 23        -0.16878
       9 -> 29         0.15875
      10 -> 30         0.63531
      12 -> 35         0.11115

 Excited State 108:      Singlet-A2    18.2897 eV   67.79 nm  f=0.0000  <S**2>=0.000
       7 -> 23        -0.17779
       9 -> 29         0.64467
      10 -> 30        -0.21183

 Excited State 109:      Singlet-B1    18.3229 eV   67.67 nm  f=0.0165  <S**2>=0.000
      10 -> 31         0.67772

 Excited State 110:      Singlet-A1    18.3397 eV   67.60 nm  f=0.0725  <S**2>=0.000
       5 -> 13        -0.26182
       6 -> 14         0.10791
       6 -> 17         0.14172
       7 -> 22         0.14255
       8 -> 25         0.19112
       8 -> 27         0.10640
       9 -> 28         0.52897
      11 -> 36        -0.13467

 Excited State 111:      Singlet-A1    18.5333 eV   66.90 nm  f=0.0432  <S**2>=0.000
       5 -> 13        -0.25008
       5 -> 15         0.15220
       6 -> 17        -0.17904
       7 -> 24         0.29917
       8 -> 25         0.42227
       9 -> 28        -0.17090
      11 -> 36         0.23301

 Excited State 112:      Singlet-A2    18.5475 eV   66.85 nm  f=0.0000  <S**2>=0.000
       6 -> 16         0.63482
       7 -> 23        -0.19117
       9 -> 29        -0.14101
      10 -> 30        -0.16499

 Excited State 113:      Singlet-B2    18.5651 eV   66.78 nm  f=0.0267  <S**2>=0.000
       5 -> 14         0.16717
       6 -> 13         0.11044
       7 -> 19         0.10418
       8 -> 23        -0.11887
       9 -> 30        -0.31692
      11 -> 35         0.37190
      11 -> 37         0.38203

 Excited State 114:      Singlet-A2    18.6115 eV   66.62 nm  f=0.0000  <S**2>=0.000
       6 -> 16         0.24155
       7 -> 23         0.61401
       9 -> 29         0.17811

 Excited State 115:      Singlet-A1    18.6216 eV   66.58 nm  f=0.0091  <S**2>=0.000
       5 -> 13         0.52008
       7 -> 24        -0.10590
       8 -> 25         0.34429
       9 -> 28         0.11076
       9 -> 31         0.12451
      11 -> 36         0.17937

 Excited State 116:      Singlet-A1    18.6994 eV   66.30 nm  f=0.0223  <S**2>=0.000
       5 -> 13         0.23355
       6 -> 17        -0.15965
       7 -> 24         0.47045
       9 -> 31         0.15984
      11 -> 36        -0.37144

 Excited State 117:      Singlet-B2    18.7616 eV   66.08 nm  f=0.0000  <S**2>=0.000
      11 -> 35        -0.44279
      11 -> 37         0.53399

 Excited State 118:      Singlet-A1    18.8397 eV   65.81 nm  f=0.0387  <S**2>=0.000
       7 -> 24         0.23804
       8 -> 25        -0.31011
       9 -> 28         0.10801
       9 -> 31         0.28240
      11 -> 36         0.46224
      12 -> 44         0.13619

 Excited State 119:      Singlet-B2    18.9483 eV   65.43 nm  f=0.0043  <S**2>=0.000
       5 -> 14         0.35714
       5 -> 17        -0.10267
       9 -> 30         0.45013
      10 -> 32        -0.33448
      11 -> 35         0.10933

 Excited State 120:      Singlet-A1    19.0244 eV   65.17 nm  f=0.0552  <S**2>=0.000

 The electronic state is 1-A1.
 Alpha  occ. eigenvalues --  -19.23647 -10.29003 -10.28971  -1.11052  -0.69233
 Alpha  occ. eigenvalues --   -0.65352  -0.53708  -0.50674  -0.42287  -0.40031
 Alpha  occ. eigenvalues --   -0.33579  -0.29431
 Alpha virt. eigenvalues --    0.03592   0.05602   0.06591   0.07853   0.09434
 Alpha virt. eigenvalues --    0.11935   0.14867   0.16255   0.16440   0.17480
 Alpha virt. eigenvalues --    0.19575   0.20313   0.23382   0.26392   0.28407

 Mulliken charges:
               1
     1  C    0.532970
     2  C    0.532970
     3  O   -0.654966
     4  H   -0.102744
     5  H   -0.102744
     6  H   -0.102744
     7  H   -0.102744
 Sum of Mulliken charges =   0.00000

 Dipole moment (field-independent basis, Debye):
    X=             -0.0000    Y=              0.0000    Z=             -1.9111  Tot=              1.9111
 Quadrupole moment (field-independent basis, Debye-Ang):
   XX=            -17.4739   YY=            -16.5084   ZZ=            -20.9192
   XY=             -0.0000   XZ=              0.0000   YZ=             -0.0000

 1\1\GINC-HEL11\SP\RPBE1PBE TD-FC\Gen\C2H4O1\SABYASACHI\21-Mar-2022\0\\
 #P TD(Nstates=10000) pbe1pbe/Gen SCF(maxcycles=100) Int(Grid=ultrafine
 )\\xGDB7_00001_tier4.com\\0,1\C,0,0.,0.729549,-0.367364\C,0,0.,-0.7295
 49,-0.367364\O,0,0.,0.,0.845033\H,0,-0.918945,1.264243,-0.587975\H,0,0
 .918945,1.264243,-0.587975\H,0,0.918945,-1.264243,-0.587975\H,0,-0.918
 945,-1.264243,-0.587975\\Version=EM64L-G16RevC.01\State=1-A1\HF=-153.5
 095898\RMSD=3.732e-09\PG=C02V [C2(O1),SGV(C2),X(H4)]\\@
 The archive entry for this job was punched.

 Normal termination of Gaussian 16 at Mon Mar 21 20:18:49 2022.
