 Gaussian 16, Revision C.01,
 Gaussian 16:  EM64L-G16RevC.01  3-Jul-2019

 ----------------------------------------------------------------------
 #P TD(Nstates=10000) pbe1pbe/Gen SCF(maxcycles=100) Int(Grid=ultrafine
 )
 ----------------------------------------------------------------------

 ---------------------
 xGDB7_00001_tier4.com
 ---------------------
 Symbolic Z-matrix:
 Charge =  0 Multiplicity = 1

                         Standard orientation:
 ---------------------------------------------------------------------
 Center     Atomic      Atomic             Coordinates (Angstroms)
 Number     Number       Type             X           Y           Z
 ---------------------------------------------------------------------
      1          8           0        0.000000    0.000000    0.596896
      2          8           0        0.000000    0.000000   -0.596896
 ---------------------------------------------------------------------

 SCF Done:  E(RPBE1PBE) =  -149.996322273     A.U. after    9 cycles

 Excitation energies and oscillator strengths:

 Excited state symmetry could not be determined.
 Excited State   1:      Singlet-?Sym    0.0021 eV 597831.32 nm  f=0.0000  <S**2>=0.000
       8 ->  9        -8.27238
       8 -> 16         0.17832
       8 <-  9        -8.24214
       8 <- 16         0.17723
 This state for optimization and/or second-order correction.
 Total Energy, E(TD-HF/TD-DFT) =  -149.996246058
 Copying the excited state density for this state as the 1-particle RhoCI density.

 Excited state symmetry could not be determined.
 Excited State   2:      Singlet-?Sym    6.8253 eV  181.65 nm  f=0.0000  <S**2>=0.000
       7 ->  9         0.70570

 Excited state symmetry could not be determined.
 Excited State   3:      Singlet-?Sym    7.7194 eV  160.61 nm  f=0.0000  <S**2>=0.000
       5 ->  9         0.70688

 Excited state symmetry could not be determined.
 Excited State   4:      Singlet-?Sym    7.9980 eV  155.02 nm  f=0.0211  <S**2>=0.000
       8 -> 10         0.70412

 Excited state symmetry could not be determined.
 Excited State   5:      Singlet-?Sym    8.0355 eV  154.30 nm  f=0.0000  <S**2>=0.000
       8 -> 11         0.70293

 Excited state symmetry could not be determined.
 Excited State   6:      Singlet-?Sym    8.9165 eV  139.05 nm  f=0.0000  <S**2>=0.000
       8 -> 12         0.70561

 Excited state symmetry could not be determined.
 Excited State   7:      Singlet-?Sym    9.0025 eV  137.72 nm  f=0.1002  <S**2>=0.000
       6 ->  9         0.24023
       8 -> 13         0.66407

 Excited state symmetry could not be determined.
 Excited State   8:      Singlet-?Sym   10.3751 eV  119.50 nm  f=0.0000  <S**2>=0.000
       8 -> 14         0.70249

 Excited state symmetry could not be determined.
 Excited State   9:      Singlet-?Sym   10.5864 eV  117.12 nm  f=0.0854  <S**2>=0.000
       5 -> 17        -0.14505
       6 ->  9         0.64691
       8 -> 13        -0.24086
       6 <-  9        -0.10720

 Excited state symmetry could not be determined.
 Excited State  10:      Singlet-?Sym   10.8021 eV  114.78 nm  f=0.0000  <S**2>=0.000
       8 -> 16         0.70595

 Excited state symmetry could not be determined.
 Excited State  11:      Singlet-?Sym   11.0370 eV  112.33 nm  f=0.0000  <S**2>=0.000
       8 -> 15         0.70481

 Excited state symmetry could not be determined.
 Excited State  12:      Singlet-?Sym   11.9171 eV  104.04 nm  f=0.0096  <S**2>=0.000
       8 -> 17         0.68893
       8 -> 18        -0.13694

 Excited state symmetry could not be determined.
 Excited State  13:      Singlet-?Sym   15.1617 eV   81.77 nm  f=0.1186  <S**2>=0.000
       7 -> 11         0.20094
       8 -> 17         0.13757
       8 -> 18         0.66279

 Excited state symmetry could not be determined.
 Excited State  14:      Singlet-?Sym   15.5201 eV   79.89 nm  f=0.0000  <S**2>=0.000
       7 -> 10         0.56474
       8 -> 20        -0.41754

 Excited state symmetry could not be determined.
 Excited State  15:      Singlet-?Sym   15.5479 eV   79.74 nm  f=0.0000  <S**2>=0.000
       6 -> 10        -0.42021
       8 -> 19         0.56412

 Excited state symmetry could not be determined.
 Excited State  16:      Singlet-?Sym   15.7021 eV   78.96 nm  f=0.0438  <S**2>=0.000
       7 -> 11         0.67347
       8 -> 18        -0.20177

 Excited state symmetry could not be determined.
 Excited State  17:      Singlet-?Sym   15.7152 eV   78.89 nm  f=0.0000  <S**2>=0.000
       7 -> 10         0.41844
       8 -> 20         0.56917

 Excited state symmetry could not be determined.
 Excited State  18:      Singlet-?Sym   15.7305 eV   78.82 nm  f=0.0000  <S**2>=0.000
       6 -> 10         0.56266
       8 -> 19         0.42401

 Excited state symmetry could not be determined.
 Excited State  19:      Singlet-?Sym   15.7354 eV   78.79 nm  f=0.1384  <S**2>=0.000
       4 ->  9         0.12679
       6 -> 11         0.69256

 Excited State  20:      Singlet-SGU   15.9955 eV   77.51 nm  f=0.2429  <S**2>=0.000
       5 -> 10         0.70257

 Excited state symmetry could not be determined.
 Excited State  21:      Singlet-?Sym   16.0740 eV   77.13 nm  f=0.0273  <S**2>=0.000
       4 ->  9         0.67597
       5 -> 12        -0.10044
       6 -> 11        -0.12224

 Excited State  22:      Singlet-SGG   16.2963 eV   76.08 nm  f=0.0000  <S**2>=0.000
       5 -> 11         0.65713
       6 -> 12        -0.19815
       7 -> 13        -0.16135

 Excited state symmetry could not be determined.
 Excited State  23:      Singlet-?Sym   16.4521 eV   75.36 nm  f=0.0000  <S**2>=0.000
       7 -> 12         0.70203

 Excited state symmetry could not be determined.
 Excited State  24:      Singlet-?Sym   16.5511 eV   74.91 nm  f=0.0000  <S**2>=0.000
       6 -> 12         0.52253
       7 -> 13        -0.47350

 Excited state symmetry could not be determined.
 Excited State  25:      Singlet-?Sym   16.7221 eV   74.14 nm  f=0.0000  <S**2>=0.000
       6 -> 13         0.70283

 Excited state symmetry could not be determined.
 Excited State  26:      Singlet-?Sym   16.9468 eV   73.16 nm  f=0.0624  <S**2>=0.000
       5 -> 12         0.69926

 Excited state symmetry could not be determined.
 Excited State  27:      Singlet-?Sym   17.1115 eV   72.46 nm  f=0.0503  <S**2>=0.000
       5 -> 13         0.70647

 Excited state symmetry could not be determined.
 Excited State  28:      Singlet-?Sym   17.3000 eV   71.67 nm  f=0.0000  <S**2>=0.000
       5 -> 11         0.23816
       5 -> 14        -0.13623
       6 -> 12         0.41792
       7 -> 13         0.48892

 Excited state symmetry could not be determined.
 Excited State  29:      Singlet-?Sym   17.9983 eV   68.89 nm  f=0.0422  <S**2>=0.000
       7 -> 14         0.70145

 Excited state symmetry could not be determined.
 Excited State  30:      Singlet-?Sym   18.1292 eV   68.39 nm  f=0.0658  <S**2>=0.000
       6 -> 14         0.69778

 Excited state symmetry could not be determined.
 Excited State  31:      Singlet-?Sym   18.3905 eV   67.42 nm  f=0.0000  <S**2>=0.000
       6 -> 15         0.11197
       7 -> 16         0.69662

 Excited state symmetry could not be determined.
 Excited State  32:      Singlet-?Sym   18.3974 eV   67.39 nm  f=0.0057  <S**2>=0.000
       6 -> 16        -0.32508
       7 -> 15         0.62553

 Excited state symmetry could not be determined.
 Excited State  33:      Singlet-?Sym   18.4665 eV   67.14 nm  f=0.0000  <S**2>=0.000
       5 -> 14         0.69150

 Excited state symmetry could not be determined.
 Excited State  34:      Singlet-?Sym   18.4670 eV   67.14 nm  f=0.0000  <S**2>=0.000
       6 -> 15         0.69775
       7 -> 16        -0.11192

 Excited state symmetry could not be determined.
 Excited State  35:      Singlet-?Sym   18.5725 eV   66.76 nm  f=0.0356  <S**2>=0.000
       5 -> 17         0.12805
       6 -> 16         0.61813
       7 -> 15         0.31211

 Excited state symmetry could not be determined.
 Excited State  36:      Singlet-?Sym   18.7644 eV   66.07 nm  f=0.0000  <S**2>=0.000
       5 -> 16         0.70529

 Excited state symmetry could not be determined.
 Excited State  37:      Singlet-?Sym   18.7672 eV   66.06 nm  f=0.0000  <S**2>=0.000
       5 -> 15         0.70575

 Excited state symmetry could not be determined.
 Excited State  38:      Singlet-?Sym   19.3730 eV   64.00 nm  f=0.0000  <S**2>=0.000
       6 -> 17         0.68289
       6 -> 18        -0.14991

 Excited state symmetry could not be determined.
 Excited State  39:      Singlet-?Sym   19.3817 eV   63.97 nm  f=0.0000  <S**2>=0.000
       7 -> 17         0.68497
       7 -> 18        -0.14765

 Excited state symmetry could not be determined.
 Excited State  40:      Singlet-?Sym   20.5268 eV   60.40 nm  f=0.0000  <S**2>=0.000
       8 -> 22         0.70595

 Excited state symmetry could not be determined.
 Excited State  41:      Singlet-?Sym   20.5290 eV   60.39 nm  f=0.0000  <S**2>=0.000
       8 -> 21         0.70468

 Excited state symmetry could not be determined.
 Excited State  42:      Singlet-?Sym   20.5499 eV   60.33 nm  f=0.0050  <S**2>=0.000
       5 -> 17        -0.40061
       8 -> 23         0.57070

 Excited state symmetry could not be determined.
 Excited State  43:      Singlet-?Sym   21.6677 eV   57.22 nm  f=0.1245  <S**2>=0.000
       6 -> 19        -0.14870
       8 -> 25         0.68778

 Excited state symmetry could not be determined.
 Excited State  44:      Singlet-?Sym   21.6775 eV   57.19 nm  f=0.1637  <S**2>=0.000
       6 -> 20         0.15856
       8 -> 24         0.68511

 Excited State  45:      Singlet-SGU   21.9668 eV   56.44 nm  f=0.7304  <S**2>=0.000
       4 -> 11         0.35797
       5 -> 17         0.41829
       5 -> 18         0.24564
       8 -> 23         0.34990

 Excited state symmetry could not be determined.
 Excited State  46:      Singlet-?Sym   22.1294 eV   56.03 nm  f=0.0000  <S**2>=0.000
       8 -> 26         0.70461

 Excited state symmetry could not be determined.
 Excited State  47:      Singlet-?Sym   22.2363 eV   55.76 nm  f=0.0597  <S**2>=0.000
       8 -> 28         0.70230

 Excited State  48:      Singlet-SGG   22.5126 eV   55.07 nm  f=0.0000  <S**2>=0.000
       4 -> 10         0.50464
       8 -> 27        -0.48472

 Excited state symmetry could not be determined.
 Excited State  49:      Singlet-?Sym   22.7121 eV   54.59 nm  f=0.0000  <S**2>=0.000
       7 -> 17         0.14731
       7 -> 18         0.68992

 Excited state symmetry could not be determined.
 Excited State  50:      Singlet-?Sym   22.7886 eV   54.41 nm  f=0.0000  <S**2>=0.000
       6 -> 17         0.14946
       6 -> 18         0.68968

 Excited state symmetry could not be determined.
 Excited State  51:      Singlet-?Sym   23.0136 eV   53.87 nm  f=0.0002  <S**2>=0.000
       6 -> 20         0.44610
       7 -> 19         0.53511
       8 -> 24        -0.12097

 Excited state symmetry could not be determined.
 Excited State  52:      Singlet-?Sym   23.0177 eV   53.86 nm  f=0.0007  <S**2>=0.000
       6 -> 19        -0.44955
       7 -> 20         0.53084
       8 -> 25        -0.12518

 Excited State  53:      Singlet-SGU   23.1030 eV   53.67 nm  f=0.0247  <S**2>=0.000
       4 -> 11         0.53955
       5 -> 17        -0.16612
       5 -> 18        -0.41925

 Excited state symmetry could not be determined.
 Excited State  54:      Singlet-?Sym   23.2193 eV   53.40 nm  f=0.0000  <S**2>=0.000
       4 -> 10         0.49128
       8 -> 27         0.49191

 Excited state symmetry could not be determined.
 Excited State  55:      Singlet-?Sym   23.6176 eV   52.50 nm  f=0.0000  <S**2>=0.000
       5 -> 19         0.70619

 Excited state symmetry could not be determined.
 Excited State  56:      Singlet-?Sym   23.6324 eV   52.46 nm  f=0.0000  <S**2>=0.000
       5 -> 20         0.70525

 Excited state symmetry could not be determined.
 Excited State  57:      Singlet-?Sym   23.6830 eV   52.35 nm  f=0.0000  <S**2>=0.000
       4 -> 12         0.70404

 Excited state symmetry could not be determined.
 Excited State  58:      Singlet-?Sym   23.8605 eV   51.96 nm  f=0.0000  <S**2>=0.000
       4 -> 13         0.70499

 Excited state symmetry could not be determined.
 Excited State  59:      Singlet-?Sym   23.9749 eV   51.71 nm  f=0.6241  <S**2>=0.000
       6 -> 19         0.51767
       7 -> 20         0.45956

 Excited state symmetry could not be determined.
 Excited State  60:      Singlet-?Sym   24.0556 eV   51.54 nm  f=0.6703  <S**2>=0.000
       4 ->  9        -0.10226
       6 -> 20         0.51459
       7 -> 19        -0.44939

 Excited state symmetry could not be determined.
 Excited State  61:      Singlet-?Sym   25.0354 eV   49.52 nm  f=0.1130  <S**2>=0.000
       4 -> 11         0.20438
       4 -> 14         0.55078
       5 -> 17        -0.15125
       5 -> 18         0.30801
       8 -> 23        -0.13097

 Excited state symmetry could not be determined.
 Excited State  62:      Singlet-?Sym   25.2495 eV   49.10 nm  f=0.6155  <S**2>=0.000
       4 -> 11        -0.16723
       4 -> 14         0.43473
       5 -> 17         0.25064
       5 -> 18        -0.38582
       5 -> 28         0.10382
       6 ->  9         0.12244
       8 -> 23         0.15623

 Excited state symmetry could not be determined.
 Excited State  63:      Singlet-?Sym   25.5674 eV   48.49 nm  f=0.0013  <S**2>=0.000
       4 -> 15         0.70125

 Excited state symmetry could not be determined.
 Excited State  64:      Singlet-?Sym   25.5900 eV   48.45 nm  f=0.0009  <S**2>=0.000
       4 -> 16         0.69974

 Excited State  65:      Singlet-SGG   27.2500 eV   45.50 nm  f=0.0000  <S**2>=0.000
       4 -> 17         0.62349
       5 -> 21         0.15483
       6 -> 22        -0.21813
       7 -> 23        -0.15380

 Excited state symmetry could not be determined.
 Excited State  66:      Singlet-?Sym   28.0643 eV   44.18 nm  f=0.0000  <S**2>=0.000
       6 -> 23         0.12063
       7 -> 22         0.69567

 Excited state symmetry could not be determined.
 Excited State  67:      Singlet-?Sym   28.1753 eV   44.00 nm  f=0.0000  <S**2>=0.000
       5 -> 21         0.10806
       6 -> 22         0.58633
       7 -> 23        -0.36755

 Excited state symmetry could not be determined.
 Excited State  68:      Singlet-?Sym   28.2211 eV   43.93 nm  f=0.0283  <S**2>=0.000
       5 -> 23        -0.20067
       7 -> 21         0.67507

 Excited state symmetry could not be determined.
 Excited State  69:      Singlet-?Sym   28.2307 eV   43.92 nm  f=0.0041  <S**2>=0.000
       5 -> 22        -0.31044
       6 -> 21         0.63398

 Excited state symmetry could not be determined.
 Excited State  70:      Singlet-?Sym   28.5054 eV   43.49 nm  f=0.0000  <S**2>=0.000
       6 -> 23         0.69653
       7 -> 22        -0.12082

 Excited state symmetry could not be determined.
 Excited State  71:      Singlet-?Sym   28.5739 eV   43.39 nm  f=0.0000  <S**2>=0.000
       4 -> 18         0.10473
       5 -> 21         0.44498
       6 -> 22         0.20285
       7 -> 23         0.48428

 Excited state symmetry could not be determined.
 Excited State  72:      Singlet-?Sym   28.7583 eV   43.11 nm  f=0.0000  <S**2>=0.000
       3 ->  9         0.58203
       6 -> 25         0.20018
       7 -> 24        -0.33838

 Excited state symmetry could not be determined.
 Excited State  73:      Singlet-?Sym   28.9479 eV   42.83 nm  f=0.3323  <S**2>=0.000
       5 -> 22         0.62658
       6 -> 21         0.30511

 Excited state symmetry could not be determined.
 Excited State  74:      Singlet-?Sym   29.0084 eV   42.74 nm  f=0.0000  <S**2>=0.000
       6 -> 24        -0.46419
       7 -> 25         0.53315

 Excited state symmetry could not be determined.
 Excited State  75:      Singlet-?Sym   29.0143 eV   42.73 nm  f=0.0000  <S**2>=0.000
       6 -> 25         0.52318
       7 -> 24         0.46671

 Excited state symmetry could not be determined.
 Excited State  76:      Singlet-?Sym   29.1812 eV   42.49 nm  f=0.0000  <S**2>=0.000
       4 -> 17        -0.28643
       4 -> 18        -0.17283
       5 -> 21         0.49944
       6 -> 22        -0.21805
       7 -> 23        -0.28412

 Excited state symmetry could not be determined.
 Excited State  77:      Singlet-?Sym   29.2205 eV   42.43 nm  f=0.2829  <S**2>=0.000
       5 -> 23         0.67201
       7 -> 21         0.19629

 Excited state symmetry could not be determined.
 Excited State  78:      Singlet-?Sym   29.3401 eV   42.26 nm  f=0.0000  <S**2>=0.000
       6 -> 24         0.52896
       7 -> 25         0.46011

 Excited state symmetry could not be determined.
 Excited State  79:      Singlet-?Sym   29.3471 eV   42.25 nm  f=0.0000  <S**2>=0.000
       4 -> 19         0.22680
       5 -> 24         0.61034
       6 -> 27        -0.12854
       7 -> 26        -0.23703

 Excited state symmetry could not be determined.
 Excited State  80:      Singlet-?Sym   29.3683 eV   42.22 nm  f=0.0026  <S**2>=0.000
       4 -> 20         0.22486
       5 -> 25         0.62205
       6 -> 26         0.21512
       7 -> 27        -0.12086

 Excited state symmetry could not be determined.
 Excited State  81:      Singlet-?Sym   29.4584 eV   42.09 nm  f=0.0000  <S**2>=0.000
       3 ->  9        -0.33829
       6 -> 25         0.40834
       6 -> 28         0.24590
       7 -> 24        -0.38601

 Excited state symmetry could not be determined.
 Excited State  82:      Singlet-?Sym   29.7301 eV   41.70 nm  f=0.0000  <S**2>=0.000
       5 -> 24         0.24013
       7 -> 26         0.65452

 Excited state symmetry could not be determined.
 Excited State  83:      Singlet-?Sym   29.8000 eV   41.61 nm  f=0.0000  <S**2>=0.000
       7 -> 28         0.69520

 Excited state symmetry could not be determined.
 Excited State  84:      Singlet-?Sym   29.8526 eV   41.53 nm  f=0.0001  <S**2>=0.000
       5 -> 25         0.25318
       5 -> 28         0.10126
       6 -> 26        -0.43046
       7 -> 27         0.48648

 Excited state symmetry could not be determined.
 Excited State  85:      Singlet-?Sym   29.9535 eV   41.39 nm  f=0.0000  <S**2>=0.000
       3 ->  9         0.17143
       5 -> 26        -0.26015
       6 -> 25        -0.13641
       6 -> 28         0.60404
       7 -> 24         0.13365

 Excited state symmetry could not be determined.
 Excited State  86:      Singlet-?Sym   29.9550 eV   41.39 nm  f=0.0198  <S**2>=0.000
       5 -> 28         0.49262
       6 -> 26         0.40942
       7 -> 27         0.28314

 Excited state symmetry could not be determined.
 Excited State  87:      Singlet-?Sym   29.9576 eV   41.39 nm  f=0.0000  <S**2>=0.000
       5 -> 24         0.15909
       6 -> 27         0.68799

 Excited state symmetry could not be determined.
 Excited State  88:      Singlet-?Sym   30.0722 eV   41.23 nm  f=0.0000  <S**2>=0.000
       5 -> 26         0.65153
       6 -> 28         0.26367

 Excited state symmetry could not be determined.
 Excited State  89:      Singlet-?Sym   30.1830 eV   41.08 nm  f=0.0000  <S**2>=0.000
       5 -> 27         0.69861

 Excited state symmetry could not be determined.
 Excited State  90:      Singlet-?Sym   30.4258 eV   40.75 nm  f=0.0000  <S**2>=0.000
       4 -> 19         0.66754
       5 -> 24        -0.21066

 Excited state symmetry could not be determined.
 Excited State  91:      Singlet-?Sym   30.4410 eV   40.73 nm  f=0.0000  <S**2>=0.000
       4 -> 20         0.66606
       5 -> 25        -0.21145

 Excited State  92:      Singlet-SGG   30.4420 eV   40.73 nm  f=0.0000  <S**2>=0.000
       4 -> 18         0.66961
       6 -> 22        -0.13788
       7 -> 23        -0.15372

 Excited state symmetry could not be determined.
 Excited State  93:      Singlet-?Sym   30.9929 eV   40.00 nm  f=0.0023  <S**2>=0.000
       5 -> 28         0.44873
       6 -> 26        -0.27867
       7 -> 27        -0.37331
       8 -> 30        -0.23904

 Excited state symmetry could not be determined.
 Excited State  94:      Singlet-?Sym   32.7787 eV   37.82 nm  f=0.0000  <S**2>=0.000
       8 -> 29         0.69838

 Excited state symmetry could not be determined.
 Excited State  95:      Singlet-?Sym   34.8134 eV   35.61 nm  f=0.0203  <S**2>=0.000
       3 -> 10         0.19833
       3 -> 17        -0.17604
       4 -> 21         0.26538
       5 -> 28         0.14983
       8 -> 30         0.55410

 Excited state symmetry could not be determined.
 Excited State  96:      Singlet-?Sym   35.0212 eV   35.40 nm  f=0.0000  <S**2>=0.000
       8 -> 31         0.70359

 Excited state symmetry could not be determined.
 Excited State  97:      Singlet-?Sym   35.3862 eV   35.04 nm  f=0.0805  <S**2>=0.000
       4 -> 21         0.65139
       8 -> 30        -0.23037

 Excited state symmetry could not be determined.
 Excited State  98:      Singlet-?Sym   35.4096 eV   35.01 nm  f=0.0000  <S**2>=0.000
       4 -> 22         0.70441

 Excited state symmetry could not be determined.
 Excited State  99:      Singlet-?Sym   35.7492 eV   34.68 nm  f=0.0000  <S**2>=0.000
       4 -> 23         0.70311

 Excited state symmetry could not be determined.
 Excited State 100:      Singlet-?Sym   36.2840 eV   34.17 nm  f=0.0000  <S**2>=0.000
       4 -> 24         0.70661

 Excited state symmetry could not be determined.
 Excited State 101:      Singlet-?Sym   36.2915 eV   34.16 nm  f=0.0000  <S**2>=0.000
       4 -> 25         0.70655

 Excited State 102:      Singlet-SGG   36.8279 eV   33.67 nm  f=0.0000  <S**2>=0.000
       3 -> 11         0.69722

 Excited state symmetry could not be determined.
 Excited State 103:      Singlet-?Sym   36.8884 eV   33.61 nm  f=0.0602  <S**2>=0.000
       4 -> 26         0.70205

 Excited state symmetry could not be determined.
 Excited State 104:      Singlet-?Sym   37.0143 eV   33.50 nm  f=0.0556  <S**2>=0.000
       4 -> 27         0.70301

 Excited state symmetry could not be determined.
 Excited State 105:      Singlet-?Sym   37.0589 eV   33.46 nm  f=0.0000  <S**2>=0.000
       4 -> 28         0.70068

 Excited State 106:      Singlet-SGU   37.2409 eV   33.29 nm  f=0.0078  <S**2>=0.000
       3 -> 10         0.66654
       3 -> 17         0.11134
       8 -> 30        -0.16284

 Excited state symmetry could not be determined.
 Excited State 107:      Singlet-?Sym   37.7879 eV   32.81 nm  f=0.0001  <S**2>=0.000
       3 -> 12         0.70623

 Excited state symmetry could not be determined.
 Excited State 108:      Singlet-?Sym   37.9533 eV   32.67 nm  f=0.0000  <S**2>=0.000
       3 -> 13         0.70610

 Excited state symmetry could not be determined.
 Excited State 109:      Singlet-?Sym   39.2850 eV   31.56 nm  f=0.0000  <S**2>=0.000
       3 -> 14         0.69897

 Excited state symmetry could not be determined.
 Excited State 110:      Singlet-?Sym   39.6446 eV   31.27 nm  f=0.0000  <S**2>=0.000
       3 -> 15         0.70621

 Excited state symmetry could not be determined.
 Excited State 111:      Singlet-?Sym   39.6726 eV   31.25 nm  f=0.0000  <S**2>=0.000
       3 -> 16         0.70628

 Excited state symmetry could not be determined.
 Excited State 112:      Singlet-?Sym   40.1741 eV   30.86 nm  f=0.0000  <S**2>=0.000
       7 -> 29         0.69932

 Excited state symmetry could not be determined.
 Excited State 113:      Singlet-?Sym   40.4157 eV   30.68 nm  f=0.0000  <S**2>=0.000
       6 -> 29         0.54878
       7 -> 30        -0.43889

 Excited state symmetry could not be determined.
 Excited State 114:      Singlet-?Sym   40.8150 eV   30.38 nm  f=0.0000  <S**2>=0.000
       6 -> 30         0.70506

 Excited state symmetry could not be determined.
 Excited State 115:      Singlet-?Sym   40.8211 eV   30.37 nm  f=0.0564  <S**2>=0.000
       5 -> 29         0.70209

 Excited state symmetry could not be determined.
 Excited State 116:      Singlet-?Sym   41.0196 eV   30.23 nm  f=0.0655  <S**2>=0.000
       5 -> 30         0.13037
       7 -> 31        -0.20825
       8 -> 32         0.66132

 Excited state symmetry could not be determined.
 Excited State 117:      Singlet-?Sym   41.3235 eV   30.00 nm  f=0.0775  <S**2>=0.000
       5 -> 30         0.69032
       8 -> 32        -0.13654

 Excited State 118:      Singlet-SGG   42.5258 eV   29.16 nm  f=0.0000  <S**2>=0.000
       5 -> 31         0.47289
       6 -> 29        -0.29928
       7 -> 30        -0.40695
       8 -> 35         0.10623

 Excited state symmetry could not be determined.
 Excited State 119:      Singlet-?Sym   42.7269 eV   29.02 nm  f=0.1275  <S**2>=0.000
       6 -> 31         0.70651

 Excited state symmetry could not be determined.
 Excited State 120:      Singlet-?Sym   42.8423 eV   28.94 nm  f=0.0874  <S**2>=0.000
       7 -> 31         0.67533
       8 -> 32         0.20459

 Unable to determine electronic state:  partially filled degenerate orbitals.
 Alpha  occ. eigenvalues --  -19.37691 -19.37682  -1.33130  -0.81308  -0.56702
 Alpha  occ. eigenvalues --   -0.55472  -0.55094  -0.27430
 Alpha virt. eigenvalues --   -0.18106   0.07276   0.08651   0.11544   0.12126
 Alpha virt. eigenvalues --    0.16668   0.17543   0.17683   0.26006   0.35128
 Alpha virt. eigenvalues --    0.37906   0.37959   0.55276   0.56119   0.57312

 Mulliken charges:
               1
     1  O   -0.000000
     2  O   -0.000000
 Sum of Mulliken charges =  -0.00000

 Dipole moment (field-independent basis, Debye):
    X=             -0.0000    Y=              0.0000    Z=             -0.0000  Tot=              0.0000
 Quadrupole moment (field-independent basis, Debye-Ang):
   XX=            -11.1698   YY=             -9.2584   ZZ=            -10.7586
   XY=              0.0000   XZ=              0.0000   YZ=              0.0000

 Normal termination of Gaussian 16 at Mon Mar 21 20:17:43 2022.
