 Gaussian 16, Revision C.01,
 Gaussian 16:  EM64L-G16RevC.01  3-Jul-2019

 ----------------------------------------------------------------------
 #P TD(Nstates=10000) pbe1pbe/Gen SCF(maxcycles=100) Int(Grid=ultrafine
 )
 ----------------------------------------------------------------------

 ---------------------
 xGDB7_00001_tier4.com
 ---------------------
 Symbolic Z-matrix:
 Charge =  0 Multiplicity = 1

                         Standard orientation:
 ---------------------------------------------------------------------
 Center     Atomic      Atomic             Coordinates (Angstroms)
 Number     Number       Type             X           Y           Z
 ---------------------------------------------------------------------
      1          6           0       -1.122844   -0.452320    0.000000
      2          6           0        0.000000    0.553997    0.000000
      3          9           0        1.225284   -0.098236    0.000000
      4          1           0       -2.083314    0.066805    0.000000
      5          1           0       -1.072796   -1.085651    0.886148
      6          1           0       -1.072796   -1.085651   -0.886148
      7          1           0       -0.030794    1.189278    0.888716
      8          1           0       -0.030794    1.189278   -0.888716
 ---------------------------------------------------------------------

 SCF Done:  E(RPBE1PBE) =  -178.743916006     A.U. after   11 cycles

 Excitation energies and oscillator strengths:

 Excited State   1:      Singlet-A"     8.9297 eV  138.84 nm  f=0.0033  <S**2>=0.000
      13 -> 14         0.69501
      13 -> 15         0.10968
 This state for optimization and/or second-order correction.
 Total Energy, E(TD-HF/TD-DFT) =  -178.415755048
 Copying the excited state density for this state as the 1-particle RhoCI density.

 Excited State   2:      Singlet-A'     9.2853 eV  133.53 nm  f=0.0122  <S**2>=0.000
      12 -> 14         0.69075
      12 -> 15         0.11826

 Excited State   3:      Singlet-A"     9.7407 eV  127.28 nm  f=0.0264  <S**2>=0.000
      13 -> 14        -0.11289
      13 -> 15         0.62077
      13 -> 16         0.28791

 Excited State   4:      Singlet-A'    10.0179 eV  123.76 nm  f=0.0383  <S**2>=0.000
      12 -> 14        -0.13525
      12 -> 15         0.61327
      12 -> 16         0.29956

 Excited State   5:      Singlet-A"    10.1533 eV  122.11 nm  f=0.0504  <S**2>=0.000
      13 -> 15        -0.30252
      13 -> 16         0.62554

 Excited State   6:      Singlet-A'    10.4194 eV  118.99 nm  f=0.0438  <S**2>=0.000
      12 -> 15        -0.31391
      12 -> 16         0.60116
      13 -> 17        -0.14525

 Excited State   7:      Singlet-A'    10.5665 eV  117.34 nm  f=0.1324  <S**2>=0.000
      12 -> 16         0.12550
      13 -> 17         0.68735

 Excited State   8:      Singlet-A'    10.6199 eV  116.75 nm  f=0.0862  <S**2>=0.000
      11 -> 14         0.69379

 Excited State   9:      Singlet-A"    10.7419 eV  115.42 nm  f=0.0193  <S**2>=0.000
      10 -> 14         0.18154
      12 -> 17         0.67838

 Excited State  10:      Singlet-A"    10.7978 eV  114.82 nm  f=0.0358  <S**2>=0.000
      10 -> 14         0.66724
      12 -> 17        -0.17722

 Excited State  11:      Singlet-A"    11.1221 eV  111.48 nm  f=0.0054  <S**2>=0.000
      13 -> 18         0.68579

 Excited State  12:      Singlet-A'    11.3502 eV  109.24 nm  f=0.0448  <S**2>=0.000
      11 -> 15         0.17654
      12 -> 18         0.66602

 Excited State  13:      Singlet-A'    11.5502 eV  107.34 nm  f=0.0803  <S**2>=0.000
      11 -> 15         0.67060
      12 -> 18        -0.17770

 Excited State  14:      Singlet-A"    11.5970 eV  106.91 nm  f=0.0122  <S**2>=0.000
      10 -> 15         0.59324
      13 -> 19        -0.32410
      13 -> 21         0.12824

 Excited State  15:      Singlet-A"    11.6581 eV  106.35 nm  f=0.0774  <S**2>=0.000
      10 -> 15         0.31416
      13 -> 19         0.61217

 Excited State  16:      Singlet-A'    11.7888 eV  105.17 nm  f=0.0032  <S**2>=0.000
      12 -> 19         0.37830
      13 -> 20         0.57663

 Excited State  17:      Singlet-A'    11.8253 eV  104.85 nm  f=0.0085  <S**2>=0.000
      12 -> 19         0.57533
      13 -> 20        -0.37809

 Excited State  18:      Singlet-A"    11.8290 eV  104.81 nm  f=0.0029  <S**2>=0.000
      12 -> 20         0.69877

 Excited State  19:      Singlet-A"    12.0792 eV  102.64 nm  f=0.0002  <S**2>=0.000
      10 -> 16         0.55028
      13 -> 21        -0.40490

 Excited State  20:      Singlet-A'    12.1436 eV  102.10 nm  f=0.0767  <S**2>=0.000
       9 -> 14        -0.15260
      10 -> 17        -0.11520
      11 -> 16         0.65123
      13 -> 22         0.10603

 Excited State  21:      Singlet-A"    12.1605 eV  101.96 nm  f=0.0361  <S**2>=0.000
      11 -> 17         0.67103
      13 -> 21         0.18524

 Excited State  22:      Singlet-A"    12.2138 eV  101.51 nm  f=0.0015  <S**2>=0.000
      10 -> 15        -0.18532
      10 -> 16         0.39786
      11 -> 17        -0.17019
      13 -> 21         0.51595

 Excited State  23:      Singlet-A'    12.3236 eV  100.61 nm  f=0.0075  <S**2>=0.000
       9 -> 14        -0.10982
      10 -> 17         0.58360
      11 -> 16         0.11791
      11 -> 18        -0.18728
      12 -> 21         0.15370
      13 -> 22        -0.25027

 Excited State  24:      Singlet-A'    12.4531 eV   99.56 nm  f=0.0277  <S**2>=0.000
       9 -> 14         0.60005
      11 -> 16         0.13826
      12 -> 19        -0.10425
      12 -> 21         0.28556

 Excited State  25:      Singlet-A'    12.4892 eV   99.27 nm  f=0.0065  <S**2>=0.000
       9 -> 14        -0.26465
      10 -> 17        -0.13868
      11 -> 18         0.17507
      12 -> 21         0.59997

 Excited State  26:      Singlet-A'    12.6806 eV   97.77 nm  f=0.0161  <S**2>=0.000
      10 -> 17         0.30492
      11 -> 18         0.10352
      13 -> 22         0.62009

 Excited State  27:      Singlet-A"    12.7622 eV   97.15 nm  f=0.0003  <S**2>=0.000
      10 -> 18         0.48734
      10 -> 19         0.10932
      12 -> 22         0.41164
      13 -> 23        -0.22512

 Excited State  28:      Singlet-A"    12.8020 eV   96.85 nm  f=0.0059  <S**2>=0.000
      10 -> 18        -0.31862
      10 -> 19        -0.10167
      12 -> 22         0.55794
      13 -> 23         0.23403

 Excited State  29:      Singlet-A'    12.8849 eV   96.22 nm  f=0.2262  <S**2>=0.000
      10 -> 17         0.13555
      11 -> 18         0.58823
      12 -> 23         0.22416
      13 -> 22        -0.15706

 Excited State  30:      Singlet-A"    12.8973 eV   96.13 nm  f=0.0050  <S**2>=0.000
      10 -> 18         0.31965
      10 -> 19        -0.16500
      11 -> 20         0.17786
      13 -> 23         0.56005

 Excited State  31:      Singlet-A'    13.1284 eV   94.44 nm  f=0.0004  <S**2>=0.000
       9 -> 15        -0.37667
       9 -> 16        -0.15595
      10 -> 20         0.10856
      11 -> 18        -0.13589
      12 -> 21         0.10121
      12 -> 23         0.42001
      13 -> 24        -0.31292

 Excited State  32:      Singlet-A"    13.1877 eV   94.01 nm  f=0.0094  <S**2>=0.000
      10 -> 18        -0.13011
      10 -> 19        -0.21933
      11 -> 20         0.58603
      13 -> 23        -0.15100
      13 -> 25         0.21227

 Excited State  33:      Singlet-A'    13.2273 eV   93.73 nm  f=0.0020  <S**2>=0.000
       9 -> 15         0.33288
       9 -> 16         0.16517
      10 -> 20        -0.26876
      11 -> 18        -0.11036
      12 -> 23         0.46532
      13 -> 24         0.11752

 Excited State  34:      Singlet-A"    13.3386 eV   92.95 nm  f=0.0255  <S**2>=0.000
      11 -> 20         0.12289
      12 -> 24         0.56647
      13 -> 25        -0.35317

 Excited State  35:      Singlet-A'    13.3473 eV   92.89 nm  f=0.0205  <S**2>=0.000
       9 -> 15         0.23916
      10 -> 20         0.24807
      11 -> 19         0.55897
      13 -> 24        -0.18424

 Excited State  36:      Singlet-A"    13.4087 eV   92.47 nm  f=0.0056  <S**2>=0.000
      10 -> 19         0.58549
      10 -> 21        -0.12320
      11 -> 20         0.18560
      12 -> 24         0.15208
      13 -> 23         0.15885
      13 -> 25         0.17840

 Excited State  37:      Singlet-A'    13.4409 eV   92.24 nm  f=0.2373  <S**2>=0.000
       9 -> 15        -0.37114
       9 -> 16         0.21741
      11 -> 19         0.25578
      12 -> 23         0.10906
      13 -> 24         0.45922

 Excited State  38:      Singlet-A"    13.5576 eV   91.45 nm  f=0.0267  <S**2>=0.000
       8 -> 14         0.61567
      10 -> 19         0.10658
      12 -> 24        -0.14046
      13 -> 25        -0.26417

 Excited State  39:      Singlet-A'    13.5635 eV   91.41 nm  f=0.0182  <S**2>=0.000
       7 -> 14         0.11134
       9 -> 15         0.17522
       9 -> 16        -0.32316
      10 -> 20         0.40397
      11 -> 19        -0.16302
      11 -> 21         0.16551
      12 -> 23         0.11760
      12 -> 25         0.14406
      13 -> 24         0.28634

 Excited State  40:      Singlet-A'    13.6700 eV   90.70 nm  f=0.0910  <S**2>=0.000
       7 -> 14         0.35475
       9 -> 16         0.33629
      10 -> 20         0.19014
      11 -> 19        -0.22534
      11 -> 21        -0.28288
      12 -> 25         0.24197
      13 -> 24        -0.11360

 Excited State  41:      Singlet-A"    13.6817 eV   90.62 nm  f=0.2134  <S**2>=0.000
       8 -> 14         0.28556
       9 -> 17        -0.11679
      10 -> 18         0.10605
      10 -> 19        -0.14159
      11 -> 20        -0.21354
      11 -> 22         0.12819
      12 -> 24         0.33459
      13 -> 25         0.39722

 Excited State  42:      Singlet-A'    13.7054 eV   90.46 nm  f=0.0041  <S**2>=0.000
       7 -> 14         0.53396
       9 -> 16        -0.18027
      10 -> 20        -0.26636
      10 -> 22        -0.10009
      11 -> 21         0.21190

 Excited State  43:      Singlet-A'    13.8621 eV   89.44 nm  f=0.0722  <S**2>=0.000
       7 -> 14        -0.14957
       9 -> 16         0.27337
      10 -> 22        -0.11894
      11 -> 21         0.51369
      12 -> 25         0.25719
      13 -> 24        -0.13149

 Excited State  44:      Singlet-A"    13.9120 eV   89.12 nm  f=0.0300  <S**2>=0.000
       9 -> 17         0.67886

 Excited State  45:      Singlet-A"    13.9403 eV   88.94 nm  f=0.0009  <S**2>=0.000
       8 -> 15        -0.10898
      10 -> 21         0.64437
      13 -> 25         0.16945

 Excited State  46:      Singlet-A'    14.0116 eV   88.49 nm  f=0.0473  <S**2>=0.000
       7 -> 14        -0.14488
       9 -> 16        -0.14815
      10 -> 20        -0.22660
      10 -> 22         0.11532
      11 -> 21        -0.14279
      11 -> 23        -0.13856
      12 -> 25         0.53717
      13 -> 27        -0.12469

 Excited State  47:      Singlet-A"    14.1364 eV   87.71 nm  f=0.0439  <S**2>=0.000
      11 -> 22         0.66615

 Excited State  48:      Singlet-A"    14.3576 eV   86.35 nm  f=0.0145  <S**2>=0.000
       8 -> 15         0.46086
       8 -> 16         0.13443
      10 -> 21         0.16173
      11 -> 22         0.11119
      13 -> 26         0.42147
      13 -> 28        -0.10216

 Excited State  49:      Singlet-A"    14.3797 eV   86.22 nm  f=0.0296  <S**2>=0.000
       8 -> 15        -0.41544
       8 -> 16        -0.22435
      13 -> 26         0.47842
      13 -> 28        -0.12714

 Excited State  50:      Singlet-A'    14.4069 eV   86.06 nm  f=0.0030  <S**2>=0.000
       7 -> 15        -0.11149
       9 -> 16         0.13444
       9 -> 18         0.56789
      10 -> 22         0.29934
      12 -> 26        -0.11926
      12 -> 28         0.11627

 Excited State  51:      Singlet-A'    14.4989 eV   85.51 nm  f=0.1044  <S**2>=0.000
       7 -> 15        -0.37903
       9 -> 18        -0.18690
       9 -> 19         0.12487
      10 -> 22         0.31097
      12 -> 26         0.37957
      13 -> 27        -0.12811

 Excited State  52:      Singlet-A'    14.5703 eV   85.09 nm  f=0.0167  <S**2>=0.000
       7 -> 15         0.51605
       7 -> 16         0.16719
       8 -> 17        -0.10814
      10 -> 22         0.32543
      12 -> 26         0.22818

 Excited State  53:      Singlet-A'    14.6912 eV   84.39 nm  f=0.0293  <S**2>=0.000
      11 -> 23        -0.22016
      12 -> 26         0.22018
      13 -> 27         0.59582

 Excited State  54:      Singlet-A'    14.7569 eV   84.02 nm  f=0.0033  <S**2>=0.000
       7 -> 15         0.14145
       7 -> 16        -0.26190
       8 -> 17         0.16394
       9 -> 18         0.23712
       9 -> 19         0.15784
      10 -> 22        -0.31599
      12 -> 26         0.37845
      13 -> 27        -0.18681

 Excited State  55:      Singlet-A"    14.7779 eV   83.90 nm  f=0.0007  <S**2>=0.000
       8 -> 15        -0.13371
       8 -> 16         0.37950
      10 -> 23         0.54005
      11 -> 24        -0.14330

 Excited State  56:      Singlet-A"    14.8183 eV   83.67 nm  f=0.0000  <S**2>=0.000
       8 -> 15        -0.22469
       8 -> 16         0.47846
      10 -> 23        -0.34706
      11 -> 24         0.13794
      12 -> 27         0.13741
      13 -> 26         0.14499

 Excited State  57:      Singlet-A'    14.8610 eV   83.43 nm  f=0.0807  <S**2>=0.000
       7 -> 15        -0.14355
       7 -> 16         0.48224
       9 -> 18         0.10902
       9 -> 19        -0.17422
      10 -> 22        -0.15327
      11 -> 23        -0.29618
      12 -> 26         0.12113
      13 -> 27        -0.19173

 Excited State  58:      Singlet-A"    14.8806 eV   83.32 nm  f=0.0002  <S**2>=0.000
       9 -> 20        -0.12533
      11 -> 24        -0.19134
      12 -> 27         0.64635

 Excited State  59:      Singlet-A'    14.9600 eV   82.88 nm  f=0.0068  <S**2>=0.000
       9 -> 18        -0.13140
       9 -> 19         0.52686
      10 -> 24        -0.12892
      11 -> 23        -0.33470
      11 -> 25         0.10988
      12 -> 26        -0.16088

 Excited State  60:      Singlet-A"    14.9707 eV   82.82 nm  f=0.0100  <S**2>=0.000
       9 -> 20        -0.39769
      10 -> 23         0.14409
      10 -> 25        -0.20235
      11 -> 24         0.48051
      13 -> 28        -0.10384

 Excited State  61:      Singlet-A"    15.0089 eV   82.61 nm  f=0.0018  <S**2>=0.000
       9 -> 20         0.56027
      10 -> 23         0.11237
      10 -> 25        -0.14379
      11 -> 24         0.31670
      12 -> 27         0.17444

 Excited State  62:      Singlet-A"    15.0955 eV   82.13 nm  f=0.0148  <S**2>=0.000
       7 -> 17         0.62930
      13 -> 28         0.26449

 Excited State  63:      Singlet-A'    15.1618 eV   81.77 nm  f=0.1549  <S**2>=0.000
       7 -> 16        -0.13215
       8 -> 17         0.12280
      10 -> 24         0.50636
      11 -> 21         0.10276
      11 -> 23        -0.24211
      11 -> 25        -0.29001

 Excited State  64:      Singlet-A'    15.1713 eV   81.72 nm  f=0.0813  <S**2>=0.000
       7 -> 16        -0.19617
       9 -> 19        -0.19810
      10 -> 24         0.12771
      11 -> 23        -0.17150
      11 -> 25         0.55946

 Excited State  65:      Singlet-A"    15.2621 eV   81.24 nm  f=0.0166  <S**2>=0.000
       7 -> 17        -0.25952
       8 -> 16        -0.13734
      13 -> 26         0.14501
      13 -> 28         0.58877

 Excited State  66:      Singlet-A'    15.2732 eV   81.18 nm  f=0.0385  <S**2>=0.000
       7 -> 16         0.15300
       7 -> 18         0.14396
       8 -> 17         0.55844
       9 -> 21        -0.25872
      11 -> 23         0.15536
      12 -> 28         0.11042

 Excited State  67:      Singlet-A'    15.3566 eV   80.74 nm  f=0.0811  <S**2>=0.000
       7 -> 16         0.22124
       9 -> 19         0.22642
       9 -> 21         0.25700
      10 -> 24         0.35220
      11 -> 23         0.28290
      11 -> 25         0.22554
      12 -> 25         0.10875
      12 -> 29         0.12147

 Excited State  68:      Singlet-A"    15.4307 eV   80.35 nm  f=0.0676  <S**2>=0.000
       8 -> 18         0.15865
      10 -> 23         0.12336
      10 -> 25         0.62139
      11 -> 24         0.18208

 Excited State  69:      Singlet-A'    15.4691 eV   80.15 nm  f=0.0108  <S**2>=0.000
       9 -> 19        -0.10533
      12 -> 26         0.16611
      12 -> 28         0.64113

 Excited State  70:      Singlet-A"    15.7416 eV   78.76 nm  f=0.0926  <S**2>=0.000
       8 -> 16         0.12042
       8 -> 18         0.65180

 Excited State  71:      Singlet-A'    15.7852 eV   78.54 nm  f=0.0333  <S**2>=0.000
       7 -> 18         0.33707
       8 -> 17         0.14285
       9 -> 21         0.49251
      10 -> 24        -0.16639
      12 -> 29        -0.21319

 Excited State  72:      Singlet-A"    15.8684 eV   78.13 nm  f=0.1107  <S**2>=0.000
      13 -> 28        -0.10064
      13 -> 29         0.67233

 Excited State  73:      Singlet-A"    15.9579 eV   77.69 nm  f=0.0234  <S**2>=0.000
       9 -> 22         0.69128

 Excited State  74:      Singlet-A'    15.9771 eV   77.60 nm  f=0.0093  <S**2>=0.000
       7 -> 18         0.46274
       7 -> 19        -0.18405
       8 -> 17        -0.20765
       8 -> 20         0.17400
       9 -> 21        -0.25279
       9 -> 23         0.13291
      11 -> 26        -0.17088
      12 -> 29        -0.13111

 Excited State  75:      Singlet-A'    16.1696 eV   76.68 nm  f=0.0028  <S**2>=0.000
       7 -> 18         0.24485
       8 -> 20        -0.33715
      11 -> 26         0.42125
      12 -> 29         0.20418
      13 -> 30         0.26661

 Excited State  76:      Singlet-A"    16.1702 eV   76.67 nm  f=0.0021  <S**2>=0.000
       7 -> 20        -0.27782
       8 -> 19        -0.39172
      10 -> 26         0.43005
      11 -> 27         0.21166
      12 -> 30        -0.10278

 Excited State  77:      Singlet-A'    16.2541 eV   76.28 nm  f=0.1271  <S**2>=0.000
       7 -> 19         0.33957
       8 -> 20         0.28386
       9 -> 21        -0.13425
       9 -> 23        -0.25550
      11 -> 26         0.32413
      12 -> 29        -0.22615
      13 -> 30        -0.16207

 Excited State  78:      Singlet-A"    16.2713 eV   76.20 nm  f=0.0731  <S**2>=0.000
       7 -> 20        -0.40452
       8 -> 19         0.19968
       9 -> 24        -0.18472
      10 -> 26        -0.24135
      11 -> 27         0.40865
      13 -> 31        -0.10202

 Excited State  79:      Singlet-A'    16.2795 eV   76.16 nm  f=0.1057  <S**2>=0.000
       7 -> 18        -0.10654
       7 -> 19         0.30818
       9 -> 23         0.16668
      11 -> 26        -0.10425
      12 -> 29        -0.22386
      13 -> 30         0.52779

 Excited State  80:      Singlet-A"    16.2999 eV   76.06 nm  f=0.0001  <S**2>=0.000
       7 -> 20         0.26969
       8 -> 19         0.36744
      10 -> 26         0.37688
      11 -> 27         0.30422
      13 -> 31         0.10093

 Excited State  81:      Singlet-A"    16.3663 eV   75.76 nm  f=0.0044  <S**2>=0.000
       7 -> 20         0.37841
       8 -> 19        -0.30658
      10 -> 26        -0.26177
      11 -> 27         0.40573

 Excited State  82:      Singlet-A'    16.3979 eV   75.61 nm  f=0.0387  <S**2>=0.000
       8 -> 20         0.47657
       9 -> 23         0.18239
       9 -> 25        -0.10561
      11 -> 26         0.14617
      12 -> 29         0.36964
      13 -> 30         0.14204

 Excited State  83:      Singlet-A'    16.4463 eV   75.39 nm  f=0.0746  <S**2>=0.000
       7 -> 18        -0.13446
       7 -> 19        -0.19753
       9 -> 23         0.28595
      10 -> 24         0.11577
      10 -> 27         0.44411
      11 -> 26         0.28887
      12 -> 29        -0.13302
      12 -> 31         0.10392

 Excited State  84:      Singlet-A'    16.4825 eV   75.22 nm  f=0.1356  <S**2>=0.000
       9 -> 23        -0.37789
       9 -> 25        -0.20421
      10 -> 27         0.43681
      11 -> 26        -0.14224
      12 -> 29         0.15167
      13 -> 30         0.18736

 Excited State  85:      Singlet-A"    16.4959 eV   75.16 nm  f=0.0109  <S**2>=0.000
       7 -> 20        -0.10513
       8 -> 21        -0.12880
      12 -> 30         0.15660
      13 -> 31         0.64399

 Excited State  86:      Singlet-A'    16.5149 eV   75.07 nm  f=0.1392  <S**2>=0.000
       7 -> 18         0.14727
       7 -> 19         0.39644
       8 -> 20        -0.11459
       9 -> 23         0.28020
      10 -> 27         0.22989
      11 -> 26        -0.14409
      12 -> 29         0.19706
      12 -> 31        -0.11385
      13 -> 30        -0.20297

 Excited State  87:      Singlet-A"    16.5464 eV   74.93 nm  f=0.0329  <S**2>=0.000
       8 -> 19        -0.15770
       8 -> 21         0.14976
       9 -> 24        -0.23726
      12 -> 30         0.59644
      13 -> 31        -0.14452

 Excited State  88:      Singlet-A"    16.6414 eV   74.50 nm  f=0.0302  <S**2>=0.000
       8 -> 21        -0.17792
       9 -> 24         0.57845
      12 -> 30         0.30097

 Excited State  89:      Singlet-A'    16.8127 eV   73.74 nm  f=0.1139  <S**2>=0.000
       7 -> 19         0.11803
      11 -> 28        -0.14791
      12 -> 29         0.10268
      12 -> 31         0.62364

 Excited State  90:      Singlet-A"    16.8207 eV   73.71 nm  f=0.0884  <S**2>=0.000
       8 -> 21         0.62750
       9 -> 24         0.17537
      10 -> 26        -0.14439
      13 -> 31         0.12139

 Excited State  91:      Singlet-A'    16.8440 eV   73.61 nm  f=0.0092  <S**2>=0.000
       7 -> 21         0.67123
       9 -> 25         0.10939
      12 -> 31        -0.10889

 Excited State  92:      Singlet-A'    16.9929 eV   72.96 nm  f=0.1421  <S**2>=0.000
       6 -> 14         0.30642
       9 -> 25         0.50273
      11 -> 28         0.31524

 Excited State  93:      Singlet-A'    17.0489 eV   72.72 nm  f=0.0852  <S**2>=0.000
       7 -> 21         0.11824
       7 -> 23         0.13055
       9 -> 25        -0.28569
      11 -> 28         0.57278

 Excited State  94:      Singlet-A"    17.1181 eV   72.43 nm  f=0.0322  <S**2>=0.000
      10 -> 28         0.65347
      13 -> 33        -0.15955

 Excited State  95:      Singlet-A'    17.2068 eV   72.06 nm  f=0.0161  <S**2>=0.000
       6 -> 14        -0.35139
       8 -> 22         0.57861

 Excited State  96:      Singlet-A"    17.2501 eV   71.87 nm  f=0.0025  <S**2>=0.000
       7 -> 22         0.69402

 The electronic state is 1-A'.
 Alpha  occ. eigenvalues --  -24.76245 -10.30957 -10.23540  -1.20399  -0.78415
 Alpha  occ. eigenvalues --   -0.64660  -0.51800  -0.51612  -0.47292  -0.41475
 Alpha  occ. eigenvalues --   -0.40955  -0.35748  -0.34773
 Alpha virt. eigenvalues --    0.03027   0.06010   0.08481   0.08880   0.11102
 Alpha virt. eigenvalues --    0.13050   0.13056   0.14964   0.16090   0.18022
 Alpha virt. eigenvalues --    0.18970   0.20166   0.23213   0.24013   0.27220

 Mulliken charges:
               1
     1  C    0.032940
     2  C    0.456333
     3  F   -0.500198
     4  H    0.058934
     5  H    0.050478
     6  H    0.050478
     7  H   -0.074482
     8  H   -0.074482
 Sum of Mulliken charges =   0.00000

 Dipole moment (field-independent basis, Debye):
    X=             -1.8401    Y=              0.7225    Z=              0.0000  Tot=              1.9768
 Quadrupole moment (field-independent basis, Debye-Ang):
   XX=            -20.9449   YY=            -18.2691   ZZ=            -18.2747
   XY=              0.3054   XZ=              0.0000   YZ=             -0.0000

 1\1\GINC-HEL25\SP\RPBE1PBE TD-FC\Gen\C2H5F1\SABYASACHI\21-Mar-2022\0\\
 #P TD(Nstates=10000) pbe1pbe/Gen SCF(maxcycles=100) Int(Grid=ultrafine
 )\\xGDB7_00001_tier4.com\\0,1\C,0,-1.122844,-0.45232,0.\C,0,0.,0.55399
 7,0.\F,0,1.225284,-0.098236,0.\H,0,-2.083314,0.066805,0.\H,0,-1.072796
 ,-1.085651,0.886148\H,0,-1.072796,-1.085651,-0.886148\H,0,-0.030794,1.
 189278,0.888716\H,0,-0.030794,1.189278,-0.888716\\Version=EM64L-G16Rev
 C.01\State=1-A'\HF=-178.743916\RMSD=5.355e-09\PG=CS [SG(C2H1F1),X(H4)]
 \\@

 Normal termination of Gaussian 16 at Mon Mar 21 20:13:51 2022.
