 Gaussian 16, Revision C.01,
 Gaussian 16:  EM64L-G16RevC.01  3-Jul-2019

 ----------------------------------------------------------------------
 #P TD(Nstates=10000) pbe1pbe/Gen SCF(maxcycles=100) Int(Grid=ultrafine
 )
 ----------------------------------------------------------------------

 ---------------------
 xGDB7_00001_tier4.com
 ---------------------
 Symbolic Z-matrix:
 Charge =  0 Multiplicity = 1

                         Standard orientation:
 ---------------------------------------------------------------------
 Center     Atomic      Atomic             Coordinates (Angstroms)
 Number     Number       Type             X           Y           Z
 ---------------------------------------------------------------------
      1          9           0        0.000000    0.000000    0.688193
      2          9           0        0.000000    0.000000   -0.688193
 ---------------------------------------------------------------------

 SCF Done:  E(RPBE1PBE) =  -199.170309433     A.U. after    9 cycles

 Excitation energies and oscillator strengths:

 Excited state symmetry could not be determined.
 Excited State   1:      Singlet-?Sym    4.8783 eV  254.16 nm  f=0.0001  <S**2>=0.000
       8 -> 10         0.17449
       9 -> 10         0.68583
 This state for optimization and/or second-order correction.
 Total Energy, E(TD-HF/TD-DFT) =  -198.991036297
 Copying the excited state density for this state as the 1-particle RhoCI density.

 Excited state symmetry could not be determined.
 Excited State   2:      Singlet-?Sym    4.8783 eV  254.16 nm  f=0.0001  <S**2>=0.000
       8 -> 10         0.68583
       9 -> 10        -0.17449

 Excited state symmetry could not be determined.
 Excited State   3:      Singlet-?Sym    8.7935 eV  140.99 nm  f=0.0000  <S**2>=0.000
       7 -> 10         0.70337

 Excited state symmetry could not be determined.
 Excited State   4:      Singlet-?Sym    8.7935 eV  140.99 nm  f=0.0000  <S**2>=0.000
       6 -> 10         0.70337

 Excited state symmetry could not be determined.
 Excited State   5:      Singlet-?Sym   13.0643 eV   94.90 nm  f=0.0000  <S**2>=0.000
       9 -> 12         0.70110

 Excited state symmetry could not be determined.
 Excited State   6:      Singlet-?Sym   13.0643 eV   94.90 nm  f=0.0000  <S**2>=0.000
       8 -> 12         0.70110

 Excited state symmetry could not be determined.
 Excited State   7:      Singlet-?Sym   13.3450 eV   92.91 nm  f=0.0295  <S**2>=0.000
       8 -> 11         0.69241
       9 -> 11         0.11977

 Excited state symmetry could not be determined.
 Excited State   8:      Singlet-?Sym   13.3450 eV   92.91 nm  f=0.0295  <S**2>=0.000
       8 -> 11        -0.11977
       9 -> 11         0.69241

 Excited State   9:      Singlet-SGU   13.4839 eV   91.95 nm  f=0.4025  <S**2>=0.000
       5 -> 10         0.46842
       8 -> 14        -0.37115
       9 -> 13        -0.37115

 Excited state symmetry could not be determined.
 Excited State  10:      Singlet-?Sym   14.2008 eV   87.31 nm  f=0.0000  <S**2>=0.000
       8 -> 14        -0.49927
       9 -> 13         0.49927

 Excited state symmetry could not be determined.
 Excited State  11:      Singlet-?Sym   14.2008 eV   87.31 nm  f=0.0000  <S**2>=0.000
       8 -> 13         0.49927
       9 -> 14         0.49927

 Excited state symmetry could not be determined.
 Excited State  12:      Singlet-?Sym   14.2238 eV   87.17 nm  f=0.0000  <S**2>=0.000
       8 -> 13         0.49932
       9 -> 14        -0.49932

 Excited state symmetry could not be determined.
 Excited State  13:      Singlet-?Sym   15.9746 eV   77.61 nm  f=0.0000  <S**2>=0.000
       7 -> 11        -0.10381
       8 -> 17         0.69476

 Excited state symmetry could not be determined.
 Excited State  14:      Singlet-?Sym   15.9746 eV   77.61 nm  f=0.0000  <S**2>=0.000
       6 -> 11        -0.10381
       9 -> 17         0.69476

 Excited state symmetry could not be determined.
 Excited State  15:      Singlet-?Sym   16.0629 eV   77.19 nm  f=0.0000  <S**2>=0.000
       8 -> 16        -0.49523
       9 -> 15         0.49523

 Excited state symmetry could not be determined.
 Excited State  16:      Singlet-?Sym   16.0629 eV   77.19 nm  f=0.0000  <S**2>=0.000
       8 -> 15         0.49523
       9 -> 16         0.49523

 Excited state symmetry could not be determined.
 Excited State  17:      Singlet-?Sym   16.1150 eV   76.94 nm  f=0.0000  <S**2>=0.000
       8 -> 15         0.49528
       9 -> 16        -0.49528

 Excited State  18:      Singlet-SGU   16.1374 eV   76.83 nm  f=0.2923  <S**2>=0.000
       5 -> 10         0.48355
       5 -> 11         0.19839
       8 -> 14         0.32368
       9 -> 13         0.32368

 Excited state symmetry could not be determined.
 Excited State  19:      Singlet-?Sym   16.5384 eV   74.97 nm  f=0.0000  <S**2>=0.000
       8 -> 16         0.49114
       9 -> 15         0.49114

 Excited state symmetry could not be determined.
 Excited State  20:      Singlet-?Sym   17.0873 eV   72.56 nm  f=0.1076  <S**2>=0.000
       6 -> 12        -0.46913
       7 -> 12         0.52260

 Excited state symmetry could not be determined.
 Excited State  21:      Singlet-?Sym   17.0873 eV   72.56 nm  f=0.1076  <S**2>=0.000
       6 -> 12         0.52260
       7 -> 12         0.46913

 Excited state symmetry could not be determined.
 Excited State  22:      Singlet-?Sym   17.3454 eV   71.48 nm  f=0.0000  <S**2>=0.000
       7 -> 11         0.69094

 Excited state symmetry could not be determined.
 Excited State  23:      Singlet-?Sym   17.3454 eV   71.48 nm  f=0.0000  <S**2>=0.000
       6 -> 11         0.69094

 Excited state symmetry could not be determined.
 Excited State  24:      Singlet-?Sym   18.1211 eV   68.42 nm  f=0.0000  <S**2>=0.000
       6 -> 14         0.49528
       7 -> 13         0.49528

 Excited state symmetry could not be determined.
 Excited State  25:      Singlet-?Sym   18.1211 eV   68.42 nm  f=0.0000  <S**2>=0.000
       6 -> 13         0.49528
       7 -> 14        -0.49528

 Excited state symmetry could not be determined.
 Excited State  26:      Singlet-?Sym   18.1639 eV   68.26 nm  f=0.0000  <S**2>=0.000
       6 -> 14        -0.49531
       7 -> 13         0.49531

 Excited State  27:      Singlet-SGG   18.4891 eV   67.06 nm  f=0.0000  <S**2>=0.000
       5 -> 12         0.52655
       6 -> 13        -0.33073
       7 -> 14        -0.33073

 Excited State  28:      Singlet-SGG   19.2707 eV   64.34 nm  f=0.0000  <S**2>=0.000
       5 -> 12         0.45785
       5 -> 17        -0.11799
       6 -> 13         0.36005
       7 -> 14         0.36005

 Excited State  29:      Singlet-SGU   19.3381 eV   64.11 nm  f=0.0086  <S**2>=0.000
       5 -> 10        -0.10056
       5 -> 11         0.62692
       6 -> 15         0.20635
       7 -> 16         0.20635

 Excited state symmetry could not be determined.
 Excited State  30:      Singlet-?Sym   19.7661 eV   62.73 nm  f=0.0113  <S**2>=0.000
       5 -> 13        -0.47215
       5 -> 14         0.51963

 Excited state symmetry could not be determined.
 Excited State  31:      Singlet-?Sym   19.7661 eV   62.73 nm  f=0.0113  <S**2>=0.000
       5 -> 13         0.51963
       5 -> 14         0.47215

 Excited state symmetry could not be determined.
 Excited State  32:      Singlet-?Sym   19.9800 eV   62.05 nm  f=0.0637  <S**2>=0.000
       6 -> 17         0.50005
       7 -> 17        -0.48847

 Excited state symmetry could not be determined.
 Excited State  33:      Singlet-?Sym   19.9800 eV   62.05 nm  f=0.0637  <S**2>=0.000
       6 -> 17         0.48847
       7 -> 17         0.50005

 Excited state symmetry could not be determined.
 Excited State  34:      Singlet-?Sym   20.0212 eV   61.93 nm  f=0.0000  <S**2>=0.000
       6 -> 15         0.49914
       7 -> 16        -0.49914

 Excited state symmetry could not be determined.
 Excited State  35:      Singlet-?Sym   20.0212 eV   61.93 nm  f=0.0000  <S**2>=0.000
       6 -> 16         0.49914
       7 -> 15         0.49914

 Excited state symmetry could not be determined.
 Excited State  36:      Singlet-?Sym   20.0613 eV   61.80 nm  f=0.0000  <S**2>=0.000
       6 -> 16        -0.49925
       7 -> 15         0.49925

 Excited state symmetry could not be determined.
 Excited State  37:      Singlet-?Sym   20.5577 eV   60.31 nm  f=0.0054  <S**2>=0.000
       5 -> 10         0.15332
       5 -> 11        -0.24802
       6 -> 15         0.44482
       7 -> 16         0.44482

 Excited state symmetry could not be determined.
 Excited State  38:      Singlet-?Sym   21.4177 eV   57.89 nm  f=0.0655  <S**2>=0.000
       8 -> 18         0.70380

 Excited state symmetry could not be determined.
 Excited State  39:      Singlet-?Sym   21.4177 eV   57.89 nm  f=0.0655  <S**2>=0.000
       9 -> 18         0.70380

 Excited state symmetry could not be determined.
 Excited State  40:      Singlet-?Sym   21.6325 eV   57.31 nm  f=0.0000  <S**2>=0.000
       5 -> 15         0.55614
       5 -> 16         0.43602

 Excited state symmetry could not be determined.
 Excited State  41:      Singlet-?Sym   21.6325 eV   57.31 nm  f=0.0000  <S**2>=0.000
       5 -> 15        -0.43602
       5 -> 16         0.55614

 Excited State  42:      Singlet-SGG   21.6458 eV   57.28 nm  f=0.0000  <S**2>=0.000
       5 -> 17         0.69220

 Excited state symmetry could not be determined.
 Excited State  43:      Singlet-?Sym   22.8436 eV   54.28 nm  f=0.0000  <S**2>=0.000
       8 -> 19         0.49866
       9 -> 20         0.49865

 Excited state symmetry could not be determined.
 Excited State  44:      Singlet-?Sym   22.8436 eV   54.28 nm  f=0.0000  <S**2>=0.000
       8 -> 20        -0.49865
       9 -> 19         0.49866

 Excited state symmetry could not be determined.
 Excited State  45:      Singlet-?Sym   23.2422 eV   53.34 nm  f=0.0000  <S**2>=0.000
       8 -> 19        -0.30195
       8 -> 20         0.39778
       9 -> 19         0.39777
       9 -> 20         0.30196

 Excited state symmetry could not be determined.
 Excited State  46:      Singlet-?Sym   23.2422 eV   53.34 nm  f=0.0000  <S**2>=0.000
       8 -> 19        -0.39777
       8 -> 20        -0.30196
       9 -> 19        -0.30195
       9 -> 20         0.39778

 Excited state symmetry could not be determined.
 Excited State  47:      Singlet-?Sym   25.2760 eV   49.05 nm  f=0.0000  <S**2>=0.000
       6 -> 18         0.47339
       7 -> 18         0.52333

 Excited state symmetry could not be determined.
 Excited State  48:      Singlet-?Sym   25.2760 eV   49.05 nm  f=0.0000  <S**2>=0.000
       6 -> 18         0.52333
       7 -> 18        -0.47339

 Excited State  49:      Singlet-SGG   25.3758 eV   48.86 nm  f=0.0000  <S**2>=0.000
       4 -> 10         0.68309

 Excited state symmetry could not be determined.
 Excited State  50:      Singlet-?Sym   26.6049 eV   46.60 nm  f=0.0000  <S**2>=0.000
       6 -> 19         0.48309
       7 -> 20        -0.48309

 Excited state symmetry could not be determined.
 Excited State  51:      Singlet-?Sym   26.6049 eV   46.60 nm  f=0.0000  <S**2>=0.000
       6 -> 20         0.48309
       7 -> 19         0.48309

 Excited state symmetry could not be determined.
 Excited State  52:      Singlet-?Sym   26.9089 eV   46.08 nm  f=0.0000  <S**2>=0.000
       8 -> 22        -0.49911
       9 -> 21         0.49911

 Excited state symmetry could not be determined.
 Excited State  53:      Singlet-?Sym   26.9089 eV   46.08 nm  f=0.0000  <S**2>=0.000
       8 -> 21         0.49911
       9 -> 22         0.49911

 Excited State  54:      Singlet-SGU   26.9452 eV   46.01 nm  f=0.2041  <S**2>=0.000
       5 -> 18         0.65269
       8 -> 22         0.19031
       9 -> 21         0.19031

 Excited state symmetry could not be determined.
 Excited State  55:      Singlet-?Sym   27.0441 eV   45.85 nm  f=0.0000  <S**2>=0.000
       8 -> 21         0.49945
       9 -> 22        -0.49945

 Excited state symmetry could not be determined.
 Excited State  56:      Singlet-?Sym   27.5931 eV   44.93 nm  f=0.3796  <S**2>=0.000
       6 -> 19         0.48658
       7 -> 20         0.48658

 Excited state symmetry could not be determined.
 Excited State  57:      Singlet-?Sym   27.5931 eV   44.93 nm  f=0.3796  <S**2>=0.000
       6 -> 20         0.48658
       7 -> 19        -0.48658

 Excited state symmetry could not be determined.
 Excited State  58:      Singlet-?Sym   28.5055 eV   43.49 nm  f=0.0000  <S**2>=0.000
       5 -> 19         0.70627

 Excited state symmetry could not be determined.
 Excited State  59:      Singlet-?Sym   28.5055 eV   43.49 nm  f=0.0000  <S**2>=0.000
       5 -> 20         0.70627

 Excited state symmetry could not be determined.
 Excited State  60:      Singlet-?Sym   28.5924 eV   43.36 nm  f=1.0179  <S**2>=0.000
       4 -> 12        -0.12633
       5 -> 10        -0.12484
       5 -> 18        -0.25869
       8 -> 22         0.44082
       9 -> 21         0.44082

 Excited state symmetry could not be determined.
 Excited State  61:      Singlet-?Sym   29.0151 eV   42.73 nm  f=0.0190  <S**2>=0.000
       8 -> 23         0.63758
       9 -> 23        -0.24921

 Excited state symmetry could not be determined.
 Excited State  62:      Singlet-?Sym   29.0151 eV   42.73 nm  f=0.0190  <S**2>=0.000
       8 -> 23         0.24921
       9 -> 23         0.63758

 Excited state symmetry could not be determined.
 Excited State  63:      Singlet-?Sym   29.0772 eV   42.64 nm  f=0.0000  <S**2>=0.000
       8 -> 24         0.25879
       8 -> 25         0.41624
       9 -> 24         0.41625
       9 -> 25        -0.25878

 Excited state symmetry could not be determined.
 Excited State  64:      Singlet-?Sym   29.0772 eV   42.64 nm  f=0.0000  <S**2>=0.000
       8 -> 24         0.41625
       8 -> 25        -0.25878
       9 -> 24        -0.25879
       9 -> 25        -0.41624

 Excited state symmetry could not be determined.
 Excited State  65:      Singlet-?Sym   29.6139 eV   41.87 nm  f=0.4894  <S**2>=0.000
       5 -> 22         0.11167
       8 -> 23         0.12579
       8 -> 24         0.19548
       8 -> 25         0.43724
       9 -> 24        -0.43723
       9 -> 25         0.19548

 Excited state symmetry could not be determined.
 Excited State  66:      Singlet-?Sym   29.6139 eV   41.87 nm  f=0.4894  <S**2>=0.000
       5 -> 21        -0.11167
       8 -> 24         0.43723
       8 -> 25        -0.19548
       9 -> 23        -0.12579
       9 -> 24         0.19548
       9 -> 25         0.43724

 Excited state symmetry could not be determined.
 Excited State  67:      Singlet-?Sym   30.5374 eV   40.60 nm  f=0.0000  <S**2>=0.000
       6 -> 21         0.41179
       7 -> 22        -0.41179
       8 -> 28         0.28247
       9 -> 27        -0.28247

 Excited state symmetry could not be determined.
 Excited State  68:      Singlet-?Sym   30.5374 eV   40.60 nm  f=0.0000  <S**2>=0.000
       6 -> 22         0.41179
       7 -> 21         0.41179
       8 -> 27        -0.28247
       9 -> 28        -0.28247

 Excited state symmetry could not be determined.
 Excited State  69:      Singlet-?Sym   30.7343 eV   40.34 nm  f=0.0000  <S**2>=0.000
       6 -> 22        -0.41072
       7 -> 21         0.41072
       8 -> 27        -0.28496
       9 -> 28         0.28496

 Excited state symmetry could not be determined.
 Excited State  70:      Singlet-?Sym   30.9989 eV   40.00 nm  f=0.0000  <S**2>=0.000
       6 -> 23         0.17529
       8 -> 26         0.24288
       9 -> 26         0.63388

 Excited state symmetry could not be determined.
 Excited State  71:      Singlet-?Sym   30.9989 eV   40.00 nm  f=0.0000  <S**2>=0.000
       7 -> 23         0.17529
       8 -> 26         0.63388
       9 -> 26        -0.24288

 Excited state symmetry could not be determined.
 Excited State  72:      Singlet-?Sym   31.3760 eV   39.52 nm  f=0.0000  <S**2>=0.000
       6 -> 22         0.28277
       7 -> 21         0.28277
       8 -> 27         0.41171
       9 -> 28         0.41171

 Excited state symmetry could not be determined.
 Excited State  73:      Singlet-?Sym   31.3760 eV   39.52 nm  f=0.0000  <S**2>=0.000
       6 -> 21         0.28277
       7 -> 22        -0.28277
       8 -> 28        -0.41171
       9 -> 27         0.41171

 Excited state symmetry could not be determined.
 Excited State  74:      Singlet-?Sym   31.3891 eV   39.50 nm  f=0.0000  <S**2>=0.000
       6 -> 22        -0.28482
       7 -> 21         0.28482
       8 -> 27         0.41015
       9 -> 28        -0.41015

 Excited state symmetry could not be determined.
 Excited State  75:      Singlet-?Sym   31.5554 eV   39.29 nm  f=0.0000  <S**2>=0.000
       4 -> 10         0.10631
       4 -> 11         0.37785
       6 -> 21         0.41101
       7 -> 22         0.41101

 Excited State  76:      Singlet-SGU   31.9996 eV   38.75 nm  f=0.0295  <S**2>=0.000
       3 -> 10         0.15690
       4 -> 12         0.67466

 Excited state symmetry could not be determined.
 Excited State  77:      Singlet-?Sym   32.2797 eV   38.41 nm  f=0.0000  <S**2>=0.000
       4 -> 11         0.37316
       5 -> 26         0.11928
       6 -> 21        -0.11154
       7 -> 22        -0.11154
       8 -> 28         0.39238
       9 -> 27         0.39238

 Excited State  78:      Singlet-SGG   32.4275 eV   38.23 nm  f=0.0000  <S**2>=0.000
       4 -> 11         0.46541
       6 -> 21        -0.24435
       7 -> 22        -0.24435
       8 -> 28        -0.28087
       9 -> 27        -0.28087

 Excited State  79:      Singlet-SGU   32.8065 eV   37.79 nm  f=0.0644  <S**2>=0.000
       3 -> 10         0.63924
       4 -> 12        -0.12737
       5 -> 23        -0.13581
       6 -> 27         0.15108
       7 -> 28         0.15108

 Excited state symmetry could not be determined.
 Excited State  80:      Singlet-?Sym   32.8407 eV   37.75 nm  f=0.0000  <S**2>=0.000
       4 -> 13         0.51420
       4 -> 14         0.37748
       6 -> 24        -0.12346
       6 -> 25        -0.16819
       7 -> 24        -0.16818
       7 -> 25         0.12347

 Excited state symmetry could not be determined.
 Excited State  81:      Singlet-?Sym   32.8407 eV   37.75 nm  f=0.0000  <S**2>=0.000
       4 -> 13        -0.37748
       4 -> 14         0.51420
       6 -> 24        -0.16818
       6 -> 25         0.12347
       7 -> 24         0.12346
       7 -> 25         0.16819

 Excited state symmetry could not be determined.
 Excited State  82:      Singlet-?Sym   32.8822 eV   37.71 nm  f=0.0000  <S**2>=0.000
       6 -> 24         0.35247
       6 -> 25        -0.35363
       7 -> 24         0.35364
       7 -> 25         0.35247

 Excited state symmetry could not be determined.
 Excited State  83:      Singlet-?Sym   32.8822 eV   37.71 nm  f=0.0000  <S**2>=0.000
       6 -> 24         0.35364
       6 -> 25         0.35247
       7 -> 24        -0.35247
       7 -> 25         0.35363

 Excited state symmetry could not be determined.
 Excited State  84:      Singlet-?Sym   32.9946 eV   37.58 nm  f=0.4269  <S**2>=0.000
       5 -> 21         0.66876
       5 -> 22        -0.12939

 Excited state symmetry could not be determined.
 Excited State  85:      Singlet-?Sym   32.9946 eV   37.58 nm  f=0.4269  <S**2>=0.000
       5 -> 21         0.12939
       5 -> 22         0.66876

 Excited state symmetry could not be determined.
 Excited State  86:      Singlet-?Sym   33.1203 eV   37.43 nm  f=0.0000  <S**2>=0.000
       6 -> 23        -0.20262
       7 -> 23         0.64741
       8 -> 26        -0.17745

 Excited state symmetry could not be determined.
 Excited State  87:      Singlet-?Sym   33.1203 eV   37.43 nm  f=0.0000  <S**2>=0.000
       6 -> 23         0.64741
       7 -> 23         0.20262
       9 -> 26        -0.17745

 Excited state symmetry could not be determined.
 Excited State  88:      Singlet-?Sym   33.3842 eV   37.14 nm  f=0.0000  <S**2>=0.000
       4 -> 13         0.18100
       4 -> 14        -0.22955
       6 -> 24        -0.35529
       6 -> 25         0.28014
       7 -> 24         0.28014
       7 -> 25         0.35529

 Excited state symmetry could not be determined.
 Excited State  89:      Singlet-?Sym   33.3842 eV   37.14 nm  f=0.0000  <S**2>=0.000
       4 -> 13         0.22955
       4 -> 14         0.18100
       6 -> 24         0.28014
       6 -> 25         0.35529
       7 -> 24         0.35529
       7 -> 25        -0.28014

 Excited State  90:      Singlet-SGU   34.3712 eV   36.07 nm  f=0.0470  <S**2>=0.000
       4 -> 17        -0.44198
       5 -> 23         0.52312
       6 -> 27         0.11257
       7 -> 28         0.11257

 Excited state symmetry could not be determined.
 Excited State  91:      Singlet-?Sym   34.5803 eV   35.85 nm  f=0.0000  <S**2>=0.000
       5 -> 24         0.69268

 Excited state symmetry could not be determined.
 Excited State  92:      Singlet-?Sym   34.5803 eV   35.85 nm  f=0.0000  <S**2>=0.000
       5 -> 25         0.69268

 Excited State  93:      Singlet-SGU   34.7813 eV   35.65 nm  f=0.0010  <S**2>=0.000
       4 -> 17         0.53723
       5 -> 23         0.37941
       6 -> 27         0.17792
       7 -> 28         0.17792

 Excited state symmetry could not be determined.
 Excited State  94:      Singlet-?Sym   34.7919 eV   35.64 nm  f=0.0017  <S**2>=0.000
       4 -> 15         0.62295
       4 -> 16        -0.26230
       6 -> 26         0.17529

 Excited state symmetry could not be determined.
 Excited State  95:      Singlet-?Sym   34.7919 eV   35.64 nm  f=0.0017  <S**2>=0.000
       4 -> 15         0.26230
       4 -> 16         0.62295
       7 -> 26         0.17529

 Excited state symmetry could not be determined.
 Excited State  96:      Singlet-?Sym   35.0767 eV   35.35 nm  f=0.0000  <S**2>=0.000
       5 -> 25         0.13944
       6 -> 27         0.48854
       7 -> 28        -0.48854

 Excited state symmetry could not be determined.
 Excited State  97:      Singlet-?Sym   35.0767 eV   35.35 nm  f=0.0000  <S**2>=0.000
       5 -> 24         0.13944
       6 -> 28         0.48854
       7 -> 27         0.48854

 Excited state symmetry could not be determined.
 Excited State  98:      Singlet-?Sym   35.0946 eV   35.33 nm  f=0.0000  <S**2>=0.000
       6 -> 28        -0.49833
       7 -> 27         0.49833

 Excited state symmetry could not be determined.
 Excited State  99:      Singlet-?Sym   35.2372 eV   35.19 nm  f=0.0709  <S**2>=0.000
       4 -> 15        -0.11156
       4 -> 16        -0.13954
       6 -> 26         0.41972
       7 -> 26         0.52502

 Excited state symmetry could not be determined.
 Excited State 100:      Singlet-?Sym   35.2372 eV   35.19 nm  f=0.0709  <S**2>=0.000
       4 -> 15        -0.13954
       4 -> 16         0.11156
       6 -> 26         0.52502
       7 -> 26        -0.41972

 Excited state symmetry could not be determined.
 Excited State 101:      Singlet-?Sym   36.4339 eV   34.03 nm  f=0.0673  <S**2>=0.000
       3 -> 10        -0.21561
       4 -> 17        -0.10018
       5 -> 23        -0.23726
       6 -> 27         0.41876
       7 -> 28         0.41876
       8 -> 29         0.11099
       9 -> 30         0.11099

 Excited state symmetry could not be determined.
 Excited State 102:      Singlet-?Sym   36.6677 eV   33.81 nm  f=0.0000  <S**2>=0.000
       5 -> 27        -0.36553
       5 -> 28         0.60170

 Excited state symmetry could not be determined.
 Excited State 103:      Singlet-?Sym   36.6677 eV   33.81 nm  f=0.0000  <S**2>=0.000
       5 -> 27         0.60170
       5 -> 28         0.36553

 Excited State 104:      Singlet-SGG   37.0693 eV   33.45 nm  f=0.0000  <S**2>=0.000
       5 -> 26         0.68789

 Excited State 105:      Singlet-SGG   39.3519 eV   31.51 nm  f=0.0000  <S**2>=0.000
       3 -> 12         0.69942

 Excited State 106:      Singlet-SGU   39.6394 eV   31.28 nm  f=0.0014  <S**2>=0.000
       3 -> 11         0.70518

 Excited State 107:      Singlet-SGG   40.1970 eV   30.84 nm  f=0.0000  <S**2>=0.000
       4 -> 18         0.70213

 The electronic state is 1-SGG.
 Alpha  occ. eigenvalues --  -24.89731 -24.89717  -1.39612  -1.11804  -0.63844
 Alpha  occ. eigenvalues --   -0.57873  -0.57873  -0.43584  -0.43584
 Alpha virt. eigenvalues --   -0.13208   0.11215   0.11374   0.15320   0.15320
 Alpha virt. eigenvalues --    0.21462   0.21462   0.21907   0.41512   0.49449
 Alpha virt. eigenvalues --    0.49449   0.64689   0.64689   0.71014   0.71434

 Mulliken charges:
               1
     1  F   -0.000000
     2  F   -0.000000
 Sum of Mulliken charges =  -0.00000

 Dipole moment (field-independent basis, Debye):
    X=              0.0000    Y=              0.0000    Z=              0.0000  Tot=              0.0000
 Quadrupole moment (field-independent basis, Debye-Ang):
   XX=             -9.7620   YY=             -9.7620   ZZ=             -8.9435
   XY=              0.0000   XZ=              0.0000   YZ=              0.0000

 Normal termination of Gaussian 16 at Mon Mar 21 20:17:39 2022.
