 Gaussian 16, Revision C.01,
 Gaussian 16:  EM64L-G16RevC.01  3-Jul-2019

 ----------------------------------------------------------------------
 #P TD(Nstates=10000) pbe1pbe/Gen SCF(maxcycles=100) Int(Grid=ultrafine
 )
 ----------------------------------------------------------------------

 ---------------------
 xGDB7_00001_tier4.com
 ---------------------
 Symbolic Z-matrix:
 Charge =  0 Multiplicity = 1

                         Standard orientation:
 ---------------------------------------------------------------------
 Center     Atomic      Atomic             Coordinates (Angstroms)
 Number     Number       Type             X           Y           Z
 ---------------------------------------------------------------------
      1          7           0       -0.000002   -0.000000   -0.110463
      2          1           0       -0.147185    0.930214    0.257758
      3          1           0       -0.731998   -0.592574    0.257757
      4          1           0        0.879196   -0.337638    0.257728
 ---------------------------------------------------------------------

 SCF Done:  E(RPBE1PBE) =  -56.4533996988     A.U. after   10 cycles

 Excitation energies and oscillator strengths:

 Excited State   1:      Singlet-A      7.0030 eV  177.04 nm  f=0.0817  <S**2>=0.000
       5 ->  6         0.70599
 This state for optimization and/or second-order correction.
 Total Energy, E(TD-HF/TD-DFT) =  -56.1960424628
 Copying the excited state density for this state as the 1-particle RhoCI density.

 Excited State   2:      Singlet-A      9.1512 eV  135.48 nm  f=0.0181  <S**2>=0.000
       5 ->  7         0.70176

 Excited State   3:      Singlet-A      9.1512 eV  135.48 nm  f=0.0181  <S**2>=0.000
       5 ->  8         0.70176

 Excited State   4:      Singlet-A     10.7850 eV  114.96 nm  f=0.0004  <S**2>=0.000
       5 ->  9         0.70510

 Excited State   5:      Singlet-A     10.7850 eV  114.96 nm  f=0.0004  <S**2>=0.000
       5 -> 10         0.70510

 Excited State   6:      Singlet-A     11.6248 eV  106.65 nm  f=0.0266  <S**2>=0.000
       3 ->  7        -0.11118
       4 ->  8        -0.11119
       5 -> 11         0.68278

 Excited State   7:      Singlet-A     12.3630 eV  100.29 nm  f=0.0496  <S**2>=0.000
       4 ->  6         0.64142
       5 -> 13        -0.29281

 Excited State   8:      Singlet-A     12.3631 eV  100.29 nm  f=0.0495  <S**2>=0.000
       3 ->  6         0.64136
       5 -> 12        -0.29293

 Excited State   9:      Singlet-A     12.5648 eV   98.68 nm  f=0.2293  <S**2>=0.000
       3 ->  6         0.28574
       5 -> 12         0.62821

 Excited State  10:      Singlet-A     12.5648 eV   98.68 nm  f=0.2293  <S**2>=0.000
       4 ->  6         0.28562
       5 -> 13         0.62826

 Excited State  11:      Singlet-A     12.6040 eV   98.37 nm  f=0.1995  <S**2>=0.000
       3 ->  7         0.10019
       4 ->  8         0.10019
       5 -> 14         0.68767

 Excited State  12:      Singlet-A     14.4294 eV   85.92 nm  f=0.0000  <S**2>=0.000
       3 ->  7         0.12883
       3 ->  8        -0.48001
       4 ->  7         0.48045
       4 ->  8         0.12890

 Excited State  13:      Singlet-A     14.5228 eV   85.37 nm  f=0.0759  <S**2>=0.000
       3 ->  7        -0.19199
       3 ->  8         0.45704
       4 ->  7         0.45662
       4 ->  8         0.19188

 Excited State  14:      Singlet-A     14.5228 eV   85.37 nm  f=0.0759  <S**2>=0.000
       3 ->  7        -0.45681
       3 ->  8        -0.19199
       4 ->  7        -0.19189
       4 ->  8         0.45685

 Excited State  15:      Singlet-A     15.8150 eV   78.40 nm  f=0.0005  <S**2>=0.000
       3 ->  7         0.29910
       3 -> 10         0.10836
       4 ->  8         0.29909
       4 ->  9         0.10837
       5 -> 11         0.11193
       5 -> 14        -0.10285
       5 -> 15         0.50038

 Excited State  16:      Singlet-A     15.9536 eV   77.72 nm  f=0.0000  <S**2>=0.000
       3 ->  9        -0.49421
       4 -> 10         0.49426

 Excited State  17:      Singlet-A     16.1854 eV   76.60 nm  f=0.0583  <S**2>=0.000
       3 ->  7        -0.22753
       3 -> 10        -0.28163
       4 ->  8        -0.22752
       4 ->  9        -0.28172
       5 -> 15         0.45857

 Excited State  18:      Singlet-A     16.2202 eV   76.44 nm  f=0.0000  <S**2>=0.000
       5 -> 16         0.70131

 Excited State  19:      Singlet-A     16.3294 eV   75.93 nm  f=0.0043  <S**2>=0.000
       3 -> 10        -0.20516
       4 ->  9         0.20783
       4 -> 11         0.61320
       5 -> 17        -0.16286

 Excited State  20:      Singlet-A     16.3295 eV   75.93 nm  f=0.0044  <S**2>=0.000
       3 ->  9        -0.20652
       3 -> 11         0.61319
       4 -> 10        -0.20648
       5 -> 18         0.16290

 Excited State  21:      Singlet-A     16.3350 eV   75.90 nm  f=0.0233  <S**2>=0.000
       3 ->  7        -0.24646
       3 -> 10         0.39746
       4 ->  8        -0.24646
       4 ->  9         0.39606
       5 -> 15         0.19063

 Excited State  22:      Singlet-A     16.5346 eV   74.98 nm  f=0.1881  <S**2>=0.000
       3 -> 10         0.30469
       4 ->  9        -0.30459
       4 -> 11         0.32178
       5 -> 17         0.44167

 Excited State  23:      Singlet-A     16.5347 eV   74.98 nm  f=0.1881  <S**2>=0.000
       3 ->  9        -0.30466
       3 -> 11        -0.32181
       4 -> 10        -0.30462
       5 -> 18         0.44164

 Excited State  24:      Singlet-A     16.9599 eV   73.10 nm  f=0.1758  <S**2>=0.000
       3 -> 10        -0.30619
       4 ->  9         0.30615
       4 -> 14         0.16236
       5 -> 17         0.49934
       5 -> 18        -0.10125

 Excited State  25:      Singlet-A     16.9599 eV   73.10 nm  f=0.1758  <S**2>=0.000
       3 ->  9         0.30618
       3 -> 14        -0.16234
       4 -> 10         0.30616
       5 -> 17         0.10125
       5 -> 18         0.49935

 Excited State  26:      Singlet-A     17.7542 eV   69.83 nm  f=0.0068  <S**2>=0.000
       3 -> 12        -0.45286
       3 -> 13        -0.12194
       4 -> 12        -0.12202
       4 -> 13         0.45293
       4 -> 14         0.23674

 Excited State  27:      Singlet-A     17.7542 eV   69.83 nm  f=0.0068  <S**2>=0.000
       3 -> 12        -0.12196
       3 -> 13         0.45273
       3 -> 14        -0.23671
       4 -> 12         0.45307
       4 -> 13         0.12200

 Excited State  28:      Singlet-A     17.8878 eV   69.31 nm  f=0.0000  <S**2>=0.000
       3 -> 13         0.49671
       4 -> 12        -0.49643

 Excited State  29:      Singlet-A     17.9818 eV   68.95 nm  f=0.0953  <S**2>=0.000
       3 -> 12         0.15402
       4 -> 13        -0.15405
       4 -> 14         0.63318
       5 -> 20        -0.10758

 Excited State  30:      Singlet-A     17.9818 eV   68.95 nm  f=0.0953  <S**2>=0.000
       3 -> 13         0.15409
       3 -> 14         0.63320
       4 -> 12         0.15392
       5 -> 19        -0.10758

 Excited State  31:      Singlet-A     18.0554 eV   68.67 nm  f=0.2781  <S**2>=0.000
       3 -> 12         0.48771
       4 -> 13         0.48763
       5 -> 21         0.11044

 Excited State  32:      Singlet-A     19.2292 eV   64.48 nm  f=0.0991  <S**2>=0.000
       5 -> 19         0.13981
       5 -> 20         0.67539

 Excited State  33:      Singlet-A     19.2292 eV   64.48 nm  f=0.0991  <S**2>=0.000
       5 -> 19         0.67539
       5 -> 20        -0.13981

 Excited State  34:      Singlet-A     21.3627 eV   58.04 nm  f=0.0144  <S**2>=0.000
       4 -> 15         0.63495
       5 -> 23         0.29491

 Excited State  35:      Singlet-A     21.3627 eV   58.04 nm  f=0.0144  <S**2>=0.000
       3 -> 15         0.63484
       5 -> 22         0.29513

 Excited State  36:      Singlet-A     21.4592 eV   57.78 nm  f=0.0811  <S**2>=0.000
       3 -> 15        -0.27001
       3 -> 17         0.11488
       4 -> 16        -0.23433
       4 -> 18        -0.11490
       5 -> 22         0.57946

 Excited State  37:      Singlet-A     21.4592 eV   57.78 nm  f=0.0811  <S**2>=0.000
       3 -> 16         0.23392
       3 -> 18        -0.11486
       4 -> 15        -0.26988
       4 -> 17        -0.11502
       5 -> 23         0.57966

 Excited State  38:      Singlet-A     21.4860 eV   57.70 nm  f=0.2620  <S**2>=0.000
       3 -> 18        -0.14265
       4 -> 17         0.14254
       5 -> 21         0.65235

 Excited State  39:      Singlet-A     21.5080 eV   57.65 nm  f=0.0315  <S**2>=0.000
       3 -> 15        -0.13920
       4 -> 16         0.66466
       5 -> 22         0.17971

 Excited State  40:      Singlet-A     21.5080 eV   57.65 nm  f=0.0314  <S**2>=0.000
       3 -> 16         0.66480
       4 -> 15         0.13894
       5 -> 23        -0.17941

 Excited State  41:      Singlet-A     22.0531 eV   56.22 nm  f=0.0000  <S**2>=0.000
       3 -> 17         0.48139
       3 -> 18        -0.12182
       4 -> 17         0.12185
       4 -> 18         0.48145

 Excited State  42:      Singlet-A     22.5232 eV   55.05 nm  f=0.1716  <S**2>=0.000
       3 -> 17         0.47027
       4 -> 18        -0.47021
       5 -> 22        -0.16424

 Excited State  43:      Singlet-A     22.5232 eV   55.05 nm  f=0.1716  <S**2>=0.000
       3 -> 18         0.47022
       4 -> 17         0.47026
       5 -> 23         0.16424

 Excited State  44:      Singlet-A     22.8303 eV   54.31 nm  f=0.0439  <S**2>=0.000
       2 ->  6         0.55185
       3 -> 18        -0.26408
       4 -> 17         0.26401
       5 -> 21        -0.17179

 Excited State  45:      Singlet-A     24.4090 eV   50.79 nm  f=0.1290  <S**2>=0.000
       2 ->  6         0.38427
       3 -> 18         0.33361
       3 -> 19         0.12984
       3 -> 22         0.12489
       4 -> 17        -0.33360
       4 -> 20         0.12989
       4 -> 23         0.12489
       5 -> 21         0.11512
       5 -> 27         0.10485

 Excited State  46:      Singlet-A     24.5482 eV   50.51 nm  f=0.0000  <S**2>=0.000
       3 -> 20        -0.49593
       4 -> 19         0.49612

 Excited State  47:      Singlet-A     24.7268 eV   50.14 nm  f=0.0507  <S**2>=0.000
       2 ->  7        -0.10193
       3 -> 19        -0.23696
       3 -> 20         0.42062
       4 -> 19         0.42044
       4 -> 20         0.23697

 Excited State  48:      Singlet-A     24.7268 eV   50.14 nm  f=0.0507  <S**2>=0.000
       2 ->  8         0.10193
       3 -> 19        -0.42050
       3 -> 20        -0.23701
       4 -> 19        -0.23693
       4 -> 20         0.42056

 Excited State  49:      Singlet-A     25.1060 eV   49.38 nm  f=0.0574  <S**2>=0.000
       2 ->  6        -0.15978
       3 -> 19         0.46712
       4 -> 20         0.46706

 Excited State  50:      Singlet-A     25.3051 eV   49.00 nm  f=0.0209  <S**2>=0.000
       2 ->  7         0.68315

 Excited State  51:      Singlet-A     25.3051 eV   49.00 nm  f=0.0209  <S**2>=0.000
       2 ->  8         0.68315

 Excited State  52:      Singlet-A     26.3708 eV   47.02 nm  f=0.0006  <S**2>=0.000
       3 -> 22        -0.15835
       4 -> 21         0.66268
       4 -> 23         0.15837

 Excited State  53:      Singlet-A     26.3708 eV   47.02 nm  f=0.0006  <S**2>=0.000
       3 -> 21         0.66268
       3 -> 23        -0.15833
       4 -> 22        -0.15837

 Excited State  54:      Singlet-A     26.6714 eV   46.49 nm  f=0.0000  <S**2>=0.000
       3 -> 23        -0.49912
       4 -> 22         0.49915

 Excited State  55:      Singlet-A     26.8797 eV   46.13 nm  f=0.0109  <S**2>=0.000
       2 ->  9         0.70028

 Excited State  56:      Singlet-A     26.8797 eV   46.13 nm  f=0.0109  <S**2>=0.000
       2 -> 10         0.70028

 Excited State  57:      Singlet-A     26.9924 eV   45.93 nm  f=0.1218  <S**2>=0.000
       2 -> 11         0.60557
       3 -> 22        -0.24517
       4 -> 23        -0.24518

 Excited State  58:      Singlet-A     27.3723 eV   45.30 nm  f=0.1592  <S**2>=0.000
       2 -> 11         0.19440
       3 -> 22         0.31539
       4 -> 23         0.31543
       5 -> 24         0.47980

 Excited State  59:      Singlet-A     27.7048 eV   44.75 nm  f=0.1033  <S**2>=0.000
       2 -> 11        -0.28917
       2 -> 14        -0.22704
       3 -> 22        -0.23759
       4 -> 23        -0.24016
       5 -> 24         0.48119

 Excited State  60:      Singlet-A     27.7114 eV   44.74 nm  f=0.3916  <S**2>=0.000
       2 ->  8         0.11149
       2 -> 13         0.14118
       3 -> 22         0.43048
       4 -> 21         0.20007
       4 -> 23        -0.42908

 Excited State  61:      Singlet-A     27.7114 eV   44.74 nm  f=0.3916  <S**2>=0.000
       2 ->  7         0.11149
       2 -> 12         0.14119
       3 -> 21         0.20007
       3 -> 23         0.42980
       4 -> 22         0.42976

 Excited State  62:      Singlet-A     28.5069 eV   43.49 nm  f=0.0189  <S**2>=0.000
       2 -> 12         0.69106

 Excited State  63:      Singlet-A     28.5069 eV   43.49 nm  f=0.0189  <S**2>=0.000
       2 -> 13         0.69106

 Excited State  64:      Singlet-A     28.8156 eV   43.03 nm  f=0.0261  <S**2>=0.000
       2 -> 14         0.66309
       3 -> 22        -0.10674
       4 -> 23        -0.10674
       5 -> 24         0.15510

 Excited State  65:      Singlet-A     31.6956 eV   39.12 nm  f=0.0039  <S**2>=0.000
       5 -> 25         0.69890

 Excited State  66:      Singlet-A     31.6957 eV   39.12 nm  f=0.0039  <S**2>=0.000
       5 -> 26         0.69890

 Excited State  67:      Singlet-A     32.1569 eV   38.56 nm  f=0.0000  <S**2>=0.000
       2 -> 16         0.70674

 Excited State  68:      Singlet-A     32.3252 eV   38.36 nm  f=0.0243  <S**2>=0.000
       2 -> 15         0.67809
       5 -> 27        -0.17830

 Excited State  69:      Singlet-A     32.9102 eV   37.67 nm  f=0.0011  <S**2>=0.000
       2 -> 17         0.62472
       4 -> 24         0.29738

 Excited State  70:      Singlet-A     32.9102 eV   37.67 nm  f=0.0011  <S**2>=0.000
       2 -> 18         0.62473
       3 -> 24        -0.29737

 Excited State  71:      Singlet-A     33.6696 eV   36.82 nm  f=0.1211  <S**2>=0.000
       2 -> 17        -0.30403
       4 -> 24         0.62125

 Excited State  72:      Singlet-A     33.6697 eV   36.82 nm  f=0.1211  <S**2>=0.000
       2 -> 18         0.30401
       3 -> 24         0.62126

 Excited State  73:      Singlet-A     35.3355 eV   35.09 nm  f=0.0000  <S**2>=0.000
       2 -> 19         0.70034

 Excited State  74:      Singlet-A     35.3355 eV   35.09 nm  f=0.0000  <S**2>=0.000
       2 -> 20         0.70034

 Excited State  75:      Singlet-A     35.4808 eV   34.94 nm  f=0.0104  <S**2>=0.000
       2 -> 15         0.11077
       3 -> 26        -0.25582
       4 -> 25         0.25582
       5 -> 27         0.57749

 Excited State  76:      Singlet-A     37.0964 eV   33.42 nm  f=0.0000  <S**2>=0.000
       3 -> 25         0.48705
       3 -> 26        -0.11011
       4 -> 25         0.11013
       4 -> 26         0.48708

 Excited State  77:      Singlet-A     37.1450 eV   33.38 nm  f=0.0285  <S**2>=0.000
       2 -> 21         0.70362

 Excited State  78:      Singlet-A     37.4844 eV   33.08 nm  f=0.0005  <S**2>=0.000
       2 -> 22         0.53073
       3 -> 25         0.31878
       4 -> 26        -0.31875

 Excited State  79:      Singlet-A     37.4845 eV   33.08 nm  f=0.0005  <S**2>=0.000
       2 -> 23         0.53073
       3 -> 26        -0.31876
       4 -> 25        -0.31876

 Excited State  80:      Singlet-A     37.7104 eV   32.88 nm  f=0.0468  <S**2>=0.000
       2 -> 22         0.45731
       3 -> 25        -0.36753
       4 -> 26         0.36751

 Excited State  81:      Singlet-A     37.7104 eV   32.88 nm  f=0.0468  <S**2>=0.000
       2 -> 23         0.45730
       3 -> 26         0.36752
       4 -> 25         0.36753

 Excited State  82:      Singlet-A     39.4073 eV   31.46 nm  f=0.0272  <S**2>=0.000
       4 -> 27         0.65213
       5 -> 28        -0.26120

 Excited State  83:      Singlet-A     39.4074 eV   31.46 nm  f=0.0272  <S**2>=0.000
       3 -> 27         0.65212
       5 -> 29        -0.26122

 Excited State  84:      Singlet-A     39.6930 eV   31.24 nm  f=0.0464  <S**2>=0.000
       4 -> 27         0.26655
       5 -> 28         0.63929

 Excited State  85:      Singlet-A     39.6931 eV   31.24 nm  f=0.0464  <S**2>=0.000
       3 -> 27         0.26657
       5 -> 29         0.63928

 Excited State  86:      Singlet-A     40.0717 eV   30.94 nm  f=0.0201  <S**2>=0.000
       2 -> 15         0.10607
       2 -> 24         0.22893
       3 -> 26         0.38066
       3 -> 29         0.12981
       4 -> 25        -0.38064
       4 -> 28         0.12982
       5 -> 27         0.27187

 Excited State  87:      Singlet-A     43.4941 eV   28.51 nm  f=0.0211  <S**2>=0.000
       2 -> 24         0.16213
       5 -> 30         0.68035

 Excited State  88:      Singlet-A     44.1240 eV   28.10 nm  f=0.0756  <S**2>=0.000
       2 -> 24         0.58710
       3 -> 29        -0.22472
       4 -> 28        -0.22475
       5 -> 30        -0.18104

 Excited State  89:      Singlet-A     44.9170 eV   27.60 nm  f=0.0000  <S**2>=0.000
       3 -> 28        -0.49343
       4 -> 29         0.49344

 Excited State  90:      Singlet-A     45.2834 eV   27.38 nm  f=0.0306  <S**2>=0.000
       3 -> 28         0.45515
       3 -> 29        -0.19532
       4 -> 28         0.19531
       4 -> 29         0.45513

 Excited State  91:      Singlet-A     45.2834 eV   27.38 nm  f=0.0306  <S**2>=0.000
       3 -> 28         0.19531
       3 -> 29         0.45514
       4 -> 28        -0.45513
       4 -> 29         0.19532

 Excited State  92:      Singlet-A     48.0056 eV   25.83 nm  f=0.0347  <S**2>=0.000
       2 -> 25         0.70365

 Excited State  93:      Singlet-A     48.0056 eV   25.83 nm  f=0.0347  <S**2>=0.000
       2 -> 26         0.70365

 Excited State  94:      Singlet-A     48.3603 eV   25.64 nm  f=0.0507  <S**2>=0.000
       2 -> 24         0.26585
       3 -> 26        -0.11962
       3 -> 29         0.40596
       4 -> 25         0.11962
       4 -> 28         0.40595
       5 -> 27        -0.17521

 Excited State  95:      Singlet-A     48.9015 eV   25.35 nm  f=0.0002  <S**2>=0.000
       4 -> 30         0.70093

 Excited State  96:      Singlet-A     48.9015 eV   25.35 nm  f=0.0002  <S**2>=0.000
       3 -> 30         0.70093

 Excited State  97:      Singlet-A     50.2090 eV   24.69 nm  f=0.0929  <S**2>=0.000
       2 -> 27         0.70461

 Excited State  98:      Singlet-A     52.0062 eV   23.84 nm  f=0.0000  <S**2>=0.000
       5 -> 31         0.70701

 Excited State  99:      Singlet-A     52.4600 eV   23.63 nm  f=0.0444  <S**2>=0.000
       5 -> 32         0.69871

 Excited State 100:      Singlet-A     52.4601 eV   23.63 nm  f=0.0444  <S**2>=0.000
       5 -> 33         0.69871

 Excited State 101:      Singlet-A     55.7508 eV   22.24 nm  f=0.0546  <S**2>=0.000
       2 -> 28         0.69972

 Excited State 102:      Singlet-A     55.7509 eV   22.24 nm  f=0.0546  <S**2>=0.000
       2 -> 29         0.69972

 Excited State 103:      Singlet-A     57.5076 eV   21.56 nm  f=0.0086  <S**2>=0.000
       3 -> 32        -0.18741
       4 -> 33        -0.18740
       5 -> 34         0.65062

 Excited State 104:      Singlet-A     57.6002 eV   21.52 nm  f=0.0000  <S**2>=0.000
       3 -> 33        -0.49758
       4 -> 32         0.49783

 Excited State 105:      Singlet-A     57.6300 eV   21.51 nm  f=0.0396  <S**2>=0.000
       4 -> 31         0.70174

 Excited State 106:      Singlet-A     57.6301 eV   21.51 nm  f=0.0396  <S**2>=0.000
       3 -> 31         0.70174

 Excited State 107:      Singlet-A     57.8988 eV   21.41 nm  f=0.0772  <S**2>=0.000
       3 -> 32        -0.23016
       3 -> 33         0.43538
       4 -> 32         0.43515
       4 -> 33         0.23013

 Excited State 108:      Singlet-A     57.8988 eV   21.41 nm  f=0.0773  <S**2>=0.000
       3 -> 32        -0.43526
       3 -> 33        -0.23021
       4 -> 32        -0.23008
       4 -> 33         0.43528

 Excited State 109:      Singlet-A     58.4769 eV   21.20 nm  f=0.3219  <S**2>=0.000
       2 -> 30        -0.13097
       3 -> 32         0.44764
       4 -> 33         0.44764
       5 -> 34         0.26200

 Excited State 110:      Singlet-A     59.9460 eV   20.68 nm  f=0.0356  <S**2>=0.000
       5 -> 35         0.69235

 Excited State 111:      Singlet-A     59.9461 eV   20.68 nm  f=0.0356  <S**2>=0.000
       5 -> 36         0.69235

 Excited State 112:      Singlet-A     60.5437 eV   20.48 nm  f=0.0597  <S**2>=0.000
       2 -> 30         0.68315

 Excited State 113:      Singlet-A     62.5673 eV   19.82 nm  f=0.0178  <S**2>=0.000
       4 -> 34         0.69599

 Excited State 114:      Singlet-A     62.5674 eV   19.82 nm  f=0.0178  <S**2>=0.000
       3 -> 34         0.69599

 Excited State 115:      Singlet-A     63.9713 eV   19.38 nm  f=0.0073  <S**2>=0.000
       3 -> 35        -0.16258
       4 -> 36         0.16258
       5 -> 37         0.66320

 Excited State 116:      Singlet-A     63.9714 eV   19.38 nm  f=0.0073  <S**2>=0.000
       3 -> 36         0.16257
       4 -> 35         0.16260
       5 -> 38         0.66319

 Excited State 117:      Singlet-A     65.2868 eV   18.99 nm  f=0.0000  <S**2>=0.000
       3 -> 36        -0.48965
       4 -> 35         0.49066

 Excited State 118:      Singlet-A     65.3648 eV   18.97 nm  f=0.0717  <S**2>=0.000
       3 -> 35         0.44708
       3 -> 36         0.14162
       4 -> 35         0.14125
       4 -> 36        -0.44688
       5 -> 37         0.20279

 Excited State 119:      Singlet-A     65.3648 eV   18.97 nm  f=0.0717  <S**2>=0.000
       3 -> 35        -0.14165
       3 -> 36         0.44746
       4 -> 35         0.44649
       4 -> 36         0.14122
       5 -> 38        -0.20280

 Excited State 120:      Singlet-A     65.4321 eV   18.95 nm  f=0.0021  <S**2>=0.000
       3 -> 35         0.49070
       4 -> 36         0.49101

 Excited State 121:      Singlet-A     67.8961 eV   18.26 nm  f=0.0000  <S**2>=0.000
       2 -> 31         0.69349

 Excited State 122:      Singlet-A     68.4291 eV   18.12 nm  f=0.0089  <S**2>=0.000
       2 -> 32         0.70498

 Excited State 123:      Singlet-A     68.4291 eV   18.12 nm  f=0.0089  <S**2>=0.000
       2 -> 33         0.70498

 Excited State 124:      Singlet-A     69.0784 eV   17.95 nm  f=0.0000  <S**2>=0.000
       2 -> 31        -0.10621
       3 -> 37         0.46303
       3 -> 38        -0.17199
       4 -> 37         0.17203
       4 -> 38         0.46303

 Excited State 125:      Singlet-A     69.6318 eV   17.81 nm  f=0.0128  <S**2>=0.000
       3 -> 37         0.48986
       4 -> 38        -0.48985

 Excited State 126:      Singlet-A     69.6318 eV   17.81 nm  f=0.0128  <S**2>=0.000
       3 -> 38         0.48981
       4 -> 37         0.48990

 The electronic state is 1-A.
 Alpha  occ. eigenvalues --  -14.37180  -0.86727  -0.47793  -0.47793  -0.28062
 Alpha virt. eigenvalues --    0.03740   0.12022   0.12022   0.18179   0.18179
 Alpha virt. eigenvalues --    0.19353   0.24046   0.24046   0.24309   0.37198
 Alpha virt. eigenvalues --    0.37476   0.40796   0.40796   0.49386   0.49386

 Mulliken charges:
               1
     1  N    0.013638
     2  H   -0.004546
     3  H   -0.004547
     4  H   -0.004544
 Sum of Mulliken charges =  -0.00000

 Dipole moment (field-independent basis, Debye):
    X=              0.0000    Y=             -0.0000    Z=              1.5184  Tot=              1.5184
 Quadrupole moment (field-independent basis, Debye-Ang):
   XX=             -6.3037   YY=             -6.3038   ZZ=             -9.2160
   XY=              0.0000   XZ=             -0.0001   YZ=              0.0000

 Normal termination of Gaussian 16 at Mon Mar 21 20:12:40 2022.
