 Gaussian 16, Revision C.01,
 Gaussian 16:  EM64L-G16RevC.01  3-Jul-2019

 ----------------------------------------------------------------------
 #P TD(Nstates=10000) pbe1pbe/Gen SCF(maxcycles=100) Int(Grid=ultrafine
 )
 ----------------------------------------------------------------------

 ---------------------
 xGDB7_00001_tier4.com
 ---------------------
 Symbolic Z-matrix:
 Charge =  0 Multiplicity = 1

                         Standard orientation:
 ---------------------------------------------------------------------
 Center     Atomic      Atomic             Coordinates (Angstroms)
 Number     Number       Type             X           Y           Z
 ---------------------------------------------------------------------
      1          6           0       -0.000001    0.000006    0.000000
      2          1           0       -0.991926    0.448073    0.033817
      3          1           0        0.066172   -0.671147   -0.854975
      4          1           0        0.176250   -0.561167    0.916416
      5          1           0        0.749514    0.784204   -0.095260
 ---------------------------------------------------------------------

 SCF Done:  E(RPBE1PBE) =  -40.4303910992     A.U. after    8 cycles

 Excitation energies and oscillator strengths:

 Excited State   1:      Singlet-A     10.5634 eV  117.37 nm  f=0.1358  <S**2>=0.000
       5 ->  6         0.70646
 This state for optimization and/or second-order correction.
 Total Energy, E(TD-HF/TD-DFT) =  -40.0421947864
 Copying the excited state density for this state as the 1-particle RhoCI density.

 Excited State   2:      Singlet-A     10.5635 eV  117.37 nm  f=0.1358  <S**2>=0.000
       4 ->  6         0.70643

 Excited State   3:      Singlet-A     10.5635 eV  117.37 nm  f=0.1358  <S**2>=0.000
       3 ->  6         0.70643

 Excited State   4:      Singlet-A     12.9050 eV   96.07 nm  f=0.0000  <S**2>=0.000
       4 ->  7         0.13530
       4 ->  8        -0.23429
       4 ->  9         0.40435
       5 ->  7        -0.25373
       5 ->  8         0.32249
       5 ->  9         0.27048

 Excited State   5:      Singlet-A     12.9050 eV   96.07 nm  f=0.0000  <S**2>=0.000
       3 ->  7         0.14305
       3 ->  8        -0.26283
       3 ->  9         0.38375
       5 ->  7         0.39945
       5 ->  8         0.28161

 Excited State   6:      Singlet-A     12.9051 eV   96.07 nm  f=0.0000  <S**2>=0.000
       3 ->  7         0.18851
       3 ->  8        -0.33925
       3 ->  9        -0.30060
       4 ->  7         0.42603
       4 ->  8         0.24227

 Excited State   7:      Singlet-A     13.0097 eV   95.30 nm  f=0.1307  <S**2>=0.000
       3 ->  7        -0.15388
       4 ->  8         0.14035
       4 ->  9        -0.40752
       5 ->  7        -0.21295
       5 ->  8         0.45163

 Excited State   8:      Singlet-A     13.0097 eV   95.30 nm  f=0.1307  <S**2>=0.000
       3 ->  7         0.41835
       3 ->  8         0.15886
       4 ->  9        -0.19854
       5 ->  9         0.45127

 Excited State   9:      Singlet-A     13.0097 eV   95.30 nm  f=0.1307  <S**2>=0.000
       3 ->  7        -0.19119
       3 ->  8         0.38134
       3 ->  9         0.22841
       4 ->  7         0.41707
       4 ->  8         0.23966

 Excited State  10:      Singlet-A     13.0579 eV   94.95 nm  f=0.0000  <S**2>=0.000
       3 ->  8         0.19078
       3 ->  9        -0.41136
       4 ->  7        -0.12804
       4 ->  8         0.12442
       5 ->  7         0.43364
       5 ->  8         0.16406
       5 ->  9         0.17896

 Excited State  11:      Singlet-A     13.0579 eV   94.95 nm  f=0.0000  <S**2>=0.000
       3 ->  7        -0.23132
       3 ->  8        -0.21591
       3 ->  9         0.13163
       4 ->  7        -0.23055
       4 ->  8         0.43601
       4 ->  9         0.22929
       5 ->  7        -0.10666
       5 ->  8        -0.12619
       5 ->  9         0.23792

 Excited State  12:      Singlet-A     13.6378 eV   90.91 nm  f=0.0000  <S**2>=0.000
       3 ->  7        -0.22643
       3 ->  8        -0.12484
       3 -> 10         0.25722
       3 -> 11         0.16285
       4 ->  7         0.10430
       4 ->  8        -0.18793
       4 ->  9        -0.14376
       4 -> 12         0.30265
       5 ->  8        -0.12632
       5 ->  9         0.21491
       5 -> 10        -0.17322
       5 -> 11         0.25963

 Excited State  13:      Singlet-A     13.6541 eV   90.80 nm  f=0.0000  <S**2>=0.000
       4 -> 10         0.28812
       4 -> 11        -0.38459
       5 -> 10         0.11194
       5 -> 11         0.12505
       5 -> 12         0.45395

 Excited State  14:      Singlet-A     13.6541 eV   90.80 nm  f=0.0000  <S**2>=0.000
       3 -> 10        -0.26518
       3 -> 11         0.39850
       4 -> 14        -0.11782
       5 -> 10        -0.38981
       5 -> 11        -0.24118
       5 -> 12         0.16224

 Excited State  15:      Singlet-A     13.6542 eV   90.80 nm  f=0.0000  <S**2>=0.000
       3 -> 12         0.46846
       3 -> 13         0.10086
       4 -> 10        -0.38224
       4 -> 11        -0.27408
       4 -> 12         0.11689

 Excited State  16:      Singlet-A     13.6805 eV   90.63 nm  f=0.0000  <S**2>=0.000
       3 -> 10        -0.25772
       3 -> 11         0.37445
       4 -> 12         0.18287
       5 -> 10         0.48510

 Excited State  17:      Singlet-A     13.6805 eV   90.63 nm  f=0.0000  <S**2>=0.000
       3 -> 10        -0.16277
       3 -> 11        -0.28804
       4 -> 11         0.18546
       4 -> 12         0.50954
       5 -> 11        -0.25539
       5 -> 12         0.13904

 Excited State  18:      Singlet-A     14.2669 eV   86.90 nm  f=0.0214  <S**2>=0.000
       3 -> 13         0.14599
       3 -> 14         0.34807
       4 -> 10        -0.20399
       4 -> 11         0.30153
       4 -> 12        -0.11876
       5 -> 11         0.18203
       5 -> 12         0.34826
       5 -> 13         0.19373

 Excited State  19:      Singlet-A     14.2669 eV   86.90 nm  f=0.0214  <S**2>=0.000
       3 -> 10         0.35696
       3 -> 11         0.14928
       4 -> 13         0.40636
       4 -> 14        -0.12013
       5 -> 10         0.15169
       5 -> 11        -0.32200
       5 -> 12         0.12376

 Excited State  20:      Singlet-A     14.2669 eV   86.90 nm  f=0.0214  <S**2>=0.000
       3 -> 12         0.37748
       3 -> 13        -0.21034
       4 -> 10         0.32967
       4 -> 11         0.17569
       5 -> 14        -0.36125

 Excited State  21:      Singlet-A     14.5242 eV   85.36 nm  f=0.0000  <S**2>=0.000
       3 -> 13        -0.15158
       3 -> 14        -0.30033
       5 -> 13         0.59881

 Excited State  22:      Singlet-A     14.5243 eV   85.36 nm  f=0.0000  <S**2>=0.000
       3 -> 13        -0.30286
       3 -> 14         0.14938
       4 -> 13         0.16605
       4 -> 14         0.52872
       5 -> 14         0.24415

 Excited State  23:      Singlet-A     14.5243 eV   85.36 nm  f=0.0000  <S**2>=0.000
       3 -> 13         0.44843
       3 -> 14        -0.23369
       4 -> 13         0.12284
       4 -> 14         0.39505
       5 -> 14        -0.23515

 Excited State  24:      Singlet-A     14.8521 eV   83.48 nm  f=0.0000  <S**2>=0.000
       3 ->  7         0.26354
       3 ->  8         0.14530
       3 -> 10         0.21345
       3 -> 11         0.13533
       4 ->  7        -0.12139
       4 ->  8         0.21872
       4 ->  9         0.16731
       4 -> 12         0.25157
       5 ->  8         0.14701
       5 ->  9        -0.25013
       5 -> 10        -0.14358
       5 -> 11         0.21552

 Excited State  25:      Singlet-A     15.0548 eV   82.36 nm  f=0.6928  <S**2>=0.000
       3 -> 12         0.27592
       3 -> 13         0.25885
       4 -> 10         0.23982
       4 -> 11         0.14022
       5 -> 14         0.45721

 Excited State  26:      Singlet-A     15.0549 eV   82.35 nm  f=0.6928  <S**2>=0.000
       3 ->  7         0.10027
       3 -> 10        -0.26452
       3 -> 11        -0.10294
       4 -> 13         0.51317
       4 -> 14        -0.15782
       5 -> 10        -0.11025
       5 -> 11         0.25109

 Excited State  27:      Singlet-A     15.0549 eV   82.35 nm  f=0.6928  <S**2>=0.000
       3 -> 13         0.18537
       3 -> 14         0.43331
       4 ->  9        -0.10658
       4 -> 10         0.15516
       4 -> 11        -0.22353
       5 -> 11        -0.11278
       5 -> 12        -0.26372
       5 -> 13         0.24747

 Excited State  28:      Singlet-A     17.6017 eV   70.44 nm  f=0.1120  <S**2>=0.000
       5 -> 15         0.70022

 Excited State  29:      Singlet-A     17.6018 eV   70.44 nm  f=0.1120  <S**2>=0.000
       4 -> 15         0.70023

 Excited State  30:      Singlet-A     17.6018 eV   70.44 nm  f=0.1120  <S**2>=0.000
       3 -> 15         0.70027

 Excited State  31:      Singlet-A     18.9320 eV   65.49 nm  f=0.0000  <S**2>=0.000
       2 ->  6         0.66421
       3 -> 21         0.10584
       4 -> 22        -0.10716
       5 -> 20         0.12847

 Excited State  32:      Singlet-A     19.0029 eV   65.24 nm  f=0.0425  <S**2>=0.000
       3 -> 18        -0.10690
       4 -> 19        -0.10735
       5 -> 16         0.68301

 Excited State  33:      Singlet-A     19.0030 eV   65.24 nm  f=0.0425  <S**2>=0.000
       3 -> 17        -0.10657
       4 -> 16         0.68291
       5 -> 19         0.10730

 Excited State  34:      Singlet-A     19.0031 eV   65.24 nm  f=0.0425  <S**2>=0.000
       3 -> 16         0.68295
       4 -> 17         0.10682
       5 -> 18         0.10699

 Excited State  35:      Singlet-A     19.2555 eV   64.39 nm  f=0.0000  <S**2>=0.000
       3 -> 17         0.46081
       4 -> 18        -0.16193
       5 -> 17        -0.11994
       5 -> 19         0.47703

 Excited State  36:      Singlet-A     19.2555 eV   64.39 nm  f=0.0000  <S**2>=0.000
       3 -> 17         0.18368
       3 -> 19         0.27776
       4 -> 18         0.54218
       5 -> 17         0.26306
       5 -> 19         0.11532

 Excited State  37:      Singlet-A     19.2936 eV   64.26 nm  f=0.0222  <S**2>=0.000
       3 -> 16        -0.15711
       4 -> 17         0.47508
       5 -> 18         0.47820

 Excited State  38:      Singlet-A     19.2936 eV   64.26 nm  f=0.0222  <S**2>=0.000
       3 -> 17        -0.47633
       4 -> 16        -0.15709
       5 -> 19         0.47808

 Excited State  39:      Singlet-A     19.2937 eV   64.26 nm  f=0.0222  <S**2>=0.000
       3 -> 18         0.47752
       4 -> 19         0.47896
       5 -> 16         0.15712

 Excited State  40:      Singlet-A     19.3616 eV   64.04 nm  f=0.0000  <S**2>=0.000
       4 -> 17        -0.47513
       5 -> 18         0.48055

 Excited State  41:      Singlet-A     19.3616 eV   64.04 nm  f=0.0000  <S**2>=0.000
       3 -> 19        -0.47381
       3 -> 20        -0.11140
       4 -> 17        -0.10446
       5 -> 17         0.47497

 Excited State  42:      Singlet-A     19.3617 eV   64.04 nm  f=0.0000  <S**2>=0.000
       3 -> 18         0.47604
       4 -> 19        -0.47434
       4 -> 20         0.10713

 Excited State  43:      Singlet-A     19.4979 eV   63.59 nm  f=0.0000  <S**2>=0.000
       3 -> 19         0.40110
       4 -> 18        -0.39979
       5 -> 17         0.39816

 Excited State  44:      Singlet-A     19.6784 eV   63.01 nm  f=0.0000  <S**2>=0.000
       3 -> 18        -0.11021
       4 -> 19         0.11135
       4 -> 20         0.47455
       5 -> 21         0.28774
       5 -> 22         0.38191

 Excited State  45:      Singlet-A     19.6784 eV   63.01 nm  f=0.0000  <S**2>=0.000
       3 -> 19        -0.11127
       3 -> 20         0.46419
       5 -> 17         0.11145
       5 -> 21        -0.38646
       5 -> 22         0.30391

 Excited State  46:      Singlet-A     19.6785 eV   63.00 nm  f=0.0000  <S**2>=0.000
       3 -> 21         0.27160
       3 -> 22         0.39539
       4 -> 17         0.11071
       4 -> 21         0.39301
       4 -> 22        -0.27833
       5 -> 18        -0.11012

 Excited State  47:      Singlet-A     19.6812 eV   63.00 nm  f=0.0000  <S**2>=0.000
       3 -> 20         0.44675
       3 -> 21         0.12763
       4 -> 21        -0.13287
       4 -> 22        -0.11780
       5 -> 20        -0.23609
       5 -> 21         0.29449
       5 -> 22        -0.30261

 Excited State  48:      Singlet-A     19.6812 eV   63.00 nm  f=0.0000  <S**2>=0.000
       3 -> 20         0.11562
       3 -> 21         0.28384
       3 -> 22        -0.15898
       4 -> 20        -0.16517
       4 -> 21         0.27031
       4 -> 22         0.43559
       5 -> 20         0.18795
       5 -> 21         0.21764

 Excited State  49:      Singlet-A     20.2690 eV   61.17 nm  f=0.1857  <S**2>=0.000
       3 -> 27        -0.11135
       4 -> 20         0.40996
       4 -> 21         0.14893
       5 -> 20         0.27850
       5 -> 21        -0.18054
       5 -> 22        -0.35712

 Excited State  50:      Singlet-A     20.2691 eV   61.17 nm  f=0.1857  <S**2>=0.000
       3 -> 20         0.15516
       3 -> 21        -0.33817
       3 -> 22         0.27035
       4 -> 20        -0.15616
       4 -> 26         0.13078
       5 -> 20         0.36917
       5 -> 21         0.25590
       5 -> 22         0.10173

 Excited State  51:      Singlet-A     20.2692 eV   61.17 nm  f=0.1857  <S**2>=0.000
       3 -> 20        -0.12450
       3 -> 21         0.25207
       3 -> 22         0.38340
       4 -> 21        -0.37429
       4 -> 22         0.28060
       5 -> 27        -0.12303

 Excited State  52:      Singlet-A     20.3688 eV   60.87 nm  f=0.0000  <S**2>=0.000
       2 ->  6        -0.15468
       3 -> 21         0.26819
       3 -> 22        -0.19210
       3 -> 25        -0.20785
       4 -> 21        -0.18514
       4 -> 22        -0.27132
       4 -> 24        -0.20652
       5 -> 20         0.32484
       5 -> 23        -0.20279

 Excited State  53:      Singlet-A     21.1300 eV   58.68 nm  f=0.0000  <S**2>=0.000
       4 -> 23        -0.48159
       4 -> 24         0.11374
       5 -> 23         0.11540
       5 -> 24         0.48286

 Excited State  54:      Singlet-A     21.1301 eV   58.68 nm  f=0.0000  <S**2>=0.000
       3 -> 23        -0.48060
       5 -> 25         0.48819

 Excited State  55:      Singlet-A     21.1301 eV   58.68 nm  f=0.0000  <S**2>=0.000
       3 -> 24        -0.48814
       4 -> 25         0.49311

 Excited State  56:      Singlet-A     21.2335 eV   58.39 nm  f=0.0000  <S**2>=0.000
       3 -> 23         0.43531
       3 -> 24        -0.15774
       4 -> 24         0.14408
       5 -> 24         0.10270
       5 -> 25         0.48415

 Excited State  57:      Singlet-A     21.2335 eV   58.39 nm  f=0.0000  <S**2>=0.000
       3 -> 23        -0.19487
       3 -> 25        -0.26992
       4 -> 23         0.20271
       4 -> 24         0.50742
       5 -> 23        -0.23894
       5 -> 24         0.13300
       5 -> 25        -0.10004

 Excited State  58:      Singlet-A     21.2456 eV   58.36 nm  f=0.0079  <S**2>=0.000
       3 -> 25        -0.10461
       4 -> 23         0.42209
       4 -> 24        -0.20418
       5 -> 23         0.29696
       5 -> 24         0.39886

 Excited State  59:      Singlet-A     21.2457 eV   58.36 nm  f=0.0079  <S**2>=0.000
       3 -> 24         0.12408
       3 -> 25         0.46718
       4 -> 23         0.14644
       5 -> 23        -0.40669
       5 -> 24         0.23648

 Excited State  60:      Singlet-A     21.2458 eV   58.36 nm  f=0.0079  <S**2>=0.000
       3 -> 23         0.15387
       3 -> 24         0.44857
       3 -> 25        -0.12228
       4 -> 25         0.47880

 Excited State  61:      Singlet-A     21.4869 eV   57.70 nm  f=0.0071  <S**2>=0.000
       2 ->  7         0.46341
       2 ->  8        -0.42052
       2 ->  9         0.26069

 Excited State  62:      Singlet-A     21.4869 eV   57.70 nm  f=0.0071  <S**2>=0.000
       2 ->  7         0.49466
       2 ->  8         0.40081
       2 ->  9        -0.23280

 Excited State  63:      Singlet-A     21.4869 eV   57.70 nm  f=0.0071  <S**2>=0.000
       2 ->  8         0.34937
       2 ->  9         0.58085
       4 -> 26        -0.10863

 Excited State  64:      Singlet-A     22.2149 eV   55.81 nm  f=0.0326  <S**2>=0.000
       2 -> 10         0.67369
       2 -> 11         0.18351

 Excited State  65:      Singlet-A     22.2149 eV   55.81 nm  f=0.0326  <S**2>=0.000
       2 -> 10        -0.11367
       2 -> 11         0.55516
       2 -> 12         0.41253

 Excited State  66:      Singlet-A     22.2149 eV   55.81 nm  f=0.0326  <S**2>=0.000
       2 -> 10         0.15657
       2 -> 11        -0.38655
       2 -> 12         0.56335

 Excited State  67:      Singlet-A     22.4995 eV   55.11 nm  f=0.0000  <S**2>=0.000
       2 ->  6        -0.15647
       2 -> 15        -0.17092
       3 -> 21         0.13564
       3 -> 25         0.32554
       4 -> 22        -0.13736
       4 -> 24         0.32339
       5 -> 20         0.16465
       5 -> 23         0.31745

 Excited State  68:      Singlet-A     22.7186 eV   54.57 nm  f=0.0000  <S**2>=0.000
       3 -> 26        -0.25944
       3 -> 27        -0.24266
       5 -> 26         0.60669

 Excited State  69:      Singlet-A     22.7187 eV   54.57 nm  f=0.0000  <S**2>=0.000
       3 -> 26         0.49143
       3 -> 27        -0.33254
       4 -> 27        -0.11651
       5 -> 27        -0.35475

 Excited State  70:      Singlet-A     22.7187 eV   54.57 nm  f=0.0000  <S**2>=0.000
       3 -> 26         0.12503
       4 -> 26         0.21223
       4 -> 27         0.65816

 Excited State  71:      Singlet-A     22.9045 eV   54.13 nm  f=0.0000  <S**2>=0.000
       2 -> 13         0.70495

 Excited State  72:      Singlet-A     22.9046 eV   54.13 nm  f=0.0000  <S**2>=0.000
       2 -> 14         0.70495

 Excited State  73:      Singlet-A     23.4711 eV   52.82 nm  f=0.3611  <S**2>=0.000
       2 ->  7        -0.11102
       3 -> 26         0.27698
       3 -> 27        -0.16769
       5 -> 27         0.57697

 Excited State  74:      Singlet-A     23.4712 eV   52.82 nm  f=0.3611  <S**2>=0.000
       2 ->  9         0.11530
       3 -> 26         0.20599
       3 -> 27         0.36220
       4 -> 26         0.41808
       4 -> 27        -0.13929
       5 -> 26         0.27989

 Excited State  75:      Singlet-A     23.4712 eV   52.82 nm  f=0.3611  <S**2>=0.000
       2 ->  8         0.11696
       3 -> 26        -0.19234
       3 -> 27        -0.36199
       4 -> 26         0.47414
       4 -> 27        -0.15251
       5 -> 26        -0.17305

 Excited State  76:      Singlet-A     26.1583 eV   47.40 nm  f=0.0000  <S**2>=0.000
       2 -> 15         0.66681
       2 -> 16        -0.16114

 Excited State  77:      Singlet-A     27.6254 eV   44.88 nm  f=0.0000  <S**2>=0.000
       2 -> 17         0.70602

 Excited State  78:      Singlet-A     27.6254 eV   44.88 nm  f=0.0000  <S**2>=0.000
       2 -> 18         0.70602

 Excited State  79:      Singlet-A     27.6254 eV   44.88 nm  f=0.0000  <S**2>=0.000
       2 -> 19         0.70603

 Excited State  80:      Singlet-A     27.6912 eV   44.77 nm  f=0.0000  <S**2>=0.000
       2 -> 15         0.12934
       2 -> 16         0.67936

 Excited State  81:      Singlet-A     28.2710 eV   43.86 nm  f=0.0003  <S**2>=0.000
       2 -> 20         0.69783

 Excited State  82:      Singlet-A     28.2710 eV   43.86 nm  f=0.0003  <S**2>=0.000
       2 -> 21         0.52703
       2 -> 22         0.46093

 Excited State  83:      Singlet-A     28.2710 eV   43.86 nm  f=0.0003  <S**2>=0.000
       2 -> 21        -0.45742
       2 -> 22         0.53016

 Excited State  84:      Singlet-A     29.5678 eV   41.93 nm  f=0.0106  <S**2>=0.000
       2 -> 23         0.70348

 Excited State  85:      Singlet-A     29.5679 eV   41.93 nm  f=0.0106  <S**2>=0.000
       2 -> 24         0.70348

 Excited State  86:      Singlet-A     29.5679 eV   41.93 nm  f=0.0106  <S**2>=0.000
       2 -> 25         0.70367

 Excited State  87:      Singlet-A     30.9442 eV   40.07 nm  f=0.0000  <S**2>=0.000
       4 -> 28         0.48652
       5 -> 29        -0.47901
       5 -> 30        -0.12190

 Excited State  88:      Singlet-A     30.9443 eV   40.07 nm  f=0.0000  <S**2>=0.000
       3 -> 28         0.49024
       5 -> 29        -0.11983
       5 -> 30         0.48239

 Excited State  89:      Singlet-A     30.9444 eV   40.07 nm  f=0.0000  <S**2>=0.000
       3 -> 29         0.45561
       3 -> 30         0.20198
       4 -> 29        -0.20059
       4 -> 30         0.45454

 Excited State  90:      Singlet-A     31.0900 eV   39.88 nm  f=0.0000  <S**2>=0.000
       3 -> 28         0.45854
       4 -> 29         0.14605
       4 -> 30         0.11892
       5 -> 28        -0.21610
       5 -> 29         0.19689
       5 -> 30        -0.39900

 Excited State  91:      Singlet-A     31.0901 eV   39.88 nm  f=0.0000  <S**2>=0.000
       3 -> 28        -0.13526
       3 -> 29        -0.13559
       3 -> 30         0.28268
       4 -> 29         0.49875
       4 -> 30         0.20780
       5 -> 28        -0.22846
       5 -> 30         0.17602

 Excited State  92:      Singlet-A     31.2569 eV   39.67 nm  f=0.0000  <S**2>=0.000
       2 -> 26         0.70222

 Excited State  93:      Singlet-A     31.2569 eV   39.67 nm  f=0.0000  <S**2>=0.000
       2 -> 27         0.70222

 Excited State  94:      Singlet-A     31.5288 eV   39.32 nm  f=0.0000  <S**2>=0.000
       3 -> 29         0.16307
       3 -> 30        -0.37094
       4 -> 29         0.36740
       4 -> 30         0.16508
       5 -> 28         0.40199

 Excited State  95:      Singlet-A     32.2327 eV   38.47 nm  f=0.1326  <S**2>=0.000
       4 -> 28         0.46133
       5 -> 29         0.43250
       5 -> 30         0.17894
       5 -> 31        -0.18430

 Excited State  96:      Singlet-A     32.2328 eV   38.47 nm  f=0.1327  <S**2>=0.000
       3 -> 28         0.12663
       3 -> 29        -0.21401
       3 -> 30         0.39788
       4 -> 31        -0.18686
       5 -> 28         0.44527
       5 -> 30        -0.12062

 Excited State  97:      Singlet-A     32.2330 eV   38.46 nm  f=0.1327  <S**2>=0.000
       3 -> 29        -0.41312
       3 -> 30        -0.22521

 The electronic state is 1-A.
 Alpha  occ. eigenvalues --  -10.21717  -0.70799  -0.40385  -0.40385  -0.40385
 Alpha virt. eigenvalues --    0.03642   0.13438   0.13438   0.13438   0.16491
 Alpha virt. eigenvalues --    0.16491   0.16491   0.18979   0.18979   0.29637
 Alpha virt. eigenvalues --    0.35449   0.36600   0.36600   0.36600   0.38621

 Mulliken charges:
               1
     1  C    0.087455
     2  H   -0.021843
     3  H   -0.021874
     4  H   -0.021884
     5  H   -0.021854
 Sum of Mulliken charges =  -0.00000

 Dipole moment (field-independent basis, Debye):
    X=              0.0000    Y=             -0.0000    Z=              0.0000  Tot=              0.0000
 Quadrupole moment (field-independent basis, Debye-Ang):
   XX=             -8.3890   YY=             -8.3891   ZZ=             -8.3892
   XY=              0.0000   XZ=              0.0000   YZ=             -0.0000

 Normal termination of Gaussian 16 at Mon Mar 21 20:23:42 2022.
