 Gaussian 16, Revision C.01,
 Gaussian 16:  EM64L-G16RevC.01  3-Jul-2019

 ----------------------------------------------------------------------
 #P TD(Nstates=10000) pw91pw91/Gen SCF(maxcycles=100) Int(Grid=ultrafin
 e)
 ----------------------------------------------------------------------

 ---------------------
 xGDB7_00001_tier4.com
 ---------------------
 Symbolic Z-matrix:
 Charge =  0 Multiplicity = 1

                         Standard orientation:
 ---------------------------------------------------------------------
 Center     Atomic      Atomic             Coordinates (Angstroms)
 Number     Number       Type             X           Y           Z
 ---------------------------------------------------------------------
      1          7           0        1.078471   -0.156900   -0.000001
      2          6           0       -0.161963    0.384944   -0.000002
      3          8           0       -1.189170   -0.245458    0.000001
      4          1           0        1.898427    0.419427    0.000004
      5          1           0        1.178124   -1.157073    0.000005
      6          1           0       -0.140706    1.489948    0.000007
 ---------------------------------------------------------------------

 SCF Done:  E(RPW91-PW91) =  -169.731451426     A.U. after   14 cycles

 Excitation energies and oscillator strengths:

 Excited State   1:      Singlet-A      5.4942 eV  225.66 nm  f=0.0006  <S**2>=0.000
      12 -> 13         0.70655
 This state for optimization and/or second-order correction.
 Total Energy, E(TD-HF/TD-DFT) =  -169.529543954
 Copying the excited state density for this state as the 1-particle RhoCI density.

 Excited State   2:      Singlet-A      5.9368 eV  208.84 nm  f=0.0226  <S**2>=0.000
      11 -> 13         0.16174
      12 -> 14         0.68650

 Excited State   3:      Singlet-A      6.6805 eV  185.59 nm  f=0.0093  <S**2>=0.000
      11 -> 14         0.70503

 Excited State   4:      Singlet-A      6.7061 eV  184.88 nm  f=0.0718  <S**2>=0.000
      12 -> 15         0.70244

 Excited State   5:      Singlet-A      7.4329 eV  166.80 nm  f=0.0030  <S**2>=0.000
      11 -> 15         0.70556

 Excited State   6:      Singlet-A      7.6399 eV  162.28 nm  f=0.2054  <S**2>=0.000
      11 -> 13         0.55041
      12 -> 14        -0.12583
      12 -> 16        -0.37733

 Excited State   7:      Singlet-A      7.6679 eV  161.69 nm  f=0.1258  <S**2>=0.000
      11 -> 13         0.35003
      12 -> 16         0.59419

 Excited State   8:      Singlet-A      8.4088 eV  147.45 nm  f=0.0054  <S**2>=0.000
      11 -> 16         0.70130

 Excited State   9:      Singlet-A      8.4953 eV  145.94 nm  f=0.0090  <S**2>=0.000
      12 -> 18         0.70128

 Excited State  10:      Singlet-A      8.5595 eV  144.85 nm  f=0.0353  <S**2>=0.000
      12 -> 17         0.68348
      12 -> 19        -0.12867

 Excited State  11:      Singlet-A      8.9444 eV  138.62 nm  f=0.0036  <S**2>=0.000
      11 -> 18        -0.11962
      12 -> 17         0.10721
      12 -> 19         0.67869

 Excited State  12:      Singlet-A      9.1921 eV  134.88 nm  f=0.0022  <S**2>=0.000
      11 -> 17         0.70372

 Excited State  13:      Singlet-A      9.3788 eV  132.20 nm  f=0.0047  <S**2>=0.000
      11 -> 18         0.37125
      12 -> 20         0.59454

 Excited State  14:      Singlet-A      9.4444 eV  131.28 nm  f=0.0134  <S**2>=0.000
      11 -> 18         0.57179
      12 -> 20        -0.37962

 Excited State  15:      Singlet-A      9.6158 eV  128.94 nm  f=0.0025  <S**2>=0.000
      10 -> 13        -0.19312
      11 -> 19         0.67930

 Excited State  16:      Singlet-A      9.7153 eV  127.62 nm  f=0.0016  <S**2>=0.000
      10 -> 13         0.66336
      11 -> 19         0.19555

 Excited State  17:      Singlet-A      9.8647 eV  125.68 nm  f=0.0125  <S**2>=0.000
      10 -> 14         0.70376

 Excited State  18:      Singlet-A      9.9805 eV  124.23 nm  f=0.0355  <S**2>=0.000
       9 -> 14         0.70553

 Excited State  19:      Singlet-A     10.1087 eV  122.65 nm  f=0.0001  <S**2>=0.000
      11 -> 20        -0.19639
      12 -> 21         0.67624

 Excited State  20:      Singlet-A     10.2360 eV  121.13 nm  f=0.0184  <S**2>=0.000
      11 -> 20         0.67105
      12 -> 21         0.18688

 Excited State  21:      Singlet-A     10.4150 eV  119.04 nm  f=0.0061  <S**2>=0.000
       9 -> 13        -0.11356
      10 -> 15        -0.12000
      12 -> 22         0.68441

 Excited State  22:      Singlet-A     10.5738 eV  117.26 nm  f=0.0331  <S**2>=0.000
       9 -> 13        -0.19540
      10 -> 15        -0.27322
      12 -> 22        -0.12137
      12 -> 23         0.60377

 Excited State  23:      Singlet-A     10.7027 eV  115.84 nm  f=0.0579  <S**2>=0.000
      10 -> 15         0.63170
      12 -> 23         0.27945

 Excited State  24:      Singlet-A     10.7663 eV  115.16 nm  f=0.0015  <S**2>=0.000
       9 -> 15         0.70286

 Excited State  25:      Singlet-A     10.8164 eV  114.63 nm  f=0.0374  <S**2>=0.000
       8 -> 14         0.10927
       9 -> 13         0.46434
      11 -> 21         0.48362
      12 -> 23         0.10765

 Excited State  26:      Singlet-A     10.9317 eV  113.42 nm  f=0.0044  <S**2>=0.000
      12 -> 24         0.70470

 Excited State  27:      Singlet-A     11.2096 eV  110.61 nm  f=0.0072  <S**2>=0.000
      11 -> 22         0.69752

 Excited State  28:      Singlet-A     11.2512 eV  110.20 nm  f=0.0900  <S**2>=0.000
       8 -> 14        -0.20667
       9 -> 13        -0.37607
      10 -> 16        -0.20011
      11 -> 21         0.46711
      12 -> 23        -0.14968
      12 -> 27         0.10355

 Excited State  29:      Singlet-A     11.2902 eV  109.82 nm  f=0.0004  <S**2>=0.000
      11 -> 23         0.69826

 Excited State  30:      Singlet-A     11.5067 eV  107.75 nm  f=0.0027  <S**2>=0.000
       8 -> 13         0.69252

 Excited State  31:      Singlet-A     11.7658 eV  105.38 nm  f=0.0384  <S**2>=0.000
       9 -> 16         0.69989

 Excited State  32:      Singlet-A     11.7660 eV  105.37 nm  f=0.0017  <S**2>=0.000
       8 -> 14        -0.20833
      10 -> 16         0.62823
      11 -> 24        -0.16061

 Excited State  33:      Singlet-A     11.8614 eV  104.53 nm  f=0.0299  <S**2>=0.000
       8 -> 14         0.59414
       9 -> 13        -0.20093
      10 -> 16         0.18815
      11 -> 21         0.11195
      11 -> 24         0.16851
      12 -> 27         0.10662

 Excited State  34:      Singlet-A     12.0311 eV  103.05 nm  f=0.0258  <S**2>=0.000
       8 -> 14        -0.19606
       9 -> 18         0.13965
      11 -> 24         0.62121

 Excited State  35:      Singlet-A     12.4649 eV   99.47 nm  f=0.1153  <S**2>=0.000
      10 -> 17         0.66581
      12 -> 25         0.19461
      12 -> 27        -0.10666

 Excited State  36:      Singlet-A     12.4786 eV   99.36 nm  f=0.0086  <S**2>=0.000
       8 -> 15        -0.10887
      10 -> 17        -0.21428
      12 -> 25         0.65233

 Excited State  37:      Singlet-A     12.4900 eV   99.27 nm  f=0.0097  <S**2>=0.000
       9 -> 17         0.19602
      10 -> 18         0.67893

 Excited State  38:      Singlet-A     12.6183 eV   98.26 nm  f=0.0153  <S**2>=0.000
       9 -> 17         0.58560
      10 -> 18        -0.16401
      12 -> 26         0.34736

 Excited State  39:      Singlet-A     12.6640 eV   97.90 nm  f=0.0254  <S**2>=0.000
       9 -> 17        -0.32151
      12 -> 26         0.61403

 Excited State  40:      Singlet-A     12.6840 eV   97.75 nm  f=0.1464  <S**2>=0.000
       8 -> 15         0.66816
      12 -> 25         0.13358

 Excited State  41:      Singlet-A     12.8515 eV   96.47 nm  f=0.0202  <S**2>=0.000
       8 -> 15        -0.11041
       9 -> 18         0.57694
      10 -> 19        -0.32392

 Excited State  42:      Singlet-A     12.8745 eV   96.30 nm  f=0.0455  <S**2>=0.000
       9 -> 18         0.31046
      10 -> 19         0.61828

 Excited State  43:      Singlet-A     12.9632 eV   95.64 nm  f=0.0001  <S**2>=0.000
       9 -> 19         0.70650

 Excited State  44:      Singlet-A     13.3064 eV   93.18 nm  f=0.0378  <S**2>=0.000
       7 -> 13        -0.19917
       9 -> 20         0.22327
      11 -> 25         0.63177

 Excited State  45:      Singlet-A     13.3136 eV   93.13 nm  f=0.1635  <S**2>=0.000
       8 -> 16         0.26568
      10 -> 20        -0.30632
      11 -> 26         0.16527
      12 -> 27         0.52074

 Excited State  46:      Singlet-A     13.4108 eV   92.45 nm  f=0.0000  <S**2>=0.000
       7 -> 13         0.67296
       9 -> 20         0.10881
      11 -> 25         0.16740

 Excited State  47:      Singlet-A     13.4571 eV   92.13 nm  f=0.0259  <S**2>=0.000
      10 -> 20         0.40598
      11 -> 26         0.55511

 Excited State  48:      Singlet-A     13.4960 eV   91.87 nm  f=0.0155  <S**2>=0.000
       8 -> 16         0.47360
      10 -> 20         0.40871
      11 -> 26        -0.27584

 Excited State  49:      Singlet-A     13.6571 eV   90.78 nm  f=0.1215  <S**2>=0.000
       6 -> 13        -0.12321
       9 -> 20         0.62316
      11 -> 25        -0.19215
      11 -> 27         0.21944

 Excited State  50:      Singlet-A     13.7026 eV   90.48 nm  f=0.0439  <S**2>=0.000
       8 -> 16         0.41240
       9 -> 21        -0.11250
      10 -> 20        -0.21620
      11 -> 26         0.25443
      12 -> 27        -0.33117
      12 -> 28         0.18421

 Excited State  51:      Singlet-A     13.8632 eV   89.43 nm  f=0.0358  <S**2>=0.000
       9 -> 20        -0.16295
      11 -> 25         0.13900
      11 -> 27         0.66128

 Excited State  52:      Singlet-A     14.0453 eV   88.27 nm  f=0.0734  <S**2>=0.000
       7 -> 14         0.62951
       9 -> 21        -0.23870

 Excited State  53:      Singlet-A     14.1117 eV   87.86 nm  f=0.0124  <S**2>=0.000
      10 -> 21         0.70334

 Excited State  54:      Singlet-A     14.2071 eV   87.27 nm  f=0.0431  <S**2>=0.000
       7 -> 14         0.12009
       9 -> 21         0.32334
      10 -> 22        -0.16458
      12 -> 28         0.57362

 Excited State  55:      Singlet-A     14.3525 eV   86.38 nm  f=0.0088  <S**2>=0.000
       8 -> 18         0.70439

 Excited State  56:      Singlet-A     14.3682 eV   86.29 nm  f=0.0264  <S**2>=0.000
       8 -> 17         0.32202
       9 -> 21         0.44962
      10 -> 23        -0.17369
      12 -> 28        -0.25417
      12 -> 29         0.25387

 Excited State  57:      Singlet-A     14.4157 eV   86.01 nm  f=0.0084  <S**2>=0.000
       7 -> 14        -0.14499
       7 -> 15        -0.21548
       8 -> 17         0.52563
       8 -> 19         0.10915
       9 -> 21        -0.23507
      10 -> 22        -0.20891
      10 -> 23         0.10587

 Excited State  58:      Singlet-A     14.4775 eV   85.64 nm  f=0.0336  <S**2>=0.000
       8 -> 17         0.19696
      10 -> 22         0.59066
      10 -> 23         0.26226

 Excited State  59:      Singlet-A     14.5509 eV   85.21 nm  f=0.0030  <S**2>=0.000
      10 -> 22        -0.16197
      10 -> 23         0.56951
      12 -> 28        -0.11379
      12 -> 29         0.33535

 Excited State  60:      Singlet-A     14.5532 eV   85.19 nm  f=0.0024  <S**2>=0.000
       9 -> 22         0.70295

 Excited State  61:      Singlet-A     14.6221 eV   84.79 nm  f=0.0008  <S**2>=0.000
       9 -> 23         0.69583

 Excited State  62:      Singlet-A     14.6347 eV   84.72 nm  f=0.0020  <S**2>=0.000
       7 -> 15        -0.39688
       8 -> 19        -0.30725
       9 -> 21        -0.10610
      10 -> 23        -0.17130
      12 -> 29         0.41670

 Excited State  63:      Singlet-A     14.7397 eV   84.12 nm  f=0.0171  <S**2>=0.000
       7 -> 15         0.37914
       8 -> 19         0.25766
       9 -> 21        -0.17259
      10 -> 22         0.10385
      10 -> 23        -0.13075
      12 -> 28         0.12140
      12 -> 29         0.35089
      12 -> 30         0.20309
      12 -> 32        -0.12276

 Excited State  64:      Singlet-A     14.8961 eV   83.23 nm  f=0.0244  <S**2>=0.000
       7 -> 15         0.12611
       8 -> 19        -0.31300
       9 -> 24        -0.10698
      12 -> 30         0.56634

 Excited State  65:      Singlet-A     14.9245 eV   83.07 nm  f=0.0000  <S**2>=0.000
      10 -> 24         0.69358

 Excited State  66:      Singlet-A     14.9600 eV   82.88 nm  f=0.0054  <S**2>=0.000
       6 -> 15         0.11200
       7 -> 15        -0.31925
       7 -> 16         0.15997
       8 -> 17        -0.14234
       8 -> 19         0.41806
       8 -> 20         0.15128
      12 -> 30         0.31365

 Excited State  67:      Singlet-A     15.0602 eV   82.33 nm  f=0.0169  <S**2>=0.000
      11 -> 28         0.62062
      12 -> 31        -0.30953

 Excited State  68:      Singlet-A     15.1410 eV   81.89 nm  f=0.0437  <S**2>=0.000
       6 -> 13        -0.14337
      11 -> 28         0.30574
      12 -> 31         0.60870

 Excited State  69:      Singlet-A     15.1950 eV   81.60 nm  f=0.0255  <S**2>=0.000
       6 -> 14         0.12787
       9 -> 24         0.59300
      12 -> 32        -0.29408

 Excited State  70:      Singlet-A     15.2262 eV   81.43 nm  f=0.0385  <S**2>=0.000
       9 -> 24         0.29082
      12 -> 32         0.60180

 Excited State  71:      Singlet-A     15.3252 eV   80.90 nm  f=0.0128  <S**2>=0.000
       6 -> 14        -0.13923
       8 -> 20         0.66237

 Excited State  72:      Singlet-A     15.3693 eV   80.67 nm  f=0.0008  <S**2>=0.000
      11 -> 29         0.70224

 Excited State  73:      Singlet-A     15.5085 eV   79.95 nm  f=0.0220  <S**2>=0.000
       6 -> 14         0.60730
       7 -> 16        -0.30661

 Excited State  74:      Singlet-A     15.6251 eV   79.35 nm  f=0.0010  <S**2>=0.000
       6 -> 13         0.18152
      11 -> 30         0.67691

 Excited State  75:      Singlet-A     15.7200 eV   78.87 nm  f=0.1768  <S**2>=0.000
       6 -> 13         0.60096
      10 -> 26         0.10099
      11 -> 30        -0.19381
      12 -> 31         0.14200

 Excited State  76:      Singlet-A     15.7691 eV   78.62 nm  f=0.0758  <S**2>=0.000
       6 -> 15        -0.11513
       7 -> 16         0.32708
      11 -> 31         0.28591
      12 -> 33         0.51923

 Excited State  77:      Singlet-A     15.9163 eV   77.90 nm  f=0.0008  <S**2>=0.000
      11 -> 32         0.70394

 Excited State  78:      Singlet-A     15.9438 eV   77.76 nm  f=0.0029  <S**2>=0.000
       8 -> 21         0.70398

 Excited State  79:      Singlet-A     15.9658 eV   77.66 nm  f=0.0651  <S**2>=0.000
       7 -> 16         0.16168
      11 -> 31         0.52220
      12 -> 33        -0.40169

 Excited State  80:      Singlet-A     16.0690 eV   77.16 nm  f=0.0137  <S**2>=0.000
       6 -> 14         0.20005
       6 -> 15        -0.25534
       7 -> 16         0.38106
       7 -> 17         0.14920
       7 -> 19        -0.10037
       8 -> 22         0.13815
       8 -> 23        -0.10757
       9 -> 24        -0.10871
      11 -> 31        -0.30733
      12 -> 33        -0.19549

 Excited State  81:      Singlet-A     16.3853 eV   75.67 nm  f=0.0517  <S**2>=0.000
       6 -> 15        -0.11025
       7 -> 17        -0.16942
       8 -> 22         0.51949
       8 -> 23         0.37998
      10 -> 25        -0.12567

 Excited State  82:      Singlet-A     16.4141 eV   75.54 nm  f=0.0137  <S**2>=0.000
       6 -> 15         0.39394
       7 -> 17         0.45009
       8 -> 22         0.21244
      10 -> 25        -0.26904

 Excited State  83:      Singlet-A     16.4584 eV   75.33 nm  f=0.0117  <S**2>=0.000
       7 -> 17         0.12121
       8 -> 22         0.28548
       8 -> 23        -0.18142
      10 -> 25         0.56592
      12 -> 34         0.16154

 Excited State  84:      Singlet-A     16.4900 eV   75.19 nm  f=0.0092  <S**2>=0.000
       7 -> 18         0.69817

 Excited State  85:      Singlet-A     16.5805 eV   74.78 nm  f=0.0008  <S**2>=0.000
      11 -> 33         0.69720

 Excited State  86:      Singlet-A     16.6124 eV   74.63 nm  f=0.1006  <S**2>=0.000
       7 -> 17         0.21797
       7 -> 19        -0.11325
       8 -> 22        -0.16441
       8 -> 23         0.48130
      10 -> 25         0.26750
      10 -> 27         0.10365
      12 -> 34        -0.23937

 Excited State  87:      Singlet-A     16.6396 eV   74.51 nm  f=0.0072  <S**2>=0.000
       8 -> 24        -0.14798
       9 -> 25         0.54779
      10 -> 26        -0.40420

 Excited State  88:      Singlet-A     16.7105 eV   74.20 nm  f=0.0116  <S**2>=0.000
       6 -> 13        -0.10444
       9 -> 25         0.39996
       9 -> 27        -0.11176
      10 -> 26         0.54760

 Excited State  89:      Singlet-A     16.7332 eV   74.09 nm  f=0.2322  <S**2>=0.000
       6 -> 15        -0.35728
       7 -> 16        -0.17120
       7 -> 17         0.38636
       9 -> 26        -0.17451
      12 -> 34         0.29324

 Excited State  90:      Singlet-A     16.7889 eV   73.85 nm  f=0.0132  <S**2>=0.000
       8 -> 24         0.68668
       9 -> 25         0.10266
      10 -> 26        -0.10747

 Excited State  91:      Singlet-A     16.8257 eV   73.69 nm  f=0.0246  <S**2>=0.000
       7 -> 19        -0.37454
       9 -> 26         0.49677
      12 -> 34         0.30421

 Excited State  92:      Singlet-A     16.9617 eV   73.10 nm  f=0.0066  <S**2>=0.000
       6 -> 15         0.20206
       7 -> 17        -0.11648
       7 -> 19        -0.18993
       9 -> 26        -0.32886
      10 -> 27         0.40327
      12 -> 34         0.28631

 Excited State  93:      Singlet-A     17.0246 eV   72.83 nm  f=0.0323  <S**2>=0.000
       7 -> 19         0.52086
       7 -> 20        -0.10681
       9 -> 26         0.23269
      10 -> 27         0.22161
      12 -> 34         0.22615

 Excited State  94:      Singlet-A     17.2208 eV   72.00 nm  f=0.0115  <S**2>=0.000
       6 -> 16         0.68302

 Excited State  95:      Singlet-A     17.2315 eV   71.95 nm  f=0.0535  <S**2>=0.000
       9 -> 27         0.68021

 Excited State  96:      Singlet-A     17.3097 eV   71.63 nm  f=0.0943  <S**2>=0.000
       6 -> 15        -0.14369
       7 -> 20         0.34398
       8 -> 22         0.10193
       8 -> 23        -0.11212
       9 -> 26         0.12759
      10 -> 27         0.46569
      12 -> 34        -0.20921

 Excited State  97:      Singlet-A     17.5142 eV   70.79 nm  f=0.0711  <S**2>=0.000
       7 -> 20         0.58445
       8 -> 23         0.10846
       8 -> 25         0.10683
      10 -> 27        -0.20062
      12 -> 34         0.12174

 Excited State  98:      Singlet-A     17.5512 eV   70.64 nm  f=0.0125  <S**2>=0.000
      11 -> 34         0.69384

 Excited State  99:      Singlet-A     17.6166 eV   70.38 nm  f=0.0062  <S**2>=0.000
      12 -> 35         0.70104

 Excited State 100:      Singlet-A     17.7148 eV   69.99 nm  f=0.0284  <S**2>=0.000
      12 -> 36         0.68591

 Excited State 101:      Singlet-A     18.0496 eV   68.69 nm  f=0.0002  <S**2>=0.000
       6 -> 18         0.70276

 Excited State 102:      Singlet-A     18.1054 eV   68.48 nm  f=0.0528  <S**2>=0.000
       6 -> 17         0.63068
       7 -> 22         0.10089
       8 -> 27        -0.12836
      10 -> 28        -0.21975

 Excited State 103:      Singlet-A     18.1638 eV   68.26 nm  f=0.0768  <S**2>=0.000
       7 -> 21         0.68432
       8 -> 26        -0.10060

 Excited State 104:      Singlet-A     18.2415 eV   67.97 nm  f=0.0031  <S**2>=0.000
       6 -> 17         0.17109
       7 -> 22         0.10802
      10 -> 28         0.64585
      11 -> 35         0.12821

 Excited State 105:      Singlet-A     18.3585 eV   67.53 nm  f=0.0000  <S**2>=0.000
       9 -> 28         0.70094

 Excited State 106:      Singlet-A     18.4203 eV   67.31 nm  f=0.0239  <S**2>=0.000
       6 -> 19         0.45315
       7 -> 23        -0.17203
       8 -> 25         0.11921
      11 -> 35         0.44411
      12 -> 37         0.20876

 Excited State 107:      Singlet-A     18.4397 eV   67.24 nm  f=0.0020  <S**2>=0.000
       6 -> 19         0.46475
       7 -> 22         0.23759
       8 -> 25        -0.28656
      11 -> 35        -0.31289
      12 -> 37        -0.15679

 Excited State 108:      Singlet-A     18.4875 eV   67.06 nm  f=0.0106  <S**2>=0.000
       8 -> 26        -0.25052
      11 -> 36         0.65711

 Excited State 109:      Singlet-A     18.5009 eV   67.02 nm  f=0.0673  <S**2>=0.000
       7 -> 23        -0.17518
       8 -> 25         0.51183
      10 -> 29         0.23707
      10 -> 30         0.12570
      11 -> 35        -0.29756

 Excited State 110:      Singlet-A     18.5570 eV   66.81 nm  f=0.0835  <S**2>=0.000
       8 -> 26         0.64734
      11 -> 36         0.24404

 Excited State 111:      Singlet-A     18.6280 eV   66.56 nm  f=0.0454  <S**2>=0.000
       6 -> 19         0.14306
       7 -> 22         0.21395
       7 -> 23         0.56732
       8 -> 25         0.11312
      10 -> 30         0.12431
      12 -> 37         0.24366

 Excited State 112:      Singlet-A     18.6509 eV   66.48 nm  f=0.0100  <S**2>=0.000
       8 -> 25        -0.17279
      10 -> 29         0.64076
      10 -> 30        -0.14758

 Excited State 113:      Singlet-A     18.6996 eV   66.30 nm  f=0.0773  <S**2>=0.000
       6 -> 19        -0.19097
       6 -> 20        -0.11239
       7 -> 22         0.51147
       7 -> 23        -0.25170
      12 -> 37         0.23984

 Excited State 114:      Singlet-A     18.7274 eV   66.20 nm  f=0.0002  <S**2>=0.000
       9 -> 29         0.69697
       9 -> 30         0.10156

 Excited State 115:      Singlet-A     18.8036 eV   65.94 nm  f=0.0724  <S**2>=0.000
       7 -> 22        -0.24454
       8 -> 25        -0.19919
       9 -> 31         0.11704
      10 -> 30         0.42499
      11 -> 35        -0.14383
      12 -> 37         0.35458

 Excited State 116:      Singlet-A     18.9221 eV   65.52 nm  f=0.0218  <S**2>=0.000
       7 -> 24         0.69146

 Excited State 117:      Singlet-A     18.9957 eV   65.27 nm  f=0.0176  <S**2>=0.000
       6 -> 20         0.61673
       8 -> 27        -0.26643
       9 -> 31         0.10944

 Excited State 118:      Singlet-A     19.1215 eV   64.84 nm  f=0.0017  <S**2>=0.000
      10 -> 31         0.70568

 Excited State 119:      Singlet-A     19.1588 eV   64.71 nm  f=0.0071  <S**2>=0.000
       6 -> 20         0.14385
       8 -> 27         0.34114
       9 -> 31        -0.29647
      10 -> 32         0.49839

 Excited State 120:      Singlet-A     19.1702 eV   64.68 nm  f=0.0003  <S**2>=0.000
       9 -> 30         0.55428
       9 -> 32        -0.40805

 Excited State 121:      Singlet-A     19.1870 eV   64.62 nm  f=0.0833  <S**2>=0.000
       6 -> 20        -0.23325
       8 -> 27        -0.33197
       9 -> 31         0.22820
      10 -> 30        -0.15343
      10 -> 32         0.46277

 Excited State 122:      Singlet-A     19.3042 eV   64.23 nm  f=0.0248  <S**2>=0.000

 The electronic state is 1-A.
 Alpha  occ. eigenvalues --  -18.75813 -14.04957 -10.01162  -0.95368  -0.83663
 Alpha  occ. eigenvalues --   -0.57588  -0.51877  -0.44016  -0.37683  -0.37231
 Alpha  occ. eigenvalues --   -0.25420  -0.22513
 Alpha virt. eigenvalues --   -0.03057  -0.01216   0.01754   0.05352   0.08257
 Alpha virt. eigenvalues --    0.08668   0.09946   0.11970   0.14526   0.15753
 Alpha virt. eigenvalues --    0.15984   0.17553   0.23138   0.23945   0.25266

 Mulliken charges:
               1
     1  N    0.270370
     2  C    0.542829
     3  O   -0.365162
     4  H   -0.129895
     5  H   -0.088844
     6  H   -0.229299
 Sum of Mulliken charges =  -0.00000

 Dipole moment (field-independent basis, Debye):
    X=              3.8221    Y=              0.7692    Z=              0.0000  Tot=              3.8987
 Quadrupole moment (field-independent basis, Debye-Ang):
   XX=            -18.2172   YY=            -15.9223   ZZ=            -18.9684
   XY=             -1.3215   XZ=              0.0000   YZ=             -0.0000

 Normal termination of Gaussian 16 at Mon Mar 21 20:12:41 2022.
