 Gaussian 16, Revision C.01,
 Gaussian 16:  EM64L-G16RevC.01  3-Jul-2019

 ----------------------------------------------------------------------
 #P TD(Nstates=10000) pw91pw91/Gen SCF(maxcycles=100) Int(Grid=ultrafin
 e)
 ----------------------------------------------------------------------

 ---------------------
 xGDB7_00001_tier4.com
 ---------------------
 Symbolic Z-matrix:
 Charge =  0 Multiplicity = 1

                         Standard orientation:
 ---------------------------------------------------------------------
 Center     Atomic      Atomic             Coordinates (Angstroms)
 Number     Number       Type             X           Y           Z
 ---------------------------------------------------------------------
      1          9           0       -1.139724   -0.269725    0.000000
      2          6           0        0.000000    0.430281    0.000000
      3          6           0        1.180852   -0.148760    0.000000
      4          1           0       -0.180450    1.498331    0.000000
      5          1           0        1.283634   -1.225170    0.000000
      6          1           0        2.069222    0.465238    0.000000
 ---------------------------------------------------------------------

 SCF Done:  E(RPW91-PW91) =  -177.640546180     A.U. after   13 cycles

 Excitation energies and oscillator strengths:

 Excited State   1:      Singlet-A"     6.8734 eV  180.38 nm  f=0.0294  <S**2>=0.000
      12 -> 14         0.70663
 This state for optimization and/or second-order correction.
 Total Energy, E(TD-HF/TD-DFT) =  -177.387954063
 Copying the excited state density for this state as the 1-particle RhoCI density.

 Excited State   2:      Singlet-A"     7.4576 eV  166.25 nm  f=0.0082  <S**2>=0.000
      12 -> 15         0.70645

 Excited State   3:      Singlet-A'     7.5798 eV  163.57 nm  f=0.2753  <S**2>=0.000
      12 -> 13         0.68570

 Excited State   4:      Singlet-A"     8.1514 eV  152.10 nm  f=0.0000  <S**2>=0.000
      11 -> 13         0.67078
      12 -> 16         0.21889

 Excited State   5:      Singlet-A"     8.2503 eV  150.28 nm  f=0.0006  <S**2>=0.000
      11 -> 13        -0.21867
      12 -> 16         0.66717

 Excited State   6:      Singlet-A"     8.7022 eV  142.47 nm  f=0.0001  <S**2>=0.000
      12 -> 17         0.70122

 Excited State   7:      Singlet-A'     9.2635 eV  133.84 nm  f=0.0078  <S**2>=0.000
      11 -> 14         0.70119

 Excited State   8:      Singlet-A"     9.3463 eV  132.66 nm  f=0.0000  <S**2>=0.000
      10 -> 13         0.69614

 Excited State   9:      Singlet-A"     9.4790 eV  130.80 nm  f=0.0050  <S**2>=0.000
      12 -> 18         0.69898

 Excited State  10:      Singlet-A'     9.6870 eV  127.99 nm  f=0.0035  <S**2>=0.000
      11 -> 15         0.10433
      12 -> 19         0.68643

 Excited State  11:      Singlet-A'     9.8347 eV  126.07 nm  f=0.0619  <S**2>=0.000
      11 -> 15         0.69349

 Excited State  12:      Singlet-A"    10.2120 eV  121.41 nm  f=0.1153  <S**2>=0.000
       8 -> 13        -0.11564
      12 -> 20         0.69157

 Excited State  13:      Singlet-A'    10.4077 eV  119.13 nm  f=0.1046  <S**2>=0.000
      10 -> 14         0.69722

 Excited State  14:      Singlet-A"    10.5390 eV  117.64 nm  f=0.0004  <S**2>=0.000
      12 -> 21         0.70595

 Excited State  15:      Singlet-A'    10.6889 eV  115.99 nm  f=0.0270  <S**2>=0.000
      11 -> 16         0.65946
      11 -> 17        -0.10773
      12 -> 22        -0.20108

 Excited State  16:      Singlet-A'    10.9893 eV  112.82 nm  f=0.0695  <S**2>=0.000
       9 -> 13         0.21561
      10 -> 15         0.65198

 Excited State  17:      Singlet-A'    11.0432 eV  112.27 nm  f=0.0351  <S**2>=0.000
       9 -> 13         0.28452
      10 -> 15        -0.12819
      11 -> 16         0.16172
      11 -> 17         0.18540
      12 -> 22         0.55763

 Excited State  18:      Singlet-A'    11.0831 eV  111.87 nm  f=0.0108  <S**2>=0.000
       9 -> 13        -0.42942
      11 -> 16         0.12623
      11 -> 17         0.51792

 Excited State  19:      Singlet-A"    11.1031 eV  111.67 nm  f=0.0015  <S**2>=0.000
       8 -> 13         0.15250
      12 -> 23         0.68892

 Excited State  20:      Singlet-A'    11.2159 eV  110.54 nm  f=0.2080  <S**2>=0.000
       9 -> 13         0.36776
      10 -> 15        -0.18553
      11 -> 17         0.40956
      12 -> 22        -0.34673

 Excited State  21:      Singlet-A"    11.3202 eV  109.53 nm  f=0.0157  <S**2>=0.000
       8 -> 13         0.66998
      12 -> 20         0.10031
      12 -> 23        -0.15327

 Excited State  22:      Singlet-A"    11.5412 eV  107.43 nm  f=0.0445  <S**2>=0.000
       9 -> 14         0.70190

 Excited State  23:      Singlet-A'    11.7251 eV  105.74 nm  f=0.0434  <S**2>=0.000
      10 -> 16         0.66852
      10 -> 17        -0.11198
      12 -> 24        -0.11282

 Excited State  24:      Singlet-A'    11.9105 eV  104.10 nm  f=0.0009  <S**2>=0.000
       9 -> 13        -0.10015
      11 -> 18         0.68633

 Excited State  25:      Singlet-A"    11.9191 eV  104.02 nm  f=0.0179  <S**2>=0.000
      11 -> 19         0.70269

 Excited State  26:      Singlet-A"    12.0843 eV  102.60 nm  f=0.0014  <S**2>=0.000
       9 -> 15         0.70566

 Excited State  27:      Singlet-A'    12.2570 eV  101.15 nm  f=0.0625  <S**2>=0.000
       8 -> 14         0.53338
      10 -> 17        -0.21321
      12 -> 24        -0.38701

 Excited State  28:      Singlet-A'    12.3266 eV  100.58 nm  f=0.1135  <S**2>=0.000
       8 -> 14         0.41508
      10 -> 16         0.15549
      10 -> 17         0.40489
      12 -> 24         0.31419
      12 -> 27         0.11812

 Excited State  29:      Singlet-A'    12.4369 eV   99.69 nm  f=0.0005  <S**2>=0.000
      10 -> 17         0.18025
      11 -> 20         0.66009
      12 -> 24        -0.13664

 Excited State  30:      Singlet-A"    12.4591 eV   99.51 nm  f=0.0059  <S**2>=0.000
       7 -> 13         0.69139

 Excited State  31:      Singlet-A'    12.5909 eV   98.47 nm  f=0.0122  <S**2>=0.000
       8 -> 15         0.37759
      10 -> 17         0.36462
      10 -> 18         0.13977
      11 -> 20        -0.22296
      11 -> 21         0.10327
      12 -> 24        -0.33515

 Excited State  32:      Singlet-A"    12.7542 eV   97.21 nm  f=0.0201  <S**2>=0.000
       9 -> 16         0.12128
      12 -> 25         0.68480

 Excited State  33:      Singlet-A'    12.9454 eV   95.77 nm  f=0.0754  <S**2>=0.000
       8 -> 15        -0.25935
      11 -> 21         0.62494
      11 -> 23        -0.11401
      12 -> 27        -0.10163

 Excited State  34:      Singlet-A'    12.9831 eV   95.50 nm  f=0.0895  <S**2>=0.000
       8 -> 15         0.44731
       8 -> 16        -0.12770
      10 -> 17        -0.14386
      10 -> 18        -0.40734
      10 -> 20         0.12310
      11 -> 21         0.19413
      12 -> 24         0.14234

 Excited State  35:      Singlet-A"    12.9838 eV   95.49 nm  f=0.0006  <S**2>=0.000
       9 -> 16         0.12581
      10 -> 19        -0.24728
      12 -> 26         0.64516

 Excited State  36:      Singlet-A"    12.9964 eV   95.40 nm  f=0.0101  <S**2>=0.000
       9 -> 16         0.59530
      10 -> 19         0.32442

 Excited State  37:      Singlet-A"    13.0109 eV   95.29 nm  f=0.0300  <S**2>=0.000
       9 -> 16        -0.27891
      10 -> 19         0.57659
      12 -> 26         0.26993

 Excited State  38:      Singlet-A'    13.0607 eV   94.93 nm  f=0.0369  <S**2>=0.000
       7 -> 14        -0.15253
       8 -> 15         0.15800
      10 -> 17        -0.12365
      10 -> 18         0.37538
      11 -> 21         0.18329
      11 -> 23        -0.12187
      12 -> 27         0.47502

 Excited State  39:      Singlet-A"    13.2492 eV   93.58 nm  f=0.0075  <S**2>=0.000
      11 -> 22         0.69428

 Excited State  40:      Singlet-A"    13.3601 eV   92.80 nm  f=0.0052  <S**2>=0.000
       9 -> 16         0.10319
       9 -> 17         0.69446

 Excited State  41:      Singlet-A'    13.3745 eV   92.70 nm  f=0.0418  <S**2>=0.000
       8 -> 14        -0.10156
       8 -> 15        -0.17113
       8 -> 16         0.10758
      10 -> 17         0.16789
      10 -> 18        -0.33363
      12 -> 24        -0.20402
      12 -> 27         0.45158

 Excited State  42:      Singlet-A'    13.4788 eV   91.98 nm  f=0.0059  <S**2>=0.000
       7 -> 14        -0.31455
       8 -> 16         0.39238
      10 -> 20         0.18320
      11 -> 23         0.44334

 Excited State  43:      Singlet-A'    13.6212 eV   91.02 nm  f=0.0126  <S**2>=0.000
       7 -> 14         0.14426
       8 -> 16         0.14592
      10 -> 20         0.59539
      11 -> 23        -0.26518

 Excited State  44:      Singlet-A'    13.6329 eV   90.94 nm  f=0.0680  <S**2>=0.000
       7 -> 14         0.49018
       7 -> 15         0.19970
       8 -> 17         0.15752
       9 -> 19         0.11259
      10 -> 18         0.11582
      11 -> 23         0.36313

 Excited State  45:      Singlet-A'    13.6815 eV   90.62 nm  f=0.0175  <S**2>=0.000
       7 -> 14         0.24476
       7 -> 15         0.12574
       8 -> 15         0.12085
       8 -> 16         0.50531
       8 -> 17        -0.11783
      10 -> 20        -0.22923
      10 -> 21         0.16223
      11 -> 23        -0.17398

 Excited State  46:      Singlet-A'    14.1111 eV   87.86 nm  f=0.0359  <S**2>=0.000
       7 -> 15        -0.36760
       8 -> 17         0.49437
      10 -> 21         0.28361
      10 -> 23        -0.12444

 Excited State  47:      Singlet-A'    14.1258 eV   87.77 nm  f=0.0265  <S**2>=0.000
       7 -> 14        -0.11930
       7 -> 15         0.47454
       8 -> 17         0.32928
       9 -> 19        -0.34889

 Excited State  48:      Singlet-A"    14.1365 eV   87.70 nm  f=0.0002  <S**2>=0.000
       9 -> 18         0.70475

 Excited State  49:      Singlet-A"    14.3531 eV   86.38 nm  f=0.0090  <S**2>=0.000
       6 -> 13        -0.24925
      10 -> 22         0.65351

 Excited State  50:      Singlet-A"    14.4055 eV   86.07 nm  f=0.0050  <S**2>=0.000
       6 -> 13         0.22208
      10 -> 22         0.13680
      11 -> 24        -0.37999
      12 -> 28         0.52822

 Excited State  51:      Singlet-A"    14.4321 eV   85.91 nm  f=0.0086  <S**2>=0.000
      11 -> 24         0.57765
      12 -> 28         0.40238

 Excited State  52:      Singlet-A'    14.4391 eV   85.87 nm  f=0.1580  <S**2>=0.000
       7 -> 15         0.20758
       7 -> 17        -0.13507
       9 -> 19         0.31821
      10 -> 20         0.10993
      10 -> 21         0.47423
      10 -> 23         0.12205
      11 -> 25         0.10095

 Excited State  53:      Singlet-A'    14.5444 eV   85.25 nm  f=0.0023  <S**2>=0.000
       7 -> 15         0.10997
       7 -> 16         0.12671
       8 -> 17         0.19123
       8 -> 18        -0.27384
       9 -> 19         0.43621
      10 -> 21        -0.25999
      10 -> 23        -0.18247
      11 -> 25        -0.13513

 Excited State  54:      Singlet-A"    14.6623 eV   84.56 nm  f=0.0010  <S**2>=0.000
       6 -> 13        -0.30982
       9 -> 20         0.57681
      10 -> 22        -0.13216
      12 -> 28         0.18084

 Excited State  55:      Singlet-A'    14.7201 eV   84.23 nm  f=0.0220  <S**2>=0.000
       7 -> 16         0.39732
       8 -> 17         0.12347
       8 -> 18         0.10612
      10 -> 23         0.52505

 Excited State  56:      Singlet-A"    14.8913 eV   83.26 nm  f=0.0068  <S**2>=0.000
       6 -> 13        -0.11841
       8 -> 19         0.67122
       9 -> 20        -0.16125

 Excited State  57:      Singlet-A'    14.9495 eV   82.94 nm  f=0.0990  <S**2>=0.000
       7 -> 16         0.15079
       7 -> 17        -0.12447
       8 -> 18         0.54775
      10 -> 23        -0.21168
      11 -> 25        -0.24635
      11 -> 26         0.13379

 Excited State  58:      Singlet-A"    15.0225 eV   82.53 nm  f=0.1210  <S**2>=0.000
       6 -> 13         0.37316
       8 -> 19         0.20288
       9 -> 20         0.32155
      10 -> 22         0.13138
      10 -> 24         0.10627
      12 -> 28        -0.10719
      12 -> 29         0.27937
      12 -> 30        -0.22091

 Excited State  59:      Singlet-A'    15.0387 eV   82.44 nm  f=0.2084  <S**2>=0.000
       7 -> 16         0.49238
       7 -> 17        -0.10653
       8 -> 17        -0.10853
       8 -> 18        -0.14626
       8 -> 21        -0.10296
       9 -> 19        -0.10737
      10 -> 23        -0.25359
      11 -> 25         0.25133
      12 -> 31         0.10082

 Excited State  60:      Singlet-A"    15.0645 eV   82.30 nm  f=0.0051  <S**2>=0.000
       6 -> 13        -0.19307
       9 -> 20        -0.10928
      12 -> 29         0.64341
      12 -> 30         0.14269

 Excited State  61:      Singlet-A'    15.1938 eV   81.60 nm  f=0.0659  <S**2>=0.000
       6 -> 14         0.19043
       7 -> 17         0.14144
       8 -> 18         0.23017
       8 -> 20         0.20979
       9 -> 19         0.11124
      10 -> 21        -0.10528
      11 -> 25         0.53380

 Excited State  62:      Singlet-A"    15.2106 eV   81.51 nm  f=0.0001  <S**2>=0.000
       9 -> 21         0.69999

 Excited State  63:      Singlet-A"    15.3134 eV   80.96 nm  f=0.0349  <S**2>=0.000
       6 -> 13         0.12082
      10 -> 24         0.12393
      11 -> 27        -0.32344
      12 -> 30         0.58297

 Excited State  64:      Singlet-A'    15.3305 eV   80.87 nm  f=0.0059  <S**2>=0.000
       6 -> 14         0.57590
       7 -> 17        -0.29537
      11 -> 26        -0.16887
      12 -> 31        -0.12917

 Excited State  65:      Singlet-A"    15.3864 eV   80.58 nm  f=0.0546  <S**2>=0.000
       6 -> 13         0.11873
      10 -> 24         0.15056
      11 -> 27         0.61480
      12 -> 30         0.24646

 Excited State  66:      Singlet-A'    15.3864 eV   80.58 nm  f=0.0106  <S**2>=0.000
       6 -> 14         0.14280
       9 -> 22        -0.19052
      11 -> 26         0.61368
      12 -> 31        -0.20979

 Excited State  67:      Singlet-A'    15.4503 eV   80.25 nm  f=0.1203  <S**2>=0.000
       6 -> 14         0.20375
       7 -> 16         0.11801
       7 -> 17         0.36082
       8 -> 20         0.42700
       9 -> 22        -0.17161
      10 -> 21         0.11177
      11 -> 25        -0.19990

 Excited State  68:      Singlet-A'    15.4884 eV   80.05 nm  f=0.0354  <S**2>=0.000
       6 -> 14         0.18478
       6 -> 15        -0.14485
      11 -> 26         0.13712
      12 -> 31         0.61424

 Excited State  69:      Singlet-A"    15.5798 eV   79.58 nm  f=0.0446  <S**2>=0.000
       6 -> 13        -0.12088
      10 -> 24         0.66154
      12 -> 30        -0.11051

 Excited State  70:      Singlet-A'    15.6063 eV   79.45 nm  f=0.0764  <S**2>=0.000
       6 -> 15         0.22167
       7 -> 17        -0.25769
       8 -> 20         0.41519
       9 -> 22         0.34554
      11 -> 26         0.18755
      12 -> 31         0.11402

 Excited State  71:      Singlet-A'    15.7301 eV   78.82 nm  f=0.0027  <S**2>=0.000
       6 -> 15        -0.18035
       7 -> 17         0.27112
       7 -> 18         0.10268
       8 -> 20        -0.14885
       9 -> 22         0.51974
      10 -> 25         0.10660
      12 -> 31        -0.13437

 Excited State  72:      Singlet-A"    15.7417 eV   78.76 nm  f=0.0031  <S**2>=0.000
       9 -> 23        -0.28217
      12 -> 32         0.64410

 Excited State  73:      Singlet-A"    15.7776 eV   78.58 nm  f=0.0316  <S**2>=0.000
       9 -> 23         0.63203
      12 -> 32         0.26650

 Excited State  74:      Singlet-A'    16.0098 eV   77.44 nm  f=0.0214  <S**2>=0.000
       6 -> 15         0.13678
       7 -> 18        -0.41005
       8 -> 21         0.50996
      10 -> 25         0.18647

 Excited State  75:      Singlet-A'    16.0574 eV   77.21 nm  f=0.0017  <S**2>=0.000
       6 -> 15         0.54159
       7 -> 17         0.13498
       7 -> 18         0.28584
       8 -> 20        -0.13265
       8 -> 23        -0.16807
      10 -> 26         0.12809

 Excited State  76:      Singlet-A"    16.1471 eV   76.78 nm  f=0.0168  <S**2>=0.000
       7 -> 19         0.69553

 Excited State  77:      Singlet-A'    16.1884 eV   76.59 nm  f=0.0240  <S**2>=0.000
       8 -> 21        -0.14574
      10 -> 25         0.64785
      10 -> 26        -0.12893

 Excited State  78:      Singlet-A"    16.2359 eV   76.36 nm  f=0.0224  <S**2>=0.000
       8 -> 22         0.68342
      12 -> 33        -0.13163

 Excited State  79:      Singlet-A'    16.2512 eV   76.29 nm  f=0.0842  <S**2>=0.000
       6 -> 15        -0.14478
       7 -> 18         0.46300
       8 -> 20         0.11593
       8 -> 21         0.38254
       9 -> 22        -0.10406
      10 -> 26        -0.14610

 Excited State  80:      Singlet-A"    16.4884 eV   75.19 nm  f=0.0152  <S**2>=0.000
      10 -> 27         0.56178
      12 -> 33         0.42687

 Excited State  81:      Singlet-A'    16.5272 eV   75.02 nm  f=0.0011  <S**2>=0.000
       6 -> 16        -0.10761
       8 -> 23         0.22852
      10 -> 26         0.58957
      11 -> 28         0.14657

 Excited State  82:      Singlet-A'    16.5447 eV   74.94 nm  f=0.0341  <S**2>=0.000
       6 -> 15         0.15541
       8 -> 23         0.61098
      10 -> 26        -0.21909

 Excited State  83:      Singlet-A"    16.6357 eV   74.53 nm  f=0.1662  <S**2>=0.000
       6 -> 13         0.10208
       7 -> 22        -0.11323
       8 -> 22         0.10971
      10 -> 27        -0.39877
      12 -> 33         0.52230

 Excited State  84:      Singlet-A'    16.6997 eV   74.24 nm  f=0.0276  <S**2>=0.000
       7 -> 20         0.63041
       9 -> 24        -0.22812
      11 -> 28        -0.15714

 Excited State  85:      Singlet-A'    16.7600 eV   73.98 nm  f=0.0116  <S**2>=0.000
       6 -> 16        -0.42094
       6 -> 17         0.12127
       7 -> 20         0.17721
       9 -> 24         0.48206
      10 -> 26        -0.10660

 Excited State  86:      Singlet-A'    16.8318 eV   73.66 nm  f=0.0674  <S**2>=0.000
       6 -> 16        -0.27958
       6 -> 17         0.18093
       7 -> 21         0.16494
       8 -> 23        -0.13172
       9 -> 24        -0.38034
      11 -> 28         0.42722

 Excited State  87:      Singlet-A'    17.0393 eV   72.76 nm  f=0.0167  <S**2>=0.000
       6 -> 16         0.37492
       7 -> 20         0.14774
       7 -> 21         0.11019
       9 -> 24         0.20568
      11 -> 28         0.41393
      11 -> 29        -0.14419
      12 -> 34         0.16161

 Excited State  88:      Singlet-A'    17.2241 eV   71.98 nm  f=0.0174  <S**2>=0.000
       6 -> 16         0.17195
       6 -> 17         0.57434
       7 -> 21        -0.34320

 Excited State  89:      Singlet-A'    17.2846 eV   71.73 nm  f=0.0781  <S**2>=0.000
       6 -> 17        -0.18262
       7 -> 21        -0.36194
      11 -> 29         0.17101
      11 -> 30        -0.13334
      12 -> 34         0.49702

 Excited State  90:      Singlet-A"    17.3576 eV   71.43 nm  f=0.0027  <S**2>=0.000
       7 -> 22        -0.17292
       8 -> 24         0.10047
       9 -> 25         0.64817
       9 -> 26        -0.15465

 Excited State  91:      Singlet-A"    17.4229 eV   71.16 nm  f=0.0178  <S**2>=0.000
       8 -> 24         0.69613

 Excited State  92:      Singlet-A"    17.4628 eV   71.00 nm  f=0.0054  <S**2>=0.000
       7 -> 22         0.43313
      12 -> 35         0.54658

 Excited State  93:      Singlet-A'    17.4647 eV   70.99 nm  f=0.0214  <S**2>=0.000
       7 -> 21         0.11320
       7 -> 23        -0.14714
      11 -> 29         0.64027
      11 -> 30         0.10600

 Excited State  94:      Singlet-A'    17.5719 eV   70.56 nm  f=0.0815  <S**2>=0.000
       6 -> 17         0.16169
       7 -> 21         0.23498
       8 -> 26        -0.14400
       9 -> 27         0.31050
      11 -> 28        -0.14662
      11 -> 30         0.29320
      12 -> 34         0.35579

 Excited State  95:      Singlet-A"    17.6009 eV   70.44 nm  f=0.1369  <S**2>=0.000
       7 -> 22         0.46455
       9 -> 25         0.12826
       9 -> 26        -0.12422
      12 -> 35        -0.41285
      12 -> 36        -0.22467

 Excited State  96:      Singlet-A'    17.6125 eV   70.40 nm  f=0.0053  <S**2>=0.000
       7 -> 21        -0.15975
       7 -> 23         0.21686
       9 -> 27        -0.28610
      11 -> 30         0.55819

 Excited State  97:      Singlet-A"    17.6804 eV   70.13 nm  f=0.0029  <S**2>=0.000
       9 -> 25         0.14155
       9 -> 26         0.64501
      12 -> 36        -0.22712

 Excited State  98:      Singlet-A'    17.7272 eV   69.94 nm  f=0.0023  <S**2>=0.000
       7 -> 23         0.51367
       8 -> 25         0.10838
       9 -> 27         0.35567
      10 -> 28         0.16938
      11 -> 30        -0.11291
      12 -> 34        -0.10315

 Excited State  99:      Singlet-A"    17.7942 eV   69.68 nm  f=0.0328  <S**2>=0.000
       7 -> 22         0.12599
       9 -> 26         0.12235
      11 -> 31        -0.43660
      12 -> 36         0.50504

 Excited State 100:      Singlet-A'    17.8593 eV   69.42 nm  f=0.0144  <S**2>=0.000
       7 -> 21        -0.22424
       7 -> 23        -0.31491
       8 -> 26         0.20511
       9 -> 27         0.40994
      11 -> 30         0.20529
      12 -> 34        -0.11314

 Excited State 101:      Singlet-A"    17.9042 eV   69.25 nm  f=0.0304  <S**2>=0.000
       7 -> 22         0.13613
       9 -> 26         0.15819
      11 -> 31         0.53017
      12 -> 36         0.31065
      12 -> 37         0.22685

 Excited State 102:      Singlet-A'    17.9377 eV   69.12 nm  f=0.0064  <S**2>=0.000
       6 -> 18        -0.45067
       8 -> 25         0.13041
      10 -> 28         0.50106

 Excited State 103:      Singlet-A"    17.9799 eV   68.96 nm  f=0.0036  <S**2>=0.000
       6 -> 19         0.70162

 Excited State 104:      Singlet-A'    17.9924 eV   68.91 nm  f=0.0263  <S**2>=0.000
       6 -> 18         0.51087
       7 -> 23        -0.16283
       8 -> 25         0.11571
      10 -> 28         0.38827

 Excited State 105:      Singlet-A"    18.0874 eV   68.55 nm  f=0.0248  <S**2>=0.000
       5 -> 13         0.13532
      11 -> 31        -0.12746
      12 -> 36        -0.16363
      12 -> 37         0.63828

 Excited State 106:      Singlet-A'    18.1469 eV   68.32 nm  f=0.0270  <S**2>=0.000
       8 -> 26         0.17031
      11 -> 32         0.64227
      12 -> 38         0.18649

 Excited State 107:      Singlet-A'    18.1931 eV   68.15 nm  f=0.1647  <S**2>=0.000

 The electronic state is 1-A'.
 Alpha  occ. eigenvalues --  -24.30827  -9.99583  -9.91412  -1.11952  -0.69957
 Alpha  occ. eigenvalues --   -0.55244  -0.48507  -0.43923  -0.41489  -0.37006
 Alpha  occ. eigenvalues --   -0.32960  -0.24352
 Alpha virt. eigenvalues --   -0.03395   0.00745   0.02878   0.05526   0.07440
 Alpha virt. eigenvalues --    0.10447   0.10779   0.12665   0.14296   0.15623
 Alpha virt. eigenvalues --    0.16392   0.20054   0.22062   0.23208   0.23509

 Mulliken charges:
               1
     1  F   -0.410233
     2  C    0.616160
     3  C    0.090568
     4  H   -0.152412
     5  H   -0.125367
     6  H   -0.018716
 Sum of Mulliken charges =  -0.00000

 Dipole moment (field-independent basis, Debye):
    X=              1.0897    Y=              0.7219    Z=              0.0000  Tot=              1.3072
 Quadrupole moment (field-independent basis, Debye-Ang):
   XX=            -17.8411   YY=            -15.9059   ZZ=            -19.0189
   XY=             -0.7759   XZ=              0.0000   YZ=              0.0000

 Normal termination of Gaussian 16 at Mon Mar 21 20:20:08 2022.
