 Gaussian 16, Revision C.01,
 Gaussian 16:  EM64L-G16RevC.01  3-Jul-2019

 ----------------------------------------------------------------------
 #P TD(Nstates=10000) pw91pw91/Gen SCF(maxcycles=100) Int(Grid=ultrafin
 e)
 ----------------------------------------------------------------------

 ---------------------
 xGDB7_00001_tier4.com
 ---------------------
 Symbolic Z-matrix:
 Charge =  0 Multiplicity = 1

                         Standard orientation:
 ---------------------------------------------------------------------
 Center     Atomic      Atomic             Coordinates (Angstroms)
 Number     Number       Type             X           Y           Z
 ---------------------------------------------------------------------
      1          7           0        1.106441    0.142513   -0.090982
      2          7           0       -0.080753   -0.512520    0.006066
      3          6           0       -1.148696    0.167456    0.008166
      4          1           0        1.854749   -0.409916    0.291533
      5          1           0        1.109676    1.100453    0.242713
      6          1           0       -2.089851   -0.366199    0.035249
      7          1           0       -1.162209    1.260974   -0.024080
 ---------------------------------------------------------------------

 SCF Done:  E(RPW91-PW91) =  -149.811009163     A.U. after   14 cycles

 Excitation energies and oscillator strengths:

 Excited State   1:      Singlet-A      5.6367 eV  219.96 nm  f=0.0408  <S**2>=0.000
      11 -> 13         0.53444
      12 -> 13         0.40331
      12 -> 14         0.20852
 This state for optimization and/or second-order correction.
 Total Energy, E(TD-HF/TD-DFT) =  -149.603865070
 Copying the excited state density for this state as the 1-particle RhoCI density.

 Excited State   2:      Singlet-A      5.7286 eV  216.43 nm  f=0.0389  <S**2>=0.000
      11 -> 13        -0.42755
      12 -> 13         0.32117
      12 -> 14         0.45802

 Excited State   3:      Singlet-A      6.0248 eV  205.79 nm  f=0.1159  <S**2>=0.000
      11 -> 13         0.17071
      12 -> 13        -0.45181
      12 -> 14         0.49253

 Excited State   4:      Singlet-A      6.6062 eV  187.68 nm  f=0.0396  <S**2>=0.000
      11 -> 14         0.69998

 Excited State   5:      Singlet-A      6.6794 eV  185.62 nm  f=0.0230  <S**2>=0.000
      12 -> 15         0.70419

 Excited State   6:      Singlet-A      7.3345 eV  169.04 nm  f=0.0128  <S**2>=0.000
      11 -> 15         0.59768
      12 -> 16        -0.37196

 Excited State   7:      Singlet-A      7.3632 eV  168.38 nm  f=0.0281  <S**2>=0.000
      11 -> 15         0.36364
      12 -> 16         0.59740

 Excited State   8:      Singlet-A      8.1263 eV  152.57 nm  f=0.0990  <S**2>=0.000
      11 -> 16         0.69336

 Excited State   9:      Singlet-A      8.1923 eV  151.34 nm  f=0.0102  <S**2>=0.000
      12 -> 17         0.69989

 Excited State  10:      Singlet-A      8.4800 eV  146.21 nm  f=0.0057  <S**2>=0.000
      12 -> 18         0.70028

 Excited State  11:      Singlet-A      8.9459 eV  138.59 nm  f=0.0412  <S**2>=0.000
      10 -> 13         0.11779
      11 -> 17         0.62400
      12 -> 19         0.28818

 Excited State  12:      Singlet-A      8.9706 eV  138.21 nm  f=0.0200  <S**2>=0.000
      11 -> 17        -0.29142
      12 -> 19         0.62693

 Excited State  13:      Singlet-A      9.1688 eV  135.22 nm  f=0.0569  <S**2>=0.000
      11 -> 18         0.69659

 Excited State  14:      Singlet-A      9.2337 eV  134.27 nm  f=0.0224  <S**2>=0.000
       9 -> 13         0.61874
      10 -> 13         0.29054
      12 -> 19        -0.10017

 Excited State  15:      Singlet-A      9.5943 eV  129.23 nm  f=0.0231  <S**2>=0.000
       9 -> 13        -0.10382
      10 -> 13         0.13959
      10 -> 14         0.17600
      11 -> 19         0.65500

 Excited State  16:      Singlet-A      9.6992 eV  127.83 nm  f=0.0443  <S**2>=0.000
       9 -> 13        -0.18014
      10 -> 13         0.24025
      10 -> 14         0.57075
      11 -> 19        -0.23521

 Excited State  17:      Singlet-A     10.0010 eV  123.97 nm  f=0.0347  <S**2>=0.000
       9 -> 13        -0.17872
      10 -> 13         0.33762
      10 -> 14        -0.33099
      12 -> 20         0.15486
      12 -> 21         0.42801

 Excited State  18:      Singlet-A     10.0750 eV  123.06 nm  f=0.0255  <S**2>=0.000
       9 -> 13         0.11953
       9 -> 14         0.11835
      10 -> 13        -0.24832
      10 -> 14         0.12842
      12 -> 20        -0.30271
      12 -> 21         0.52736

 Excited State  19:      Singlet-A     10.2280 eV  121.22 nm  f=0.0160  <S**2>=0.000
       9 -> 14         0.29562
      10 -> 13        -0.18030
      12 -> 20         0.54502
      12 -> 21         0.12425

 Excited State  20:      Singlet-A     10.4184 eV  119.00 nm  f=0.0066  <S**2>=0.000
       9 -> 14        -0.40925
      11 -> 21        -0.11765
      12 -> 20         0.12020
      12 -> 22         0.52639

 Excited State  21:      Singlet-A     10.4700 eV  118.42 nm  f=0.0309  <S**2>=0.000
      11 -> 20         0.68676
      12 -> 20        -0.10134

 Excited State  22:      Singlet-A     10.5316 eV  117.73 nm  f=0.1292  <S**2>=0.000
       9 -> 14         0.39774
      10 -> 13         0.10733
      10 -> 15        -0.30684
      11 -> 21         0.11771
      12 -> 22         0.43672

 Excited State  23:      Singlet-A     10.5986 eV  116.98 nm  f=0.0250  <S**2>=0.000
       9 -> 14         0.19187
      10 -> 13         0.12492
      10 -> 15         0.62261
      12 -> 22         0.15428

 Excited State  24:      Singlet-A     10.7472 eV  115.36 nm  f=0.0630  <S**2>=0.000
       9 -> 14        -0.11707
      11 -> 21         0.65740
      11 -> 22        -0.10173
      12 -> 23         0.11109

 Excited State  25:      Singlet-A     11.0809 eV  111.89 nm  f=0.0076  <S**2>=0.000
       9 -> 15         0.10794
      11 -> 22         0.53050
      12 -> 23         0.42107
      12 -> 24        -0.12823

 Excited State  26:      Singlet-A     11.1366 eV  111.33 nm  f=0.0548  <S**2>=0.000
       9 -> 15        -0.15475
      11 -> 22         0.41617
      12 -> 23        -0.35133
      12 -> 24         0.36930

 Excited State  27:      Singlet-A     11.1946 eV  110.75 nm  f=0.0231  <S**2>=0.000
       9 -> 15         0.28392
      10 -> 16        -0.14689
      11 -> 22        -0.12791
      12 -> 23         0.25015
      12 -> 24         0.55355

 Excited State  28:      Singlet-A     11.2714 eV  110.00 nm  f=0.0287  <S**2>=0.000
      10 -> 16         0.68208

 Excited State  29:      Singlet-A     11.3066 eV  109.66 nm  f=0.0591  <S**2>=0.000
       9 -> 15         0.60412
      12 -> 23        -0.27347
      12 -> 24        -0.15143

 Excited State  30:      Singlet-A     11.5533 eV  107.31 nm  f=0.0071  <S**2>=0.000
       8 -> 13        -0.12102
      11 -> 23         0.68096
      11 -> 24         0.10361

 Excited State  31:      Singlet-A     11.6439 eV  106.48 nm  f=0.0047  <S**2>=0.000
       8 -> 13         0.61031
      11 -> 23         0.11462
      12 -> 25         0.29399

 Excited State  32:      Singlet-A     11.8297 eV  104.81 nm  f=0.0865  <S**2>=0.000
       8 -> 13        -0.24584
      11 -> 24         0.15405
      12 -> 25         0.59508
      12 -> 26         0.12878

 Excited State  33:      Singlet-A     11.9710 eV  103.57 nm  f=0.0833  <S**2>=0.000
       9 -> 16         0.58614
      11 -> 24         0.24464
      12 -> 26         0.23186

 Excited State  34:      Singlet-A     12.0060 eV  103.27 nm  f=0.0090  <S**2>=0.000
       8 -> 13         0.10318
       9 -> 16        -0.29004
      10 -> 17        -0.12776
      11 -> 24         0.48913
      11 -> 25         0.21324
      12 -> 25        -0.15492
      12 -> 26         0.21124

 Excited State  35:      Singlet-A     12.0852 eV  102.59 nm  f=0.0246  <S**2>=0.000
       7 -> 13         0.12428
       9 -> 16        -0.16686
      10 -> 17         0.40024
      11 -> 24        -0.18296
      12 -> 26         0.48319

 Excited State  36:      Singlet-A     12.1594 eV  101.97 nm  f=0.0197  <S**2>=0.000
       7 -> 13        -0.13911
      10 -> 17         0.53827
      11 -> 24         0.17365
      11 -> 25         0.16518
      12 -> 26        -0.30216
      12 -> 27         0.12676

 Excited State  37:      Singlet-A     12.2060 eV  101.58 nm  f=0.0123  <S**2>=0.000
       7 -> 13         0.65860
      12 -> 26        -0.17183

 Excited State  38:      Singlet-A     12.4107 eV   99.90 nm  f=0.0319  <S**2>=0.000
      12 -> 27         0.67425

 Excited State  39:      Singlet-A     12.4463 eV   99.62 nm  f=0.0228  <S**2>=0.000
      10 -> 18         0.67557
      10 -> 19        -0.13037

 Excited State  40:      Singlet-A     12.5967 eV   98.43 nm  f=0.0062  <S**2>=0.000
       8 -> 14         0.41363
      11 -> 24        -0.14606
      11 -> 25         0.50064

 Excited State  41:      Singlet-A     12.7408 eV   97.31 nm  f=0.0177  <S**2>=0.000
       8 -> 14        -0.21072
       9 -> 17        -0.10189
      11 -> 25         0.13857
      11 -> 26         0.56861
      11 -> 27        -0.26872

 Excited State  42:      Singlet-A     12.8003 eV   96.86 nm  f=0.0021  <S**2>=0.000
       8 -> 14         0.45033
       9 -> 17         0.21018
      11 -> 24         0.12516
      11 -> 25        -0.29180
      11 -> 26         0.22263
      11 -> 27        -0.20851

 Excited State  43:      Singlet-A     12.8709 eV   96.33 nm  f=0.0493  <S**2>=0.000
       8 -> 14        -0.15680
       9 -> 17         0.57195
       9 -> 18         0.17463
      10 -> 19         0.23367
      11 -> 25         0.13940

 Excited State  44:      Singlet-A     12.9416 eV   95.80 nm  f=0.0952  <S**2>=0.000
       6 -> 13         0.10500
       8 -> 14         0.10159
       9 -> 17        -0.21079
      10 -> 18         0.10652
      10 -> 19         0.61714

 Excited State  45:      Singlet-A     13.1345 eV   94.40 nm  f=0.0172  <S**2>=0.000
       7 -> 14         0.12291
       8 -> 15         0.16916
       9 -> 17        -0.10675
       9 -> 18         0.62523
       9 -> 19         0.14526
      10 -> 19        -0.10600

 Excited State  46:      Singlet-A     13.1873 eV   94.02 nm  f=0.0264  <S**2>=0.000
       7 -> 14        -0.12791
       8 -> 15        -0.15421
      11 -> 26         0.28536
      11 -> 27         0.58092

 Excited State  47:      Singlet-A     13.4174 eV   92.41 nm  f=0.1089  <S**2>=0.000
       7 -> 14         0.63950
       8 -> 15        -0.22563

 Excited State  48:      Singlet-A     13.6034 eV   91.14 nm  f=0.0326  <S**2>=0.000
       7 -> 14         0.11328
       8 -> 15         0.51681
       8 -> 16         0.10530
       9 -> 19        -0.33126
      10 -> 20        -0.11595
      11 -> 27         0.12911
      12 -> 28         0.13245

 Excited State  49:      Singlet-A     13.7205 eV   90.36 nm  f=0.0923  <S**2>=0.000
       7 -> 14         0.12424
       8 -> 15         0.15422
       9 -> 18        -0.11554
       9 -> 19         0.50288
      10 -> 20        -0.34068
      12 -> 28         0.14179

 Excited State  50:      Singlet-A     13.7715 eV   90.03 nm  f=0.0052  <S**2>=0.000
       8 -> 15        -0.10888
      12 -> 28         0.66530

 Excited State  51:      Singlet-A     13.8954 eV   89.23 nm  f=0.0376  <S**2>=0.000
       8 -> 15         0.10952
       9 -> 19         0.21616
      10 -> 20         0.37281
      10 -> 21        -0.14070
      12 -> 29         0.47922

 Excited State  52:      Singlet-A     13.9643 eV   88.79 nm  f=0.0251  <S**2>=0.000
       7 -> 16        -0.10491
       8 -> 15         0.11508
      10 -> 20         0.31021
      10 -> 21         0.54838
      12 -> 29        -0.20015

 Excited State  53:      Singlet-A     13.9924 eV   88.61 nm  f=0.0032  <S**2>=0.000
       8 -> 16        -0.13288
      10 -> 20        -0.23132
      10 -> 21         0.39168
      10 -> 22         0.11066
      12 -> 29         0.44969

 Excited State  54:      Singlet-A     14.1380 eV   87.70 nm  f=0.0431  <S**2>=0.000
       8 -> 16         0.63046
      10 -> 22         0.10437
      12 -> 30         0.19952

 Excited State  55:      Singlet-A     14.1734 eV   87.48 nm  f=0.0110  <S**2>=0.000
       7 -> 15        -0.22639
       8 -> 16        -0.20064
      11 -> 28         0.11571
      12 -> 30         0.61297

 Excited State  56:      Singlet-A     14.2146 eV   87.22 nm  f=0.0380  <S**2>=0.000
       7 -> 15         0.61863
       9 -> 20        -0.18838
      10 -> 22         0.10006
      12 -> 30         0.19728

 Excited State  57:      Singlet-A     14.3455 eV   86.43 nm  f=0.0260  <S**2>=0.000
       7 -> 15         0.16912
       9 -> 20         0.65035

 Excited State  58:      Singlet-A     14.4075 eV   86.06 nm  f=0.0115  <S**2>=0.000
      10 -> 22         0.50370
      11 -> 28        -0.46364

 Excited State  59:      Singlet-A     14.4863 eV   85.59 nm  f=0.1017  <S**2>=0.000
       6 -> 13        -0.19243
       7 -> 16        -0.12400
      10 -> 22         0.39355
      11 -> 28         0.47153
      12 -> 30        -0.12558

 Excited State  60:      Singlet-A     14.5632 eV   85.14 nm  f=0.0123  <S**2>=0.000
       6 -> 13         0.38025
       7 -> 16        -0.15080
       9 -> 21         0.39929
       9 -> 22        -0.10386
      10 -> 22         0.10884
      11 -> 29         0.32652

 Excited State  61:      Singlet-A     14.6432 eV   84.67 nm  f=0.0247  <S**2>=0.000
       6 -> 13        -0.24311
       7 -> 16         0.14443
       9 -> 22         0.13571
      11 -> 29         0.57910
      11 -> 30         0.11982

 Excited State  62:      Singlet-A     14.7018 eV   84.33 nm  f=0.0410  <S**2>=0.000
       6 -> 13        -0.33932
       9 -> 21         0.51643
      10 -> 23        -0.10911
      11 -> 30        -0.16404

 Excited State  63:      Singlet-A     14.7726 eV   83.93 nm  f=0.0306  <S**2>=0.000
      12 -> 31         0.68824

 Excited State  64:      Singlet-A     14.8764 eV   83.34 nm  f=0.0079  <S**2>=0.000
       8 -> 17        -0.30596
      10 -> 23        -0.29284
      11 -> 30         0.52887

 Excited State  65:      Singlet-A     14.9733 eV   82.80 nm  f=0.0422  <S**2>=0.000
       9 -> 21         0.11468
       9 -> 22        -0.16162
      10 -> 23         0.53365
      10 -> 24        -0.16978
      11 -> 29        -0.10354
      11 -> 30         0.27423
      12 -> 32        -0.14171

 Excited State  66:      Singlet-A     15.0177 eV   82.56 nm  f=0.0318  <S**2>=0.000
       6 -> 14         0.22335
       7 -> 16        -0.22699
       8 -> 17        -0.24872
       9 -> 22         0.52045
      12 -> 32        -0.15210

 Excited State  67:      Singlet-A     15.0908 eV   82.16 nm  f=0.0248  <S**2>=0.000
       6 -> 14         0.16086
       7 -> 16        -0.21869
       7 -> 17         0.10351
       8 -> 17         0.15476
      11 -> 30         0.11085
      12 -> 32         0.58309

 Excited State  68:      Singlet-A     15.1433 eV   81.87 nm  f=0.0699  <S**2>=0.000
       6 -> 13        -0.12194
       6 -> 14         0.17456
       7 -> 16        -0.32432
       8 -> 17         0.17667
       8 -> 18        -0.13943
       9 -> 22        -0.13260
       9 -> 23        -0.11929
      10 -> 24         0.38590
      12 -> 32        -0.22171
      12 -> 33        -0.11924

 Excited State  69:      Singlet-A     15.1664 eV   81.75 nm  f=0.0394  <S**2>=0.000
       6 -> 14        -0.15732
       7 -> 16         0.19593
       9 -> 22         0.20691
      10 -> 23         0.18300
      10 -> 24         0.50535
      11 -> 31         0.11859
      12 -> 32         0.14973

 Excited State  70:      Singlet-A     15.2678 eV   81.21 nm  f=0.2286  <S**2>=0.000
       6 -> 13         0.10722
       6 -> 14        -0.11143
       8 -> 17         0.43650
       8 -> 18         0.22340
       9 -> 22         0.21196
      10 -> 24        -0.13823
      11 -> 30         0.19303
      12 -> 32        -0.16906
      12 -> 36        -0.10256

 Excited State  71:      Singlet-A     15.3231 eV   80.91 nm  f=0.0123  <S**2>=0.000
       8 -> 18        -0.16919
       9 -> 23        -0.13695
      12 -> 33         0.65139

 Excited State  72:      Singlet-A     15.3905 eV   80.56 nm  f=0.0057  <S**2>=0.000
       6 -> 14         0.24258
       8 -> 18         0.22512
       9 -> 23        -0.18131
      11 -> 31         0.58040

 Excited State  73:      Singlet-A     15.4021 eV   80.50 nm  f=0.0784  <S**2>=0.000
       6 -> 14         0.28044
       7 -> 17        -0.17331
       8 -> 18         0.39849
       9 -> 23        -0.22993
      11 -> 31        -0.36620

 Excited State  74:      Singlet-A     15.4863 eV   80.06 nm  f=0.0972  <S**2>=0.000
       6 -> 13        -0.11675
       8 -> 18         0.25005
       9 -> 22        -0.11715
       9 -> 23         0.55998
      12 -> 33         0.14910
      12 -> 35        -0.11365

 Excited State  75:      Singlet-A     15.6694 eV   79.13 nm  f=0.0654  <S**2>=0.000
       6 -> 14         0.25876
       7 -> 16         0.13191
       7 -> 18         0.10761
       8 -> 18        -0.22745
       8 -> 19         0.16269
       9 -> 23         0.13975
      10 -> 25        -0.21850
      11 -> 32         0.44062

 Excited State  76:      Singlet-A     15.7018 eV   78.96 nm  f=0.0119  <S**2>=0.000
       8 -> 19         0.39082
       9 -> 24         0.21343
      10 -> 25         0.51571

 Excited State  77:      Singlet-A     15.7094 eV   78.92 nm  f=0.0172  <S**2>=0.000
       6 -> 14        -0.10135
       6 -> 15         0.10984
       7 -> 18        -0.13455
       8 -> 19         0.50599
      10 -> 25        -0.35402
      11 -> 32        -0.14851

 Excited State  78:      Singlet-A     15.7480 eV   78.73 nm  f=0.0096  <S**2>=0.000
       9 -> 24        -0.13478
      12 -> 34         0.67346

 Excited State  79:      Singlet-A     15.7702 eV   78.62 nm  f=0.0477  <S**2>=0.000
       8 -> 19        -0.18017
       9 -> 24         0.61285
      10 -> 25        -0.10323
      11 -> 32         0.15459
      12 -> 34         0.12722

 Excited State  80:      Singlet-A     15.8263 eV   78.34 nm  f=0.0055  <S**2>=0.000
       6 -> 14        -0.18571
       6 -> 15         0.15167
       7 -> 16        -0.11085
       7 -> 17         0.14391
       7 -> 18        -0.19303
       8 -> 18         0.12634
       9 -> 24        -0.13403
      11 -> 32         0.45838
      11 -> 33        -0.17020
      12 -> 35         0.14489

 Excited State  81:      Singlet-A     15.8799 eV   78.08 nm  f=0.0755  <S**2>=0.000
       6 -> 14         0.10432
       6 -> 15         0.11608
       7 -> 16         0.10867
       7 -> 17         0.56083
       7 -> 18         0.16507
       9 -> 25         0.10166
      11 -> 33         0.20987
      12 -> 36         0.11284

 Excited State  82:      Singlet-A     15.9372 eV   77.80 nm  f=0.0309  <S**2>=0.000
      10 -> 26         0.46856
      10 -> 27        -0.10148
      11 -> 33        -0.38952
      12 -> 35        -0.28040

 Excited State  83:      Singlet-A     15.9785 eV   77.59 nm  f=0.0452  <S**2>=0.000
       6 -> 15         0.13626
       7 -> 17        -0.10514
       7 -> 18        -0.19967
      10 -> 26         0.22021
      11 -> 33         0.43772
      12 -> 35        -0.38590

 Excited State  84:      Singlet-A     16.0924 eV   77.05 nm  f=0.0346  <S**2>=0.000
       7 -> 17        -0.10651
      10 -> 25        -0.12230
      10 -> 26         0.35481
      10 -> 27        -0.28748
      11 -> 33         0.17434
      12 -> 35         0.40153

 Excited State  85:      Singlet-A     16.1549 eV   76.75 nm  f=0.1181  <S**2>=0.000
       6 -> 14        -0.13787
       6 -> 16        -0.13434
       7 -> 16        -0.18286
       7 -> 18         0.52934
       9 -> 25        -0.12031
      10 -> 27        -0.17876
      11 -> 33         0.10921
      11 -> 35         0.10729

 Excited State  86:      Singlet-A     16.2163 eV   76.46 nm  f=0.0965  <S**2>=0.000
       6 -> 15         0.57064
       7 -> 19         0.23588
      10 -> 27        -0.11165
      11 -> 33        -0.12471

 Excited State  87:      Singlet-A     16.3001 eV   76.06 nm  f=0.0156  <S**2>=0.000
       7 -> 19        -0.26534
       9 -> 25         0.41569
      10 -> 27        -0.29840
      12 -> 36         0.36443

 Excited State  88:      Singlet-A     16.3424 eV   75.87 nm  f=0.1207  <S**2>=0.000
       6 -> 15        -0.11508
       7 -> 19         0.18242
       9 -> 25        -0.39468
       9 -> 26        -0.12900
      10 -> 27        -0.17435
      11 -> 34        -0.10959
      12 -> 36         0.45515

 Excited State  89:      Singlet-A     16.4466 eV   75.39 nm  f=0.0500  <S**2>=0.000
       6 -> 16        -0.13256
       7 -> 19        -0.12207
       8 -> 20         0.25539
      10 -> 26         0.20163
      10 -> 27         0.41248
      11 -> 34         0.23700
      12 -> 35         0.11726
      12 -> 36         0.22748

 Excited State  90:      Singlet-A     16.4983 eV   75.15 nm  f=0.0164  <S**2>=0.000
       7 -> 19         0.44020
       8 -> 20         0.20845
       8 -> 21        -0.13060
       9 -> 25         0.28398
      11 -> 34        -0.12978
      11 -> 35         0.31366

 Excited State  91:      Singlet-A     16.5575 eV   74.88 nm  f=0.0445  <S**2>=0.000
       7 -> 19        -0.13733
       8 -> 20         0.55972
       8 -> 21         0.16784
       9 -> 25        -0.13464
       9 -> 26         0.10408
      10 -> 27        -0.15214
      11 -> 35         0.15433
      12 -> 36        -0.13241

 Excited State  92:      Singlet-A     16.5961 eV   74.71 nm  f=0.0451  <S**2>=0.000
       6 -> 15        -0.10270
       6 -> 16         0.14946
       7 -> 19         0.22600
       9 -> 26         0.33089
      11 -> 34         0.42787
      11 -> 35        -0.25656

 Excited State  93:      Singlet-A     16.6667 eV   74.39 nm  f=0.0655  <S**2>=0.000
       6 -> 16        -0.17572
       8 -> 20        -0.15544
       9 -> 26         0.41126
       9 -> 27        -0.13749
      11 -> 35         0.38033
      11 -> 36         0.14261

 Excited State  94:      Singlet-A     16.7416 eV   74.06 nm  f=0.0677  <S**2>=0.000
       6 -> 16         0.32334
       8 -> 20        -0.16820
       9 -> 26        -0.22427
       9 -> 27         0.20108

 The electronic state is 1-A.
 Alpha  occ. eigenvalues --  -14.04451 -14.04099  -9.92802  -0.91354  -0.73163
 Alpha  occ. eigenvalues --   -0.55510  -0.48451  -0.45840  -0.37691  -0.35398
 Alpha  occ. eigenvalues --   -0.23364  -0.20981
 Alpha virt. eigenvalues --   -0.04160   0.00223   0.03315   0.05813   0.08810
 Alpha virt. eigenvalues --    0.10027   0.11576   0.14814   0.15798   0.17271
 Alpha virt. eigenvalues --    0.18991   0.20026   0.22113   0.22755   0.24215

 Mulliken charges:
               1
     1  N    0.207082
     2  N   -0.267957
     3  C    0.654296
     4  H   -0.018383
     5  H   -0.003233
     6  H   -0.403837
     7  H   -0.167968
 Sum of Mulliken charges =  -0.00000

 Dipole moment (field-independent basis, Debye):
    X=              0.6112    Y=              1.5396    Z=              0.9477  Tot=              1.9084
 Quadrupole moment (field-independent basis, Debye-Ang):
   XX=            -15.1330   YY=            -18.8895   ZZ=            -20.5761
   XY=             -0.2261   XZ=              1.7448   YZ=              0.2622

 Normal termination of Gaussian 16 at Mon Mar 21 20:23:45 2022.
