 Gaussian 16, Revision C.01,
 Gaussian 16:  EM64L-G16RevC.01  3-Jul-2019

 ----------------------------------------------------------------------
 #P TD(Nstates=10000) pw91pw91/Gen SCF(maxcycles=100) Int(Grid=ultrafin
 e)
 ----------------------------------------------------------------------

 ---------------------
 xGDB7_00001_tier4.com
 ---------------------
 Symbolic Z-matrix:
 Charge =  0 Multiplicity = 1

                         Standard orientation:
 ---------------------------------------------------------------------
 Center     Atomic      Atomic             Coordinates (Angstroms)
 Number     Number       Type             X           Y           Z
 ---------------------------------------------------------------------
      1          6           0        0.046419    0.658432    0.000000
      2          8           0        0.046419   -0.751929    0.000000
      3          1           0       -0.438905    1.073261    0.890797
      4          1           0       -0.438905    1.073261   -0.890797
      5          1           0        1.087855    0.977571    0.000000
      6          1           0       -0.859911   -1.059251    0.000000
 ---------------------------------------------------------------------

 SCF Done:  E(RPW91-PW91) =  -115.600450797     A.U. after   12 cycles

 Excitation energies and oscillator strengths:

 Excited State   1:      Singlet-A"     6.0828 eV  203.83 nm  f=0.0012  <S**2>=0.000
       9 -> 10         0.70583
 This state for optimization and/or second-order correction.
 Total Energy, E(TD-HF/TD-DFT) =  -115.376911094
 Copying the excited state density for this state as the 1-particle RhoCI density.

 Excited State   2:      Singlet-A"     7.0400 eV  176.11 nm  f=0.0246  <S**2>=0.000
       9 -> 11         0.70462

 Excited State   3:      Singlet-A'     7.7276 eV  160.44 nm  f=0.0017  <S**2>=0.000
       8 -> 10         0.70212

 Excited State   4:      Singlet-A"     8.1350 eV  152.41 nm  f=0.0129  <S**2>=0.000
       9 -> 13         0.70551

 Excited State   5:      Singlet-A'     8.1971 eV  151.25 nm  f=0.0505  <S**2>=0.000
       9 -> 12         0.70130

 Excited State   6:      Singlet-A'     8.7176 eV  142.22 nm  f=0.0452  <S**2>=0.000
       8 -> 11         0.70282

 Excited State   7:      Singlet-A"     9.0008 eV  137.75 nm  f=0.0013  <S**2>=0.000
       9 -> 14         0.70559

 Excited State   8:      Singlet-A"     9.3507 eV  132.59 nm  f=0.0035  <S**2>=0.000
       9 -> 15         0.70346

 Excited State   9:      Singlet-A"     9.7641 eV  126.98 nm  f=0.0199  <S**2>=0.000
       8 -> 12         0.70414

 Excited State  10:      Singlet-A'     9.8131 eV  126.35 nm  f=0.0071  <S**2>=0.000
       9 -> 16         0.66859
       9 -> 18         0.19876

 Excited State  11:      Singlet-A'     9.8458 eV  125.93 nm  f=0.0728  <S**2>=0.000
       8 -> 13         0.70037

 Excited State  12:      Singlet-A'    10.2186 eV  121.33 nm  f=0.0399  <S**2>=0.000
       7 -> 10         0.70420

 Excited State  13:      Singlet-A"    10.2617 eV  120.82 nm  f=0.0004  <S**2>=0.000
       9 -> 17         0.70594

 Excited State  14:      Singlet-A"    10.4656 eV  118.47 nm  f=0.0595  <S**2>=0.000
       6 -> 10         0.70270

 Excited State  15:      Singlet-A'    10.4699 eV  118.42 nm  f=0.0205  <S**2>=0.000
       8 -> 14        -0.25535
       8 -> 15         0.14049
       9 -> 16        -0.15339
       9 -> 18         0.61632

 Excited State  16:      Singlet-A'    10.7491 eV  115.34 nm  f=0.0007  <S**2>=0.000
       8 -> 14         0.64018
       8 -> 15         0.17997
       9 -> 18         0.19103

 Excited State  17:      Singlet-A'    11.1399 eV  111.30 nm  f=0.0329  <S**2>=0.000
       7 -> 11         0.52501
       8 -> 15        -0.45768

 Excited State  18:      Singlet-A"    11.1705 eV  110.99 nm  f=0.0004  <S**2>=0.000
       8 -> 16         0.12338
       9 -> 19         0.69378

 Excited State  19:      Singlet-A'    11.3418 eV  109.32 nm  f=0.0654  <S**2>=0.000
       7 -> 11         0.45173
       8 -> 14        -0.11933
       8 -> 15         0.46102
       8 -> 17        -0.12040
       9 -> 18        -0.14379

 Excited State  20:      Singlet-A"    11.3434 eV  109.30 nm  f=0.0062  <S**2>=0.000
       8 -> 16         0.68626
       9 -> 19        -0.11974

 Excited State  21:      Singlet-A"    11.4470 eV  108.31 nm  f=0.0408  <S**2>=0.000
       6 -> 11         0.69768

 Excited State  22:      Singlet-A"    11.9243 eV  103.98 nm  f=0.0002  <S**2>=0.000
       8 -> 18         0.70033

 Excited State  23:      Singlet-A'    12.0016 eV  103.31 nm  f=0.0105  <S**2>=0.000
       6 -> 12         0.12092
       8 -> 17         0.67746

 Excited State  24:      Singlet-A"    12.1538 eV  102.01 nm  f=0.0384  <S**2>=0.000
       7 -> 12         0.18796
       9 -> 20         0.66537

 Excited State  25:      Singlet-A"    12.2332 eV  101.35 nm  f=0.0065  <S**2>=0.000
       7 -> 12         0.67695
       9 -> 20        -0.18586

 Excited State  26:      Singlet-A'    12.4039 eV   99.96 nm  f=0.0831  <S**2>=0.000
       6 -> 12        -0.29560
       7 -> 13         0.61995

 Excited State  27:      Singlet-A'    12.4702 eV   99.42 nm  f=0.0306  <S**2>=0.000
       5 -> 10         0.60809
       6 -> 12        -0.32357
       8 -> 19         0.10521

 Excited State  28:      Singlet-A"    12.5291 eV   98.96 nm  f=0.0022  <S**2>=0.000
       6 -> 13         0.70120

 Excited State  29:      Singlet-A'    13.0137 eV   95.27 nm  f=0.0202  <S**2>=0.000
       5 -> 10         0.11201
       5 -> 11        -0.19469
       6 -> 12         0.32194
       7 -> 13         0.20853
       7 -> 14        -0.15385
       7 -> 15        -0.20861
       8 -> 19         0.45272

 Excited State  30:      Singlet-A'    13.1465 eV   94.31 nm  f=0.0400  <S**2>=0.000
       5 -> 10        -0.19888
       6 -> 12        -0.28112
       6 -> 16         0.10143
       7 -> 13        -0.15221
       7 -> 14         0.33460
       8 -> 19         0.41553
       9 -> 24         0.17530

 Excited State  31:      Singlet-A"    13.1851 eV   94.03 nm  f=0.0020  <S**2>=0.000
       9 -> 21         0.69279

 Excited State  32:      Singlet-A'    13.2847 eV   93.33 nm  f=0.0242  <S**2>=0.000
       5 -> 10         0.13000
       6 -> 12         0.17769
       7 -> 14         0.46501
       8 -> 19        -0.10491
       9 -> 22         0.42434

 Excited State  33:      Singlet-A'    13.3684 eV   92.74 nm  f=0.0403  <S**2>=0.000
       5 -> 11         0.62719
       7 -> 15        -0.28709

 Excited State  34:      Singlet-A"    13.4145 eV   92.43 nm  f=0.0001  <S**2>=0.000
       6 -> 14         0.68457
       6 -> 15        -0.11396
       9 -> 23        -0.12546

 Excited State  35:      Singlet-A'    13.5091 eV   91.78 nm  f=0.0575  <S**2>=0.000
       5 -> 10        -0.11918
       5 -> 13         0.10586
       6 -> 12        -0.14127
       6 -> 16         0.14388
       7 -> 14        -0.31672
       9 -> 22         0.53213

 Excited State  36:      Singlet-A"    13.5804 eV   91.30 nm  f=0.0116  <S**2>=0.000
       6 -> 15        -0.25636
       9 -> 23         0.64681

 Excited State  37:      Singlet-A'    13.6281 eV   90.98 nm  f=0.0880  <S**2>=0.000
       5 -> 11         0.18796
       6 -> 12         0.10689
       6 -> 18         0.11037
       7 -> 13         0.10877
       7 -> 15         0.56619
       8 -> 19         0.15287
       9 -> 22         0.11850
       9 -> 24         0.17447

 Excited State  38:      Singlet-A"    13.7332 eV   90.28 nm  f=0.0002  <S**2>=0.000
       6 -> 15        -0.32889
       7 -> 16         0.60464
       9 -> 23        -0.13584

 Excited State  39:      Singlet-A'    13.7450 eV   90.20 nm  f=0.0100  <S**2>=0.000
       6 -> 16        -0.11480
       8 -> 20         0.66690
       9 -> 24         0.14373

 Excited State  40:      Singlet-A'    13.9838 eV   88.66 nm  f=0.3403  <S**2>=0.000
       5 -> 11        -0.10524
       7 -> 15        -0.12442
       8 -> 19        -0.15246
       8 -> 20        -0.14719
       9 -> 24         0.62440

 Excited State  41:      Singlet-A"    14.0617 eV   88.17 nm  f=0.1370  <S**2>=0.000
       5 -> 12        -0.11395
       6 -> 14         0.10010
       6 -> 15         0.49592
       6 -> 17         0.17521
       7 -> 16         0.33407
       7 -> 18        -0.19114
       9 -> 23         0.16269

 Excited State  42:      Singlet-A'    14.2735 eV   86.86 nm  f=0.0885  <S**2>=0.000
       6 -> 16         0.52275
       7 -> 17        -0.43729

 Excited State  43:      Singlet-A"    14.4062 eV   86.06 nm  f=0.0009  <S**2>=0.000
       5 -> 12        -0.32830
       6 -> 17         0.14080
       7 -> 18         0.60348

 Excited State  44:      Singlet-A"    14.4707 eV   85.68 nm  f=0.0633  <S**2>=0.000
       5 -> 12         0.60439
       6 -> 17         0.21103
       7 -> 18         0.26083

 Excited State  45:      Singlet-A'    14.5328 eV   85.31 nm  f=0.0501  <S**2>=0.000
       5 -> 13         0.54427
       5 -> 14         0.10047
       6 -> 16        -0.24156
       6 -> 18         0.12600
       7 -> 17        -0.27240
       8 -> 21         0.13788

 Excited State  46:      Singlet-A"    14.6002 eV   84.92 nm  f=0.0202  <S**2>=0.000
       6 -> 17        -0.13736
       9 -> 25         0.69088

 Excited State  47:      Singlet-A'    14.6529 eV   84.61 nm  f=0.1287  <S**2>=0.000
       5 -> 13         0.25560
       6 -> 16         0.25923
       6 -> 18         0.33396
       7 -> 17         0.40817
       8 -> 21         0.13931

 Excited State  48:      Singlet-A"    14.7655 eV   83.97 nm  f=0.0927  <S**2>=0.000
       6 -> 15        -0.14469
       6 -> 17         0.58234
       7 -> 18        -0.13546
       8 -> 22        -0.28374
       9 -> 25         0.10646

 Excited State  49:      Singlet-A'    14.8833 eV   83.30 nm  f=0.1363  <S**2>=0.000
       5 -> 13        -0.26452
       5 -> 14        -0.10807
       6 -> 18         0.54365
       7 -> 17        -0.20150

 Excited State  50:      Singlet-A'    14.9190 eV   83.10 nm  f=0.0717  <S**2>=0.000
       5 -> 13        -0.10304
       5 -> 15        -0.12417
       6 -> 18        -0.14909
       7 -> 19         0.17554
       8 -> 21         0.61797

 Excited State  51:      Singlet-A"    15.1398 eV   81.89 nm  f=0.1993  <S**2>=0.000
       6 -> 15        -0.10833
       6 -> 17         0.18339
       8 -> 22         0.62291
       8 -> 24        -0.11258
       9 -> 29        -0.10561

 Excited State  52:      Singlet-A'    15.2459 eV   81.32 nm  f=0.0068  <S**2>=0.000
       5 -> 15        -0.10478
       7 -> 19        -0.15303
       8 -> 23         0.55045
       9 -> 26        -0.39324

 Excited State  53:      Singlet-A'    15.2952 eV   81.06 nm  f=0.0081  <S**2>=0.000
       5 -> 14         0.13745
       5 -> 15        -0.16070
       7 -> 19        -0.13796
       8 -> 23         0.33185
       9 -> 26         0.56353

 Excited State  54:      Singlet-A"    15.3189 eV   80.94 nm  f=0.0168  <S**2>=0.000
       8 -> 24         0.11540
       9 -> 27         0.69513

 Excited State  55:      Singlet-A"    15.4316 eV   80.34 nm  f=0.0008  <S**2>=0.000
       6 -> 19        -0.14766
       8 -> 24         0.67221
       9 -> 27        -0.11010

 Excited State  56:      Singlet-A'    15.4566 eV   80.21 nm  f=0.0450  <S**2>=0.000
       5 -> 14         0.59475
       5 -> 15        -0.13977
       7 -> 19        -0.20718
       7 -> 20        -0.13119
       8 -> 23        -0.13747
       9 -> 26        -0.13870

 Excited State  57:      Singlet-A"    15.5829 eV   79.56 nm  f=0.0038  <S**2>=0.000
       6 -> 19         0.68073
       8 -> 24         0.12448
       9 -> 29        -0.11083

 Excited State  58:      Singlet-A'    15.6303 eV   79.32 nm  f=0.0542  <S**2>=0.000
       5 -> 14        -0.21763
       5 -> 15        -0.10351
       6 -> 18        -0.10778
       7 -> 19        -0.43453
       8 -> 23        -0.11261
       9 -> 28         0.43687

 Excited State  59:      Singlet-A'    15.8109 eV   78.42 nm  f=0.0407  <S**2>=0.000
       5 -> 14         0.16027
       5 -> 15         0.38058
       7 -> 19         0.21636
       8 -> 23         0.19551
       9 -> 28         0.45196

 Excited State  60:      Singlet-A"    15.8768 eV   78.09 nm  f=0.0080  <S**2>=0.000
       5 -> 16         0.41188
       9 -> 29         0.56513

 Excited State  61:      Singlet-A'    15.9494 eV   77.74 nm  f=0.1360  <S**2>=0.000
       4 -> 10         0.13529
       5 -> 15         0.45289
       7 -> 19        -0.26140
       7 -> 20        -0.26063
       8 -> 21         0.10666
       8 -> 25         0.17067
       9 -> 28        -0.22048

 Excited State  62:      Singlet-A"    16.0642 eV   77.18 nm  f=0.1963  <S**2>=0.000
       5 -> 16         0.54499
       6 -> 20         0.14241
       9 -> 29        -0.36223

 Excited State  63:      Singlet-A'    16.2939 eV   76.09 nm  f=0.0349  <S**2>=0.000
       7 -> 20         0.19374
       8 -> 25         0.65673

 Excited State  64:      Singlet-A'    16.3740 eV   75.72 nm  f=0.1134  <S**2>=0.000
       4 -> 10         0.45741
       7 -> 20         0.46710
       8 -> 25        -0.16414

 Excited State  65:      Singlet-A"    16.3905 eV   75.64 nm  f=0.0005  <S**2>=0.000
       9 -> 30         0.69955

 Excited State  66:      Singlet-A"    16.4986 eV   75.15 nm  f=0.0063  <S**2>=0.000
       6 -> 20         0.67793

 Excited State  67:      Singlet-A"    16.6093 eV   74.65 nm  f=0.0024  <S**2>=0.000
       5 -> 18         0.69933

 Excited State  68:      Singlet-A'    16.6350 eV   74.53 nm  f=0.1271  <S**2>=0.000
       4 -> 10         0.15218
       5 -> 17         0.66836

 Excited State  69:      Singlet-A'    16.7836 eV   73.87 nm  f=0.0187  <S**2>=0.000
       4 -> 10         0.45818
       5 -> 15        -0.12804
       5 -> 17        -0.16786
       5 -> 19         0.20153
       7 -> 20        -0.31743
       7 -> 21         0.15964

 Excited State  70:      Singlet-A"    16.9356 eV   73.21 nm  f=0.0071  <S**2>=0.000
       8 -> 26         0.69694

 Excited State  71:      Singlet-A'    17.0902 eV   72.55 nm  f=0.0167  <S**2>=0.000
       7 -> 23        -0.10077
       8 -> 27         0.68005

 Excited State  72:      Singlet-A"    17.1636 eV   72.24 nm  f=0.0073  <S**2>=0.000
       9 -> 31         0.69858

 Excited State  73:      Singlet-A'    17.3422 eV   71.49 nm  f=0.0042  <S**2>=0.000
       5 -> 19        -0.15326
       7 -> 21         0.63720
       7 -> 23         0.15629
       9 -> 32        -0.10569

 Excited State  74:      Singlet-A"    17.3447 eV   71.48 nm  f=0.0321  <S**2>=0.000
       6 -> 21        -0.16302
       7 -> 22        -0.18347
       8 -> 28         0.63317

 Excited State  75:      Singlet-A"    17.5123 eV   70.80 nm  f=0.0053  <S**2>=0.000
       6 -> 21        -0.23919
       7 -> 22         0.64916
       8 -> 28         0.10261

 Excited State  76:      Singlet-A'    17.5124 eV   70.80 nm  f=0.0044  <S**2>=0.000
       4 -> 11        -0.38747
       8 -> 29         0.56037

 Excited State  77:      Singlet-A"    17.5307 eV   70.72 nm  f=0.0219  <S**2>=0.000
       6 -> 21         0.61882
       6 -> 23         0.18425
       7 -> 22         0.19572
       8 -> 28         0.18269

 Excited State  78:      Singlet-A'    17.6869 eV   70.10 nm  f=0.0325  <S**2>=0.000
       4 -> 11         0.50306
       5 -> 19        -0.12185
       5 -> 20        -0.14963
       6 -> 22        -0.17664
       8 -> 29         0.31117
       8 -> 30        -0.16166
       9 -> 32         0.10018

 Excited State  79:      Singlet-A'    17.7665 eV   69.79 nm  f=0.0563  <S**2>=0.000
       5 -> 19         0.47382
       6 -> 22        -0.36150
       6 -> 24         0.20704
       8 -> 29         0.12253
       9 -> 32        -0.22778

 Excited State  80:      Singlet-A'    17.8044 eV   69.64 nm  f=0.0639  <S**2>=0.000
       5 -> 19         0.25309
       6 -> 22         0.30137
       7 -> 23         0.52286
       8 -> 29         0.10683
       8 -> 30        -0.16087

 Excited State  81:      Singlet-A'    17.8579 eV   69.43 nm  f=0.0417  <S**2>=0.000
       4 -> 11         0.11926
       5 -> 19         0.15603
       6 -> 22         0.45767
       7 -> 23        -0.37141
       8 -> 30        -0.14898
       9 -> 32        -0.23676

 Excited State  82:      Singlet-A"    17.8920 eV   69.30 nm  f=0.0216  <S**2>=0.000
       7 -> 24         0.70041

 Excited State  83:      Singlet-A"    18.0740 eV   68.60 nm  f=0.0147  <S**2>=0.000
       6 -> 23        -0.39180
       9 -> 33         0.57085

 Excited State  84:      Singlet-A'    18.1006 eV   68.50 nm  f=0.0030  <S**2>=0.000
       4 -> 13         0.10163
       5 -> 19         0.12850
       5 -> 20         0.19334
       6 -> 24         0.18468
       7 -> 21         0.11397
       7 -> 23        -0.11514
       8 -> 30        -0.10579
       9 -> 32         0.54737
       9 -> 35         0.16126

 Excited State  85:      Singlet-A"    18.1421 eV   68.34 nm  f=0.0544  <S**2>=0.000
       4 -> 12        -0.10623
       6 -> 21        -0.12530
       6 -> 23         0.52259
       9 -> 33         0.41163

 Excited State  86:      Singlet-A'    18.1429 eV   68.34 nm  f=0.0116  <S**2>=0.000
       5 -> 19         0.11772
       5 -> 20        -0.20184
       6 -> 22         0.13470
       8 -> 29         0.11844
       8 -> 30         0.60583
       9 -> 32         0.11244

 Excited State  87:      Singlet-A'    18.3649 eV   67.51 nm  f=0.0357  <S**2>=0.000
       5 -> 19        -0.15743
       5 -> 20        -0.14737
       6 -> 24         0.62336
       9 -> 35        -0.10880

 Excited State  88:      Singlet-A"    18.6097 eV   66.62 nm  f=0.0008  <S**2>=0.000
       4 -> 12         0.27996
       9 -> 34         0.64555

 Excited State  89:      Singlet-A'    18.6310 eV   66.55 nm  f=0.0630  <S**2>=0.000
       4 -> 13        -0.23989
       5 -> 20         0.39097
       7 -> 25         0.43847
       8 -> 30         0.10665
       8 -> 31         0.17530
       9 -> 35        -0.15104

 Excited State  90:      Singlet-A'    18.6883 eV   66.34 nm  f=0.0420  <S**2>=0.000
       4 -> 13         0.60436
       5 -> 20         0.23472
       7 -> 23         0.10273

 Excited State  91:      Singlet-A"    18.6926 eV   66.33 nm  f=0.0099  <S**2>=0.000
       4 -> 12         0.61769
       6 -> 23         0.12578
       9 -> 34        -0.28419

 Excited State  92:      Singlet-A'    18.8210 eV   65.88 nm  f=0.0132  <S**2>=0.000
       4 -> 13         0.12239
       5 -> 20        -0.14998
       7 -> 25         0.47061
       7 -> 27         0.12074
       8 -> 31        -0.43082

 Excited State  93:      Singlet-A'    18.9176 eV   65.54 nm  f=0.0580  <S**2>=0.000
       4 -> 13         0.13563
       4 -> 14         0.11657
       5 -> 20        -0.26691
       5 -> 21         0.15481
       6 -> 28         0.11262
       7 -> 25         0.24074
       8 -> 31         0.50718

 Excited State  94:      Singlet-A"    19.0074 eV   65.23 nm  f=0.0662  <S**2>=0.000
       6 -> 25         0.69573

 Excited State  95:      Singlet-A'    19.3545 eV   64.06 nm  f=0.0365  <S**2>=0.000
       4 -> 14         0.12120
       5 -> 21        -0.37144
       5 -> 23         0.17064
       7 -> 29        -0.17095
       9 -> 35         0.49169

 Excited State  96:      Singlet-A"    19.4000 eV   63.91 nm  f=0.0040  <S**2>=0.000
       7 -> 26         0.56382
       9 -> 36        -0.41631

 Excited State  97:      Singlet-A"    19.4551 eV   63.73 nm  f=0.0025  <S**2>=0.000
       7 -> 26         0.41151
       9 -> 36         0.55795

 Excited State  98:      Singlet-A'    19.5018 eV   63.58 nm  f=0.0052  <S**2>=0.000
       4 -> 14         0.52719
       4 -> 15        -0.11462
       5 -> 21        -0.29867
       5 -> 23        -0.18103
       7 -> 29         0.12210
       9 -> 35        -0.19601

 Excited State  99:      Singlet-A"    19.5404 eV   63.45 nm  f=0.0037  <S**2>=0.000
       8 -> 32         0.69951

 Excited State 100:      Singlet-A'    19.6366 eV   63.14 nm  f=0.1313  <S**2>=0.000
       4 -> 14         0.32333
       5 -> 20         0.10139
       5 -> 21         0.38109
       6 -> 26         0.31202
       7 -> 27        -0.20130
       7 -> 29        -0.13023
       8 -> 33         0.16186
       9 -> 35         0.10044

 Excited State 101:      Singlet-A"    19.6772 eV   63.01 nm  f=0.0000  <S**2>=0.000
       5 -> 22         0.19494
       6 -> 27        -0.44601
       7 -> 28         0.50988

 Excited State 102:      Singlet-A'    19.6897 eV   62.97 nm  f=0.0421  <S**2>=0.000
       4 -> 14        -0.20649
       5 -> 21        -0.21862
       6 -> 26         0.58958
       6 -> 28        -0.10074
       7 -> 27         0.11936

 Excited State 103:      Singlet-A"    19.7169 eV   62.88 nm  f=0.0211  <S**2>=0.000
       5 -> 22         0.61896
       6 -> 27         0.32198

 Excited State 104:      Singlet-A'    19.7314 eV   62.84 nm  f=0.0086  <S**2>=0.000
       6 -> 26        -0.13448
       7 -> 27         0.24501
       7 -> 29         0.11123
       8 -> 33         0.62797

 Excited State 105:      Singlet-A"    19.7886 eV   62.65 nm  f=0.0007  <S**2>=0.000
       5 -> 22        -0.24479
       5 -> 24         0.13564
       6 -> 27         0.40246
       6 -> 29         0.16087
       7 -> 28         0.46062

 Excited State 106:      Singlet-A'    19.8276 eV   62.53 nm  f=0.0228  <S**2>=0.000
       4 -> 15         0.49514
       5 -> 23        -0.41224
       6 -> 28         0.14821
       7 -> 27        -0.10843
       7 -> 29        -0.12399
       8 -> 33         0.10450

 Excited State 107:      Singlet-A'    19.9476 eV   62.15 nm  f=0.0588  <S**2>=0.000
       4 -> 14         0.13298
       4 -> 15         0.30682
       5 -> 21         0.11952
       5 -> 23         0.11636
       5 -> 25        -0.10327
       7 -> 27         0.38811
       7 -> 29         0.22485
       8 -> 33        -0.21924
       8 -> 36        -0.15300
       9 -> 35         0.10054

 Excited State 108:      Singlet-A"    20.1154 eV   61.64 nm  f=0.0110  <S**2>=0.000
       5 -> 24         0.63379
       6 -> 29        -0.29859

 Excited State 109:      Singlet-A'    20.1637 eV   61.49 nm  f=0.1333  <S**2>=0.000
       4 -> 15         0.21559
       5 -> 23         0.26999
       7 -> 27        -0.34511
       7 -> 29         0.42619

 Excited State 110:      Singlet-A"    20.2188 eV   61.32 nm  f=0.0003  <S**2>=0.000
       4 -> 16         0.66464
       6 -> 29        -0.18670

 Excited State 111:      Singlet-A'    20.2566 eV   61.21 nm  f=0.0245  <S**2>=0.000
       4 -> 15         0.15163
       5 -> 23         0.20067
       6 -> 28         0.23047

 The electronic state is 1-A'.
 Alpha  occ. eigenvalues --  -18.78357  -9.95246  -0.93194  -0.61781  -0.46682
 Alpha  occ. eigenvalues --   -0.39582  -0.38641  -0.29567  -0.23513
 Alpha virt. eigenvalues --   -0.01540   0.02001   0.06200   0.06213   0.09542
 Alpha virt. eigenvalues --    0.10549   0.11692   0.14129   0.14136   0.17397
 Alpha virt. eigenvalues --    0.20428   0.24478   0.25551   0.26165   0.27066

 Mulliken charges:
               1
     1  C    0.611713
     2  O   -0.415825
     3  H   -0.086426
     4  H   -0.086426
     5  H   -0.167362
     6  H    0.144326
 Sum of Mulliken charges =   0.00000

 Dipole moment (field-independent basis, Debye):
    X=             -1.3410    Y=              0.9128    Z=             -0.0000  Tot=              1.6222
 Quadrupole moment (field-independent basis, Debye-Ang):
   XX=            -12.0706   YY=            -13.6476   ZZ=            -14.1024
   XY=              2.0899   XZ=              0.0000   YZ=             -0.0000

 Normal termination of Gaussian 16 at Mon Mar 21 20:11:32 2022.
