 Gaussian 16, Revision C.01,
 Gaussian 16:  EM64L-G16RevC.01  3-Jul-2019

 ----------------------------------------------------------------------
 #P TD(Nstates=10000) pw91pw91/Gen SCF(maxcycles=100) Int(Grid=ultrafin
 e)
 ----------------------------------------------------------------------

 ---------------------
 xGDB7_00001_tier4.com
 ---------------------
 Symbolic Z-matrix:
 Charge =  0 Multiplicity = 1

                         Standard orientation:
 ---------------------------------------------------------------------
 Center     Atomic      Atomic             Coordinates (Angstroms)
 Number     Number       Type             X           Y           Z
 ---------------------------------------------------------------------
      1          6           0        0.000000    0.000000    0.597322
      2          6           0        0.000000    0.000000   -0.597322
      3          1           0        0.000000    0.000000    1.661338
      4          1           0        0.000000    0.000000   -1.661338
 ---------------------------------------------------------------------

 SCF Done:  E(RPW91-PW91) =  -77.2346716697     A.U. after   10 cycles

 Excitation energies and oscillator strengths:

 Excited state symmetry could not be determined.
 Excited State   1:      Singlet-?Sym    6.9996 eV  177.13 nm  f=0.0000  <S**2>=0.000
       6 ->  9        -0.50000
       7 ->  8         0.50000
 This state for optimization and/or second-order correction.
 Total Energy, E(TD-HF/TD-DFT) =  -76.9774399612
 Copying the excited state density for this state as the 1-particle RhoCI density.

 Excited state symmetry could not be determined.
 Excited State   2:      Singlet-?Sym    7.1812 eV  172.65 nm  f=0.0000  <S**2>=0.000
       6 ->  9         0.49997
       7 ->  8         0.49997

 Excited state symmetry could not be determined.
 Excited State   3:      Singlet-?Sym    7.1812 eV  172.65 nm  f=0.0000  <S**2>=0.000
       6 ->  8        -0.49997
       7 ->  9         0.49997

 Excited state symmetry could not be determined.
 Excited State   4:      Singlet-?Sym    7.9674 eV  155.61 nm  f=0.0809  <S**2>=0.000
       6 -> 10         0.65069
       7 -> 10        -0.27603

 Excited state symmetry could not be determined.
 Excited State   5:      Singlet-?Sym    7.9674 eV  155.61 nm  f=0.0809  <S**2>=0.000
       6 -> 10         0.27603
       7 -> 10         0.65069

 Excited state symmetry could not be determined.
 Excited State   6:      Singlet-?Sym    8.1408 eV  152.30 nm  f=0.0000  <S**2>=0.000
       7 -> 11         0.69987

 Excited state symmetry could not be determined.
 Excited State   7:      Singlet-?Sym    8.1408 eV  152.30 nm  f=0.0000  <S**2>=0.000
       6 -> 11         0.69987

 Excited state symmetry could not be determined.
 Excited State   8:      Singlet-?Sym    9.5532 eV  129.78 nm  f=0.0454  <S**2>=0.000
       6 -> 12        -0.11875
       7 -> 12         0.69422

 Excited state symmetry could not be determined.
 Excited State   9:      Singlet-?Sym    9.5532 eV  129.78 nm  f=0.0454  <S**2>=0.000
       6 -> 12         0.69422
       7 -> 12         0.11875

 Excited state symmetry could not be determined.
 Excited State  10:      Singlet-?Sym   10.1955 eV  121.61 nm  f=0.7752  <S**2>=0.000
       6 ->  8         0.46379
       6 -> 18         0.18471
       7 ->  9         0.46379
       7 -> 19         0.18471

 Excited state symmetry could not be determined.
 Excited State  11:      Singlet-?Sym   11.2330 eV  110.38 nm  f=0.0000  <S**2>=0.000
       5 ->  9        -0.11162
       6 -> 13        -0.16015
       7 -> 13         0.67721

 Excited state symmetry could not be determined.
 Excited State  12:      Singlet-?Sym   11.2330 eV  110.38 nm  f=0.0000  <S**2>=0.000
       5 ->  8        -0.11162
       6 -> 13         0.67721
       7 -> 13         0.16015

 Excited state symmetry could not be determined.
 Excited State  13:      Singlet-?Sym   11.3652 eV  109.09 nm  f=0.0000  <S**2>=0.000
       6 -> 14         0.50000
       7 -> 15        -0.50000

 Excited state symmetry could not be determined.
 Excited State  14:      Singlet-?Sym   11.3681 eV  109.06 nm  f=0.0000  <S**2>=0.000
       6 -> 15        -0.49996
       7 -> 14         0.49996

 Excited state symmetry could not be determined.
 Excited State  15:      Singlet-?Sym   11.3681 eV  109.06 nm  f=0.0000  <S**2>=0.000
       6 -> 14         0.49996
       7 -> 15         0.49996

 Excited state symmetry could not be determined.
 Excited State  16:      Singlet-?Sym   12.1488 eV  102.05 nm  f=0.0000  <S**2>=0.000
       5 -> 10         0.12284
       5 -> 12        -0.15112
       6 -> 15         0.47433
       7 -> 14         0.47433

 Excited state symmetry could not be determined.
 Excited State  17:      Singlet-?Sym   12.3337 eV  100.52 nm  f=0.0000  <S**2>=0.000
       5 ->  8        -0.39115
       5 ->  9         0.57457

 Excited state symmetry could not be determined.
 Excited State  18:      Singlet-?Sym   12.3337 eV  100.52 nm  f=0.0000  <S**2>=0.000
       5 ->  8         0.57457
       5 ->  9         0.39115

 Excited state symmetry could not be determined.
 Excited State  19:      Singlet-?Sym   13.0218 eV   95.21 nm  f=0.0000  <S**2>=0.000
       6 -> 16         0.47579
       6 -> 17        -0.15375
       7 -> 16        -0.15375
       7 -> 17        -0.47579

 Excited state symmetry could not be determined.
 Excited State  20:      Singlet-?Sym   13.0218 eV   95.21 nm  f=0.0000  <S**2>=0.000
       6 -> 16         0.15375
       6 -> 17         0.47579
       7 -> 16         0.47579
       7 -> 17        -0.15375

 Excited State  21:      Singlet-SGG   13.1203 eV   94.50 nm  f=0.0000  <S**2>=0.000
       5 -> 10         0.68988

 Excited State  22:      Singlet-SGU   13.2339 eV   93.69 nm  f=0.3008  <S**2>=0.000
       5 -> 11         0.70028

 Excited state symmetry could not be determined.
 Excited State  23:      Singlet-?Sym   13.5148 eV   91.74 nm  f=0.1455  <S**2>=0.000
       4 ->  8         0.29480
       4 ->  9        -0.20475
       6 -> 16         0.24524
       6 -> 17         0.35310
       7 -> 16        -0.35310
       7 -> 17         0.24524

 Excited state symmetry could not be determined.
 Excited State  24:      Singlet-?Sym   13.5148 eV   91.74 nm  f=0.1455  <S**2>=0.000
       4 ->  8        -0.20475
       4 ->  9        -0.29480
       6 -> 16         0.35310
       6 -> 17        -0.24524
       7 -> 16         0.24524
       7 -> 17         0.35310

 Excited state symmetry could not be determined.
 Excited State  25:      Singlet-?Sym   13.6353 eV   90.93 nm  f=0.0000  <S**2>=0.000
       6 -> 19        -0.50000
       7 -> 18         0.50000

 Excited state symmetry could not be determined.
 Excited State  26:      Singlet-?Sym   13.6735 eV   90.68 nm  f=0.0000  <S**2>=0.000
       6 -> 18        -0.49991
       7 -> 19         0.49991

 Excited state symmetry could not be determined.
 Excited State  27:      Singlet-?Sym   13.6735 eV   90.68 nm  f=0.0000  <S**2>=0.000
       6 -> 19         0.49991
       7 -> 18         0.49991

 Excited State  28:      Singlet-SGU   14.5744 eV   85.07 nm  f=0.0729  <S**2>=0.000
       4 -> 10         0.57743
       6 -> 18         0.27611
       7 -> 19         0.27611

 Excited State  29:      Singlet-SGG   14.6987 eV   84.35 nm  f=0.0000  <S**2>=0.000
       4 -> 11        -0.48271
       5 -> 12         0.51260

 Excited state symmetry could not be determined.
 Excited State  30:      Singlet-?Sym   15.0630 eV   82.31 nm  f=0.4195  <S**2>=0.000
       4 ->  8         0.43408
       4 ->  9        -0.36050
       5 -> 15        -0.11559
       6 -> 16        -0.14333
       6 -> 17        -0.17258
       6 -> 21        -0.15179
       7 -> 16         0.17258
       7 -> 17        -0.14333
       7 -> 21         0.12606

 Excited state symmetry could not be determined.
 Excited State  31:      Singlet-?Sym   15.0630 eV   82.31 nm  f=0.4195  <S**2>=0.000
       4 ->  8         0.36050
       4 ->  9         0.43408
       5 -> 14        -0.11559
       6 -> 16         0.17258
       6 -> 17        -0.14333
       6 -> 21        -0.12606
       7 -> 16         0.14333
       7 -> 17         0.17258
       7 -> 21        -0.15179

 Excited State  32:      Singlet-SGU   15.3845 eV   80.59 nm  f=0.0079  <S**2>=0.000
       4 -> 10         0.36812
       4 -> 12         0.24298
       5 -> 13         0.23159
       6 ->  8         0.12136
       6 -> 18        -0.31074
       7 ->  9         0.12136
       7 -> 19        -0.31074

 Excited State  33:      Singlet-SGG   15.7371 eV   78.78 nm  f=0.0000  <S**2>=0.000
       4 -> 11         0.47966
       4 -> 13         0.15536
       5 -> 12         0.42866
       6 -> 15         0.11061
       7 -> 14         0.11061

 Excited state symmetry could not be determined.
 Excited State  34:      Singlet-?Sym   15.8848 eV   78.05 nm  f=0.0000  <S**2>=0.000
       6 -> 20         0.67406
       7 -> 20         0.18743

 Excited state symmetry could not be determined.
 Excited State  35:      Singlet-?Sym   15.8848 eV   78.05 nm  f=0.0000  <S**2>=0.000
       6 -> 20        -0.18743
       7 -> 20         0.67406

 Excited state symmetry could not be determined.
 Excited State  36:      Singlet-?Sym   16.0176 eV   77.40 nm  f=0.1509  <S**2>=0.000
       5 -> 14        -0.24724
       7 -> 21         0.63993

 Excited state symmetry could not be determined.
 Excited State  37:      Singlet-?Sym   16.0176 eV   77.40 nm  f=0.1509  <S**2>=0.000
       5 -> 15        -0.24724
       6 -> 21         0.63993

 Excited State  38:      Singlet-SGU   16.4731 eV   75.26 nm  f=0.0142  <S**2>=0.000
       4 -> 10        -0.12620
       4 -> 12         0.57360
       5 -> 13         0.23310
       6 -> 18         0.14742
       6 -> 28        -0.12078
       7 -> 19         0.14742
       7 -> 29        -0.12078

 Excited state symmetry could not be determined.
 Excited State  39:      Singlet-?Sym   16.5240 eV   75.03 nm  f=0.2974  <S**2>=0.000
       5 -> 14         0.48932
       5 -> 15         0.31486
       6 -> 22         0.19013
       7 -> 21         0.12700
       7 -> 22         0.29548

 Excited state symmetry could not be determined.
 Excited State  40:      Singlet-?Sym   16.5240 eV   75.03 nm  f=0.2974  <S**2>=0.000
       5 -> 14        -0.31486
       5 -> 15         0.48932
       6 -> 21         0.12700
       6 -> 22         0.29548
       7 -> 22        -0.19013

 Excited state symmetry could not be determined.
 Excited State  41:      Singlet-?Sym   16.7490 eV   74.02 nm  f=0.0000  <S**2>=0.000
       6 -> 23         0.49862
       7 -> 24        -0.49860

 Excited state symmetry could not be determined.
 Excited State  42:      Singlet-?Sym   16.7490 eV   74.02 nm  f=0.0000  <S**2>=0.000
       6 -> 24         0.49860
       7 -> 23         0.49862

 Excited state symmetry could not be determined.
 Excited State  43:      Singlet-?Sym   16.8067 eV   73.77 nm  f=0.2510  <S**2>=0.000
       4 ->  8         0.10272
       4 ->  9        -0.13361
       5 -> 14        -0.21795
       5 -> 15         0.16756
       6 -> 22        -0.36269
       7 -> 21        -0.11950
       7 -> 22         0.47177

 Excited state symmetry could not be determined.
 Excited State  44:      Singlet-?Sym   16.8067 eV   73.77 nm  f=0.2510  <S**2>=0.000
       4 ->  8        -0.13361
       4 ->  9        -0.10272
       5 -> 14        -0.16756
       5 -> 15        -0.21795
       6 -> 21        -0.11950
       6 -> 22         0.47177
       7 -> 22         0.36269

 Excited state symmetry could not be determined.
 Excited State  45:      Singlet-?Sym   16.9855 eV   72.99 nm  f=0.0000  <S**2>=0.000
       3 ->  8         0.10570
       6 -> 23        -0.17479
       6 -> 24         0.45956
       7 -> 23        -0.45955
       7 -> 24        -0.17479

 Excited state symmetry could not be determined.
 Excited State  46:      Singlet-?Sym   16.9855 eV   72.99 nm  f=0.0000  <S**2>=0.000
       3 ->  9        -0.10570
       6 -> 23         0.45955
       6 -> 24         0.17479
       7 -> 23        -0.17479
       7 -> 24         0.45956

 Excited State  47:      Singlet-SGU   16.9886 eV   72.98 nm  f=0.7105  <S**2>=0.000
       4 -> 12        -0.31245
       5 -> 13         0.60527

 Excited state symmetry could not be determined.
 Excited State  48:      Singlet-?Sym   17.3172 eV   71.60 nm  f=0.0000  <S**2>=0.000
       6 -> 26        -0.49974
       7 -> 25         0.49974

 Excited state symmetry could not be determined.
 Excited State  49:      Singlet-?Sym   17.3172 eV   71.60 nm  f=0.0000  <S**2>=0.000
       6 -> 25         0.49974
       7 -> 26         0.49974

 Excited state symmetry could not be determined.
 Excited State  50:      Singlet-?Sym   17.5593 eV   70.61 nm  f=0.0000  <S**2>=0.000
       6 -> 25         0.50000
       7 -> 26        -0.50000

 Excited state symmetry could not be determined.
 Excited State  51:      Singlet-?Sym   17.8346 eV   69.52 nm  f=0.0000  <S**2>=0.000
       3 -> 10        -0.10956
       4 -> 13         0.16372
       6 -> 26         0.46342
       7 -> 25         0.46342

 Excited state symmetry could not be determined.
 Excited State  52:      Singlet-?Sym   18.1126 eV   68.45 nm  f=0.0000  <S**2>=0.000
       4 -> 14         0.58276
       4 -> 15        -0.36644
       7 -> 27         0.12587

 Excited state symmetry could not be determined.
 Excited State  53:      Singlet-?Sym   18.1126 eV   68.45 nm  f=0.0000  <S**2>=0.000
       4 -> 14         0.36644
       4 -> 15         0.58276
       6 -> 27         0.12587

 Excited state symmetry could not be determined.
 Excited State  54:      Singlet-?Sym   18.1471 eV   68.32 nm  f=0.0000  <S**2>=0.000
       3 ->  9         0.16921
       4 -> 14        -0.14227
       6 -> 27         0.29245
       7 -> 27         0.59237

 Excited state symmetry could not be determined.
 Excited State  55:      Singlet-?Sym   18.1471 eV   68.32 nm  f=0.0000  <S**2>=0.000
       3 ->  8         0.16921
       4 -> 15        -0.14227
       6 -> 27         0.59237
       7 -> 27        -0.29245

 Excited state symmetry could not be determined.
 Excited State  56:      Singlet-?Sym   18.2231 eV   68.04 nm  f=0.0000  <S**2>=0.000
       5 -> 16         0.70680

 Excited state symmetry could not be determined.
 Excited State  57:      Singlet-?Sym   18.2231 eV   68.04 nm  f=0.0000  <S**2>=0.000
       5 -> 17         0.70680

 Excited state symmetry could not be determined.
 Excited State  58:      Singlet-?Sym   18.4278 eV   67.28 nm  f=0.0000  <S**2>=0.000
       6 -> 28         0.49967
       7 -> 29        -0.49967

 Excited state symmetry could not be determined.
 Excited State  59:      Singlet-?Sym   18.4278 eV   67.28 nm  f=0.0000  <S**2>=0.000
       6 -> 29         0.49967
       7 -> 28         0.49967

 Excited state symmetry could not be determined.
 Excited State  60:      Singlet-?Sym   18.4957 eV   67.03 nm  f=0.0000  <S**2>=0.000
       6 -> 29        -0.50000
       7 -> 28         0.50000

 Excited State  61:      Singlet-SGG   18.4960 eV   67.03 nm  f=0.0000  <S**2>=0.000
       4 -> 13         0.65594
       6 -> 26        -0.13442
       7 -> 25        -0.13442

 Excited state symmetry could not be determined.
 Excited State  62:      Singlet-?Sym   18.6105 eV   66.62 nm  f=0.0000  <S**2>=0.000
       5 -> 18         0.69132
       5 -> 19        -0.12260

 Excited state symmetry could not be determined.
 Excited State  63:      Singlet-?Sym   18.6105 eV   66.62 nm  f=0.0000  <S**2>=0.000
       5 -> 18         0.12260
       5 -> 19         0.69132

 Excited state symmetry could not be determined.
 Excited State  64:      Singlet-?Sym   18.7502 eV   66.12 nm  f=0.0179  <S**2>=0.000
       3 -> 11        -0.34685
       6 -> 28         0.42110
       7 -> 29         0.42110

 Excited state symmetry could not be determined.
 Excited State  65:      Singlet-?Sym   19.0563 eV   65.06 nm  f=0.0000  <S**2>=0.000
       3 ->  8        -0.40847
       3 ->  9         0.51484
       6 -> 27         0.11571
       7 -> 27        -0.14583

 Excited state symmetry could not be determined.
 Excited State  66:      Singlet-?Sym   19.0563 eV   65.06 nm  f=0.0000  <S**2>=0.000
       3 ->  8         0.51484
       3 ->  9         0.40847
       6 -> 27        -0.14583
       7 -> 27        -0.11571

 Excited State  67:      Singlet-SGG   19.2699 eV   64.34 nm  f=0.0000  <S**2>=0.000
       3 -> 10         0.69186

 Excited State  68:      Singlet-SGU   19.7594 eV   62.75 nm  f=0.0128  <S**2>=0.000
       3 -> 11         0.59217
       3 -> 13         0.11755
       5 -> 27         0.10831
       6 -> 28         0.19699
       7 -> 29         0.19699

 Excited state symmetry could not be determined.
 Excited State  69:      Singlet-?Sym   19.9578 eV   62.12 nm  f=0.0000  <S**2>=0.000
       4 -> 16         0.70665

 Excited state symmetry could not be determined.
 Excited State  70:      Singlet-?Sym   19.9578 eV   62.12 nm  f=0.0000  <S**2>=0.000
       4 -> 17         0.70665

 Excited state symmetry could not be determined.
 Excited State  71:      Singlet-?Sym   20.5024 eV   60.47 nm  f=0.0050  <S**2>=0.000
       4 -> 18         0.51663
       4 -> 19         0.47296

 Excited state symmetry could not be determined.
 Excited State  72:      Singlet-?Sym   20.5024 eV   60.47 nm  f=0.0050  <S**2>=0.000
       4 -> 18        -0.47296
       4 -> 19         0.51663

 Excited State  73:      Singlet-SGG   20.9400 eV   59.21 nm  f=0.0000  <S**2>=0.000
       3 -> 12         0.61989
       5 -> 21        -0.32132

 Excited State  74:      Singlet-SGU   20.9985 eV   59.04 nm  f=0.2668  <S**2>=0.000
       5 -> 20         0.69489

 Excited State  75:      Singlet-SGG   21.2906 eV   58.23 nm  f=0.0000  <S**2>=0.000
       3 -> 12         0.31914
       5 -> 21         0.61919

 Excited state symmetry could not be determined.
 Excited State  76:      Singlet-?Sym   21.8960 eV   56.62 nm  f=0.0000  <S**2>=0.000
       5 -> 23         0.70706

 Excited state symmetry could not be determined.
 Excited State  77:      Singlet-?Sym   21.8960 eV   56.62 nm  f=0.0000  <S**2>=0.000
       5 -> 24         0.70706

 Excited State  78:      Singlet-SGG   22.0218 eV   56.30 nm  f=0.0000  <S**2>=0.000
       4 -> 20        -0.32677
       5 -> 22         0.60833

 Excited State  79:      Singlet-SGU   22.6014 eV   54.86 nm  f=0.0328  <S**2>=0.000
       3 -> 13         0.66387
       4 -> 21         0.11488
       4 -> 22         0.17597

 Excited state symmetry could not be determined.
 Excited State  80:      Singlet-?Sym   22.7320 eV   54.54 nm  f=0.1244  <S**2>=0.000
       3 -> 14         0.38405
       3 -> 15         0.16650
       5 -> 25         0.52176
       5 -> 26         0.22621

 Excited state symmetry could not be determined.
 Excited State  81:      Singlet-?Sym   22.7320 eV   54.54 nm  f=0.1244  <S**2>=0.000
       3 -> 14        -0.16650
       3 -> 15         0.38405
       5 -> 25        -0.22621
       5 -> 26         0.52176

 Excited State  82:      Singlet-SGU   22.7962 eV   54.39 nm  f=0.0007  <S**2>=0.000
       4 -> 21         0.64421
       5 -> 27         0.27220

 Excited state symmetry could not be determined.
 Excited State  83:      Singlet-?Sym   22.8630 eV   54.23 nm  f=0.0346  <S**2>=0.000
       3 -> 14         0.31764
       3 -> 15         0.46655
       5 -> 25        -0.23042
       5 -> 26        -0.33844

 Excited state symmetry could not be determined.
 Excited State  84:      Singlet-?Sym   22.8630 eV   54.23 nm  f=0.0346  <S**2>=0.000
       3 -> 14         0.46655
       3 -> 15        -0.31764
       5 -> 25        -0.33844
       5 -> 26         0.23042

 Excited State  85:      Singlet-SGG   23.1204 eV   53.63 nm  f=0.0000  <S**2>=0.000
       4 -> 20         0.60499
       5 -> 22         0.27689
       6 -> 32        -0.11996
       7 -> 33        -0.11996

 Excited state symmetry could not be determined.
 Excited State  86:      Singlet-?Sym   23.4501 eV   52.87 nm  f=0.0000  <S**2>=0.000
       5 -> 28         0.70507

 Excited state symmetry could not be determined.
 Excited State  87:      Singlet-?Sym   23.4501 eV   52.87 nm  f=0.0000  <S**2>=0.000
       5 -> 29         0.70507

 Excited state symmetry could not be determined.
 Excited State  88:      Singlet-?Sym   23.6378 eV   52.45 nm  f=0.0000  <S**2>=0.000
       4 -> 23         0.70577

 Excited state symmetry could not be determined.
 Excited State  89:      Singlet-?Sym   23.6378 eV   52.45 nm  f=0.0000  <S**2>=0.000
       4 -> 24         0.70577

 Excited State  90:      Singlet-SGU   23.7488 eV   52.21 nm  f=0.2565  <S**2>=0.000
       3 -> 13        -0.11379
       4 -> 22         0.61936
       5 -> 27         0.28554

 Excited state symmetry could not be determined.
 Excited State  91:      Singlet-?Sym   24.1597 eV   51.32 nm  f=0.0000  <S**2>=0.000
       3 -> 19         0.10821
       4 -> 25        -0.15121
       7 -> 30         0.68158

 Excited state symmetry could not be determined.
 Excited State  92:      Singlet-?Sym   24.1597 eV   51.32 nm  f=0.0000  <S**2>=0.000
       3 -> 18         0.10821
       4 -> 26        -0.15121
       6 -> 30         0.68158

 Excited state symmetry could not be determined.
 Excited State  93:      Singlet-?Sym   24.4797 eV   50.65 nm  f=0.0000  <S**2>=0.000
       3 -> 19         0.26221
       4 -> 25         0.62256
       4 -> 26        -0.15962

 Excited state symmetry could not be determined.
 Excited State  94:      Singlet-?Sym   24.4797 eV   50.65 nm  f=0.0000  <S**2>=0.000
       3 -> 18         0.26221
       4 -> 25         0.15962
       4 -> 26         0.62256

 Excited State  95:      Singlet-SGU   24.4932 eV   50.62 nm  f=0.0312  <S**2>=0.000
       3 -> 13         0.12373
       3 -> 20         0.14331
       4 -> 21        -0.23214
       4 -> 22        -0.24301
       5 -> 27         0.54472
       5 -> 30         0.10096

 Excited state symmetry could not be determined.
 Excited State  96:      Singlet-?Sym   24.5468 eV   50.51 nm  f=0.0000  <S**2>=0.000
       3 -> 16         0.70539

 Excited state symmetry could not be determined.
 Excited State  97:      Singlet-?Sym   24.5468 eV   50.51 nm  f=0.0000  <S**2>=0.000
       3 -> 17         0.70539

 Excited state symmetry could not be determined.
 Excited State  98:      Singlet-?Sym   25.0959 eV   49.40 nm  f=0.0140  <S**2>=0.000
       4 -> 28        -0.45096
       6 -> 31         0.54375

 Excited state symmetry could not be determined.
 Excited State  99:      Singlet-?Sym   25.0959 eV   49.40 nm  f=0.0140  <S**2>=0.000
       4 -> 29        -0.45096
       7 -> 31         0.54375

 Excited state symmetry could not be determined.
 Excited State 100:      Singlet-?Sym   25.2392 eV   49.12 nm  f=0.0000  <S**2>=0.000
       3 -> 18        -0.40167
       3 -> 19         0.49953
       4 -> 25        -0.18603
       4 -> 26         0.14958
       7 -> 30        -0.11767

 Excited state symmetry could not be determined.
 Excited State 101:      Singlet-?Sym   25.2392 eV   49.12 nm  f=0.0000  <S**2>=0.000
       3 -> 18         0.49953
       3 -> 19         0.40167
       4 -> 25        -0.14958
       4 -> 26        -0.18603
       6 -> 30        -0.11767

 Excited state symmetry could not be determined.
 Excited State 102:      Singlet-?Sym   25.3202 eV   48.97 nm  f=0.0086  <S**2>=0.000
       4 -> 28         0.54241
       6 -> 31         0.44562

 Excited state symmetry could not be determined.
 Excited State 103:      Singlet-?Sym   25.3202 eV   48.97 nm  f=0.0086  <S**2>=0.000
       4 -> 29         0.54241
       7 -> 31         0.44562

 Excited State 104:      Singlet-SGG   25.4953 eV   48.63 nm  f=0.0000  <S**2>=0.000
       4 -> 27         0.69119

 Excited state symmetry could not be determined.
 Excited State 105:      Singlet-?Sym   26.2246 eV   47.28 nm  f=0.0000  <S**2>=0.000
       6 -> 32         0.49944
       7 -> 33        -0.49944

 The electronic state is 1-SGG.
 Alpha  occ. eigenvalues --   -9.91987  -9.91753  -0.67625  -0.51168  -0.44797
 Alpha  occ. eigenvalues --   -0.26483  -0.26483
 Alpha virt. eigenvalues --   -0.00760  -0.00760   0.02735   0.03105   0.08248
 Alpha virt. eigenvalues --    0.14337   0.15283   0.15283   0.22219   0.22219
 Alpha virt. eigenvalues --    0.23625   0.23625   0.31600   0.32284   0.34731

 Mulliken charges:
               1
     1  C    0.220442
     2  C    0.220442
     3  H   -0.220442
     4  H   -0.220442
 Sum of Mulliken charges =   0.00000

 Dipole moment (field-independent basis, Debye):
    X=             -0.0000    Y=              0.0000    Z=              0.0000  Tot=              0.0000
 Quadrupole moment (field-independent basis, Debye-Ang):
   XX=            -13.4027   YY=            -13.4027   ZZ=             -7.4290
   XY=             -0.0000   XZ=              0.0000   YZ=              0.0000

 Normal termination of Gaussian 16 at Mon Mar 21 20:11:31 2022.
