 Gaussian 16, Revision C.01,
 Gaussian 16:  EM64L-G16RevC.01  3-Jul-2019

 ----------------------------------------------------------------------
 #P TD(Nstates=10000) pw91pw91/Gen SCF(maxcycles=100) Int(Grid=ultrafin
 e)
 ----------------------------------------------------------------------

 ---------------------
 xGDB7_00001_tier4.com
 ---------------------
 Symbolic Z-matrix:
 Charge =  0 Multiplicity = 1

                         Standard orientation:
 ---------------------------------------------------------------------
 Center     Atomic      Atomic             Coordinates (Angstroms)
 Number     Number       Type             X           Y           Z
 ---------------------------------------------------------------------
      1          6           0       -1.240791   -0.237624   -0.027525
      2          6           0        0.048946    0.559205    0.053709
      3          7           0        1.202342   -0.317606   -0.116703
      4          1           0       -2.109817    0.415828    0.064703
      5          1           0       -1.292929   -0.976209    0.776809
      6          1           0       -1.300329   -0.769884   -0.977746
      7          1           0        0.066306    1.122818    0.997967
      8          1           0        0.069957    1.296574   -0.752592
      9          1           0        1.236408   -1.003082    0.627159
     10          1           0        2.065080    0.207710   -0.076483
 ---------------------------------------------------------------------

 SCF Done:  E(RPW91-PW91) =  -135.020887133     A.U. after   13 cycles

 Excitation energies and oscillator strengths:

 Excited State   1:      Singlet-A      5.4055 eV  229.37 nm  f=0.0099  <S**2>=0.000
      13 -> 14         0.70593
 This state for optimization and/or second-order correction.
 Total Energy, E(TD-HF/TD-DFT) =  -134.822239794
 Copying the excited state density for this state as the 1-particle RhoCI density.

 Excited State   2:      Singlet-A      6.1843 eV  200.48 nm  f=0.0028  <S**2>=0.000
      13 -> 15         0.70085

 Excited State   3:      Singlet-A      6.4923 eV  190.97 nm  f=0.0228  <S**2>=0.000
      13 -> 16         0.70049

 Excited State   4:      Singlet-A      7.1366 eV  173.73 nm  f=0.0609  <S**2>=0.000
      13 -> 17         0.70483

 Excited State   5:      Singlet-A      7.5533 eV  164.15 nm  f=0.0208  <S**2>=0.000
      13 -> 18         0.70419

 Excited State   6:      Singlet-A      8.0504 eV  154.01 nm  f=0.0086  <S**2>=0.000
      13 -> 19         0.70164

 Excited State   7:      Singlet-A      8.2789 eV  149.76 nm  f=0.0053  <S**2>=0.000
      12 -> 14        -0.21912
      13 -> 20         0.66953

 Excited State   8:      Singlet-A      8.3000 eV  149.38 nm  f=0.0016  <S**2>=0.000
      12 -> 14         0.66849
      13 -> 20         0.21833

 Excited State   9:      Singlet-A      8.5463 eV  145.07 nm  f=0.0128  <S**2>=0.000
      13 -> 21         0.69468

 Excited State  10:      Singlet-A      8.7965 eV  140.95 nm  f=0.0023  <S**2>=0.000
      11 -> 14         0.69880

 Excited State  11:      Singlet-A      8.9291 eV  138.85 nm  f=0.0571  <S**2>=0.000
      10 -> 14         0.70049

 Excited State  12:      Singlet-A      9.0878 eV  136.43 nm  f=0.0207  <S**2>=0.000
      12 -> 15         0.65698
      13 -> 22        -0.25261

 Excited State  13:      Singlet-A      9.1495 eV  135.51 nm  f=0.0039  <S**2>=0.000
      12 -> 15         0.24485
      13 -> 22         0.63497
      13 -> 23        -0.10006

 Excited State  14:      Singlet-A      9.3604 eV  132.46 nm  f=0.0015  <S**2>=0.000
      13 -> 23         0.69392

 Excited State  15:      Singlet-A      9.4315 eV  131.46 nm  f=0.0811  <S**2>=0.000
      12 -> 16         0.69420

 Excited State  16:      Singlet-A      9.4850 eV  130.72 nm  f=0.0027  <S**2>=0.000
      13 -> 24         0.69223

 Excited State  17:      Singlet-A      9.6050 eV  129.08 nm  f=0.0518  <S**2>=0.000
      11 -> 15         0.69909

 Excited State  18:      Singlet-A      9.7676 eV  126.93 nm  f=0.0091  <S**2>=0.000
      10 -> 15         0.69113

 Excited State  19:      Singlet-A      9.8546 eV  125.81 nm  f=0.0274  <S**2>=0.000
      11 -> 16         0.67482
      12 -> 17        -0.15940

 Excited State  20:      Singlet-A      9.9938 eV  124.06 nm  f=0.0044  <S**2>=0.000
      10 -> 16         0.64245
      11 -> 16         0.10180
      12 -> 17         0.24511

 Excited State  21:      Singlet-A     10.0614 eV  123.23 nm  f=0.0128  <S**2>=0.000
      10 -> 16        -0.19406
      12 -> 17         0.56118
      13 -> 25         0.33346

 Excited State  22:      Singlet-A     10.1043 eV  122.70 nm  f=0.0653  <S**2>=0.000
      10 -> 16         0.17429
      11 -> 16        -0.11161
      12 -> 17        -0.28939
      13 -> 25         0.56769
      13 -> 26        -0.14934

 Excited State  23:      Singlet-A     10.3722 eV  119.54 nm  f=0.0037  <S**2>=0.000
       9 -> 14         0.50442
      11 -> 17        -0.19382
      12 -> 18        -0.15642
      13 -> 26        -0.37236
      13 -> 27         0.19643

 Excited State  24:      Singlet-A     10.4276 eV  118.90 nm  f=0.0145  <S**2>=0.000
       9 -> 14         0.40553
      13 -> 26         0.41414
      13 -> 27        -0.36945

 Excited State  25:      Singlet-A     10.4764 eV  118.35 nm  f=0.0301  <S**2>=0.000
       9 -> 14         0.20801
      11 -> 17         0.18350
      12 -> 18         0.62893
      13 -> 26        -0.10790

 Excited State  26:      Singlet-A     10.5039 eV  118.04 nm  f=0.0428  <S**2>=0.000
       9 -> 14         0.15691
      11 -> 17         0.58141
      12 -> 18        -0.16720
      13 -> 26         0.12309
      13 -> 27         0.28212

 Excited State  27:      Singlet-A     10.6036 eV  116.93 nm  f=0.0378  <S**2>=0.000
      10 -> 17         0.69657

 Excited State  28:      Singlet-A     10.7086 eV  115.78 nm  f=0.0796  <S**2>=0.000
       8 -> 14        -0.11965
      11 -> 17        -0.26666
      12 -> 18         0.16655
      12 -> 19        -0.16225
      13 -> 25         0.15516
      13 -> 26         0.31866
      13 -> 27         0.45012

 Excited State  29:      Singlet-A     10.9589 eV  113.14 nm  f=0.0038  <S**2>=0.000
      11 -> 18         0.64284
      12 -> 19        -0.25546

 Excited State  30:      Singlet-A     11.0010 eV  112.70 nm  f=0.0309  <S**2>=0.000
      11 -> 18         0.26300
      12 -> 19         0.60549
      12 -> 20         0.12074

 Excited State  31:      Singlet-A     11.1292 eV  111.40 nm  f=0.0773  <S**2>=0.000
      10 -> 18         0.64973
      10 -> 19         0.11052
      12 -> 19         0.10813
      12 -> 20        -0.14116

 Excited State  32:      Singlet-A     11.1713 eV  110.98 nm  f=0.0161  <S**2>=0.000
       9 -> 15         0.64797
      12 -> 20        -0.20898
      13 -> 28         0.13748

 Excited State  33:      Singlet-A     11.2732 eV  109.98 nm  f=0.0250  <S**2>=0.000
       9 -> 16         0.16655
      10 -> 18         0.13382
      12 -> 20         0.40770
      13 -> 28         0.51076

 Excited State  34:      Singlet-A     11.3220 eV  109.51 nm  f=0.0591  <S**2>=0.000
       8 -> 14         0.26661
       9 -> 15         0.21714
      11 -> 19        -0.15313
      12 -> 20         0.39722
      12 -> 21         0.12924
      13 -> 28        -0.39035

 Excited State  35:      Singlet-A     11.4173 eV  108.59 nm  f=0.0043  <S**2>=0.000
       9 -> 16        -0.23891
      11 -> 19         0.23271
      12 -> 21         0.60672

 Excited State  36:      Singlet-A     11.4408 eV  108.37 nm  f=0.0399  <S**2>=0.000
       8 -> 14         0.37790
       9 -> 16         0.31100
      11 -> 19         0.48008

 Excited State  37:      Singlet-A     11.5112 eV  107.71 nm  f=0.0478  <S**2>=0.000
       8 -> 14         0.43989
       9 -> 15        -0.12051
      10 -> 19        -0.12677
      11 -> 19        -0.35087
      11 -> 21         0.10493
      12 -> 20        -0.18436
      12 -> 21         0.14733
      13 -> 28         0.17822

 Excited State  38:      Singlet-A     11.5468 eV  107.38 nm  f=0.0643  <S**2>=0.000
       8 -> 14        -0.20170
       9 -> 16         0.51397
      10 -> 19        -0.19854
      11 -> 19        -0.15968
      11 -> 20         0.10109
      12 -> 20        -0.12120
      12 -> 21         0.25074

 Excited State  39:      Singlet-A     11.6559 eV  106.37 nm  f=0.0237  <S**2>=0.000
       9 -> 16        -0.13976
      10 -> 19        -0.36113
      10 -> 20         0.17570
      11 -> 20         0.53472

 Excited State  40:      Singlet-A     11.7013 eV  105.96 nm  f=0.0132  <S**2>=0.000
      10 -> 19         0.47574
      10 -> 20        -0.15222
      11 -> 20         0.43723
      13 -> 29        -0.12819

 Excited State  41:      Singlet-A     11.7325 eV  105.68 nm  f=0.0981  <S**2>=0.000
       7 -> 14        -0.13135
      11 -> 21         0.11209
      13 -> 29         0.64850

 Excited State  42:      Singlet-A     11.8783 eV  104.38 nm  f=0.0681  <S**2>=0.000
      10 -> 19         0.15052
      10 -> 20         0.62508
      11 -> 21         0.11884
      12 -> 22        -0.11465

 Excited State  43:      Singlet-A     11.9785 eV  103.51 nm  f=0.0341  <S**2>=0.000
       7 -> 14         0.12384
       9 -> 17         0.17863
      10 -> 21         0.37935
      11 -> 21         0.52128

 Excited State  44:      Singlet-A     12.0364 eV  103.01 nm  f=0.0061  <S**2>=0.000
       7 -> 14        -0.18342
       9 -> 17        -0.17128
      12 -> 22         0.62760
      12 -> 23         0.11674

 Excited State  45:      Singlet-A     12.0821 eV  102.62 nm  f=0.0273  <S**2>=0.000
       7 -> 14         0.21379
       9 -> 17        -0.42464
      10 -> 21         0.43298
      11 -> 21        -0.19160
      12 -> 22        -0.11783

 Excited State  46:      Singlet-A     12.1125 eV  102.36 nm  f=0.0774  <S**2>=0.000
       7 -> 14         0.56043
      10 -> 21        -0.28349
      11 -> 21         0.10101
      12 -> 22         0.14761
      12 -> 23         0.14127

 Excited State  47:      Singlet-A     12.1666 eV  101.90 nm  f=0.0428  <S**2>=0.000
       8 -> 15         0.65662
       9 -> 17         0.16815

 Excited State  48:      Singlet-A     12.1936 eV  101.68 nm  f=0.0140  <S**2>=0.000
       7 -> 14         0.16277
       8 -> 15        -0.17180
       9 -> 17         0.41114
      10 -> 20         0.10775
      10 -> 21         0.19698
      11 -> 21        -0.28488
      12 -> 23         0.15832
      12 -> 24         0.12263
      13 -> 31        -0.10439

 Excited State  49:      Singlet-A     12.2848 eV  100.92 nm  f=0.0163  <S**2>=0.000
      12 -> 23        -0.38980
      12 -> 24         0.19167
      13 -> 30         0.52370

 Excited State  50:      Singlet-A     12.3211 eV  100.63 nm  f=0.0306  <S**2>=0.000
      12 -> 22        -0.12035
      12 -> 23         0.46055
      12 -> 24        -0.20514
      13 -> 30         0.42175

 Excited State  51:      Singlet-A     12.4266 eV   99.77 nm  f=0.0128  <S**2>=0.000
       8 -> 16         0.33658
       9 -> 18         0.24518
      12 -> 23         0.16500
      12 -> 24         0.49838
      13 -> 31         0.11118

 Excited State  52:      Singlet-A     12.4506 eV   99.58 nm  f=0.0158  <S**2>=0.000
       8 -> 16         0.36353
       9 -> 18        -0.19622
      12 -> 24        -0.19630
      13 -> 31         0.49241

 Excited State  53:      Singlet-A     12.4992 eV   99.19 nm  f=0.0403  <S**2>=0.000
       8 -> 16         0.33399
       9 -> 18         0.15837
      11 -> 22         0.50330
      12 -> 23        -0.10113
      12 -> 24        -0.10273
      13 -> 31        -0.24149

 Excited State  54:      Singlet-A     12.5335 eV   98.92 nm  f=0.0771  <S**2>=0.000
       8 -> 16        -0.31889
       9 -> 18         0.26791
      10 -> 22         0.29865
      11 -> 22         0.28613
      13 -> 31         0.35202

 Excited State  55:      Singlet-A     12.5894 eV   98.48 nm  f=0.0450  <S**2>=0.000
       9 -> 18         0.47227
      10 -> 22         0.10650
      11 -> 22        -0.28304
      11 -> 23         0.20597
      12 -> 24        -0.24145

 Excited State  56:      Singlet-A     12.6964 eV   97.65 nm  f=0.0806  <S**2>=0.000
       9 -> 18        -0.19990
      10 -> 22         0.59198
      11 -> 22        -0.11434
      13 -> 31        -0.11484

 Excited State  57:      Singlet-A     12.7879 eV   96.95 nm  f=0.0036  <S**2>=0.000
       8 -> 17        -0.12014
      10 -> 23        -0.25375
      11 -> 23         0.58567
      12 -> 25        -0.12007

 Excited State  58:      Singlet-A     12.8698 eV   96.34 nm  f=0.0318  <S**2>=0.000
       7 -> 15         0.42601
      10 -> 23        -0.36789
      10 -> 24        -0.11128
      11 -> 23        -0.11876
      12 -> 25        -0.36251

 Excited State  59:      Singlet-A     12.8937 eV   96.16 nm  f=0.0123  <S**2>=0.000
      10 -> 23        -0.23036
      11 -> 24         0.53743
      12 -> 25         0.34009

 Excited State  60:      Singlet-A     12.9259 eV   95.92 nm  f=0.0991  <S**2>=0.000
       7 -> 15         0.48825
       9 -> 19         0.13340
      10 -> 23         0.16973
      11 -> 23         0.15505
      11 -> 24        -0.21498
      12 -> 25         0.32138

 Excited State  61:      Singlet-A     13.0082 eV   95.31 nm  f=0.0223  <S**2>=0.000
       9 -> 19         0.50580
      10 -> 23         0.28302
      10 -> 24        -0.11156
      11 -> 24         0.20762
      12 -> 25        -0.25378

 Excited State  62:      Singlet-A     13.1003 eV   94.64 nm  f=0.0080  <S**2>=0.000
       7 -> 15         0.13646
       8 -> 17        -0.21932
       9 -> 19        -0.18059
      10 -> 23         0.16200
      10 -> 24         0.50098
      11 -> 24         0.22336
      11 -> 25        -0.12038
      12 -> 25        -0.15288

 Excited State  63:      Singlet-A     13.1136 eV   94.55 nm  f=0.0055  <S**2>=0.000
       7 -> 16         0.53039
       9 -> 19        -0.20606
      10 -> 23         0.16780
      10 -> 24        -0.24848
      11 -> 24         0.12270
      12 -> 26        -0.11346

 Excited State  64:      Singlet-A     13.1334 eV   94.40 nm  f=0.0092  <S**2>=0.000
       7 -> 16         0.23031
       8 -> 17         0.52293
       9 -> 19         0.12121
      10 -> 23        -0.11071
      10 -> 24         0.30363

 Excited State  65:      Singlet-A     13.2348 eV   93.68 nm  f=0.0153  <S**2>=0.000
       7 -> 16         0.28976
       8 -> 17        -0.19178
       9 -> 19         0.16999
       9 -> 20        -0.14491
      11 -> 25         0.12281
      12 -> 26         0.31787
      12 -> 27         0.17283
      13 -> 32         0.25318
      13 -> 33        -0.17730
      13 -> 34        -0.20092

 Excited State  66:      Singlet-A     13.2465 eV   93.60 nm  f=0.0130  <S**2>=0.000
       8 -> 17         0.10243
       9 -> 20         0.15751
      12 -> 26        -0.21070
      13 -> 32         0.61746

 Excited State  67:      Singlet-A     13.2862 eV   93.32 nm  f=0.0035  <S**2>=0.000
       7 -> 16         0.14582
      11 -> 25         0.19911
      12 -> 26         0.10943
      13 -> 32         0.13788
      13 -> 33         0.49666
      13 -> 34         0.37233

 Excited State  68:      Singlet-A     13.3300 eV   93.01 nm  f=0.0410  <S**2>=0.000
       8 -> 17         0.14435
       9 -> 19        -0.15376
       9 -> 20         0.36262
      10 -> 25         0.12706
      11 -> 25         0.17263
      11 -> 26         0.10007
      12 -> 26         0.39969
      13 -> 33        -0.19253
      13 -> 34         0.17198

 Excited State  69:      Singlet-A     13.3774 eV   92.68 nm  f=0.0207  <S**2>=0.000
       9 -> 21         0.30549
      11 -> 25        -0.11214
      12 -> 26        -0.14502
      12 -> 27         0.23220
      13 -> 33        -0.28019
      13 -> 34         0.44690

 Excited State  70:      Singlet-A     13.4085 eV   92.47 nm  f=0.0059  <S**2>=0.000
       7 -> 16         0.10912
       7 -> 17        -0.11852
       8 -> 17        -0.10867
       8 -> 18         0.40653
       9 -> 20         0.31400
       9 -> 21         0.20153
      11 -> 25         0.10044
      12 -> 27        -0.31500

 Excited State  71:      Singlet-A     13.4530 eV   92.16 nm  f=0.0540  <S**2>=0.000
       9 -> 20         0.21691
       9 -> 21         0.25629
      10 -> 25         0.16829
      11 -> 25        -0.12714
      12 -> 27         0.42397
      13 -> 33         0.26413
      13 -> 34        -0.23503

 Excited State  72:      Singlet-A     13.5528 eV   91.48 nm  f=0.1073  <S**2>=0.000
       7 -> 17         0.14175
       9 -> 20        -0.24171
       9 -> 21         0.28944
      10 -> 25         0.42134
      11 -> 25         0.26986

 Excited State  73:      Singlet-A     13.5985 eV   91.18 nm  f=0.0504  <S**2>=0.000
       8 -> 18         0.16679
       9 -> 21        -0.33268
      10 -> 25         0.46164
      11 -> 25        -0.21314
      11 -> 26        -0.10725
      13 -> 34         0.10453

 Excited State  74:      Singlet-A     13.6426 eV   90.88 nm  f=0.0240  <S**2>=0.000
       7 -> 17         0.47194
       8 -> 18         0.43179
       9 -> 20        -0.10463
      11 -> 27         0.11542
      12 -> 27         0.11053

 Excited State  75:      Singlet-A     13.6720 eV   90.68 nm  f=0.1109  <S**2>=0.000
       7 -> 18         0.10301
       9 -> 21        -0.25212
      10 -> 26         0.26774
      11 -> 25         0.35620
      11 -> 27        -0.13678
      12 -> 26        -0.25262
      12 -> 27         0.22833

 Excited State  76:      Singlet-A     13.8472 eV   89.54 nm  f=0.0694  <S**2>=0.000
       8 -> 19         0.11119
      10 -> 26         0.12533
      10 -> 27         0.14262
      11 -> 26         0.45335
      11 -> 27         0.22698
      13 -> 35        -0.39544

 Excited State  77:      Singlet-A     13.8671 eV   89.41 nm  f=0.0208  <S**2>=0.000
      10 -> 26        -0.12788
      10 -> 27         0.10350
      11 -> 26         0.27178
      11 -> 27         0.30638
      13 -> 35         0.53087

 Excited State  78:      Singlet-A     13.9248 eV   89.04 nm  f=0.0366  <S**2>=0.000
       8 -> 19        -0.19063
      11 -> 26        -0.30309
      11 -> 27         0.52315
      12 -> 28        -0.17583
      13 -> 35        -0.10555

 Excited State  79:      Singlet-A     13.9562 eV   88.84 nm  f=0.0301  <S**2>=0.000
       8 -> 19        -0.11239
      10 -> 26         0.58108
      11 -> 25        -0.16700
      12 -> 28         0.14359
      13 -> 35         0.15146

 Excited State  80:      Singlet-A     14.0218 eV   88.42 nm  f=0.0004  <S**2>=0.000
       7 -> 17        -0.25661
       7 -> 18        -0.20097
       8 -> 18         0.11987
       8 -> 19         0.39662
       9 -> 22         0.11179
      10 -> 27        -0.35822

 Excited State  81:      Singlet-A     14.0645 eV   88.15 nm  f=0.0195  <S**2>=0.000
       7 -> 17        -0.16997
       7 -> 18        -0.20020
       8 -> 19         0.19708
       8 -> 20         0.14624
       9 -> 22        -0.22672
      10 -> 27         0.48291
      12 -> 28        -0.12125

 Excited State  82:      Singlet-A     14.0948 eV   87.96 nm  f=0.0214  <S**2>=0.000
       8 -> 19         0.12554
       8 -> 20         0.10144
       9 -> 22         0.60212
      10 -> 27         0.22717

 Excited State  83:      Singlet-A     14.1497 eV   87.62 nm  f=0.1166  <S**2>=0.000
       7 -> 17         0.14765
       7 -> 18         0.33101
       8 -> 18        -0.11762
       8 -> 19         0.38335
       9 -> 23        -0.12319
      12 -> 28        -0.21599
      13 -> 36        -0.19994

 Excited State  84:      Singlet-A     14.2302 eV   87.13 nm  f=0.0399  <S**2>=0.000
       7 -> 18         0.18457
       8 -> 20         0.35516
      12 -> 28         0.13377
      13 -> 36         0.48146
      13 -> 37         0.13887

 Excited State  85:      Singlet-A     14.2677 eV   86.90 nm  f=0.0225  <S**2>=0.000
       7 -> 18        -0.20468
       8 -> 19         0.11097
       8 -> 20        -0.35893
      12 -> 28        -0.29268
      13 -> 36         0.39258

 Excited State  86:      Singlet-A     14.2883 eV   86.77 nm  f=0.0396  <S**2>=0.000
       6 -> 14        -0.12084
       7 -> 18         0.14766
       8 -> 20         0.21145
       9 -> 23         0.43992
      11 -> 28         0.11487
      12 -> 28        -0.34918

 Excited State  87:      Singlet-A     14.3828 eV   86.20 nm  f=0.0137  <S**2>=0.000
       7 -> 17        -0.10713
       7 -> 18         0.25782
       8 -> 20        -0.22105
      13 -> 37         0.48497
      13 -> 38         0.24098

 Excited State  88:      Singlet-A     14.4165 eV   86.00 nm  f=0.0418  <S**2>=0.000
       6 -> 14         0.11407
       8 -> 21         0.12360
       9 -> 23         0.28556
       9 -> 24        -0.13577
      11 -> 28        -0.25609
      12 -> 28         0.10940
      13 -> 37        -0.17125
      13 -> 38         0.45891

 Excited State  89:      Singlet-A     14.4472 eV   85.82 nm  f=0.0425  <S**2>=0.000
       7 -> 18        -0.12018
       8 -> 20         0.14411
       8 -> 21        -0.12489
       9 -> 23        -0.25637
       9 -> 24         0.11744
      11 -> 28         0.29076
      12 -> 28        -0.15779
      13 -> 38         0.45248

 Excited State  90:      Singlet-A     14.5006 eV   85.50 nm  f=0.0052  <S**2>=0.000
       7 -> 18         0.12693
       7 -> 19        -0.14967
       8 -> 20        -0.13670
       8 -> 21        -0.19586
       9 -> 24         0.14606
      12 -> 29         0.52424
      13 -> 37        -0.22378

 Excited State  91:      Singlet-A     14.5115 eV   85.44 nm  f=0.0692  <S**2>=0.000
       7 -> 18        -0.11725
       8 -> 20         0.10074
       9 -> 23         0.18972
       9 -> 24         0.50684
      10 -> 28        -0.14460
      11 -> 28        -0.13152
      13 -> 37         0.24164

 Excited State  92:      Singlet-A     14.5578 eV   85.17 nm  f=0.1457  <S**2>=0.000
       6 -> 14        -0.16116
       7 -> 18         0.10303
       7 -> 20        -0.12082
       8 -> 21         0.33816
       9 -> 23        -0.14116
       9 -> 24         0.30977
      11 -> 28        -0.19279
      12 -> 28        -0.12859
      12 -> 29        -0.21235
      13 -> 37        -0.21298

 Excited State  93:      Singlet-A     14.5751 eV   85.07 nm  f=0.0077  <S**2>=0.000
       6 -> 14         0.21144
       8 -> 21         0.47867
      10 -> 28         0.15815
      11 -> 28         0.27085
      12 -> 29         0.29035

 The electronic state is 1-A.
 Alpha  occ. eigenvalues --  -13.99066  -9.92922  -9.89678  -0.79864  -0.65750
 Alpha  occ. eigenvalues --   -0.53982  -0.44349  -0.41871  -0.38211  -0.32824
 Alpha  occ. eigenvalues --   -0.32340  -0.30531  -0.19883
 Alpha virt. eigenvalues --   -0.00344   0.02610   0.03679   0.05939   0.07618
 Alpha virt. eigenvalues --    0.09517   0.10382   0.11144   0.13388   0.14301
 Alpha virt. eigenvalues --    0.14824   0.16609   0.18023   0.18498   0.20943

 Mulliken charges:
               1
     1  C    0.340414
     2  C    0.124620
     3  N   -0.138871
     4  H   -0.015742
     5  H   -0.023389
     6  H    0.021812
     7  H   -0.120996
     8  H   -0.158822
     9  H    0.023992
    10  H   -0.053018
 Sum of Mulliken charges =  -0.00000

 Dipole moment (field-independent basis, Debye):
    X=              0.1603    Y=              0.5786    Z=              1.0654  Tot=              1.2229
 Quadrupole moment (field-independent basis, Debye-Ang):
   XX=            -19.8055   YY=            -21.0725   ZZ=            -21.7485
   XY=              0.7016   XZ=              1.5178   YZ=             -1.6923

 Normal termination of Gaussian 16 at Mon Mar 21 04:20:12 2022.
