 Gaussian 16, Revision C.01,
 Gaussian 16:  EM64L-G16RevC.01  3-Jul-2019

 ----------------------------------------------------------------------
 #P TD(Nstates=10000) pw91pw91/Gen SCF(maxcycles=100) Int(Grid=ultrafin
 e)
 ----------------------------------------------------------------------

 ---------------------
 xGDB7_00001_tier4.com
 ---------------------
 Symbolic Z-matrix:
 Charge =  0 Multiplicity = 1

                         Standard orientation:
 ---------------------------------------------------------------------
 Center     Atomic      Atomic             Coordinates (Angstroms)
 Number     Number       Type             X           Y           Z
 ---------------------------------------------------------------------
      1          9           0        0.000000    0.000000    0.091801
      2          1           0        0.000000    0.000000   -0.826212
 ---------------------------------------------------------------------

 SCF Done:  E(RPW91-PW91) =  -100.347435329     A.U. after    9 cycles

 Excitation energies and oscillator strengths:

 Excited state symmetry could not be determined.
 Excited State   1:      Singlet-?Sym    9.3219 eV  133.00 nm  f=0.0309  <S**2>=0.000
       4 ->  6        -0.27826
       5 ->  6         0.64969
 This state for optimization and/or second-order correction.
 Total Energy, E(TD-HF/TD-DFT) =  -100.004863260
 Copying the excited state density for this state as the 1-particle RhoCI density.

 Excited state symmetry could not be determined.
 Excited State   2:      Singlet-?Sym    9.3219 eV  133.00 nm  f=0.0309  <S**2>=0.000
       4 ->  6         0.64969
       5 ->  6         0.27826

 Excited state symmetry could not be determined.
 Excited State   3:      Singlet-?Sym   13.1419 eV   94.34 nm  f=0.0000  <S**2>=0.000
       4 ->  8         0.50000
       5 ->  9        -0.50000

 Excited state symmetry could not be determined.
 Excited State   4:      Singlet-?Sym   13.1843 eV   94.04 nm  f=0.0185  <S**2>=0.000
       4 ->  7         0.18185
       5 ->  7         0.68234

 Excited state symmetry could not be determined.
 Excited State   5:      Singlet-?Sym   13.1843 eV   94.04 nm  f=0.0185  <S**2>=0.000
       4 ->  7         0.68234
       5 ->  7        -0.18185

 Excited state symmetry could not be determined.
 Excited State   6:      Singlet-?Sym   13.2691 eV   93.44 nm  f=0.0000  <S**2>=0.000
       4 ->  8         0.49985
       5 ->  9         0.49985

 Excited state symmetry could not be determined.
 Excited State   7:      Singlet-?Sym   13.2691 eV   93.44 nm  f=0.0000  <S**2>=0.000
       4 ->  9        -0.49985
       5 ->  8         0.49985

 Excited State   8:      Singlet-SG    13.2746 eV   93.40 nm  f=0.1273  <S**2>=0.000
       3 ->  6         0.64443
       4 ->  9         0.19982
       5 ->  8         0.19982

 Excited state symmetry could not be determined.
 Excited State   9:      Singlet-?Sym   14.8005 eV   83.77 nm  f=0.0023  <S**2>=0.000
       3 ->  6        -0.23495
       3 ->  7        -0.16760
       3 -> 10         0.10119
       4 ->  9         0.41023
       4 -> 12        -0.18158
       5 ->  8         0.41023
       5 -> 11        -0.18158

 Excited state symmetry could not be determined.
 Excited State  10:      Singlet-?Sym   15.2387 eV   81.36 nm  f=0.0754  <S**2>=0.000
       4 -> 10        -0.42563
       5 -> 10         0.56307

 Excited state symmetry could not be determined.
 Excited State  11:      Singlet-?Sym   15.2387 eV   81.36 nm  f=0.0754  <S**2>=0.000
       4 -> 10         0.56307
       5 -> 10         0.42563

 Excited state symmetry could not be determined.
 Excited State  12:      Singlet-?Sym   15.7592 eV   78.67 nm  f=0.0000  <S**2>=0.000
       4 -> 12        -0.49985
       5 -> 11         0.49985

 Excited state symmetry could not be determined.
 Excited State  13:      Singlet-?Sym   15.7592 eV   78.67 nm  f=0.0000  <S**2>=0.000
       4 -> 11         0.49985
       5 -> 12         0.49985

 Excited state symmetry could not be determined.
 Excited State  14:      Singlet-?Sym   15.7791 eV   78.57 nm  f=0.0000  <S**2>=0.000
       4 -> 11         0.50000
       5 -> 12        -0.50000

 Excited state symmetry could not be determined.
 Excited State  15:      Singlet-?Sym   16.0972 eV   77.02 nm  f=0.2095  <S**2>=0.000
       3 ->  6        -0.11214
       3 ->  7        -0.15714
       3 -> 10         0.11672
       4 ->  9         0.12025
       4 -> 12         0.45663
       5 ->  8         0.12025
       5 -> 11         0.45663

 Excited state symmetry could not be determined.
 Excited State  16:      Singlet-?Sym   17.0013 eV   72.93 nm  f=0.0000  <S**2>=0.000
       3 ->  8         0.12473
       3 ->  9         0.69550

 Excited state symmetry could not be determined.
 Excited State  17:      Singlet-?Sym   17.0013 eV   72.93 nm  f=0.0000  <S**2>=0.000
       3 ->  8         0.69550
       3 ->  9        -0.12473

 Excited State  18:      Singlet-SG    17.4014 eV   71.25 nm  f=0.0407  <S**2>=0.000
       3 ->  7         0.65054
       3 -> 10         0.20386
       4 ->  9         0.11372
       5 ->  8         0.11372

 Excited state symmetry could not be determined.
 Excited State  19:      Singlet-?Sym   18.3642 eV   67.51 nm  f=0.0170  <S**2>=0.000
       5 -> 13         0.70592

 Excited state symmetry could not be determined.
 Excited State  20:      Singlet-?Sym   18.3642 eV   67.51 nm  f=0.0170  <S**2>=0.000
       4 -> 13         0.70592

 Excited state symmetry could not be determined.
 Excited State  21:      Singlet-?Sym   19.6300 eV   63.16 nm  f=0.0714  <S**2>=0.000
       3 -> 11         0.68267
       3 -> 12        -0.17432

 Excited state symmetry could not be determined.
 Excited State  22:      Singlet-?Sym   19.6300 eV   63.16 nm  f=0.0714  <S**2>=0.000
       3 -> 11         0.17432
       3 -> 12         0.68267

 Excited State  23:      Singlet-SG    19.9308 eV   62.21 nm  f=0.0894  <S**2>=0.000
       3 ->  7        -0.13660
       3 -> 10         0.61983
       3 -> 13        -0.25501

 Excited State  24:      Singlet-SG    22.9035 eV   54.13 nm  f=0.0833  <S**2>=0.000
       3 -> 10         0.20334
       3 -> 13         0.64786

 Excited state symmetry could not be determined.
 Excited State  25:      Singlet-?Sym   24.0802 eV   51.49 nm  f=0.0000  <S**2>=0.000
       4 -> 14        -0.30761
       4 -> 15         0.39419
       5 -> 14         0.39419
       5 -> 15         0.30761

 Excited state symmetry could not be determined.
 Excited State  26:      Singlet-?Sym   24.0802 eV   51.49 nm  f=0.0000  <S**2>=0.000
       4 -> 14         0.39419
       4 -> 15         0.30761
       5 -> 14         0.30761
       5 -> 15        -0.39419

 Excited state symmetry could not be determined.
 Excited State  27:      Singlet-?Sym   25.2234 eV   49.15 nm  f=0.4203  <S**2>=0.000
       4 -> 14         0.45679
       4 -> 15         0.13061
       5 -> 14        -0.13061
       5 -> 15         0.45679
       5 -> 16        -0.19951

 Excited state symmetry could not be determined.
 Excited State  28:      Singlet-?Sym   25.2234 eV   49.15 nm  f=0.4203  <S**2>=0.000
       4 -> 14         0.13061
       4 -> 15        -0.45679
       4 -> 16        -0.19951
       5 -> 14         0.45679
       5 -> 15         0.13061

 Excited state symmetry could not be determined.
 Excited State  29:      Singlet-?Sym   26.6260 eV   46.57 nm  f=0.1887  <S**2>=0.000
       4 -> 14         0.10256
       4 -> 16        -0.46271
       5 -> 15         0.10256
       5 -> 16         0.48968

 Excited state symmetry could not be determined.
 Excited State  30:      Singlet-?Sym   26.6260 eV   46.57 nm  f=0.1887  <S**2>=0.000
       4 -> 15        -0.10256
       4 -> 16         0.48968
       5 -> 14         0.10256
       5 -> 16         0.46271

 Excited state symmetry could not be determined.
 Excited State  31:      Singlet-?Sym   28.0542 eV   44.19 nm  f=0.0000  <S**2>=0.000
       3 -> 15         0.68912
       4 -> 18        -0.11204
       5 -> 17         0.11204

 Excited state symmetry could not be determined.
 Excited State  32:      Singlet-?Sym   28.0542 eV   44.19 nm  f=0.0000  <S**2>=0.000
       3 -> 14         0.68912
       4 -> 17         0.11204
       5 -> 18         0.11204

 Excited state symmetry could not be determined.
 Excited State  33:      Singlet-?Sym   28.5850 eV   43.37 nm  f=0.0000  <S**2>=0.000
       3 -> 14        -0.15845
       4 -> 17         0.48728
       5 -> 18         0.48728

 Excited state symmetry could not be determined.
 Excited State  34:      Singlet-?Sym   28.5850 eV   43.37 nm  f=0.0000  <S**2>=0.000
       3 -> 15        -0.15845
       4 -> 18        -0.48728
       5 -> 17         0.48728

 Excited state symmetry could not be determined.
 Excited State  35:      Singlet-?Sym   28.7516 eV   43.12 nm  f=0.0000  <S**2>=0.000
       4 -> 17         0.50000
       5 -> 18        -0.50000

 Excited state symmetry could not be determined.
 Excited State  36:      Singlet-?Sym   29.1197 eV   42.58 nm  f=0.1723  <S**2>=0.000
       2 ->  6         0.17988
       3 -> 16         0.32125
       4 -> 18         0.42497
       5 -> 17         0.42497

 Excited State  37:      Singlet-SG    29.8525 eV   41.53 nm  f=0.0418  <S**2>=0.000
       2 ->  6         0.65817
       3 -> 16        -0.19783

 Excited State  38:      Singlet-SG    31.8514 eV   38.93 nm  f=0.5566  <S**2>=0.000
       2 ->  6         0.13024
       2 ->  7         0.11161
       3 -> 16         0.58580
       4 -> 18        -0.24197
       5 -> 17        -0.24197

 Excited state symmetry could not be determined.
 Excited State  39:      Singlet-?Sym   32.8636 eV   37.73 nm  f=0.2595  <S**2>=0.000
       2 ->  8        -0.25487
       2 ->  9         0.22826
       3 -> 17         0.45816
       3 -> 18        -0.41032

 Excited state symmetry could not be determined.
 Excited State  40:      Singlet-?Sym   32.8636 eV   37.73 nm  f=0.2595  <S**2>=0.000
       2 ->  8        -0.22826
       2 ->  9        -0.25487
       3 -> 17         0.41032
       3 -> 18         0.45816

 Excited State  41:      Singlet-SG    33.2559 eV   37.28 nm  f=0.0160  <S**2>=0.000
       2 ->  7         0.69393

 Excited state symmetry could not be determined.
 Excited State  42:      Singlet-?Sym   33.5286 eV   36.98 nm  f=0.0434  <S**2>=0.000
       2 ->  8         0.61615
       3 -> 17         0.33524

 Excited state symmetry could not be determined.
 Excited State  43:      Singlet-?Sym   33.5286 eV   36.98 nm  f=0.0434  <S**2>=0.000
       2 ->  9         0.61615
       3 -> 18         0.33524

 Excited State  44:      Singlet-SG    35.3170 eV   35.11 nm  f=0.0091  <S**2>=0.000
       2 -> 10         0.69996

 Excited state symmetry could not be determined.
 Excited State  45:      Singlet-?Sym   35.7062 eV   34.72 nm  f=0.0030  <S**2>=0.000
       2 -> 11         0.70365

 Excited state symmetry could not be determined.
 Excited State  46:      Singlet-?Sym   35.7062 eV   34.72 nm  f=0.0030  <S**2>=0.000
       2 -> 12         0.70365

 Excited state symmetry could not be determined.
 Excited State  47:      Singlet-?Sym   36.6751 eV   33.81 nm  f=0.0060  <S**2>=0.000
       4 -> 19        -0.19691
       5 -> 19         0.67826

 Excited state symmetry could not be determined.
 Excited State  48:      Singlet-?Sym   36.6751 eV   33.81 nm  f=0.0060  <S**2>=0.000
       4 -> 19         0.67826
       5 -> 19         0.19691

 Excited State  49:      Singlet-SG    38.8551 eV   31.91 nm  f=0.0256  <S**2>=0.000
       2 -> 13         0.67573
       3 -> 19         0.15538

 Excited State  50:      Singlet-SG    41.0332 eV   30.22 nm  f=0.0016  <S**2>=0.000
       2 -> 13        -0.12046
       3 -> 19         0.66245
       4 -> 20        -0.14074
       5 -> 21        -0.14074

 Excited state symmetry could not be determined.
 Excited State  51:      Singlet-?Sym   44.1684 eV   28.07 nm  f=0.0000  <S**2>=0.000
       2 -> 15         0.35073
       4 -> 20         0.43416
       5 -> 21        -0.43416

 Excited state symmetry could not be determined.
 Excited State  52:      Singlet-?Sym   44.1684 eV   28.07 nm  f=0.0000  <S**2>=0.000
       2 -> 14        -0.35073
       4 -> 21         0.43416
       5 -> 20         0.43416

 Excited state symmetry could not be determined.
 Excited State  53:      Singlet-?Sym   44.1862 eV   28.06 nm  f=0.0000  <S**2>=0.000
       4 -> 21        -0.50000
       5 -> 20         0.50000

 Excited state symmetry could not be determined.
 Excited State  54:      Singlet-?Sym   44.4453 eV   27.90 nm  f=0.0000  <S**2>=0.000
       2 -> 15         0.61396
       4 -> 20        -0.24799
       5 -> 21         0.24799

 Excited state symmetry could not be determined.
 Excited State  55:      Singlet-?Sym   44.4453 eV   27.90 nm  f=0.0000  <S**2>=0.000
       2 -> 14         0.61396
       4 -> 21         0.24799
       5 -> 20         0.24799

 Excited State  56:      Singlet-SG    46.6780 eV   26.56 nm  f=0.0005  <S**2>=0.000
       2 -> 16         0.69902

 Excited state symmetry could not be determined.
 Excited State  57:      Singlet-?Sym   48.0826 eV   25.79 nm  f=0.0001  <S**2>=0.000
       3 -> 20         0.51240
       3 -> 21         0.48065

 Excited state symmetry could not be determined.
 Excited State  58:      Singlet-?Sym   48.0826 eV   25.79 nm  f=0.0001  <S**2>=0.000
       3 -> 20        -0.48065
       3 -> 21         0.51240

 Excited state symmetry could not be determined.
 Excited State  59:      Singlet-?Sym   48.8949 eV   25.36 nm  f=0.0034  <S**2>=0.000
       2 -> 17         0.61081
       2 -> 18         0.35485

 Excited state symmetry could not be determined.
 Excited State  60:      Singlet-?Sym   48.8949 eV   25.36 nm  f=0.0034  <S**2>=0.000
       2 -> 17        -0.35485
       2 -> 18         0.61081

 Excited state symmetry could not be determined.
 Excited State  61:      Singlet-?Sym   49.6816 eV   24.96 nm  f=0.0411  <S**2>=0.000
       4 -> 22         0.69478

 Excited state symmetry could not be determined.
 Excited State  62:      Singlet-?Sym   49.6816 eV   24.96 nm  f=0.0411  <S**2>=0.000
       5 -> 22         0.69478

 Excited State  63:      Singlet-SG    50.4723 eV   24.56 nm  f=0.0738  <S**2>=0.000
       2 -> 19         0.10799
       3 -> 19        -0.11798
       3 -> 22         0.44745
       4 -> 20        -0.35079
       5 -> 21        -0.35079

 Excited State  64:      Singlet-SG    56.7161 eV   21.86 nm  f=0.0310  <S**2>=0.000
       2 -> 19         0.55887
       3 -> 22        -0.34787
       4 -> 20        -0.11448
       4 -> 24        -0.12215
       5 -> 21        -0.11448
       5 -> 23        -0.12215

 Excited state symmetry could not be determined.
 Excited State  65:      Singlet-?Sym   57.9194 eV   21.41 nm  f=0.0000  <S**2>=0.000
       4 -> 24        -0.50000
       5 -> 23         0.50000

 Excited state symmetry could not be determined.
 Excited State  66:      Singlet-?Sym   57.9194 eV   21.41 nm  f=0.0000  <S**2>=0.000
       4 -> 23         0.50000
       5 -> 24         0.50000

 Excited State  67:      Singlet-SG    58.1223 eV   21.33 nm  f=0.0951  <S**2>=0.000
       2 -> 19         0.39184
       2 -> 22         0.11506
       3 -> 22         0.25365
       4 -> 20         0.16715
       4 -> 24         0.30886
       5 -> 21         0.16715
       5 -> 23         0.30886

 Excited state symmetry could not be determined.
 Excited State  68:      Singlet-?Sym   58.1726 eV   21.31 nm  f=0.0000  <S**2>=0.000
       4 -> 23         0.50000
       5 -> 24        -0.50000

 Excited state symmetry could not be determined.
 Excited State  69:      Singlet-?Sym   59.4506 eV   20.85 nm  f=0.0369  <S**2>=0.000
       2 -> 19        -0.13074
       2 -> 22        -0.15556
       3 -> 22        -0.29979
       3 -> 25         0.18438
       4 -> 20        -0.17156
       4 -> 24         0.36318
       5 -> 21        -0.17156
       5 -> 23         0.36318

 Excited state symmetry could not be determined.
 Excited State  70:      Singlet-?Sym   61.0606 eV   20.31 nm  f=0.0013  <S**2>=0.000
       3 -> 23        -0.24217
       3 -> 24         0.20770
       4 -> 25        -0.40872
       5 -> 25         0.47656

 Excited state symmetry could not be determined.
 Excited State  71:      Singlet-?Sym   61.0606 eV   20.31 nm  f=0.0013  <S**2>=0.000
       3 -> 23        -0.20770
       3 -> 24        -0.24217
       4 -> 25         0.47656
       5 -> 25         0.40872

 Excited state symmetry could not be determined.
 Excited State  72:      Singlet-?Sym   62.1938 eV   19.94 nm  f=0.1370  <S**2>=0.000
       3 -> 23         0.36582
       3 -> 24         0.51131
       4 -> 25         0.25438
       5 -> 25         0.18200

 Excited state symmetry could not be determined.
 Excited State  73:      Singlet-?Sym   62.1938 eV   19.94 nm  f=0.1370  <S**2>=0.000
       3 -> 23         0.51131
       3 -> 24        -0.36582
       4 -> 25        -0.18200
       5 -> 25         0.25438

 Excited state symmetry could not be determined.
 Excited State  74:      Singlet-?Sym   64.9810 eV   19.08 nm  f=0.2357  <S**2>=0.000
       2 -> 20         0.67349
       2 -> 21        -0.18748

 Excited state symmetry could not be determined.
 Excited State  75:      Singlet-?Sym   64.9810 eV   19.08 nm  f=0.2357  <S**2>=0.000
       2 -> 20         0.18748
       2 -> 21         0.67349

 Excited State  76:      Singlet-SG    65.6407 eV   18.89 nm  f=0.0174  <S**2>=0.000
       2 -> 22         0.18220
       3 -> 25         0.66474

 Excited State  77:      Singlet-SG    71.9362 eV   17.24 nm  f=0.0831  <S**2>=0.000
       2 -> 22         0.62689
       2 -> 25         0.15801
       3 -> 22        -0.11780
       3 -> 25        -0.12591
       3 -> 26        -0.14151
       4 -> 20        -0.11111
       5 -> 21        -0.11111

 Excited state symmetry could not be determined.
 Excited State  78:      Singlet-?Sym   72.1164 eV   17.19 nm  f=0.0185  <S**2>=0.000
       4 -> 26        -0.27878
       5 -> 26         0.64751

 Excited state symmetry could not be determined.
 Excited State  79:      Singlet-?Sym   72.1164 eV   17.19 nm  f=0.0185  <S**2>=0.000
       4 -> 26         0.64751
       5 -> 26         0.27878

 Excited State  80:      Singlet-SG    76.9315 eV   16.12 nm  f=0.0179  <S**2>=0.000
       2 -> 22         0.10524
       2 -> 25         0.11197
       3 -> 26         0.68051

 Excited state symmetry could not be determined.
 Excited State  81:      Singlet-?Sym   78.2050 eV   15.85 nm  f=0.0022  <S**2>=0.000
       2 -> 23         0.37185
       2 -> 24         0.60107

 Excited state symmetry could not be determined.
 Excited State  82:      Singlet-?Sym   78.2050 eV   15.85 nm  f=0.0022  <S**2>=0.000
       2 -> 23         0.60107
       2 -> 24        -0.37185

 Excited State  83:      Singlet-SG    83.8496 eV   14.79 nm  f=0.0354  <S**2>=0.000
       2 -> 22        -0.12255
       2 -> 25         0.67152

 Excited State  84:      Singlet-SG    92.9901 eV   13.33 nm  f=0.0229  <S**2>=0.000
       2 -> 26         0.70309

 Excited state symmetry could not be determined.
 Excited State  85:      Singlet-?Sym   96.7847 eV   12.81 nm  f=0.0000  <S**2>=0.000
       4 -> 27         0.50000
       5 -> 28         0.50000

 Excited state symmetry could not be determined.
 Excited State  86:      Singlet-?Sym   96.7847 eV   12.81 nm  f=0.0000  <S**2>=0.000
       4 -> 28        -0.50000
       5 -> 27         0.50000

 Excited state symmetry could not be determined.
 Excited State  87:      Singlet-?Sym  100.7563 eV   12.31 nm  f=0.0000  <S**2>=0.000
       3 -> 27         0.70471

 Excited state symmetry could not be determined.
 Excited State  88:      Singlet-?Sym  100.7563 eV   12.31 nm  f=0.0000  <S**2>=0.000
       3 -> 28         0.70471

 Excited state symmetry could not be determined.
 Excited State  89:      Singlet-?Sym  101.1860 eV   12.25 nm  f=0.2553  <S**2>=0.000
       3 -> 29        -0.36098
       4 -> 28         0.41637
       5 -> 27         0.41637

 Excited state symmetry could not be determined.
 Excited State  90:      Singlet-?Sym  101.1860 eV   12.25 nm  f=0.2553  <S**2>=0.000
       3 -> 30         0.36098
       4 -> 27         0.41637
       5 -> 28        -0.41637

 Excited state symmetry could not be determined.
 Excited State  91:      Singlet-?Sym  101.4906 eV   12.22 nm  f=0.0000  <S**2>=0.000
       4 -> 29         0.49857
       5 -> 30         0.49857

 Excited state symmetry could not be determined.
 Excited State  92:      Singlet-?Sym  101.4906 eV   12.22 nm  f=0.0000  <S**2>=0.000
       4 -> 30        -0.49857
       5 -> 29         0.49857

 Excited state symmetry could not be determined.
 Excited State  93:      Singlet-?Sym  101.5921 eV   12.20 nm  f=0.0000  <S**2>=0.000
       4 -> 29         0.50000
       5 -> 30        -0.50000

 Excited state symmetry could not be determined.
 Excited State  94:      Singlet-?Sym  107.4708 eV   11.54 nm  f=0.5534  <S**2>=0.000
       3 -> 31        -0.10152
       4 -> 30         0.49149
       5 -> 29         0.49149

 Excited state symmetry could not be determined.
 Excited State  95:      Singlet-?Sym  109.9332 eV   11.28 nm  f=0.6517  <S**2>=0.000
       3 -> 29        -0.13348
       3 -> 30         0.58438
       4 -> 27        -0.24826
       5 -> 28         0.24826

 Excited state symmetry could not be determined.
 Excited State  96:      Singlet-?Sym  109.9332 eV   11.28 nm  f=0.6517  <S**2>=0.000
       3 -> 29         0.58438
       3 -> 30         0.13348
       4 -> 28         0.24826
       5 -> 27         0.24826

 Excited state symmetry could not be determined.
 Excited State  97:      Singlet-?Sym  118.5005 eV   10.46 nm  f=0.0000  <S**2>=0.000
       2 -> 28         0.70672

 Excited state symmetry could not be determined.
 Excited State  98:      Singlet-?Sym  118.5005 eV   10.46 nm  f=0.0000  <S**2>=0.000
       2 -> 27         0.70672

 Excited state symmetry could not be determined.
 Excited State  99:      Singlet-?Sym  123.1349 eV   10.07 nm  f=0.0116  <S**2>=0.000
       2 -> 29         0.39553
       2 -> 30         0.58478

 Excited state symmetry could not be determined.
 Excited State 100:      Singlet-?Sym  123.1349 eV   10.07 nm  f=0.0116  <S**2>=0.000
       2 -> 29         0.58478
       2 -> 30        -0.39553

 Excited state symmetry could not be determined.
 Excited State 101:      Singlet-?Sym  127.3227 eV    9.74 nm  f=0.1144  <S**2>=0.000
       4 -> 31         0.68764
       5 -> 31         0.13045

 Excited state symmetry could not be determined.
 Excited State 102:      Singlet-?Sym  127.3227 eV    9.74 nm  f=0.1144  <S**2>=0.000
       4 -> 31        -0.13045
       5 -> 31         0.68764

 Excited State 103:      Singlet-SG   132.5152 eV    9.36 nm  f=0.2348  <S**2>=0.000
       3 -> 31         0.69913

 Excited State 104:      Singlet-SG   147.1874 eV    8.42 nm  f=0.0001  <S**2>=0.000
       2 -> 31         0.70677

 The electronic state is 1-SG.
 Alpha  occ. eigenvalues --  -24.29076  -1.09183  -0.49994  -0.36087  -0.36087
 Alpha virt. eigenvalues --   -0.02578   0.12186   0.12209   0.12209   0.19487
 Alpha virt. eigenvalues --    0.21901   0.21901   0.30846   0.53433   0.53433
 Alpha virt. eigenvalues --    0.60944   0.69574   0.69574   0.98656   1.26295

 Mulliken charges:
               1
     1  F   -0.237270
     2  H    0.237270
 Sum of Mulliken charges =   0.00000

 Dipole moment (field-independent basis, Debye):
    X=              0.0000    Y=              0.0000    Z=             -1.7756  Tot=              1.7756
 Quadrupole moment (field-independent basis, Debye-Ang):
   XX=             -5.9988   YY=             -5.9988   ZZ=             -3.9093
   XY=              0.0000   XZ=              0.0000   YZ=              0.0000

 Normal termination of Gaussian 16 at Mon Mar 21 20:21:52 2022.
