 Gaussian 16, Revision C.01,
 Gaussian 16:  EM64L-G16RevC.01  3-Jul-2019

 ----------------------------------------------------------------------
 #P TD(Nstates=10000) pw91pw91/Gen SCF(maxcycles=100) Int(Grid=ultrafin
 e)
 ----------------------------------------------------------------------

 ---------------------
 xGDB7_00001_tier4.com
 ---------------------
 Symbolic Z-matrix:
 Charge =  0 Multiplicity = 1

                         Standard orientation:
 ---------------------------------------------------------------------
 Center     Atomic      Atomic             Coordinates (Angstroms)
 Number     Number       Type             X           Y           Z
 ---------------------------------------------------------------------
      1          9           0        0.000000    0.000000    0.688193
      2          9           0        0.000000    0.000000   -0.688193
 ---------------------------------------------------------------------

 SCF Done:  E(RPW91-PW91) =  -199.318803829     A.U. after   10 cycles

 Excitation energies and oscillator strengths:

 Excited state symmetry could not be determined.
 Excited State   1:      Singlet-?Sym    4.7251 eV  262.40 nm  f=0.0001  <S**2>=0.000
       8 -> 10         0.70420
 This state for optimization and/or second-order correction.
 Total Energy, E(TD-HF/TD-DFT) =  -199.145161108
 Copying the excited state density for this state as the 1-particle RhoCI density.

 Excited state symmetry could not be determined.
 Excited State   2:      Singlet-?Sym    4.7251 eV  262.40 nm  f=0.0001  <S**2>=0.000
       9 -> 10         0.70420

 Excited state symmetry could not be determined.
 Excited State   3:      Singlet-?Sym    8.3766 eV  148.01 nm  f=0.0000  <S**2>=0.000
       7 -> 10         0.70507

 Excited state symmetry could not be determined.
 Excited State   4:      Singlet-?Sym    8.3766 eV  148.01 nm  f=0.0000  <S**2>=0.000
       6 -> 10         0.70507

 Excited state symmetry could not be determined.
 Excited State   5:      Singlet-?Sym   11.5798 eV  107.07 nm  f=0.0000  <S**2>=0.000
       8 -> 11         0.11705
       9 -> 11         0.69703

 Excited state symmetry could not be determined.
 Excited State   6:      Singlet-?Sym   11.5798 eV  107.07 nm  f=0.0000  <S**2>=0.000
       8 -> 11         0.69703
       9 -> 11        -0.11705

 Excited state symmetry could not be determined.
 Excited State   7:      Singlet-?Sym   11.6822 eV  106.13 nm  f=0.0227  <S**2>=0.000
       8 -> 12         0.64673
       9 -> 12        -0.28531

 Excited state symmetry could not be determined.
 Excited State   8:      Singlet-?Sym   11.6822 eV  106.13 nm  f=0.0227  <S**2>=0.000
       8 -> 12         0.28531
       9 -> 12         0.64673

 Excited state symmetry could not be determined.
 Excited State   9:      Singlet-?Sym   12.4786 eV   99.36 nm  f=0.2026  <S**2>=0.000
       5 -> 10        -0.31545
       8 -> 14         0.44727
       9 -> 13         0.44727

 Excited state symmetry could not be determined.
 Excited State  10:      Singlet-?Sym   12.5977 eV   98.42 nm  f=0.0000  <S**2>=0.000
       8 -> 13         0.50000
       9 -> 14        -0.50000

 Excited state symmetry could not be determined.
 Excited State  11:      Singlet-?Sym   12.5987 eV   98.41 nm  f=0.0000  <S**2>=0.000
       8 -> 13         0.49999
       9 -> 14         0.49999

 Excited state symmetry could not be determined.
 Excited State  12:      Singlet-?Sym   12.5987 eV   98.41 nm  f=0.0000  <S**2>=0.000
       8 -> 14        -0.49999
       9 -> 13         0.49999

 Excited state symmetry could not be determined.
 Excited State  13:      Singlet-?Sym   14.3371 eV   86.48 nm  f=0.0000  <S**2>=0.000
       8 -> 16        -0.49997
       9 -> 15         0.49997

 Excited state symmetry could not be determined.
 Excited State  14:      Singlet-?Sym   14.3371 eV   86.48 nm  f=0.0000  <S**2>=0.000
       8 -> 15         0.49997
       9 -> 16         0.49997

 Excited state symmetry could not be determined.
 Excited State  15:      Singlet-?Sym   14.4231 eV   85.96 nm  f=0.0000  <S**2>=0.000
       8 -> 15         0.50000
       9 -> 16        -0.50000

 Excited state symmetry could not be determined.
 Excited State  16:      Singlet-?Sym   14.4444 eV   85.84 nm  f=0.0000  <S**2>=0.000
       8 -> 17        -0.12679
       9 -> 17         0.69486

 Excited state symmetry could not be determined.
 Excited State  17:      Singlet-?Sym   14.4444 eV   85.84 nm  f=0.0000  <S**2>=0.000
       8 -> 17         0.69486
       9 -> 17         0.12679

 Excited state symmetry could not be determined.
 Excited State  18:      Singlet-?Sym   14.6301 eV   84.75 nm  f=0.0000  <S**2>=0.000
       6 -> 13        -0.12062
       7 -> 14        -0.12062
       8 -> 16         0.48362
       9 -> 15         0.48362

 Excited State  19:      Singlet-SGU   15.3089 eV   80.99 nm  f=0.4357  <S**2>=0.000
       5 -> 10         0.56295
       5 -> 12         0.25060
       6 -> 15        -0.12523
       7 -> 16        -0.12523
       8 -> 14         0.20553
       9 -> 13         0.20553
       5 <- 10        -0.10930

 Excited state symmetry could not be determined.
 Excited State  20:      Singlet-?Sym   15.3952 eV   80.53 nm  f=0.0912  <S**2>=0.000
       6 -> 11         0.36697
       7 -> 11         0.60327

 Excited state symmetry could not be determined.
 Excited State  21:      Singlet-?Sym   15.3952 eV   80.53 nm  f=0.0912  <S**2>=0.000
       6 -> 11         0.60327
       7 -> 11        -0.36697

 Excited state symmetry could not be determined.
 Excited State  22:      Singlet-?Sym   15.4820 eV   80.08 nm  f=0.0000  <S**2>=0.000
       6 -> 12        -0.49032
       7 -> 12         0.50861

 Excited state symmetry could not be determined.
 Excited State  23:      Singlet-?Sym   15.4820 eV   80.08 nm  f=0.0000  <S**2>=0.000
       6 -> 12         0.50861
       7 -> 12         0.49032

 Excited state symmetry could not be determined.
 Excited State  24:      Singlet-?Sym   16.3009 eV   76.06 nm  f=0.0000  <S**2>=0.000
       6 -> 13        -0.49997
       7 -> 14         0.49997

 Excited state symmetry could not be determined.
 Excited State  25:      Singlet-?Sym   16.3009 eV   76.06 nm  f=0.0000  <S**2>=0.000
       6 -> 14         0.49997
       7 -> 13         0.49997

 Excited state symmetry could not be determined.
 Excited State  26:      Singlet-?Sym   16.3181 eV   75.98 nm  f=0.0000  <S**2>=0.000
       6 -> 14        -0.50000
       7 -> 13         0.50000

 Excited state symmetry could not be determined.
 Excited State  27:      Singlet-?Sym   17.0411 eV   72.76 nm  f=0.0000  <S**2>=0.000
       5 -> 11        -0.29033
       6 -> 13         0.44143
       7 -> 14         0.44143

 Excited State  28:      Singlet-SGU   18.0718 eV   68.61 nm  f=0.0091  <S**2>=0.000
       5 -> 12         0.46161
       6 -> 15         0.37772
       7 -> 16         0.37772

 Excited state symmetry could not be determined.
 Excited State  29:      Singlet-?Sym   18.1028 eV   68.49 nm  f=0.0000  <S**2>=0.000
       6 -> 16         0.49998
       7 -> 15         0.49998

 Excited state symmetry could not be determined.
 Excited State  30:      Singlet-?Sym   18.1028 eV   68.49 nm  f=0.0000  <S**2>=0.000
       6 -> 15        -0.49998
       7 -> 16         0.49998

 Excited state symmetry could not be determined.
 Excited State  31:      Singlet-?Sym   18.1435 eV   68.34 nm  f=0.0000  <S**2>=0.000
       6 -> 16        -0.50000
       7 -> 15         0.50000

 Excited State  32:      Singlet-SGG   18.2745 eV   67.85 nm  f=0.0000  <S**2>=0.000
       5 -> 11         0.64130
       6 -> 13         0.19051
       7 -> 14         0.19051

 Excited state symmetry could not be determined.
 Excited State  33:      Singlet-?Sym   18.2937 eV   67.77 nm  f=0.0533  <S**2>=0.000
       7 -> 17         0.69955

 Excited state symmetry could not be determined.
 Excited State  34:      Singlet-?Sym   18.2937 eV   67.77 nm  f=0.0533  <S**2>=0.000
       6 -> 17         0.69955

 Excited state symmetry could not be determined.
 Excited State  35:      Singlet-?Sym   18.8693 eV   65.71 nm  f=0.0177  <S**2>=0.000
       5 -> 14         0.70128

 Excited state symmetry could not be determined.
 Excited State  36:      Singlet-?Sym   18.8693 eV   65.71 nm  f=0.0177  <S**2>=0.000
       5 -> 13         0.70128

 Excited State  37:      Singlet-SGU   19.1211 eV   64.84 nm  f=0.0009  <S**2>=0.000
       5 -> 10        -0.26047
       5 -> 12         0.46578
       6 -> 15        -0.29846
       7 -> 16        -0.29846

 Excited state symmetry could not be determined.
 Excited State  38:      Singlet-?Sym   20.0268 eV   61.91 nm  f=0.0793  <S**2>=0.000
       8 -> 18         0.69674
       9 -> 18        -0.10603

 Excited state symmetry could not be determined.
 Excited State  39:      Singlet-?Sym   20.0268 eV   61.91 nm  f=0.0793  <S**2>=0.000
       8 -> 18         0.10603
       9 -> 18         0.69674

 Excited state symmetry could not be determined.
 Excited State  40:      Singlet-?Sym   20.6503 eV   60.04 nm  f=0.0000  <S**2>=0.000
       5 -> 15         0.43736
       5 -> 16         0.55544

 Excited state symmetry could not be determined.
 Excited State  41:      Singlet-?Sym   20.6503 eV   60.04 nm  f=0.0000  <S**2>=0.000
       5 -> 15         0.55544
       5 -> 16        -0.43736

 Excited State  42:      Singlet-SGG   20.7613 eV   59.72 nm  f=0.0000  <S**2>=0.000
       5 -> 17         0.69981

 Excited state symmetry could not be determined.
 Excited State  43:      Singlet-?Sym   21.6659 eV   57.23 nm  f=0.0000  <S**2>=0.000
       8 -> 19         0.47292
       8 -> 20        -0.16220
       9 -> 19        -0.16222
       9 -> 20        -0.47289

 Excited state symmetry could not be determined.
 Excited State  44:      Singlet-?Sym   21.6659 eV   57.23 nm  f=0.0000  <S**2>=0.000
       8 -> 19         0.16222
       8 -> 20         0.47289
       9 -> 19         0.47292
       9 -> 20        -0.16220

 Excited state symmetry could not be determined.
 Excited State  45:      Singlet-?Sym   22.0398 eV   56.25 nm  f=0.0000  <S**2>=0.000
       8 -> 19        -0.34232
       8 -> 20         0.36378
       9 -> 19        -0.36375
       9 -> 20        -0.34234

 Excited state symmetry could not be determined.
 Excited State  46:      Singlet-?Sym   22.0398 eV   56.25 nm  f=0.0000  <S**2>=0.000
       8 -> 19         0.36375
       8 -> 20         0.34234
       9 -> 19        -0.34232
       9 -> 20         0.36378

 Excited state symmetry could not be determined.
 Excited State  47:      Singlet-?Sym   23.7350 eV   52.24 nm  f=0.0000  <S**2>=0.000
       6 -> 18        -0.30405
       7 -> 18         0.63818

 Excited state symmetry could not be determined.
 Excited State  48:      Singlet-?Sym   23.7350 eV   52.24 nm  f=0.0000  <S**2>=0.000
       6 -> 18         0.63818
       7 -> 18         0.30405

 Excited State  49:      Singlet-SGG   23.9151 eV   51.84 nm  f=0.0000  <S**2>=0.000
       4 -> 10         0.67871

 Excited state symmetry could not be determined.
 Excited State  50:      Singlet-?Sym   25.3365 eV   48.94 nm  f=0.0000  <S**2>=0.000
       6 -> 19         0.16131
       6 -> 20         0.47292
       7 -> 19        -0.47292
       7 -> 20         0.16131

 Excited state symmetry could not be determined.
 Excited State  51:      Singlet-?Sym   25.3365 eV   48.94 nm  f=0.0000  <S**2>=0.000
       6 -> 19         0.47292
       6 -> 20        -0.16131
       7 -> 19         0.16131
       7 -> 20         0.47292

 Excited state symmetry could not be determined.
 Excited State  52:      Singlet-?Sym   25.7734 eV   48.11 nm  f=0.0000  <S**2>=0.000
       8 -> 22         0.49993
       9 -> 21         0.49993

 Excited state symmetry could not be determined.
 Excited State  53:      Singlet-?Sym   25.7735 eV   48.11 nm  f=0.0000  <S**2>=0.000
       8 -> 21         0.49993
       9 -> 22        -0.49993

 Excited state symmetry could not be determined.
 Excited State  54:      Singlet-?Sym   25.8662 eV   47.93 nm  f=0.0000  <S**2>=0.000
       8 -> 22        -0.50000
       9 -> 21         0.50000

 Excited state symmetry could not be determined.
 Excited State  55:      Singlet-?Sym   26.1069 eV   47.49 nm  f=0.2479  <S**2>=0.000
       6 -> 19         0.43202
       6 -> 20        -0.19838
       7 -> 19        -0.19838
       7 -> 20        -0.43202
       8 -> 24         0.13113
       9 -> 25        -0.13112

 Excited state symmetry could not be determined.
 Excited State  56:      Singlet-?Sym   26.1069 eV   47.49 nm  f=0.2479  <S**2>=0.000
       6 -> 19         0.19838
       6 -> 20         0.43202
       7 -> 19         0.43202
       7 -> 20        -0.19838
       8 -> 25        -0.13112
       9 -> 24        -0.13113

 Excited State  57:      Singlet-SGU   26.2342 eV   47.26 nm  f=0.2597  <S**2>=0.000
       5 -> 18         0.63504
       8 -> 21         0.21874
       9 -> 22         0.21874

 Excited state symmetry could not be determined.
 Excited State  58:      Singlet-?Sym   27.4098 eV   45.23 nm  f=0.8483  <S**2>=0.000
       4 -> 11        -0.26166
       5 -> 10        -0.12246
       5 -> 18        -0.27402
       8 -> 21         0.40842
       9 -> 22         0.40842

 Excited state symmetry could not be determined.
 Excited State  59:      Singlet-?Sym   27.5531 eV   45.00 nm  f=0.0120  <S**2>=0.000
       8 -> 23         0.68730
       8 -> 24        -0.10081
       9 -> 25         0.10110

 Excited state symmetry could not be determined.
 Excited State  60:      Singlet-?Sym   27.5531 eV   45.00 nm  f=0.0120  <S**2>=0.000
       8 -> 25         0.10110
       9 -> 23         0.68730
       9 -> 24         0.10081

 Excited state symmetry could not be determined.
 Excited State  61:      Singlet-?Sym   27.5963 eV   44.93 nm  f=0.0000  <S**2>=0.000
       8 -> 24         0.43921
       8 -> 25         0.23830
       9 -> 24        -0.23837
       9 -> 25         0.43912

 Excited state symmetry could not be determined.
 Excited State  62:      Singlet-?Sym   27.5963 eV   44.93 nm  f=0.0000  <S**2>=0.000
       8 -> 24         0.23837
       8 -> 25        -0.43912
       9 -> 24         0.43921
       9 -> 25         0.23830

 Excited state symmetry could not be determined.
 Excited State  63:      Singlet-?Sym   28.0014 eV   44.28 nm  f=0.0000  <S**2>=0.000
       5 -> 19         0.70573

 Excited state symmetry could not be determined.
 Excited State  64:      Singlet-?Sym   28.0014 eV   44.28 nm  f=0.0000  <S**2>=0.000
       5 -> 20         0.70573

 Excited state symmetry could not be determined.
 Excited State  65:      Singlet-?Sym   28.4147 eV   43.63 nm  f=0.6676  <S**2>=0.000
       5 -> 21        -0.10597
       6 -> 19         0.13245
       7 -> 20        -0.13246
       8 -> 23        -0.11914
       8 -> 24        -0.43061
       8 -> 25         0.16867
       9 -> 24         0.16866
       9 -> 25         0.43068

 Excited state symmetry could not be determined.
 Excited State  66:      Singlet-?Sym   28.4147 eV   43.63 nm  f=0.6676  <S**2>=0.000
       5 -> 22        -0.10597
       6 -> 20         0.13246
       7 -> 19         0.13245
       8 -> 24         0.16866
       8 -> 25         0.43068
       9 -> 23        -0.11914
       9 -> 24         0.43061
       9 -> 25        -0.16867

 Excited State  67:      Singlet-SGG   29.2964 eV   42.32 nm  f=0.0000  <S**2>=0.000
       4 -> 12         0.66521
       6 -> 22         0.16413
       7 -> 21         0.16413

 Excited state symmetry could not be determined.
 Excited State  68:      Singlet-?Sym   29.4283 eV   42.13 nm  f=0.0000  <S**2>=0.000
       6 -> 22        -0.47240
       7 -> 21         0.47240
       8 -> 28        -0.16095
       9 -> 27         0.16095

 Excited state symmetry could not be determined.
 Excited State  69:      Singlet-?Sym   29.4283 eV   42.13 nm  f=0.0000  <S**2>=0.000
       6 -> 21         0.47238
       7 -> 22         0.47238
       8 -> 27        -0.16100
       9 -> 28        -0.16100

 Excited State  70:      Singlet-SGU   29.5729 eV   41.92 nm  f=0.1230  <S**2>=0.000
       3 -> 10         0.10046
       4 -> 11         0.64699
       5 -> 18        -0.11452
       8 -> 21         0.14148
       9 -> 22         0.14148

 Excited state symmetry could not be determined.
 Excited State  71:      Singlet-?Sym   29.5867 eV   41.91 nm  f=0.0000  <S**2>=0.000
       6 -> 21         0.50000
       7 -> 22        -0.50000

 Excited state symmetry could not be determined.
 Excited State  72:      Singlet-?Sym   29.6805 eV   41.77 nm  f=0.0000  <S**2>=0.000
       6 -> 22         0.16161
       7 -> 21        -0.16161
       8 -> 28        -0.47308
       9 -> 27         0.47308

 Excited state symmetry could not be determined.
 Excited State  73:      Singlet-?Sym   29.6805 eV   41.77 nm  f=0.0000  <S**2>=0.000
       6 -> 21         0.16167
       7 -> 22         0.16167
       8 -> 27         0.47307
       9 -> 28         0.47307

 Excited state symmetry could not be determined.
 Excited State  74:      Singlet-?Sym   29.6812 eV   41.77 nm  f=0.0000  <S**2>=0.000
       4 -> 13        -0.12928
       8 -> 26         0.30869
       9 -> 26         0.61835

 Excited state symmetry could not be determined.
 Excited State  75:      Singlet-?Sym   29.6812 eV   41.77 nm  f=0.0000  <S**2>=0.000
       4 -> 14        -0.12928
       8 -> 26         0.61835
       9 -> 26        -0.30869

 Excited state symmetry could not be determined.
 Excited State  76:      Singlet-?Sym   29.7688 eV   41.65 nm  f=0.0000  <S**2>=0.000
       8 -> 27        -0.50000
       9 -> 28         0.50000

 Excited state symmetry could not be determined.
 Excited State  77:      Singlet-?Sym   30.1684 eV   41.10 nm  f=0.0000  <S**2>=0.000
       4 -> 13         0.66196
       4 -> 14        -0.18684
       9 -> 26         0.13483

 Excited state symmetry could not be determined.
 Excited State  78:      Singlet-?Sym   30.1684 eV   41.10 nm  f=0.0000  <S**2>=0.000
       4 -> 13         0.18684
       4 -> 14         0.66196
       8 -> 26         0.13483

 Excited state symmetry could not be determined.
 Excited State  79:      Singlet-?Sym   30.4317 eV   40.74 nm  f=0.0000  <S**2>=0.000
       4 -> 12        -0.21622
       6 -> 22         0.39023
       7 -> 21         0.39023
       8 -> 28         0.25928
       9 -> 27         0.25928

 Excited state symmetry could not be determined.
 Excited State  80:      Singlet-?Sym   30.9992 eV   40.00 nm  f=0.0000  <S**2>=0.000
       4 -> 10        -0.14637
       5 -> 26        -0.12257
       6 -> 22        -0.24854
       7 -> 21        -0.24854
       8 -> 28         0.40489
       9 -> 27         0.40489

 Excited State  81:      Singlet-SGU   31.2379 eV   39.69 nm  f=0.0653  <S**2>=0.000
       3 -> 10         0.61602
       4 -> 17        -0.20749
       5 -> 23        -0.11205
       6 -> 27         0.16066
       7 -> 28         0.16066

 Excited state symmetry could not be determined.
 Excited State  82:      Singlet-?Sym   31.2757 eV   39.64 nm  f=0.0000  <S**2>=0.000
       6 -> 23        -0.17491
       7 -> 23         0.68119

 Excited state symmetry could not be determined.
 Excited State  83:      Singlet-?Sym   31.2757 eV   39.64 nm  f=0.0000  <S**2>=0.000
       6 -> 23         0.68119
       7 -> 23         0.17491

 Excited state symmetry could not be determined.
 Excited State  84:      Singlet-?Sym   31.2947 eV   39.62 nm  f=0.0000  <S**2>=0.000
       6 -> 25         0.49680
       7 -> 24         0.49676

 Excited state symmetry could not be determined.
 Excited State  85:      Singlet-?Sym   31.2947 eV   39.62 nm  f=0.0000  <S**2>=0.000
       6 -> 24        -0.49676
       7 -> 25         0.49680

 Excited state symmetry could not be determined.
 Excited State  86:      Singlet-?Sym   31.7643 eV   39.03 nm  f=0.0000  <S**2>=0.000
       6 -> 25         0.48974
       7 -> 24        -0.48971

 Excited state symmetry could not be determined.
 Excited State  87:      Singlet-?Sym   31.7643 eV   39.03 nm  f=0.0000  <S**2>=0.000
       6 -> 24         0.48971
       7 -> 25         0.48974

 Excited state symmetry could not be determined.
 Excited State  88:      Singlet-?Sym   31.8994 eV   38.87 nm  f=0.0355  <S**2>=0.000
       4 -> 15        -0.20236
       4 -> 16         0.66387
       5 -> 21        -0.12841

 Excited state symmetry could not be determined.
 Excited State  89:      Singlet-?Sym   31.8994 eV   38.87 nm  f=0.0355  <S**2>=0.000
       4 -> 15         0.66387
       4 -> 16         0.20236
       5 -> 22        -0.12841

 Excited State  90:      Singlet-SGU   32.0154 eV   38.73 nm  f=0.0646  <S**2>=0.000
       3 -> 10         0.16688
       4 -> 17         0.67401

 Excited state symmetry could not be determined.
 Excited State  91:      Singlet-?Sym   32.5377 eV   38.10 nm  f=0.2727  <S**2>=0.000
       4 -> 16         0.11597
       5 -> 21         0.61655
       5 -> 22        -0.21093
       7 -> 26        -0.20712

 Excited state symmetry could not be determined.
 Excited State  92:      Singlet-?Sym   32.5377 eV   38.10 nm  f=0.2727  <S**2>=0.000
       4 -> 15         0.11597
       5 -> 21         0.21093
       5 -> 22         0.61655
       6 -> 26        -0.20712

 Excited state symmetry could not be determined.
 Excited State  93:      Singlet-?Sym   33.4055 eV   37.11 nm  f=0.0000  <S**2>=0.000
       6 -> 28         0.49510
       7 -> 27         0.49510

 Excited state symmetry could not be determined.
 Excited State  94:      Singlet-?Sym   33.4056 eV   37.11 nm  f=0.0000  <S**2>=0.000
       6 -> 27        -0.49510
       7 -> 28         0.49510

 Excited state symmetry could not be determined.
 Excited State  95:      Singlet-?Sym   33.4892 eV   37.02 nm  f=0.0000  <S**2>=0.000
       6 -> 28        -0.50000
       7 -> 27         0.50000

 Excited state symmetry could not be determined.
 Excited State  96:      Singlet-?Sym   33.5781 eV   36.92 nm  f=0.1527  <S**2>=0.000
       5 -> 21         0.20100
       6 -> 26        -0.10887
       7 -> 26         0.66221

 Excited state symmetry could not be determined.
 Excited State  97:      Singlet-?Sym   33.5781 eV   36.92 nm  f=0.1527  <S**2>=0.000
       5 -> 22         0.20100
       6 -> 26         0.66221
       7 -> 26         0.10887

 Excited State  98:      Singlet-SGU   33.6146 eV   36.88 nm  f=0.0032  <S**2>=0.000
       5 -> 23         0.55417
       6 -> 27         0.30665
       7 -> 28         0.30665

 Excited state symmetry could not be determined.
 Excited State  99:      Singlet-?Sym   33.9613 eV   36.51 nm  f=0.0000  <S**2>=0.000
       5 -> 24         0.70025

 Excited state symmetry could not be determined.
 Excited State 100:      Singlet-?Sym   33.9613 eV   36.51 nm  f=0.0000  <S**2>=0.000
       5 -> 25         0.70025

 Excited State 101:      Singlet-SGU   34.9027 eV   35.52 nm  f=0.1043  <S**2>=0.000
       3 -> 10         0.22558
       5 -> 23         0.41146
       6 -> 27        -0.33763
       7 -> 28        -0.33763
       8 -> 29        -0.12914
       9 -> 30        -0.12914

 Excited state symmetry could not be determined.
 Excited State 102:      Singlet-?Sym   36.0136 eV   34.43 nm  f=0.0000  <S**2>=0.000
       5 -> 27         0.70471

 Excited state symmetry could not be determined.
 Excited State 103:      Singlet-?Sym   36.0136 eV   34.43 nm  f=0.0000  <S**2>=0.000
       5 -> 28         0.70471

 Excited State 104:      Singlet-SGG   36.2451 eV   34.21 nm  f=0.0000  <S**2>=0.000
       3 -> 11         0.53402
       5 -> 26        -0.45664

 Excited State 105:      Singlet-SGG   36.5572 eV   33.92 nm  f=0.0000  <S**2>=0.000
       3 -> 11         0.44026
       4 -> 18        -0.16922
       5 -> 26         0.50935

 Excited State 106:      Singlet-SGU   36.6194 eV   33.86 nm  f=0.0011  <S**2>=0.000
       3 -> 12         0.70065

 Excited state symmetry could not be determined.
 Excited State 107:      Singlet-?Sym   37.4680 eV   33.09 nm  f=0.0003  <S**2>=0.000
       3 -> 13         0.70336

 The electronic state is 1-SGG.
 Alpha  occ. eigenvalues --  -24.39894 -24.39871  -1.25946  -0.99159  -0.58133
 Alpha  occ. eigenvalues --   -0.48828  -0.48828  -0.35156  -0.35156
 Alpha virt. eigenvalues --   -0.20168   0.07256   0.08099   0.11140   0.11140
 Alpha virt. eigenvalues --    0.17848   0.17848   0.18228   0.38300   0.44908
 Alpha virt. eigenvalues --    0.44908   0.59901   0.59901   0.66206   0.66746

 Mulliken charges:
               1
     1  F   -0.000000
     2  F   -0.000000
 Sum of Mulliken charges =  -0.00000

 Dipole moment (field-independent basis, Debye):
    X=             -0.0000    Y=              0.0000    Z=              0.0000  Tot=              0.0000
 Quadrupole moment (field-independent basis, Debye-Ang):
   XX=             -9.8889   YY=             -9.8889   ZZ=             -9.0384
   XY=              0.0000   XZ=              0.0000   YZ=              0.0000

 Normal termination of Gaussian 16 at Mon Mar 21 04:16:11 2022.
