 Gaussian 16, Revision C.01,
 Gaussian 16:  EM64L-G16RevC.01  3-Jul-2019

 ----------------------------------------------------------------------
 #P TD(Nstates=10000) pw91pw91/Gen SCF(maxcycles=100) Int(Grid=ultrafin
 e)
 ----------------------------------------------------------------------

 ---------------------
 xGDB7_00001_tier4.com
 ---------------------
 Symbolic Z-matrix:
 Charge =  0 Multiplicity = 1

                         Standard orientation:
 ---------------------------------------------------------------------
 Center     Atomic      Atomic             Coordinates (Angstroms)
 Number     Number       Type             X           Y           Z
 ---------------------------------------------------------------------
      1          6           0       -0.000001    0.000006    0.000000
      2          1           0       -0.991926    0.448073    0.033817
      3          1           0        0.066172   -0.671147   -0.854975
      4          1           0        0.176250   -0.561167    0.916416
      5          1           0        0.749514    0.784204   -0.095260
 ---------------------------------------------------------------------

 SCF Done:  E(RPW91-PW91) =  -40.4587567695     A.U. after    9 cycles

 Excitation energies and oscillator strengths:

 Excited State   1:      Singlet-A      9.8431 eV  125.96 nm  f=0.1039  <S**2>=0.000
       5 ->  6         0.70545
 This state for optimization and/or second-order correction.
 Total Energy, E(TD-HF/TD-DFT) =  -40.0970296754
 Copying the excited state density for this state as the 1-particle RhoCI density.

 Excited State   2:      Singlet-A      9.8432 eV  125.96 nm  f=0.1039  <S**2>=0.000
       4 ->  6         0.70541

 Excited State   3:      Singlet-A      9.8433 eV  125.96 nm  f=0.1039  <S**2>=0.000
       3 ->  6         0.70545

 Excited State   4:      Singlet-A     12.1513 eV  102.03 nm  f=0.0000  <S**2>=0.000
       3 ->  9        -0.10565
       4 ->  7         0.14179
       4 ->  8        -0.24481
       4 ->  9         0.39171
       5 ->  7        -0.29939
       5 ->  8         0.28263
       5 ->  9         0.28380

 Excited State   5:      Singlet-A     12.1513 eV  102.03 nm  f=0.0000  <S**2>=0.000
       3 ->  7         0.15528
       3 ->  8        -0.27706
       3 ->  9         0.36406
       4 ->  9         0.10266
       5 ->  7         0.37297
       5 ->  8         0.32277

 Excited State   6:      Singlet-A     12.1513 eV  102.03 nm  f=0.0000  <S**2>=0.000
       3 ->  7         0.18086
       3 ->  8        -0.33323
       3 ->  9        -0.32541
       4 ->  7         0.43209
       4 ->  8         0.24758

 Excited State   7:      Singlet-A     12.2643 eV  101.09 nm  f=0.0000  <S**2>=0.000
       3 ->  7        -0.11190
       3 ->  8         0.19222
       3 ->  9        -0.39983
       4 ->  7        -0.13782
       4 ->  8         0.14002
       5 ->  7         0.43032
       5 ->  8         0.16138
       5 ->  9         0.18389

 Excited State   8:      Singlet-A     12.2643 eV  101.09 nm  f=0.0000  <S**2>=0.000
       3 ->  7        -0.21342
       3 ->  8        -0.24294
       3 ->  9         0.13479
       4 ->  7        -0.23708
       4 ->  8         0.41071
       4 ->  9         0.25220
       5 ->  7        -0.11361
       5 ->  8        -0.14655
       5 ->  9         0.22799

 Excited State   9:      Singlet-A     12.4294 eV   99.75 nm  f=0.1274  <S**2>=0.000
       3 ->  7        -0.13063
       4 ->  8         0.15951
       4 ->  9        -0.40410
       5 ->  7        -0.22095
       5 ->  8         0.43369
       5 -> 11         0.10003

 Excited State  10:      Singlet-A     12.4294 eV   99.75 nm  f=0.1274  <S**2>=0.000
       3 ->  7         0.41949
       3 ->  8         0.16465
       3 -> 10        -0.11549
       4 ->  9        -0.16868
       5 ->  8        -0.12799
       5 ->  9         0.44156

 Excited State  11:      Singlet-A     12.4294 eV   99.75 nm  f=0.1274  <S**2>=0.000
       3 ->  7        -0.20143
       3 ->  8         0.35774
       3 ->  9         0.24301
       3 -> 12         0.11279
       4 ->  7         0.40304
       4 ->  8         0.25300
       4 -> 10        -0.11164

 Excited State  12:      Singlet-A     13.1120 eV   94.56 nm  f=0.0000  <S**2>=0.000
       4 -> 10        -0.24921
       4 -> 11        -0.41770
       4 -> 12         0.10428
       5 -> 10        -0.17206
       5 -> 11         0.20528
       5 -> 12         0.42166

 Excited State  13:      Singlet-A     13.1121 eV   94.56 nm  f=0.0000  <S**2>=0.000
       3 -> 10         0.23138
       3 -> 11         0.42495
       3 -> 12        -0.11340
       5 -> 10         0.40828
       5 -> 11        -0.15730
       5 -> 12         0.24295

 Excited State  14:      Singlet-A     13.1121 eV   94.56 nm  f=0.0000  <S**2>=0.000
       3 -> 10        -0.13160
       3 -> 11         0.18768
       3 -> 12         0.44374
       4 -> 10         0.41244
       4 -> 11        -0.19480
       4 -> 12         0.20472

 Excited State  15:      Singlet-A     13.1169 eV   94.52 nm  f=0.0000  <S**2>=0.000
       3 ->  7        -0.23427
       3 ->  8        -0.12889
       3 -> 10        -0.25606
       3 -> 11         0.10683
       3 -> 12        -0.12108
       4 ->  7         0.10357
       4 ->  8        -0.19044
       4 ->  9        -0.15651
       4 -> 11         0.11434
       4 -> 12         0.26858
       5 ->  8        -0.13643
       5 ->  9         0.21678
       5 -> 10         0.14088
       5 -> 11         0.25909

 Excited State  16:      Singlet-A     13.1883 eV   94.01 nm  f=0.0000  <S**2>=0.000
       3 -> 10        -0.22543
       3 -> 11        -0.37092
       3 -> 12         0.15172
       4 -> 12        -0.17443
       5 -> 10         0.48672

 Excited State  17:      Singlet-A     13.1883 eV   94.01 nm  f=0.0000  <S**2>=0.000
       3 -> 10         0.18372
       3 -> 11        -0.25471
       3 -> 12         0.14911
       4 -> 11         0.26092
       4 -> 12         0.46269
       5 -> 11        -0.22698
       5 -> 12         0.18392

 Excited State  18:      Singlet-A     13.5928 eV   91.21 nm  f=0.0125  <S**2>=0.000
       3 -> 13         0.14163
       3 -> 14         0.37690
       4 -> 10         0.17081
       4 -> 11         0.27252
       4 -> 12        -0.14653
       4 -> 13        -0.10045
       5 -> 11         0.24992
       5 -> 12         0.27458
       5 -> 13         0.20814

 Excited State  19:      Singlet-A     13.5928 eV   91.21 nm  f=0.0125  <S**2>=0.000
       3 -> 10        -0.34103
       3 -> 11         0.10802
       4 -> 11         0.11738
       4 -> 13         0.42659
       5 -> 10        -0.12206
       5 -> 11        -0.26448
       5 -> 12         0.18095
       5 -> 14        -0.12945

 Excited State  20:      Singlet-A     13.5929 eV   91.21 nm  f=0.0125  <S**2>=0.000
       3 -> 11        -0.13725
       3 -> 12        -0.33967
       3 -> 13         0.22277
       4 -> 10         0.31605
       4 -> 11        -0.10260
       4 -> 12         0.10235
       4 -> 13         0.11728
       5 -> 14         0.38208

 Excited State  21:      Singlet-A     13.8096 eV   89.78 nm  f=0.0000  <S**2>=0.000
       3 -> 13        -0.16305
       3 -> 14        -0.30182
       5 -> 13         0.61366

 Excited State  22:      Singlet-A     13.8096 eV   89.78 nm  f=0.0000  <S**2>=0.000
       3 -> 13         0.48150
       3 -> 14        -0.22034
       4 -> 14        -0.32428
       5 -> 14        -0.33012

 Excited State  23:      Singlet-A     13.8097 eV   89.78 nm  f=0.0000  <S**2>=0.000
       3 -> 13         0.28073
       3 -> 14        -0.15248
       4 -> 13         0.16200
       4 -> 14         0.59897
       5 -> 14        -0.11329

 Excited State  24:      Singlet-A     14.2189 eV   87.20 nm  f=0.0000  <S**2>=0.000
       2 ->  6        -0.16474
       3 ->  7         0.24502
       3 ->  8         0.13480
       3 -> 10        -0.22804
       3 -> 12        -0.10794
       4 ->  7        -0.10833
       4 ->  8         0.19918
       4 ->  9         0.16370
       4 -> 11         0.10194
       4 -> 12         0.23946
       5 ->  8         0.14268
       5 ->  9        -0.22671
       5 -> 10         0.12543
       5 -> 11         0.23077

 Excited State  25:      Singlet-A     14.5038 eV   85.48 nm  f=0.6540  <S**2>=0.000
       3 -> 11         0.12845
       3 -> 12         0.27067
       3 -> 13         0.25078
       4 ->  7        -0.10160
       4 -> 10        -0.26407
       4 -> 11         0.10070
       5 -> 14         0.43747

 Excited State  26:      Singlet-A     14.5038 eV   85.48 nm  f=0.6539  <S**2>=0.000
       3 ->  7         0.10285
       3 -> 10         0.28010
       4 -> 13         0.49342
       4 -> 14        -0.12710
       5 -> 11         0.27864

 Excited State  27:      Singlet-A     14.5038 eV   85.48 nm  f=0.6539  <S**2>=0.000
       3 -> 13         0.14468
       3 -> 14         0.41854
       4 ->  9        -0.10929
       4 -> 10        -0.13482
       4 -> 11        -0.23742
       4 -> 12         0.12850
       5 -> 11        -0.12505
       5 -> 12        -0.26330
       5 -> 13         0.24380

 Excited State  28:      Singlet-A     16.8918 eV   73.40 nm  f=0.1162  <S**2>=0.000
       5 -> 15         0.69204

 Excited State  29:      Singlet-A     16.8919 eV   73.40 nm  f=0.1162  <S**2>=0.000
       4 -> 15         0.68753

 Excited State  30:      Singlet-A     16.8920 eV   73.40 nm  f=0.1162  <S**2>=0.000
       3 -> 15         0.68797

 Excited State  31:      Singlet-A     17.4986 eV   70.85 nm  f=0.0000  <S**2>=0.000
       2 ->  6         0.65952
       5 -> 20         0.11521

 Excited State  32:      Singlet-A     18.3125 eV   67.70 nm  f=0.0185  <S**2>=0.000
       3 -> 18        -0.11381
       4 -> 19        -0.11350
       5 -> 16         0.68221

 Excited State  33:      Singlet-A     18.3126 eV   67.70 nm  f=0.0185  <S**2>=0.000
       3 -> 17        -0.11391
       4 -> 16         0.68212
       5 -> 19         0.11389

 Excited State  34:      Singlet-A     18.3126 eV   67.70 nm  f=0.0185  <S**2>=0.000
       3 -> 16         0.68213
       4 -> 17         0.11408
       5 -> 18         0.11435

 Excited State  35:      Singlet-A     18.5014 eV   67.01 nm  f=0.0000  <S**2>=0.000
       4 -> 17        -0.48298
       5 -> 18         0.48623

 Excited State  36:      Singlet-A     18.5014 eV   67.01 nm  f=0.0000  <S**2>=0.000
       3 -> 18         0.14240
       3 -> 19        -0.46828
       4 -> 17        -0.11891
       5 -> 17         0.48500

 Excited State  37:      Singlet-A     18.5015 eV   67.01 nm  f=0.0000  <S**2>=0.000
       3 -> 18        -0.47280
       3 -> 19        -0.15937
       4 -> 18        -0.11639
       4 -> 19         0.47533

 Excited State  38:      Singlet-A     18.5296 eV   66.91 nm  f=0.0000  <S**2>=0.000
       3 -> 19         0.40047
       4 -> 18        -0.39886
       5 -> 17         0.39900

 Excited State  39:      Singlet-A     18.5394 eV   66.88 nm  f=0.0000  <S**2>=0.000
       3 -> 17         0.47532
       4 -> 18        -0.11527
       5 -> 18        -0.10526
       5 -> 19         0.48105

 Excited State  40:      Singlet-A     18.5395 eV   66.88 nm  f=0.0000  <S**2>=0.000
       3 -> 17         0.14780
       3 -> 19         0.27530
       4 -> 18         0.54826
       4 -> 19         0.11200
       5 -> 17         0.27055

 Excited State  41:      Singlet-A     18.5667 eV   66.78 nm  f=0.0222  <S**2>=0.000
       3 -> 16        -0.16680
       4 -> 17         0.47280
       5 -> 18         0.47770

 Excited State  42:      Singlet-A     18.5667 eV   66.78 nm  f=0.0222  <S**2>=0.000
       3 -> 17        -0.47309
       4 -> 16        -0.16669
       5 -> 19         0.47456

 Excited State  43:      Singlet-A     18.5668 eV   66.78 nm  f=0.0222  <S**2>=0.000
       3 -> 18         0.47459
       4 -> 19         0.47323
       5 -> 16         0.16760

 Excited State  44:      Singlet-A     18.8836 eV   65.66 nm  f=0.0000  <S**2>=0.000
       3 -> 20        -0.13723
       4 -> 20         0.46559
       4 -> 21         0.10154
       5 -> 20        -0.10512
       5 -> 21         0.39398
       5 -> 22         0.28619

 Excited State  45:      Singlet-A     18.8836 eV   65.66 nm  f=0.0000  <S**2>=0.000
       3 -> 20         0.46873
       4 -> 20         0.14238
       5 -> 21        -0.28393
       5 -> 22         0.40627

 Excited State  46:      Singlet-A     18.8837 eV   65.66 nm  f=0.0000  <S**2>=0.000
       3 -> 21         0.30167
       3 -> 22         0.39124
       4 -> 21         0.38734
       4 -> 22        -0.30670

 Excited State  47:      Singlet-A     18.9418 eV   65.46 nm  f=0.0000  <S**2>=0.000
       3 -> 20         0.43418
       3 -> 21         0.13302
       4 -> 21        -0.14264
       4 -> 22        -0.11399
       5 -> 20        -0.24155
       5 -> 21         0.27532
       5 -> 22        -0.33405

 Excited State  48:      Singlet-A     18.9419 eV   65.46 nm  f=0.0000  <S**2>=0.000
       3 -> 20         0.12310
       3 -> 21         0.26707
       3 -> 22        -0.18974
       4 -> 20        -0.16710
       4 -> 21         0.30970
       4 -> 22         0.40757
       5 -> 20         0.18390
       5 -> 21         0.22611

 Excited State  49:      Singlet-A     19.5437 eV   63.44 nm  f=0.2382  <S**2>=0.000
       2 ->  8         0.20688
       2 ->  9        -0.19818
       4 -> 20         0.36617
       4 -> 21         0.14093
       5 -> 20         0.26189
       5 -> 21        -0.17946
       5 -> 22        -0.30467

 Excited State  50:      Singlet-A     19.5437 eV   63.44 nm  f=0.2382  <S**2>=0.000
       2 ->  7        -0.13676
       2 ->  8         0.15729
       2 ->  9         0.20549
       3 -> 20         0.14829
       3 -> 21        -0.29387
       3 -> 22         0.24976
       4 -> 20        -0.14668
       4 -> 26         0.10243
       5 -> 20         0.32328
       5 -> 21         0.24613

 Excited State  51:      Singlet-A     19.5438 eV   63.44 nm  f=0.2382  <S**2>=0.000
       2 ->  7         0.25180
       2 ->  8         0.13465
       3 -> 20        -0.11183
       3 -> 21         0.24510
       3 -> 22         0.33244
       4 -> 21        -0.31242
       4 -> 22         0.28631

 Excited State  52:      Singlet-A     19.6474 eV   63.10 nm  f=0.0000  <S**2>=0.000
       3 -> 21         0.24556
       3 -> 22        -0.19672
       3 -> 25        -0.23468
       4 -> 21        -0.18904
       4 -> 22        -0.24930
       4 -> 24        -0.23110
       5 -> 20         0.30904
       5 -> 23        -0.22816

 Excited State  53:      Singlet-A     20.0555 eV   61.82 nm  f=0.0015  <S**2>=0.000
       2 ->  7        -0.34601
       2 ->  8         0.50939
       3 -> 21         0.12361
       4 -> 26        -0.12864
       5 -> 20        -0.17428

 Excited State  54:      Singlet-A     20.0555 eV   61.82 nm  f=0.0015  <S**2>=0.000
       2 ->  7        -0.40880
       2 ->  8        -0.19965
       2 ->  9         0.42538
       3 -> 21         0.11802
       4 -> 20         0.14277
       5 -> 21        -0.11568

 Excited State  55:      Singlet-A     20.0556 eV   61.82 nm  f=0.0015  <S**2>=0.000
       2 ->  7         0.31792
       2 ->  8         0.29765
       2 ->  9         0.44526
       3 -> 22        -0.16950
       4 -> 21         0.13931
       5 -> 27         0.12307

 Excited State  56:      Singlet-A     20.4551 eV   60.61 nm  f=0.0000  <S**2>=0.000
       4 -> 23        -0.47792
       4 -> 24         0.13208
       5 -> 23         0.13121
       5 -> 24         0.47861

 Excited State  57:      Singlet-A     20.4552 eV   60.61 nm  f=0.0000  <S**2>=0.000
       3 -> 23        -0.47953
       5 -> 23         0.10011
       5 -> 25         0.48744

 Excited State  58:      Singlet-A     20.4553 eV   60.61 nm  f=0.0000  <S**2>=0.000
       3 -> 24        -0.48521
       4 -> 25         0.48976

 Excited State  59:      Singlet-A     20.5414 eV   60.36 nm  f=0.0237  <S**2>=0.000
       2 -> 11         0.17419
       3 -> 25        -0.14930
       4 -> 23         0.38753
       4 -> 24        -0.20407
       5 -> 23         0.33644
       5 -> 24         0.34749

 Excited State  60:      Singlet-A     20.5415 eV   60.36 nm  f=0.0237  <S**2>=0.000
       2 -> 12        -0.15089
       3 -> 24         0.21298
       3 -> 25         0.39490
       4 -> 23         0.19822
       4 -> 25         0.12093
       5 -> 23        -0.35149
       5 -> 24         0.27252

 Excited State  61:      Singlet-A     20.5416 eV   60.36 nm  f=0.0237  <S**2>=0.000
       2 -> 10         0.14774
       2 -> 12         0.10033
       3 -> 23         0.15008
       3 -> 24         0.39456
       3 -> 25        -0.22561
       4 -> 24         0.10625
       4 -> 25         0.44273

 Excited State  62:      Singlet-A     20.5481 eV   60.34 nm  f=0.0000  <S**2>=0.000
       2 -> 14         0.10366
       3 -> 23         0.42709
       3 -> 24        -0.17575
       4 -> 24         0.12208
       5 -> 24         0.13963
       5 -> 25         0.47122

 Excited State  63:      Singlet-A     20.5481 eV   60.34 nm  f=0.0000  <S**2>=0.000
       2 -> 13        -0.10366
       3 -> 23        -0.19483
       3 -> 25        -0.27149
       4 -> 23         0.20191
       4 -> 24         0.49418
       4 -> 25        -0.11324
       5 -> 23        -0.23014
       5 -> 24         0.12293

 Excited State  64:      Singlet-A     20.8416 eV   59.49 nm  f=0.0152  <S**2>=0.000
       2 -> 10         0.66488
       2 -> 11        -0.12808
       3 -> 24        -0.11091
       4 -> 25        -0.10715

 Excited State  65:      Singlet-A     20.8416 eV   59.49 nm  f=0.0152  <S**2>=0.000
       2 -> 10         0.12632
       2 -> 11         0.64628
       2 -> 12         0.15783
       5 -> 23        -0.10800

 Excited State  66:      Singlet-A     20.8417 eV   59.49 nm  f=0.0152  <S**2>=0.000
       2 -> 11        -0.15641
       2 -> 12         0.65845

 Excited State  67:      Singlet-A     21.3860 eV   57.97 nm  f=0.0000  <S**2>=0.000
       2 -> 13         0.69859

 Excited State  68:      Singlet-A     21.3861 eV   57.97 nm  f=0.0000  <S**2>=0.000
       2 -> 14         0.69860

 Excited State  69:      Singlet-A     21.7713 eV   56.95 nm  f=0.0000  <S**2>=0.000
       2 ->  6        -0.12908
       2 -> 15        -0.24185
       2 -> 16        -0.11848
       3 -> 21         0.14216
       3 -> 22        -0.11389
       3 -> 25         0.29603
       4 -> 21        -0.10954
       4 -> 22        -0.14446
       4 -> 24         0.29150
       5 -> 20         0.17929
       5 -> 23         0.28777

 Excited State  70:      Singlet-A     22.1053 eV   56.09 nm  f=0.0000  <S**2>=0.000
       3 -> 26        -0.17146
       3 -> 27        -0.29738
       5 -> 26         0.61308

 Excited State  71:      Singlet-A     22.1054 eV   56.09 nm  f=0.0000  <S**2>=0.000
       3 -> 26         0.46670
       3 -> 27        -0.22892
       4 -> 27        -0.33948
       5 -> 27        -0.32736

 Excited State  72:      Singlet-A     22.1054 eV   56.09 nm  f=0.0000  <S**2>=0.000
       3 -> 26         0.29326
       3 -> 27        -0.16065
       4 -> 26         0.17195
       4 -> 27         0.58618
       5 -> 27        -0.12227

 Excited State  73:      Singlet-A     22.8319 eV   54.30 nm  f=0.3861  <S**2>=0.000
       3 -> 26         0.26158
       3 -> 27        -0.19987
       5 -> 27         0.57870

 Excited State  74:      Singlet-A     22.8319 eV   54.30 nm  f=0.3861  <S**2>=0.000
       3 -> 26         0.24393
       3 -> 27         0.44347
       4 -> 26         0.28860
       5 -> 26         0.31766

 Excited State  75:      Singlet-A     22.8319 eV   54.30 nm  f=0.3861  <S**2>=0.000
       3 -> 26        -0.14598
       3 -> 27        -0.24842
       4 -> 26         0.57196
       4 -> 27        -0.16557
       5 -> 20        -0.10230

 Excited State  76:      Singlet-A     24.6606 eV   50.28 nm  f=0.0000  <S**2>=0.000
       2 -> 15         0.61823
       2 -> 16        -0.28028

 Excited State  77:      Singlet-A     25.9667 eV   47.75 nm  f=0.0000  <S**2>=0.000
       2 -> 17         0.70705

 Excited State  78:      Singlet-A     25.9667 eV   47.75 nm  f=0.0000  <S**2>=0.000
       2 -> 18         0.70704

 Excited State  79:      Singlet-A     25.9667 eV   47.75 nm  f=0.0000  <S**2>=0.000
       2 -> 19         0.70704

 Excited State  80:      Singlet-A     26.4012 eV   46.96 nm  f=0.0000  <S**2>=0.000
       2 -> 15         0.21114
       2 -> 16         0.63000

 Excited State  81:      Singlet-A     26.7632 eV   46.33 nm  f=0.0011  <S**2>=0.000
       2 -> 20         0.69004

 Excited State  82:      Singlet-A     26.7633 eV   46.33 nm  f=0.0011  <S**2>=0.000
       2 -> 21         0.59710
       2 -> 22         0.34973

 Excited State  83:      Singlet-A     26.7633 eV   46.33 nm  f=0.0011  <S**2>=0.000
       2 -> 21        -0.34668
       2 -> 22         0.59811

 Excited State  84:      Singlet-A     28.0556 eV   44.19 nm  f=0.0147  <S**2>=0.000
       2 -> 23         0.69678

 Excited State  85:      Singlet-A     28.0557 eV   44.19 nm  f=0.0147  <S**2>=0.000
       2 -> 24         0.69674

 Excited State  86:      Singlet-A     28.0558 eV   44.19 nm  f=0.0147  <S**2>=0.000
       2 -> 25         0.69720

 Excited State  87:      Singlet-A     29.7428 eV   41.69 nm  f=0.0000  <S**2>=0.000
       2 -> 26         0.55911
       2 -> 27        -0.30914
       4 -> 29         0.20978
       4 -> 30         0.11494
       5 -> 28        -0.13293

 Excited State  88:      Singlet-A     29.7428 eV   41.69 nm  f=0.0000  <S**2>=0.000
       2 -> 26         0.30915
       2 -> 27         0.55909
       3 -> 28        -0.19793
       5 -> 30         0.18234

 Excited State  89:      Singlet-A     30.0523 eV   41.26 nm  f=0.0000  <S**2>=0.000
       3 -> 28        -0.15652
       4 -> 28         0.47188
       5 -> 29        -0.36091
       5 -> 30        -0.34192

 Excited State  90:      Singlet-A     30.0523 eV   41.26 nm  f=0.0000  <S**2>=0.000
       3 -> 28         0.47154
       4 -> 28         0.15349

 The electronic state is 1-A.
 Alpha  occ. eigenvalues --   -9.89464  -0.62272  -0.34893  -0.34893  -0.34893
 Alpha virt. eigenvalues --    0.00626   0.09721   0.09721   0.09721   0.13286
 Alpha virt. eigenvalues --    0.13286   0.13286   0.15847   0.15847   0.26173
 Alpha virt. eigenvalues --    0.32342   0.33203   0.33203   0.33204   0.34527

 Mulliken charges:
               1
     1  C    0.284700
     2  H   -0.071151
     3  H   -0.071187
     4  H   -0.071197
     5  H   -0.071165
 Sum of Mulliken charges =  -0.00000

 Dipole moment (field-independent basis, Debye):
    X=              0.0000    Y=             -0.0000    Z=              0.0000  Tot=              0.0000
 Quadrupole moment (field-independent basis, Debye-Ang):
   XX=             -8.4855   YY=             -8.4856   ZZ=             -8.4857
   XY=              0.0000   XZ=              0.0000   YZ=             -0.0000

 Normal termination of Gaussian 16 at Mon Mar 21 20:21:48 2022.
