 Gaussian 16, Revision C.01,
 Gaussian 16:  EM64L-G16RevC.01  3-Jul-2019

 ----------------------------------------------------------------------
 #P TD(Nstates=10000) pw91pw91/Gen SCF(maxcycles=100) Int(Grid=ultrafin
 e)
 ----------------------------------------------------------------------

 ---------------------
 xGDB7_00001_tier4.com
 ---------------------
 Symbolic Z-matrix:
 Charge =  0 Multiplicity = 1

                         Standard orientation:
 ---------------------------------------------------------------------
 Center     Atomic      Atomic             Coordinates (Angstroms)
 Number     Number       Type             X           Y           Z
 ---------------------------------------------------------------------
      1          6           0        0.000000    0.000000   -1.173653
      2          6           0        0.000000    0.000000    0.280989
      3          7           0        0.000000    0.000000    1.427442
      4          1           0        0.000000    1.024088   -1.545371
      5          1           0       -0.886886   -0.512044   -1.545371
      6          1           0        0.886886   -0.512044   -1.545371
 ---------------------------------------------------------------------

 SCF Done:  E(RPW91-PW91) =  -132.604217639     A.U. after   14 cycles

 Excitation energies and oscillator strengths:

 Excited State   1:      Singlet-E      7.8111 eV  158.73 nm  f=0.0001  <S**2>=0.000
      11 -> 12         0.70639
 This state for optimization and/or second-order correction.
 Total Energy, E(TD-HF/TD-DFT) =  -132.317164057
 Copying the excited state density for this state as the 1-particle RhoCI density.

 Excited State   2:      Singlet-E      7.8112 eV  158.73 nm  f=0.0001  <S**2>=0.000
      10 -> 12         0.70639

 Excited state symmetry could not be determined.
 Excited State   3:      Singlet-?Sym    7.9645 eV  155.67 nm  f=0.0000  <S**2>=0.000
      10 -> 13         0.50000
      11 -> 14        -0.50000

 Excited State   4:      Singlet-A1     8.0426 eV  154.16 nm  f=0.0097  <S**2>=0.000
       9 -> 12         0.70673

 Excited state symmetry could not be determined.
 Excited State   5:      Singlet-?Sym    8.2259 eV  150.72 nm  f=0.0028  <S**2>=0.000
      10 -> 14        -0.49888
      11 -> 13         0.49888

 Excited state symmetry could not be determined.
 Excited State   6:      Singlet-?Sym    8.2259 eV  150.72 nm  f=0.0028  <S**2>=0.000
      10 -> 13         0.49888
      11 -> 14         0.49888

 Excited State   7:      Singlet-E      8.8989 eV  139.33 nm  f=0.0123  <S**2>=0.000
       9 -> 14         0.69450
       9 -> 16        -0.10804

 Excited State   8:      Singlet-E      8.8989 eV  139.33 nm  f=0.0123  <S**2>=0.000
       9 -> 13         0.69450
       9 -> 17        -0.10804

 Excited State   9:      Singlet-E      9.6996 eV  127.82 nm  f=0.0419  <S**2>=0.000
      11 -> 15         0.70630

 Excited State  10:      Singlet-E      9.6997 eV  127.82 nm  f=0.0419  <S**2>=0.000
      10 -> 15         0.70630

 Excited State  11:      Singlet-A1     9.8238 eV  126.21 nm  f=0.2407  <S**2>=0.000
       9 -> 15         0.37840
      10 -> 14         0.27960
      10 -> 16        -0.31161
      11 -> 13         0.27960
      11 -> 17        -0.31162

 Excited State  12:      Singlet-A1    10.0371 eV  123.53 nm  f=0.0448  <S**2>=0.000
       9 -> 15         0.58943
      10 -> 14        -0.12669
      10 -> 16         0.23989
      11 -> 13        -0.12669
      11 -> 17         0.23989

 Excited state symmetry could not be determined.
 Excited State  13:      Singlet-?Sym   10.2602 eV  120.84 nm  f=0.0000  <S**2>=0.000
      10 -> 17         0.50000
      11 -> 16        -0.49998

 Excited state symmetry could not be determined.
 Excited State  14:      Singlet-?Sym   10.3070 eV  120.29 nm  f=0.0037  <S**2>=0.000
      10 -> 16         0.49803
      11 -> 17        -0.49802

 Excited state symmetry could not be determined.
 Excited State  15:      Singlet-?Sym   10.3070 eV  120.29 nm  f=0.0037  <S**2>=0.000
      10 -> 17         0.49802
      11 -> 16         0.49804

 Excited State  16:      Singlet-E     10.6517 eV  116.40 nm  f=0.0055  <S**2>=0.000
       9 -> 17         0.69388

 Excited State  17:      Singlet-E     10.6517 eV  116.40 nm  f=0.0055  <S**2>=0.000
       9 -> 16         0.69388

 Excited state symmetry could not be determined.
 Excited State  18:      Singlet-?Sym   11.0786 eV  111.91 nm  f=0.0000  <S**2>=0.000
      10 -> 20         0.49989
      11 -> 19        -0.49987

 Excited state symmetry could not be determined.
 Excited State  19:      Singlet-?Sym   11.0980 eV  111.72 nm  f=0.0007  <S**2>=0.000
      10 -> 19         0.48217
      11 -> 20         0.48240

 Excited state symmetry could not be determined.
 Excited State  20:      Singlet-?Sym   11.1347 eV  111.35 nm  f=0.0001  <S**2>=0.000
       7 -> 14        -0.11611
       8 -> 13         0.11612
      10 -> 19         0.46558
      11 -> 18         0.18397
      11 -> 20        -0.46536

 Excited state symmetry could not be determined.
 Excited State  21:      Singlet-?Sym   11.1347 eV  111.35 nm  f=0.0001  <S**2>=0.000
       7 -> 13        -0.11612
       8 -> 14        -0.11613
      10 -> 18         0.18408
      10 -> 20         0.46544
      11 -> 19         0.46545

 Excited State  22:      Singlet-E     11.2081 eV  110.62 nm  f=0.0007  <S**2>=0.000
       7 -> 12        -0.38068
      10 -> 18         0.57096
      10 -> 20        -0.10614
      11 -> 19        -0.10615

 Excited State  23:      Singlet-E     11.2081 eV  110.62 nm  f=0.0007  <S**2>=0.000
       8 -> 12        -0.38068
      10 -> 19        -0.10610
      11 -> 18         0.57099
      11 -> 20         0.10605

 Excited state symmetry could not be determined.
 Excited State  24:      Singlet-?Sym   11.3265 eV  109.46 nm  f=0.0000  <S**2>=0.000
       7 -> 13         0.49991
       8 -> 14        -0.49990

 Excited State  25:      Singlet-E     11.3460 eV  109.28 nm  f=0.1012  <S**2>=0.000
       8 -> 12         0.52772
       9 -> 20        -0.30939
      11 -> 18         0.31201

 Excited State  26:      Singlet-E     11.3460 eV  109.28 nm  f=0.1011  <S**2>=0.000
       7 -> 12         0.52765
       9 -> 19        -0.30959
      10 -> 18         0.31194

 Excited State  27:      Singlet-E     11.3709 eV  109.04 nm  f=0.0327  <S**2>=0.000
       8 -> 12         0.25007
       9 -> 20         0.63094
      11 -> 18         0.15827

 Excited State  28:      Singlet-E     11.3709 eV  109.04 nm  f=0.0328  <S**2>=0.000
       7 -> 12         0.25023
       9 -> 19         0.63084
      10 -> 18         0.15837

 Excited State  29:      Singlet-A1    11.3717 eV  109.03 nm  f=0.0207  <S**2>=0.000
       7 -> 14         0.14128
       8 -> 13         0.14132
       9 -> 18         0.61522
      10 -> 14         0.12558
      10 -> 16         0.11449
      11 -> 13         0.12557
      11 -> 17         0.11448

 Excited state symmetry could not be determined.
 Excited State  30:      Singlet-?Sym   11.5719 eV  107.14 nm  f=0.0363  <S**2>=0.000
       7 -> 14         0.47206
       8 -> 13        -0.47204
      10 -> 19         0.10081
      11 -> 20        -0.10080

 Excited state symmetry could not be determined.
 Excited State  31:      Singlet-?Sym   11.5720 eV  107.14 nm  f=0.0363  <S**2>=0.000
       7 -> 13         0.47205
       8 -> 14         0.47206
      10 -> 20         0.10081
      11 -> 19         0.10081

 Excited State  32:      Singlet-A1    11.6143 eV  106.75 nm  f=0.8123  <S**2>=0.000
       7 -> 14        -0.30467
       8 -> 13        -0.30469
       9 -> 18         0.33695
       9 -> 23        -0.11530
      10 -> 14        -0.22409
      10 -> 16        -0.18095
      11 -> 13        -0.22409
      11 -> 17        -0.18095

 Excited State  33:      Singlet-A1    12.4917 eV   99.25 nm  f=0.0850  <S**2>=0.000
       6 -> 12         0.69855

 Excited state symmetry could not be determined.
 Excited State  34:      Singlet-?Sym   12.6707 eV   97.85 nm  f=0.1761  <S**2>=0.000
       6 -> 15         0.11220
       7 -> 14         0.30982
       8 -> 13         0.30982
       9 -> 23        -0.21925
      10 -> 14        -0.19840
      10 -> 16        -0.14989
      10 -> 21         0.20794
      11 -> 13        -0.19840
      11 -> 17        -0.14989
      11 -> 22        -0.20798

 Excited State  35:      Singlet-E     13.0234 eV   95.20 nm  f=0.0071  <S**2>=0.000
       6 -> 13        -0.46068
       8 -> 15         0.50802

 Excited State  36:      Singlet-E     13.0234 eV   95.20 nm  f=0.0071  <S**2>=0.000
       6 -> 14        -0.46075
       7 -> 15         0.50796

 Excited State  37:      Singlet-E     13.1139 eV   94.54 nm  f=0.0195  <S**2>=0.000
       6 -> 13         0.43949
       8 -> 15         0.48569
      11 -> 23        -0.11855

 Excited State  38:      Singlet-E     13.1139 eV   94.54 nm  f=0.0195  <S**2>=0.000
       6 -> 14         0.43943
       7 -> 15         0.48575
      10 -> 23        -0.11854

 Excited state symmetry could not be determined.
 Excited State  39:      Singlet-?Sym   13.2781 eV   93.38 nm  f=0.0029  <S**2>=0.000
       6 -> 13        -0.10090
      10 -> 21         0.49039
      11 -> 22         0.49036

 Excited state symmetry could not be determined.
 Excited State  40:      Singlet-?Sym   13.2781 eV   93.37 nm  f=0.0029  <S**2>=0.000
       6 -> 14        -0.10087
      10 -> 22        -0.49033
      11 -> 21         0.49042

 Excited state symmetry could not be determined.
 Excited State  41:      Singlet-?Sym   13.2965 eV   93.25 nm  f=0.0000  <S**2>=0.000
      10 -> 22         0.50004
      11 -> 21         0.49994

 Excited State  42:      Singlet-E     13.5905 eV   91.23 nm  f=0.0312  <S**2>=0.000
       9 -> 21         0.68089
      10 -> 23         0.14236

 Excited State  43:      Singlet-E     13.5905 eV   91.23 nm  f=0.0312  <S**2>=0.000
       9 -> 22         0.68090
      11 -> 23        -0.14235

 Excited state symmetry could not be determined.
 Excited State  44:      Singlet-?Sym   13.6275 eV   90.98 nm  f=0.0000  <S**2>=0.000
       7 -> 17         0.49991
       8 -> 16        -0.49991

 Excited state symmetry could not be determined.
 Excited State  45:      Singlet-?Sym   13.7765 eV   90.00 nm  f=0.0677  <S**2>=0.000
       7 -> 17         0.47635
       8 -> 16         0.47636
      10 -> 23         0.16122

 Excited state symmetry could not be determined.
 Excited State  46:      Singlet-?Sym   13.7765 eV   90.00 nm  f=0.0677  <S**2>=0.000
       7 -> 16         0.47636
       8 -> 17        -0.47635
      11 -> 23         0.16120

 Excited state symmetry could not be determined.
 Excited State  47:      Singlet-?Sym   13.9433 eV   88.92 nm  f=0.0237  <S**2>=0.000
       6 -> 15         0.30666
       7 -> 14         0.10372
       8 -> 13         0.10375
       9 -> 24        -0.19217
      10 -> 21        -0.37545
      11 -> 22         0.37550

 Excited State  48:      Singlet-E     13.9470 eV   88.90 nm  f=0.0067  <S**2>=0.000
       6 -> 13         0.13776
       9 -> 22         0.11480
      11 -> 23         0.63894
      11 -> 24        -0.12808

 Excited State  49:      Singlet-E     13.9470 eV   88.90 nm  f=0.0067  <S**2>=0.000
       6 -> 14         0.13777
       9 -> 21        -0.11481
      10 -> 23         0.63894
      10 -> 24        -0.12803

 Excited State  50:      Singlet-E     14.2343 eV   87.10 nm  f=0.0007  <S**2>=0.000
       8 -> 18         0.11845
      11 -> 23         0.10441
      11 -> 24         0.67843

 Excited State  51:      Singlet-E     14.2344 eV   87.10 nm  f=0.0007  <S**2>=0.000
       7 -> 18         0.11843
      10 -> 23         0.10438
      10 -> 24         0.67844

 Excited State  52:      Singlet-A1    14.2731 eV   86.87 nm  f=0.0021  <S**2>=0.000
       6 -> 15         0.43777
       6 -> 18        -0.17279
       7 -> 16        -0.32429
       8 -> 17        -0.32430
       9 -> 24         0.14817
      10 -> 21         0.10144
      11 -> 22        -0.10145

 Excited state symmetry could not be determined.
 Excited State  53:      Singlet-?Sym   14.4444 eV   85.84 nm  f=0.0814  <S**2>=0.000
       6 -> 15        -0.29716
       7 -> 16        -0.19072
       7 -> 19         0.35624
       8 -> 17        -0.19072
       8 -> 20         0.35622
       9 -> 24        -0.26835

 Excited state symmetry could not be determined.
 Excited State  54:      Singlet-?Sym   14.4684 eV   85.69 nm  f=0.0000  <S**2>=0.000
       7 -> 20        -0.49987
       8 -> 19         0.49991

 Excited State  55:      Singlet-A1    14.5011 eV   85.50 nm  f=0.2323  <S**2>=0.000
       7 -> 19         0.26000
       8 -> 20         0.25997
       9 -> 24         0.57347

 Excited State  56:      Singlet-E     14.5473 eV   85.23 nm  f=0.0100  <S**2>=0.000
       6 -> 16         0.12614
       7 -> 18         0.58498
       7 -> 20        -0.24391
       8 -> 19        -0.24389
      10 -> 24        -0.11181

 Excited State  57:      Singlet-E     14.5473 eV   85.23 nm  f=0.0100  <S**2>=0.000
       6 -> 17         0.12614
       7 -> 19        -0.24389
       8 -> 18         0.58498
       8 -> 20         0.24391
      11 -> 24        -0.11181

 Excited State  58:      Singlet-A1    14.8521 eV   83.48 nm  f=0.0036  <S**2>=0.000
       6 -> 18        -0.12161
       9 -> 23         0.55799
      10 -> 25        -0.21507
      10 -> 28        -0.12294
      11 -> 26         0.21509
      11 -> 29         0.12293

 Excited State  59:      Singlet-E     14.9265 eV   83.06 nm  f=0.0604  <S**2>=0.000
       6 -> 16         0.66358
       7 -> 18        -0.19194

 Excited State  60:      Singlet-E     14.9265 eV   83.06 nm  f=0.0604  <S**2>=0.000
       6 -> 17         0.66358
       8 -> 18        -0.19193

 Excited state symmetry could not be determined.
 Excited State  61:      Singlet-?Sym   15.0851 eV   82.19 nm  f=0.1153  <S**2>=0.000
       6 -> 16         0.17011
       7 -> 18         0.30089
       7 -> 20         0.35432
       8 -> 19         0.35428
      10 -> 26         0.21032
      11 -> 25        -0.21022

 Excited state symmetry could not be determined.
 Excited State  62:      Singlet-?Sym   15.0852 eV   82.19 nm  f=0.1153  <S**2>=0.000
       6 -> 17         0.17007
       7 -> 19         0.35430
       8 -> 18         0.30088
       8 -> 20        -0.35430
      10 -> 25        -0.21028
      11 -> 26        -0.21030

 Excited State  63:      Singlet-A1    15.2705 eV   81.19 nm  f=0.0033  <S**2>=0.000
       6 -> 15         0.30907
       7 -> 16         0.25744
       7 -> 19         0.20353
       8 -> 17         0.25742
       8 -> 20         0.20355
       9 -> 24        -0.17576
       9 -> 27        -0.17161
      10 -> 21         0.13339
      11 -> 22        -0.13340

 Excited state symmetry could not be determined.
 Excited State  64:      Singlet-?Sym   15.3972 eV   80.52 nm  f=0.0000  <S**2>=0.000
      10 -> 26         0.49789
      11 -> 25         0.49786

 Excited state symmetry could not be determined.
 Excited State  65:      Singlet-?Sym   15.5595 eV   79.68 nm  f=0.0000  <S**2>=0.000
       9 -> 23        -0.14739
      10 -> 25        -0.40722
      10 -> 28         0.25121
      11 -> 26         0.40736
      11 -> 29        -0.25118

 Excited State  66:      Singlet-E     15.7036 eV   78.95 nm  f=0.0073  <S**2>=0.000
       6 -> 20         0.63901
       9 -> 26         0.19133
      10 -> 25         0.15174
      11 -> 26         0.15170

 Excited State  67:      Singlet-E     15.7036 eV   78.95 nm  f=0.0073  <S**2>=0.000
       6 -> 19         0.63911
       9 -> 25        -0.19121
      10 -> 26        -0.15161
      11 -> 25         0.15164

 Excited State  68:      Singlet-E     15.7514 eV   78.71 nm  f=0.0411  <S**2>=0.000
       6 -> 20        -0.24331
       9 -> 26         0.64151

 Excited State  69:      Singlet-E     15.7514 eV   78.71 nm  f=0.0411  <S**2>=0.000
       6 -> 19         0.24311
       9 -> 25         0.64160

 Excited state symmetry could not be determined.
 Excited State  70:      Singlet-?Sym   15.8987 eV   77.98 nm  f=0.1914  <S**2>=0.000
       6 -> 20        -0.14915
       7 -> 19         0.11214
       8 -> 20        -0.11214
       9 -> 26        -0.22128
      10 -> 25         0.33634
      10 -> 28         0.17617
      11 -> 26         0.33623
      11 -> 27         0.26139
      11 -> 29         0.17624

 Excited state symmetry could not be determined.
 Excited State  71:      Singlet-?Sym   15.8988 eV   77.98 nm  f=0.1914  <S**2>=0.000
       6 -> 19        -0.14904
       7 -> 20         0.11214
       8 -> 19         0.11214
       9 -> 25         0.22113
      10 -> 26        -0.33628
      10 -> 27         0.26141
      10 -> 29        -0.17621
      11 -> 25         0.33636
      11 -> 28         0.17630

 Excited State  72:      Singlet-E     16.0818 eV   77.10 nm  f=0.0540  <S**2>=0.000
      10 -> 26         0.10608
      10 -> 27         0.63502
      10 -> 29         0.13586
      11 -> 25        -0.10613
      11 -> 28        -0.13592

 Excited State  73:      Singlet-E     16.0818 eV   77.10 nm  f=0.0541  <S**2>=0.000
      10 -> 25        -0.10615
      10 -> 28        -0.13582
      11 -> 26        -0.10610
      11 -> 27         0.63503
      11 -> 29        -0.13583

 Excited state symmetry could not be determined.
 Excited State  74:      Singlet-?Sym   16.1353 eV   76.84 nm  f=0.0000  <S**2>=0.000
      10 -> 29         0.49791
      11 -> 28         0.49782

 Excited State  75:      Singlet-E     16.3220 eV   75.96 nm  f=0.1513  <S**2>=0.000
       9 -> 28        -0.18475
      10 -> 26        -0.11279
      10 -> 29         0.35029
      10 -> 30         0.41509
      11 -> 25         0.11278
      11 -> 28        -0.35033

 Excited State  76:      Singlet-E     16.3221 eV   75.96 nm  f=0.1512  <S**2>=0.000
       9 -> 29         0.18472
      10 -> 25         0.11273
      10 -> 28        -0.35037
      11 -> 26         0.11273
      11 -> 29        -0.35028
      11 -> 30         0.41512

 Excited State  77:      Singlet-A1    16.3625 eV   75.77 nm  f=0.0932  <S**2>=0.000
       9 -> 27         0.65193

 Excited State  78:      Singlet-E     16.4034 eV   75.58 nm  f=0.0555  <S**2>=0.000
       9 -> 29        -0.29866
      10 -> 28         0.18582
      11 -> 27         0.10350
      11 -> 29         0.18583
      11 -> 30         0.54506

 Excited State  79:      Singlet-E     16.4034 eV   75.58 nm  f=0.0555  <S**2>=0.000
       9 -> 28         0.29865
      10 -> 27         0.10349
      10 -> 29        -0.18578
      10 -> 30         0.54509
      11 -> 28         0.18580

 Excited State  80:      Singlet-E     16.5184 eV   75.06 nm  f=0.0137  <S**2>=0.000
       9 -> 28         0.58600
      10 -> 29         0.16452
      10 -> 30        -0.12815
      11 -> 28        -0.16453
      11 -> 31        -0.18482

 Excited State  81:      Singlet-E     16.5184 eV   75.06 nm  f=0.0137  <S**2>=0.000
       9 -> 29         0.58603
      10 -> 28         0.16456
      10 -> 31        -0.18465
      11 -> 29         0.16453
      11 -> 30         0.12817

 Excited State  82:      Singlet-E     16.5397 eV   74.96 nm  f=0.0163  <S**2>=0.000
       9 -> 29         0.12983
      10 -> 31         0.67897

 Excited State  83:      Singlet-E     16.5397 eV   74.96 nm  f=0.0163  <S**2>=0.000
       9 -> 28         0.12995
      11 -> 31         0.67892

 Excited State  84:      Singlet-A1    16.5663 eV   74.84 nm  f=0.0643  <S**2>=0.000
       6 -> 18         0.36392
       9 -> 30         0.52062
      10 -> 32         0.14985
      11 -> 33        -0.14988

 Excited state symmetry could not be determined.
 Excited State  85:      Singlet-?Sym   16.6568 eV   74.43 nm  f=0.0000  <S**2>=0.000
       7 -> 22         0.50027
       8 -> 21         0.49971

 Excited state symmetry could not be determined.
 Excited State  86:      Singlet-?Sym   16.6594 eV   74.42 nm  f=0.0039  <S**2>=0.000
       7 -> 21         0.49712
       8 -> 22         0.49725

 Excited state symmetry could not be determined.
 Excited State  87:      Singlet-?Sym   16.6594 eV   74.42 nm  f=0.0039  <S**2>=0.000
       7 -> 22        -0.49691
       8 -> 21         0.49746

 Excited State  88:      Singlet-A1    16.7367 eV   74.08 nm  f=0.1642  <S**2>=0.000
       6 -> 18        -0.42708
       6 -> 23         0.13942
       9 -> 30         0.45453
      10 -> 32        -0.16080
      11 -> 33         0.16077

 Excited State  89:      Singlet-A2    16.7957 eV   73.82 nm  f=0.0000  <S**2>=0.000
       9 -> 31         0.70701

 Excited state symmetry could not be determined.
 Excited State  90:      Singlet-?Sym   16.8525 eV   73.57 nm  f=0.0000  <S**2>=0.000
      10 -> 33         0.49969
      11 -> 32         0.49968

 Excited state symmetry could not be determined.
 Excited State  91:      Singlet-?Sym   16.8705 eV   73.49 nm  f=0.1373  <S**2>=0.000
       6 -> 18         0.11819
       7 -> 21         0.42701
       8 -> 22        -0.42686
      10 -> 32        -0.21379
      11 -> 33         0.21381

 Excited state symmetry could not be determined.
 Excited State  92:      Singlet-?Sym   16.9602 eV   73.10 nm  f=0.0717  <S**2>=0.000
       7 -> 24         0.11580
       9 -> 32        -0.20616
      10 -> 33        -0.45102
      11 -> 32         0.45104

 Excited state symmetry could not be determined.
 Excited State  93:      Singlet-?Sym   16.9602 eV   73.10 nm  f=0.0717  <S**2>=0.000
       8 -> 24         0.11580
       9 -> 33         0.20616
      10 -> 32         0.45098
      11 -> 33         0.45109

 Excited state symmetry could not be determined.
 Excited State  94:      Singlet-?Sym   17.0150 eV   72.87 nm  f=0.0247  <S**2>=0.000
       6 -> 18         0.17417
       7 -> 21        -0.20784
       8 -> 22         0.20783
       9 -> 27         0.18307
      10 -> 28        -0.25727
      10 -> 32        -0.20145
      11 -> 29         0.25734
      11 -> 33         0.20117

 Excited State  95:      Singlet-E     17.1462 eV   72.31 nm  f=0.1115  <S**2>=0.000
       9 -> 33         0.66595
      10 -> 32        -0.10954
      11 -> 33        -0.10948

 Excited State  96:      Singlet-E     17.1462 eV   72.31 nm  f=0.1115  <S**2>=0.000
       9 -> 32         0.66595
      10 -> 33        -0.10951
      11 -> 32         0.10951

 Excited State  97:      Singlet-E     17.2610 eV   71.83 nm  f=0.0032  <S**2>=0.000
       7 -> 23         0.68978
       7 -> 24        -0.12943

 Excited State  98:      Singlet-E     17.2610 eV   71.83 nm  f=0.0032  <S**2>=0.000
       8 -> 23         0.68978
       8 -> 24        -0.12943

 Excited State  99:      Singlet-E     17.7746 eV   69.75 nm  f=0.2146  <S**2>=0.000
       8 -> 23         0.11382
       8 -> 24         0.66263

 Excited State 100:      Singlet-E     17.7746 eV   69.75 nm  f=0.2146  <S**2>=0.000
       7 -> 23         0.11382
       7 -> 24         0.66263

 Excited state symmetry could not be determined.
 Excited State 101:      Singlet-?Sym   17.8046 eV   69.64 nm  f=0.0000  <S**2>=0.000
       6 -> 18         0.10911
       6 -> 24        -0.15780
       9 -> 23         0.21031
       9 -> 34        -0.15316

 The electronic state is 1-A1.
 Alpha  occ. eigenvalues --  -14.00542  -9.96585  -9.95185  -0.82514  -0.70963
 Alpha  occ. eigenvalues --   -0.46992  -0.42567  -0.42567  -0.31164  -0.30222
 Alpha  occ. eigenvalues --   -0.30222
 Alpha virt. eigenvalues --   -0.01662  -0.00954  -0.00954   0.05361   0.07491
 Alpha virt. eigenvalues --    0.07491   0.10505   0.10562   0.10562   0.18646
 Alpha virt. eigenvalues --    0.18646   0.20621   0.21761   0.26727   0.26727

 Mulliken charges:
               1
     1  C    0.344716
     2  C   -0.334524
     3  N   -0.025173
     4  H    0.004993
     5  H    0.004993
     6  H    0.004993
 Sum of Mulliken charges =  -0.00000

 Dipole moment (field-independent basis, Debye):
    X=             -0.0000    Y=              0.0000    Z=             -3.9366  Tot=              3.9366
 Quadrupole moment (field-independent basis, Debye-Ang):
   XX=            -17.6094   YY=            -17.6094   ZZ=            -21.0105
   XY=             -0.0000   XZ=              0.0000   YZ=             -0.0000

 Normal termination of Gaussian 16 at Mon Mar 21 20:14:51 2022.
