 Gaussian 16, Revision C.01,
 Gaussian 16:  EM64L-G16RevC.01  3-Jul-2019

 ----------------------------------------------------------------------
 #P TD(Nstates=10000) pw91pw91/Gen SCF(maxcycles=100) Int(Grid=ultrafin
 e)
 ----------------------------------------------------------------------

 ---------------------
 xGDB7_00001_tier4.com
 ---------------------
 Symbolic Z-matrix:
 Charge =  0 Multiplicity = 1

                         Standard orientation:
 ---------------------------------------------------------------------
 Center     Atomic      Atomic             Coordinates (Angstroms)
 Number     Number       Type             X           Y           Z
 ---------------------------------------------------------------------
      1          6           0        0.000000    0.000000   -0.524273
      2          8           0        0.000000    0.000000    0.670793
      3          1           0        0.000000    0.939221   -1.110351
      4          1           0       -0.000000   -0.939221   -1.110351
 ---------------------------------------------------------------------

 SCF Done:  E(RPW91-PW91) =  -114.384416470     A.U. after   13 cycles

 Excitation energies and oscillator strengths:

 Excited State   1:      Singlet-A2     3.9105 eV  317.06 nm  f=0.0000  <S**2>=0.000
       8 ->  9         0.70747
 This state for optimization and/or second-order correction.
 Total Energy, E(TD-HF/TD-DFT) =  -114.240710019
 Copying the excited state density for this state as the 1-particle RhoCI density.

 Excited State   2:      Singlet-B2     6.4608 eV  191.90 nm  f=0.0274  <S**2>=0.000
       8 -> 10         0.70569

 Excited State   3:      Singlet-A1     7.9874 eV  155.22 nm  f=0.0842  <S**2>=0.000
       8 -> 11         0.70396

 Excited State   4:      Singlet-B2     8.0940 eV  153.18 nm  f=0.0478  <S**2>=0.000
       8 -> 12         0.70406

 Excited State   5:      Singlet-A2     8.6209 eV  143.82 nm  f=0.0000  <S**2>=0.000
       8 -> 13         0.70702

 Excited State   6:      Singlet-B1     8.9526 eV  138.49 nm  f=0.0007  <S**2>=0.000
       6 ->  9         0.70449

 Excited State   7:      Singlet-B2     9.3107 eV  133.16 nm  f=0.0273  <S**2>=0.000
       8 -> 14         0.68600
       8 -> 15         0.16354

 Excited State   8:      Singlet-A1     9.5445 eV  129.90 nm  f=0.0439  <S**2>=0.000
       7 ->  9         0.56082
       8 -> 16        -0.41532

 Excited State   9:      Singlet-A2     9.8762 eV  125.54 nm  f=0.0000  <S**2>=0.000
       5 ->  9         0.70626

 Excited State  10:      Singlet-B2    10.0371 eV  123.53 nm  f=0.0254  <S**2>=0.000
       8 -> 14        -0.15773
       8 -> 15         0.68487

 Excited State  11:      Singlet-B1    10.3997 eV  119.22 nm  f=0.0286  <S**2>=0.000
       7 -> 10         0.70647

 Excited State  12:      Singlet-A1    10.8841 eV  113.91 nm  f=0.1367  <S**2>=0.000
       6 -> 10        -0.39155
       7 ->  9         0.32748
       8 -> 16         0.46478

 Excited State  13:      Singlet-B1    11.1077 eV  111.62 nm  f=0.0142  <S**2>=0.000
       8 -> 17         0.70374

 Excited State  14:      Singlet-A1    11.4358 eV  108.42 nm  f=0.1506  <S**2>=0.000
       6 -> 10         0.58200
       7 ->  9         0.20985
       8 -> 16         0.29348

 Excited State  15:      Singlet-A2    11.8545 eV  104.59 nm  f=0.0000  <S**2>=0.000
       7 -> 11         0.18371
       8 -> 18         0.68241

 Excited State  16:      Singlet-A2    11.8977 eV  104.21 nm  f=0.0000  <S**2>=0.000
       7 -> 11         0.68265
       8 -> 18        -0.18315

 Excited State  17:      Singlet-B1    12.1035 eV  102.44 nm  f=0.0534  <S**2>=0.000
       7 -> 12         0.70073

 Excited State  18:      Singlet-B2    12.5272 eV   98.97 nm  f=0.0802  <S**2>=0.000
       5 -> 10         0.68077
       6 -> 11         0.17626

 Excited State  19:      Singlet-B2    12.7081 eV   97.56 nm  f=0.0864  <S**2>=0.000
       5 -> 10        -0.17157
       6 -> 11         0.68271

 Excited State  20:      Singlet-A1    12.7875 eV   96.96 nm  f=0.0193  <S**2>=0.000
       5 -> 11         0.10449
       6 -> 12        -0.35141
       7 -> 13         0.59449

 Excited State  21:      Singlet-A1    12.9050 eV   96.07 nm  f=0.1354  <S**2>=0.000
       6 -> 12         0.60887
       7 -> 13         0.33419

 Excited State  22:      Singlet-B1    13.1912 eV   93.99 nm  f=0.0034  <S**2>=0.000
       4 ->  9        -0.12222
       7 -> 14         0.69396

 Excited State  23:      Singlet-B1    13.3750 eV   92.70 nm  f=0.0220  <S**2>=0.000
       6 -> 13         0.69965

 Excited State  24:      Singlet-B2    13.6689 eV   90.71 nm  f=0.0019  <S**2>=0.000
       5 -> 12         0.12242
       8 -> 19         0.69185

 Excited State  25:      Singlet-B1    13.7274 eV   90.32 nm  f=0.0010  <S**2>=0.000
       4 ->  9         0.41318
       7 -> 15         0.56561

 Excited State  26:      Singlet-A1    13.8678 eV   89.40 nm  f=0.1380  <S**2>=0.000
       5 -> 11         0.12381
       6 -> 14         0.32913
       8 -> 20         0.60030

 Excited State  27:      Singlet-A2    13.9272 eV   89.02 nm  f=0.0000  <S**2>=0.000
       7 -> 16         0.70675

 Excited State  28:      Singlet-A1    14.0950 eV   87.96 nm  f=0.0732  <S**2>=0.000
       6 -> 14         0.61604
       8 -> 20        -0.31173

 Excited State  29:      Singlet-B2    14.0985 eV   87.94 nm  f=0.0059  <S**2>=0.000
       5 -> 12         0.69274
       8 -> 19        -0.11960

 Excited State  30:      Singlet-A1    14.3321 eV   86.51 nm  f=0.0085  <S**2>=0.000
       4 -> 10         0.15156
       5 -> 11         0.62994
       6 -> 15         0.17995
       7 -> 13        -0.10214
       8 -> 20        -0.11365

 Excited State  31:      Singlet-B2    14.5213 eV   85.38 nm  f=0.0516  <S**2>=0.000
       5 -> 14        -0.10483
       8 -> 21         0.68690

 Excited State  32:      Singlet-B1    14.5878 eV   84.99 nm  f=0.2252  <S**2>=0.000
       4 ->  9         0.52151
       5 -> 17        -0.14661
       7 -> 15        -0.40642

 Excited State  33:      Singlet-A2    14.6523 eV   84.62 nm  f=0.0000  <S**2>=0.000
       5 -> 13         0.70707

 Excited State  34:      Singlet-A1    14.7170 eV   84.25 nm  f=0.0078  <S**2>=0.000
       5 -> 11        -0.16004
       6 -> 15         0.66606

 Excited State  35:      Singlet-B2    14.7520 eV   84.05 nm  f=0.0002  <S**2>=0.000
       6 -> 16         0.69458

 Excited State  36:      Singlet-B2    15.0757 eV   82.24 nm  f=0.0154  <S**2>=0.000
       5 -> 14         0.27781
       7 -> 17         0.64232

 Excited State  37:      Singlet-B2    15.4540 eV   80.23 nm  f=0.0113  <S**2>=0.000
       5 -> 14        -0.14902
       8 -> 23         0.68397

 Excited State  38:      Singlet-A1    15.5868 eV   79.54 nm  f=0.0803  <S**2>=0.000
       4 -> 10         0.10989
       7 -> 18        -0.17050
       8 -> 22         0.65361

 Excited State  39:      Singlet-B2    15.6789 eV   79.08 nm  f=0.2208  <S**2>=0.000
       5 -> 14         0.50714
       5 -> 15         0.39610
       7 -> 17        -0.21432
       8 -> 23         0.13359

 Excited State  40:      Singlet-A2    15.8136 eV   78.40 nm  f=0.0000  <S**2>=0.000
       6 -> 17         0.70703

 Excited State  41:      Singlet-A1    15.9293 eV   77.83 nm  f=0.0110  <S**2>=0.000
       4 -> 10         0.25030
       5 -> 16         0.56748
       7 -> 18         0.32872

 Excited State  42:      Singlet-A1    15.9744 eV   77.61 nm  f=0.0244  <S**2>=0.000
       4 -> 10         0.47525
       7 -> 18        -0.46015
       8 -> 22        -0.16165

 Excited State  43:      Singlet-B1    16.0407 eV   77.29 nm  f=0.0765  <S**2>=0.000
       8 -> 24         0.69527

 Excited State  44:      Singlet-B2    16.2186 eV   76.45 nm  f=0.2665  <S**2>=0.000
       5 -> 14        -0.33655
       5 -> 15         0.57724
       7 -> 17         0.14805

 Excited State  45:      Singlet-B1    16.6554 eV   74.44 nm  f=0.0031  <S**2>=0.000
       5 -> 17        -0.12639
       6 -> 18         0.69012

 Excited State  46:      Singlet-A2    16.6564 eV   74.44 nm  f=0.0000  <S**2>=0.000
       8 -> 26         0.70689

 Excited State  47:      Singlet-B2    16.7063 eV   74.21 nm  f=0.0004  <S**2>=0.000
       8 -> 25         0.70246

 Excited State  48:      Singlet-A1    16.8029 eV   73.79 nm  f=0.0149  <S**2>=0.000
       4 -> 10        -0.36168
       4 -> 12        -0.19579
       5 -> 11         0.13527
       5 -> 16         0.36648
       7 -> 18        -0.33290
       8 -> 27        -0.14039

 Excited State  49:      Singlet-B2    17.3577 eV   71.43 nm  f=0.0281  <S**2>=0.000
       4 -> 11         0.70162

 Excited State  50:      Singlet-B1    17.4120 eV   71.21 nm  f=0.3116  <S**2>=0.000
       4 ->  9         0.11563
       5 -> 17         0.65258
       7 -> 19        -0.12195
       7 -> 21        -0.10564

 Excited State  51:      Singlet-A1    17.5312 eV   70.72 nm  f=0.0920  <S**2>=0.000
       4 -> 10        -0.11675
       4 -> 12         0.65027
       5 -> 16         0.12078
       6 -> 19        -0.11287

 Excited State  52:      Singlet-B1    17.6820 eV   70.12 nm  f=0.0026  <S**2>=0.000
       4 -> 13         0.17371
       7 -> 19         0.67682

 Excited State  53:      Singlet-A2    17.7607 eV   69.81 nm  f=0.0000  <S**2>=0.000
       7 -> 20         0.70705

 Excited State  54:      Singlet-A2    17.8218 eV   69.57 nm  f=0.0000  <S**2>=0.000
       5 -> 18         0.70702

 Excited State  55:      Singlet-B1    18.0115 eV   68.84 nm  f=0.0005  <S**2>=0.000
       4 -> 13         0.67746
       7 -> 19        -0.15375

 Excited State  56:      Singlet-A1    18.4747 eV   67.11 nm  f=0.0181  <S**2>=0.000
       6 -> 19         0.61458
       8 -> 27         0.33171

 Excited State  57:      Singlet-B1    18.5028 eV   67.01 nm  f=0.0741  <S**2>=0.000
       7 -> 21         0.69469

 Excited State  58:      Singlet-B2    18.5824 eV   66.72 nm  f=0.0176  <S**2>=0.000
       6 -> 20         0.70141

 Excited State  59:      Singlet-A1    18.7559 eV   66.10 nm  f=0.0610  <S**2>=0.000
       4 -> 14         0.65562
       4 -> 15         0.12776
       6 -> 21         0.14928
       8 -> 27         0.12113

 Excited State  60:      Singlet-A1    19.1317 eV   64.81 nm  f=0.0008  <S**2>=0.000
       4 -> 15        -0.39137
       6 -> 19        -0.18925
       6 -> 21         0.44549
       8 -> 27         0.29021

 Excited State  61:      Singlet-B2    19.3250 eV   64.16 nm  f=0.0215  <S**2>=0.000
       4 -> 16         0.67541
       5 -> 19        -0.15569

 Excited State  62:      Singlet-A2    19.3573 eV   64.05 nm  f=0.0000  <S**2>=0.000
       7 -> 22         0.70674

 Excited State  63:      Singlet-A1    19.4247 eV   63.83 nm  f=0.0142  <S**2>=0.000
       4 -> 14        -0.19738
       4 -> 15         0.56057
       6 -> 21         0.32102
       8 -> 27         0.12553

 Excited State  64:      Singlet-B1    19.5813 eV   63.32 nm  f=0.1487  <S**2>=0.000
       7 -> 23         0.68627

 Excited State  65:      Singlet-B2    19.6531 eV   63.09 nm  f=0.0013  <S**2>=0.000
       5 -> 19         0.49300
       8 -> 28         0.49796

 Excited State  66:      Singlet-A1    19.6691 eV   63.03 nm  f=0.0400  <S**2>=0.000
       5 -> 20        -0.18315
       6 -> 19        -0.19779
       6 -> 21        -0.36804
       6 -> 25         0.23421
       7 -> 26        -0.20854
       8 -> 27         0.39000

 Excited State  67:      Singlet-B2    19.8990 eV   62.31 nm  f=0.0809  <S**2>=0.000
       4 -> 16        -0.16240
       5 -> 19        -0.46144
       5 -> 21        -0.14249
       8 -> 28         0.46331

 Excited State  68:      Singlet-A1    19.9805 eV   62.05 nm  f=0.0390  <S**2>=0.000
       5 -> 20         0.66224
       6 -> 21        -0.10769
       6 -> 25         0.12879
       8 -> 27         0.10149

 Excited State  69:      Singlet-B2    20.0027 eV   61.98 nm  f=0.0325  <S**2>=0.000
       6 -> 22        -0.35232
       7 -> 24         0.60310

 Excited State  70:      Singlet-A1    20.1817 eV   61.43 nm  f=0.0188  <S**2>=0.000
       6 -> 23         0.69956

 Excited State  71:      Singlet-B2    20.2868 eV   61.12 nm  f=0.0683  <S**2>=0.000
       6 -> 22         0.58281
       7 -> 24         0.30236
       8 -> 30         0.20245

 Excited State  72:      Singlet-A2    20.4409 eV   60.66 nm  f=0.0000  <S**2>=0.000
       4 -> 17         0.70602

 Excited State  73:      Singlet-B2    20.5668 eV   60.28 nm  f=0.0130  <S**2>=0.000
       5 -> 21         0.68596

 Excited State  74:      Singlet-A2    20.7587 eV   59.73 nm  f=0.0000  <S**2>=0.000
       6 -> 24         0.70615

 Excited State  75:      Singlet-B1    20.7609 eV   59.72 nm  f=0.0017  <S**2>=0.000
       7 -> 25         0.69617

 Excited State  76:      Singlet-A1    20.8127 eV   59.57 nm  f=0.0005  <S**2>=0.000
       6 -> 25         0.20583
       7 -> 26         0.61160
       8 -> 29        -0.23072

 Excited State  77:      Singlet-B2    21.0267 eV   58.97 nm  f=0.0649  <S**2>=0.000
       5 -> 23        -0.24959
       6 -> 22        -0.10697
       8 -> 30         0.62192
       8 -> 32        -0.12124

 Excited State  78:      Singlet-A2    21.1026 eV   58.75 nm  f=0.0000  <S**2>=0.000
       8 -> 31         0.70572

 Excited State  79:      Singlet-A1    21.2208 eV   58.43 nm  f=0.1000  <S**2>=0.000
       5 -> 22        -0.10884
       7 -> 26         0.20751
       8 -> 29         0.64618

 Excited State  80:      Singlet-B1    21.2239 eV   58.42 nm  f=0.0425  <S**2>=0.000
       4 -> 18         0.68999
       6 -> 26        -0.12365

 Excited State  81:      Singlet-B1    21.4931 eV   57.69 nm  f=0.0022  <S**2>=0.000
       4 -> 18         0.11481
       6 -> 26         0.69239

 Excited State  82:      Singlet-B2    21.5091 eV   57.64 nm  f=0.0520  <S**2>=0.000
       5 -> 23         0.63709
       8 -> 30         0.17385
       8 -> 32        -0.21232

 Excited State  83:      Singlet-A1    22.0213 eV   56.30 nm  f=0.0051  <S**2>=0.000
       4 -> 19         0.25995
       5 -> 22         0.61934

 Excited State  84:      Singlet-B1    22.1111 eV   56.07 nm  f=0.0536  <S**2>=0.000
       5 -> 24         0.69310

 Excited State  85:      Singlet-A2    22.3714 eV   55.42 nm  f=0.0000  <S**2>=0.000
       7 -> 27         0.70623

 Excited State  86:      Singlet-B2    22.4082 eV   55.33 nm  f=0.1431  <S**2>=0.000
       5 -> 23         0.12185
       5 -> 25         0.25136
       6 -> 27        -0.14955
       8 -> 30         0.10170
       8 -> 32         0.60808

 Excited State  87:      Singlet-A2    22.6832 eV   54.66 nm  f=0.0000  <S**2>=0.000
       5 -> 26         0.70656

 Excited State  88:      Singlet-A1    22.7164 eV   54.58 nm  f=0.4680  <S**2>=0.000
       4 -> 19         0.19914
       6 -> 19         0.10253
       6 -> 25         0.55864
       7 -> 26        -0.12980
       8 -> 27        -0.18356

 Excited State  89:      Singlet-B2    23.1216 eV   53.62 nm  f=0.0438  <S**2>=0.000
       4 -> 20         0.34884
       5 -> 25         0.43867
       6 -> 27         0.41505

 Excited State  90:      Singlet-B2    23.2053 eV   53.43 nm  f=0.0569  <S**2>=0.000
       4 -> 20         0.60631
       5 -> 25        -0.29015
       6 -> 27        -0.18357

 Excited State  91:      Singlet-A1    23.3574 eV   53.08 nm  f=0.0056  <S**2>=0.000
       4 -> 19         0.54822
       4 -> 21         0.32103
       5 -> 22        -0.13306
       5 -> 27        -0.15352
       6 -> 25        -0.14882

 Excited State  92:      Singlet-B2    23.5177 eV   52.72 nm  f=0.1936  <S**2>=0.000
       5 -> 25        -0.36083
       6 -> 27         0.51210
       6 -> 29         0.12659
       8 -> 32         0.20429

 Excited State  93:      Singlet-B1    23.5822 eV   52.58 nm  f=0.0009  <S**2>=0.000
       3 ->  9        -0.22209
       7 -> 28         0.66837

 Excited State  94:      Singlet-B1    23.8294 eV   52.03 nm  f=0.1285  <S**2>=0.000
       3 ->  9        -0.10353
       7 -> 30        -0.11434
       8 -> 33         0.67218

 Excited State  95:      Singlet-A1    24.3078 eV   51.01 nm  f=0.0805  <S**2>=0.000
       4 -> 19        -0.14878
       4 -> 21         0.47873
       4 -> 23         0.14286
       5 -> 27         0.10678
       6 -> 28        -0.43771

 Excited State  96:      Singlet-A2    24.4473 eV   50.71 nm  f=0.0000  <S**2>=0.000
       8 -> 34         0.70670

 Excited State  97:      Singlet-A1    24.5810 eV   50.44 nm  f=0.0105  <S**2>=0.000
       4 -> 19        -0.12090
       4 -> 21         0.22367
       4 -> 23         0.41758
       5 -> 27        -0.18501
       6 -> 28         0.41728
       6 -> 30        -0.12155
       7 -> 31        -0.10492

 Excited State  98:      Singlet-A1    24.7522 eV   50.09 nm  f=0.0207  <S**2>=0.000
       4 -> 21         0.16422
       4 -> 23        -0.16405
       4 -> 25        -0.10602
       5 -> 27         0.53620
       6 -> 28         0.25076
       7 -> 31        -0.26924

 Excited State  99:      Singlet-A2    24.8128 eV   49.97 nm  f=0.0000  <S**2>=0.000
       7 -> 29         0.70664

 Excited State 100:      Singlet-B1    24.8132 eV   49.97 nm  f=0.0575  <S**2>=0.000
       3 ->  9        -0.42502
       7 -> 28        -0.14886
       7 -> 30         0.52961

 Excited State 101:      Singlet-A1    24.8198 eV   49.95 nm  f=0.0457  <S**2>=0.000
       4 -> 19         0.15960
       4 -> 21        -0.20726
       4 -> 23         0.50588
       5 -> 27         0.31610
       6 -> 30         0.11804
       7 -> 31         0.15467

 Excited State 102:      Singlet-B2    24.9406 eV   49.71 nm  f=0.0481  <S**2>=0.000
       4 -> 22         0.68509
       5 -> 28         0.12388

 Excited State 103:      Singlet-B1    25.1712 eV   49.26 nm  f=0.0083  <S**2>=0.000
       3 ->  9         0.45043
       4 -> 26         0.12593
       6 -> 31         0.22121
       7 -> 28         0.13112
       7 -> 30         0.40949
       7 -> 32         0.16583
       8 -> 33         0.11332

 Excited State 104:      Singlet-A2    25.2704 eV   49.06 nm  f=0.0000  <S**2>=0.000
       4 -> 24         0.70694

 Excited State 105:      Singlet-A1    25.4074 eV   48.80 nm  f=0.0041  <S**2>=0.000
       4 -> 23        -0.10342
       4 -> 25         0.10353
       5 -> 27         0.15016
       6 -> 28         0.16860
       6 -> 30        -0.35034
       7 -> 31         0.51766

 Excited State 106:      Singlet-B2    25.6888 eV   48.26 nm  f=0.0305  <S**2>=0.000
       4 -> 22        -0.11615
       5 -> 28         0.48374
       6 -> 29         0.48821

 Excited State 107:      Singlet-B1    25.9016 eV   47.87 nm  f=0.0193  <S**2>=0.000
       4 -> 26        -0.11954
       6 -> 31        -0.46837
       7 -> 32         0.51122

 Excited State 108:      Singlet-B2    25.9896 eV   47.71 nm  f=0.2526  <S**2>=0.000
       5 -> 28        -0.47535
       6 -> 29         0.47724

 Excited State 109:      Singlet-B1    26.0547 eV   47.59 nm  f=0.0778  <S**2>=0.000
       4 -> 26         0.66129
       6 -> 31        -0.21456

 Excited State 110:      Singlet-A1    26.3991 eV   46.97 nm  f=0.4206  <S**2>=0.000
       3 -> 10        -0.14566
       4 -> 21         0.11588
       4 -> 25         0.41807
       6 -> 30         0.44884
       6 -> 32        -0.10621
       7 -> 31         0.14644
       7 -> 34        -0.10384

 Excited State 111:      Singlet-A1    26.6262 eV   46.56 nm  f=0.0001  <S**2>=0.000
       4 -> 25         0.41655
       5 -> 29         0.47938
       6 -> 30        -0.21961
       7 -> 31        -0.15341

 Excited State 112:      Singlet-B1    26.6960 eV   46.44 nm  f=0.4204  <S**2>=0.000
       3 ->  9        -0.19000
       4 -> 26         0.15386
       6 -> 31         0.41407
       7 -> 30        -0.17032
       7 -> 32         0.44709
       8 -> 33        -0.14091

 Excited State 113:      Singlet-A1    26.7412 eV   46.36 nm  f=0.0096  <S**2>=0.000
       3 -> 10         0.68169
       6 -> 32        -0.10992

 Excited State 114:      Singlet-A1    26.8647 eV   46.15 nm  f=0.0303  <S**2>=0.000
       4 -> 25         0.12825
       6 -> 32         0.68168

 Excited State 115:      Singlet-B2    26.9943 eV   45.93 nm  f=0.0000  <S**2>=0.000
       5 -> 30         0.68921

 Excited State 116:      Singlet-A2    27.1392 eV   45.68 nm  f=0.0000  <S**2>=0.000
       5 -> 31         0.70670

 Excited State 117:      Singlet-A1    27.5054 eV   45.08 nm  f=0.0013  <S**2>=0.000
       3 -> 12        -0.12922
       4 -> 25        -0.27617
       4 -> 28         0.13512
       5 -> 29         0.46961
       6 -> 30         0.21975
       7 -> 31         0.18359
       7 -> 34        -0.17312
       8 -> 36        -0.15571

 Excited State 118:      Singlet-B2    27.7517 eV   44.68 nm  f=0.1277  <S**2>=0.000
       4 -> 27         0.34887
       5 -> 32        -0.13404
       7 -> 33         0.58707

 Excited State 119:      Singlet-B2    27.8563 eV   44.51 nm  f=0.0016  <S**2>=0.000
       4 -> 27         0.53986
       5 -> 32         0.35397
       7 -> 33        -0.24622
       8 -> 35         0.12086

 Excited State 120:      Singlet-B2    28.2452 eV   43.90 nm  f=0.0131  <S**2>=0.000
       3 -> 11         0.10041
       4 -> 27        -0.16935
       5 -> 32         0.55526
       7 -> 33         0.23722
       8 -> 35        -0.29594

 Excited State 121:      Singlet-B2    28.3305 eV   43.76 nm  f=0.0004  <S**2>=0.000
       3 -> 11         0.69408

 Excited State 122:      Singlet-A2    28.4476 eV   43.58 nm  f=0.0000  <S**2>=0.000
       6 -> 33         0.70635

 Excited State 123:      Singlet-A1    28.6130 eV   43.33 nm  f=0.0125  <S**2>=0.000
       3 -> 12         0.63409
       4 -> 28         0.23053
       7 -> 34         0.10543

 Excited State 124:      Singlet-A1    28.8762 eV   42.94 nm  f=0.0001  <S**2>=0.000
       4 -> 28        -0.28785
       7 -> 34         0.51784
       8 -> 36        -0.32334

 Excited State 125:      Singlet-A1    29.0499 eV   42.68 nm  f=0.0000  <S**2>=0.000
       3 -> 12        -0.19135
       4 -> 28         0.49156
       7 -> 34         0.36016
       8 -> 36         0.24503

 Excited State 126:      Singlet-B2    29.0566 eV   42.67 nm  f=0.0068  <S**2>=0.000
       4 -> 27        -0.16990
       4 -> 29        -0.14345
       5 -> 32         0.18459
       7 -> 33         0.11849
       8 -> 35         0.59309
       8 -> 37         0.15688

 Excited State 127:      Singlet-B1    29.0672 eV   42.65 nm  f=0.0023  <S**2>=0.000
       3 -> 13         0.68500
       6 -> 34         0.15192

 Excited State 128:      Singlet-B1    29.2154 eV   42.44 nm  f=0.0134  <S**2>=0.000
       3 -> 13        -0.15555
       6 -> 34         0.68852

 Excited State 129:      Singlet-A1    29.5333 eV   41.98 nm  f=0.0020  <S**2>=0.000
       3 -> 14         0.65122
       4 -> 28        -0.10345
       8 -> 36         0.24746

 Excited State 130:      Singlet-B2    29.6153 eV   41.86 nm  f=0.0000  <S**2>=0.000
       4 -> 29         0.23543
       8 -> 37         0.65352

 The electronic state is 1-A1.
 Alpha  occ. eigenvalues --  -18.80469 -10.01241  -0.97879  -0.57367  -0.45295
 Alpha  occ. eigenvalues --   -0.40743  -0.37901  -0.23290
 Alpha virt. eigenvalues --   -0.09873   0.00179   0.05811   0.06025   0.08512
 Alpha virt. eigenvalues --    0.10632   0.13134   0.13189   0.17343   0.20207
 Alpha virt. eigenvalues --    0.26846   0.27409   0.29951   0.33190   0.33362

 Mulliken charges:
               1
     1  C    0.541935
     2  O   -0.266657
     3  H   -0.137639
     4  H   -0.137639
 Sum of Mulliken charges =  -0.00000

 Dipole moment (field-independent basis, Debye):
    X=              0.0000    Y=             -0.0000    Z=             -2.2426  Tot=              2.2426
 Quadrupole moment (field-independent basis, Debye-Ang):
   XX=            -11.7060   YY=            -11.8332   ZZ=            -12.5144
   XY=             -0.0000   XZ=             -0.0000   YZ=             -0.0000

 Normal termination of Gaussian 16 at Mon Mar 21 20:18:57 2022.
