 Gaussian 16, Revision C.01,
 Gaussian 16:  EM64L-G16RevC.01  3-Jul-2019

 ----------------------------------------------------------------------
 #P TD(Nstates=10000) pw91pw91/Gen SCF(maxcycles=100) Int(Grid=ultrafin
 e)
 ----------------------------------------------------------------------

 ---------------------
 xGDB7_00001_tier4.com
 ---------------------
 Symbolic Z-matrix:
 Charge =  0 Multiplicity = 1

                         Standard orientation:
 ---------------------------------------------------------------------
 Center     Atomic      Atomic             Coordinates (Angstroms)
 Number     Number       Type             X           Y           Z
 ---------------------------------------------------------------------
      1          8           0        0.000000   -0.000000    0.116015
      2          1           0        0.000000    0.761895   -0.464058
      3          1           0       -0.000000   -0.761895   -0.464058
 ---------------------------------------------------------------------

 SCF Done:  E(RPW91-PW91) =  -76.3531463694     A.U. after   10 cycles

 Excitation energies and oscillator strengths:

 Excited State   1:      Singlet-B1     6.8873 eV  180.02 nm  f=0.0525  <S**2>=0.000
       5 ->  6         0.70689
 This state for optimization and/or second-order correction.
 Total Energy, E(TD-HF/TD-DFT) =  -76.1000418781
 Copying the excited state density for this state as the 1-particle RhoCI density.

 Excited State   2:      Singlet-A2     8.5424 eV  145.14 nm  f=0.0000  <S**2>=0.000
       5 ->  7         0.70674

 Excited State   3:      Singlet-A1     8.9201 eV  138.99 nm  f=0.0914  <S**2>=0.000
       4 ->  6         0.69949

 Excited State   4:      Singlet-B1     9.9708 eV  124.35 nm  f=0.0034  <S**2>=0.000
       5 ->  9         0.70645

 Excited State   5:      Singlet-A1    10.4685 eV  118.44 nm  f=0.0001  <S**2>=0.000
       4 ->  9        -0.16612
       5 ->  8         0.67487

 Excited State   6:      Singlet-B2    10.5927 eV  117.05 nm  f=0.0103  <S**2>=0.000
       4 ->  7         0.70284

 Excited State   7:      Singlet-A2    11.1252 eV  111.44 nm  f=0.0000  <S**2>=0.000
       5 -> 10         0.70677

 Excited State   8:      Singlet-B1    11.8485 eV  104.64 nm  f=0.0403  <S**2>=0.000
       4 ->  8         0.20900
       5 -> 11         0.67299

 Excited State   9:      Singlet-B1    11.9524 eV  103.73 nm  f=0.0003  <S**2>=0.000
       4 ->  8         0.67480
       5 -> 11        -0.20726

 Excited State  10:      Singlet-A1    12.3367 eV  100.50 nm  f=0.0375  <S**2>=0.000
       3 ->  7        -0.11746
       4 ->  9         0.66804
       5 ->  8         0.13223
       5 -> 14         0.10164

 Excited State  11:      Singlet-B2    12.8859 eV   96.22 nm  f=0.0245  <S**2>=0.000
       3 ->  6         0.63248
       5 -> 12        -0.29926

 Excited State  12:      Singlet-B2    13.0140 eV   95.27 nm  f=0.0298  <S**2>=0.000
       3 ->  6         0.19786
       4 -> 10        -0.39763
       5 -> 12         0.54990

 Excited State  13:      Singlet-B1    13.5503 eV   91.50 nm  f=0.0692  <S**2>=0.000
       5 -> 13         0.70307

 Excited State  14:      Singlet-B2    13.6336 eV   90.94 nm  f=0.3575  <S**2>=0.000
       3 ->  6         0.23907
       4 -> 10         0.56681
       5 -> 12         0.32353

 Excited State  15:      Singlet-A1    13.8467 eV   89.54 nm  f=0.0521  <S**2>=0.000
       4 -> 11         0.70090

 Excited State  16:      Singlet-A1    14.3261 eV   86.54 nm  f=0.0327  <S**2>=0.000
       3 ->  7         0.30443
       5 -> 14         0.63021

 Excited State  17:      Singlet-A2    14.9225 eV   83.09 nm  f=0.0000  <S**2>=0.000
       4 -> 12         0.70707

 Excited State  18:      Singlet-A1    15.0152 eV   82.57 nm  f=0.0000  <S**2>=0.000
       3 ->  7         0.51335
       4 -> 13        -0.43594
       5 -> 14        -0.18257

 Excited State  19:      Singlet-A2    15.9490 eV   77.74 nm  f=0.0000  <S**2>=0.000
       3 ->  8         0.70139

 Excited State  20:      Singlet-B2    16.0119 eV   77.43 nm  f=0.0243  <S**2>=0.000
       3 ->  9         0.70505

 Excited State  21:      Singlet-B1    16.2746 eV   76.18 nm  f=0.0092  <S**2>=0.000
       4 -> 14         0.40277
       5 -> 15         0.57902

 Excited State  22:      Singlet-A2    16.3509 eV   75.83 nm  f=0.0000  <S**2>=0.000
       5 -> 16         0.70087

 Excited State  23:      Singlet-A1    16.3861 eV   75.66 nm  f=0.0389  <S**2>=0.000
       3 ->  7         0.26736
       3 -> 10         0.37457
       4 ->  9         0.10864
       4 -> 13         0.47334
       5 -> 14        -0.17571

 Excited State  24:      Singlet-B1    16.4225 eV   75.50 nm  f=0.2040  <S**2>=0.000
       4 -> 14         0.57540
       5 -> 15        -0.40397

 Excited State  25:      Singlet-A2    17.1719 eV   72.20 nm  f=0.0000  <S**2>=0.000
       5 -> 17         0.70615

 Excited State  26:      Singlet-A1    18.0084 eV   68.85 nm  f=0.2843  <S**2>=0.000
       3 ->  7        -0.17739
       3 -> 10         0.56213
       3 -> 16        -0.11770
       4 -> 13        -0.23011
       4 -> 15         0.20167
       5 -> 14         0.13305

 Excited State  27:      Singlet-B2    18.0765 eV   68.59 nm  f=0.2062  <S**2>=0.000
       3 -> 11         0.66504
       4 -> 16         0.16121
       4 -> 17        -0.12592

 Excited State  28:      Singlet-A1    18.2112 eV   68.08 nm  f=0.0376  <S**2>=0.000
       3 -> 10        -0.17071
       4 -> 15         0.67685

 Excited State  29:      Singlet-B2    18.3965 eV   67.40 nm  f=0.0069  <S**2>=0.000
       3 -> 11        -0.12205
       4 -> 16         0.67356
       4 -> 17         0.16314

 Excited State  30:      Singlet-B1    19.0717 eV   65.01 nm  f=0.1012  <S**2>=0.000
       3 -> 12         0.69955

 Excited State  31:      Singlet-B2    19.3751 eV   63.99 nm  f=0.0086  <S**2>=0.000
       3 -> 13        -0.39343
       4 -> 17         0.56847

 Excited State  32:      Singlet-B2    19.6087 eV   63.23 nm  f=0.0318  <S**2>=0.000
       3 -> 11         0.13887
       3 -> 13         0.57898
       4 -> 17         0.35284

 Excited State  33:      Singlet-A2    20.2343 eV   61.27 nm  f=0.0000  <S**2>=0.000
       3 -> 14         0.70683

 Excited State  34:      Singlet-A2    20.7389 eV   59.78 nm  f=0.0000  <S**2>=0.000
       5 -> 18         0.70673

 Excited State  35:      Singlet-B1    21.5585 eV   57.51 nm  f=0.2208  <S**2>=0.000
       4 -> 20        -0.13113
       5 -> 19         0.68486

 Excited State  36:      Singlet-B2    22.3254 eV   55.54 nm  f=0.0220  <S**2>=0.000
       3 -> 15         0.68664
       4 -> 18         0.15505

 Excited State  37:      Singlet-A1    22.3262 eV   55.53 nm  f=0.0789  <S**2>=0.000
       3 -> 16        -0.17411
       3 -> 17        -0.11167
       4 -> 19         0.17979
       4 -> 21         0.10058
       5 -> 20         0.63869

 Excited State  38:      Singlet-A1    22.7017 eV   54.61 nm  f=0.0037  <S**2>=0.000
       2 ->  6         0.10101
       3 -> 16         0.55405
       3 -> 17         0.33217
       4 -> 19         0.22308
       5 -> 20         0.13022

 Excited State  39:      Singlet-B2    22.8469 eV   54.27 nm  f=0.0054  <S**2>=0.000
       3 -> 15        -0.12404
       4 -> 18         0.54309
       5 -> 22        -0.43342

 Excited State  40:      Singlet-B1    22.9624 eV   53.99 nm  f=0.0008  <S**2>=0.000
       5 -> 21         0.70167

 Excited State  41:      Singlet-A1    23.1255 eV   53.61 nm  f=0.0415  <S**2>=0.000
       3 -> 16        -0.12078
       3 -> 17        -0.10220
       4 -> 19         0.64283
       5 -> 20        -0.20732

 Excited State  42:      Singlet-B2    23.9017 eV   51.87 nm  f=0.3547  <S**2>=0.000
       3 -> 19        -0.14016
       4 -> 18         0.39563
       5 -> 22         0.53619

 Excited State  43:      Singlet-A1    23.9023 eV   51.87 nm  f=0.0238  <S**2>=0.000
       2 ->  6        -0.34228
       3 -> 16        -0.26030
       3 -> 17         0.52997

 Excited State  44:      Singlet-B1    24.4344 eV   50.74 nm  f=0.2721  <S**2>=0.000
       4 -> 20         0.68542
       5 -> 19         0.11981

 Excited State  45:      Singlet-A2    25.0762 eV   49.44 nm  f=0.0000  <S**2>=0.000
       4 -> 22         0.70682

 Excited State  46:      Singlet-A1    25.2097 eV   49.18 nm  f=0.3221  <S**2>=0.000
       2 ->  6        -0.32852
       3 -> 16         0.13275
       3 -> 17        -0.19312
       3 -> 18        -0.14193
       4 -> 21         0.54592

 Excited State  47:      Singlet-A1    25.7912 eV   48.07 nm  f=0.0020  <S**2>=0.000
       2 ->  6         0.46993
       3 -> 16        -0.17369
       3 -> 17         0.15098
       3 -> 18        -0.21754
       4 -> 21         0.35501
       5 -> 20        -0.11484

 Excited State  48:      Singlet-B2    26.5926 eV   46.62 nm  f=0.0280  <S**2>=0.000
       2 ->  7         0.68714
       3 -> 19         0.13281

 Excited State  49:      Singlet-B2    27.5225 eV   45.05 nm  f=0.1063  <S**2>=0.000
       2 ->  7        -0.10629
       3 -> 19         0.65450
       3 -> 21         0.20781

 Excited State  50:      Singlet-A1    27.6342 eV   44.87 nm  f=0.1845  <S**2>=0.000
       2 ->  9         0.46841
       3 -> 18         0.48308
       4 -> 21         0.14910

 Excited State  51:      Singlet-B1    27.8792 eV   44.47 nm  f=0.0096  <S**2>=0.000
       2 ->  8         0.69549
       3 -> 22         0.10859

 Excited State  52:      Singlet-A1    28.0123 eV   44.26 nm  f=0.1532  <S**2>=0.000
       2 ->  9         0.52219
       3 -> 18        -0.42550
       4 -> 21        -0.14297

 Excited State  53:      Singlet-A2    28.1744 eV   44.01 nm  f=0.0000  <S**2>=0.000
       3 -> 20         0.70694

 Excited State  54:      Singlet-B2    29.1129 eV   42.59 nm  f=0.0163  <S**2>=0.000
       2 -> 10         0.70089

 Excited State  55:      Singlet-B1    29.6745 eV   41.78 nm  f=0.2591  <S**2>=0.000
       3 -> 22         0.68958

 Excited State  56:      Singlet-A1    29.7453 eV   41.68 nm  f=0.0062  <S**2>=0.000
       2 -> 11         0.69060
       2 -> 13        -0.10795

 Excited State  57:      Singlet-B2    29.7938 eV   41.61 nm  f=0.3003  <S**2>=0.000
       3 -> 19        -0.16760
       3 -> 21         0.66269

 Excited State  58:      Singlet-A2    30.7359 eV   40.34 nm  f=0.0000  <S**2>=0.000
       2 -> 12         0.70697

 Excited State  59:      Singlet-B1    30.7608 eV   40.31 nm  f=0.0026  <S**2>=0.000
       5 -> 23         0.69914

 Excited State  60:      Singlet-A1    31.5894 eV   39.25 nm  f=0.0120  <S**2>=0.000
       2 -> 13         0.68125
       2 -> 15        -0.11528

 Excited State  61:      Singlet-B1    32.1055 eV   38.62 nm  f=0.0098  <S**2>=0.000
       2 -> 14         0.70349

 Excited State  62:      Singlet-A1    33.0200 eV   37.55 nm  f=0.0194  <S**2>=0.000
       2 -> 15        -0.19484
       4 -> 23         0.66817

 Excited State  63:      Singlet-A2    33.7031 eV   36.79 nm  f=0.0000  <S**2>=0.000
       5 -> 24         0.70676

 Excited State  64:      Singlet-B2    34.3136 eV   36.13 nm  f=0.0120  <S**2>=0.000
       2 -> 16         0.66752
       2 -> 17         0.21722

 Excited State  65:      Singlet-A1    34.6651 eV   35.77 nm  f=0.0150  <S**2>=0.000
       2 -> 13         0.10112
       2 -> 15         0.64486
       4 -> 23         0.15116
       5 -> 25         0.17311

 Excited State  66:      Singlet-B2    35.2608 eV   35.16 nm  f=0.0141  <S**2>=0.000
       2 -> 16        -0.19096
       2 -> 17         0.65213
       3 -> 23        -0.14538
       4 -> 24         0.11763

 Excited State  67:      Singlet-B2    35.8419 eV   34.59 nm  f=0.0017  <S**2>=0.000
       2 -> 16         0.10583
       2 -> 17        -0.11326
       3 -> 23        -0.11321
       4 -> 24         0.67720

 Excited State  68:      Singlet-B2    37.4483 eV   33.11 nm  f=0.0546  <S**2>=0.000
       2 -> 17         0.10040
       2 -> 18         0.21477
       3 -> 23         0.64715
       4 -> 24         0.12050

 Excited State  69:      Singlet-B1    38.6401 eV   32.09 nm  f=0.0062  <S**2>=0.000
       5 -> 26         0.70481

 Excited State  70:      Singlet-A1    39.0108 eV   31.78 nm  f=0.0074  <S**2>=0.000
       2 -> 19         0.61668
       4 -> 26         0.17460
       5 -> 25        -0.28601

 Excited State  71:      Singlet-A1    39.0865 eV   31.72 nm  f=0.0017  <S**2>=0.000
       2 -> 19         0.32216
       3 -> 24         0.34498
       4 -> 26        -0.23910
       5 -> 25         0.46153

 Excited State  72:      Singlet-B2    39.0907 eV   31.72 nm  f=0.0038  <S**2>=0.000
       2 -> 18         0.67101
       3 -> 23        -0.19227

 Excited State  73:      Singlet-B1    40.1009 eV   30.92 nm  f=0.0013  <S**2>=0.000
       2 -> 20         0.47378
       4 -> 25         0.52443

 Excited State  74:      Singlet-B1    40.2373 eV   30.81 nm  f=0.0012  <S**2>=0.000
       2 -> 20         0.52324
       4 -> 25        -0.47105

 Excited State  75:      Singlet-A1    40.3827 eV   30.70 nm  f=0.0286  <S**2>=0.000
       2 -> 19        -0.10967
       3 -> 24         0.53920
       4 -> 26         0.42359

 Excited State  76:      Singlet-A2    41.1246 eV   30.15 nm  f=0.0000  <S**2>=0.000
       2 -> 22         0.70674

 Excited State  77:      Singlet-A1    41.1707 eV   30.11 nm  f=0.0029  <S**2>=0.000
       2 -> 21         0.70215

 Excited State  78:      Singlet-A2    44.0588 eV   28.14 nm  f=0.0000  <S**2>=0.000
       3 -> 25         0.70703

 Excited State  79:      Singlet-B2    44.7770 eV   27.69 nm  f=0.0579  <S**2>=0.000
       3 -> 26         0.70326

 Excited State  80:      Singlet-A1    46.3541 eV   26.75 nm  f=0.0036  <S**2>=0.000
       2 -> 23        -0.34817
       3 -> 24        -0.21511
       3 -> 27         0.14174
       4 -> 26         0.41426
       5 -> 25         0.31095

 Excited State  81:      Singlet-A2    46.8784 eV   26.45 nm  f=0.0000  <S**2>=0.000
       5 -> 27         0.70686

 Excited State  82:      Singlet-B2    49.0703 eV   25.27 nm  f=0.0334  <S**2>=0.000
       4 -> 27         0.68254
       5 -> 29         0.17714

 Excited State  83:      Singlet-A1    50.0416 eV   24.78 nm  f=0.0983  <S**2>=0.000
       2 -> 23         0.59003
       3 -> 24        -0.12513
       3 -> 27         0.24904
       4 -> 26         0.15268
       5 -> 25         0.15461

 Excited State  84:      Singlet-B1    50.0861 eV   24.75 nm  f=0.0817  <S**2>=0.000
       5 -> 28         0.70299

 Excited State  85:      Singlet-B2    51.3158 eV   24.16 nm  f=0.0689  <S**2>=0.000
       2 -> 24         0.25068
       4 -> 27        -0.14850
       5 -> 29         0.63419

 Excited State  86:      Singlet-A1    51.8749 eV   23.90 nm  f=0.0159  <S**2>=0.000
       3 -> 27         0.13349
       4 -> 28         0.69084

 Excited State  87:      Singlet-B2    52.0879 eV   23.80 nm  f=0.1206  <S**2>=0.000
       2 -> 24         0.65805
       5 -> 29        -0.23436

 Excited State  88:      Singlet-A2    52.7030 eV   23.53 nm  f=0.0000  <S**2>=0.000
       4 -> 29         0.70681

 Excited State  89:      Singlet-A1    54.7604 eV   22.64 nm  f=0.0166  <S**2>=0.000
       2 -> 23        -0.12979
       2 -> 26         0.23551
       3 -> 27         0.46997
       4 -> 26        -0.10267
       5 -> 25        -0.11225
       5 -> 30         0.39368

 Excited State  90:      Singlet-A1    55.4619 eV   22.35 nm  f=0.0399  <S**2>=0.000
       2 -> 26        -0.13526
       3 -> 27        -0.34782
       4 -> 32        -0.11856
       5 -> 30         0.57506

 Excited State  91:      Singlet-B2    56.1938 eV   22.06 nm  f=0.0113  <S**2>=0.000
       3 -> 28         0.69889

 Excited State  92:      Singlet-B1    56.3622 eV   22.00 nm  f=0.1243  <S**2>=0.000
       2 -> 25         0.69541
       3 -> 29        -0.11126

 Excited State  93:      Singlet-B1    56.9077 eV   21.79 nm  f=0.0006  <S**2>=0.000
       3 -> 29        -0.37807
       4 -> 30         0.58884

 Excited State  94:      Singlet-A1    57.2245 eV   21.67 nm  f=0.1103  <S**2>=0.000
       2 -> 26         0.64621
       3 -> 27        -0.20376

 Excited State  95:      Singlet-B1    57.4671 eV   21.57 nm  f=0.2083  <S**2>=0.000
       3 -> 29         0.51399
       4 -> 30         0.31454
       5 -> 32         0.35774

 Excited State  96:      Singlet-A2    58.0406 eV   21.36 nm  f=0.0000  <S**2>=0.000
       5 -> 31         0.70446

 Excited State  97:      Singlet-B1    58.6038 eV   21.16 nm  f=0.1895  <S**2>=0.000
       3 -> 29        -0.27271
       4 -> 30        -0.22200
       5 -> 32         0.60796

 Excited State  98:      Singlet-B2    60.1008 eV   20.63 nm  f=0.0162  <S**2>=0.000
       4 -> 31         0.70355

 Excited State  99:      Singlet-A2    60.9571 eV   20.34 nm  f=0.0000  <S**2>=0.000
       3 -> 30         0.70312

 Excited State 100:      Singlet-A1    60.9614 eV   20.34 nm  f=0.2313  <S**2>=0.000
       4 -> 32         0.68556

 Excited State 101:      Singlet-A1    64.3022 eV   19.28 nm  f=0.0001  <S**2>=0.000
       2 -> 28         0.10546
       3 -> 31         0.69185

 Excited State 102:      Singlet-B2    64.6072 eV   19.19 nm  f=0.0738  <S**2>=0.000
       3 -> 32         0.70021

 Excited State 103:      Singlet-B2    65.2675 eV   19.00 nm  f=0.0783  <S**2>=0.000
       2 -> 27         0.70241

 Excited State 104:      Singlet-A2    66.2558 eV   18.71 nm  f=0.0000  <S**2>=0.000
       5 -> 33         0.70488

 Excited State 105:      Singlet-B2    68.8568 eV   18.01 nm  f=0.0096  <S**2>=0.000
       4 -> 33         0.69941

 Excited State 106:      Singlet-A2    68.9927 eV   17.97 nm  f=0.0000  <S**2>=0.000
       2 -> 29         0.70493

 Excited State 107:      Singlet-A1    69.7891 eV   17.77 nm  f=0.0034  <S**2>=0.000
       2 -> 28         0.65136
       3 -> 33        -0.16949
       4 -> 34        -0.11820

 Excited State 108:      Singlet-B1    71.1218 eV   17.43 nm  f=0.1365  <S**2>=0.000
       5 -> 34         0.69466

 Excited State 109:      Singlet-A1    71.6896 eV   17.29 nm  f=0.0071  <S**2>=0.000
       3 -> 33        -0.22281
       4 -> 34         0.66797

 Excited State 110:      Singlet-B1    72.9790 eV   16.99 nm  f=0.0426  <S**2>=0.000
       2 -> 30         0.70248

 Excited State 111:      Singlet-A1    73.8400 eV   16.79 nm  f=0.0286  <S**2>=0.000
       2 -> 28         0.18166
       3 -> 33         0.63833
       4 -> 34         0.19274

 Excited State 112:      Singlet-B2    75.7028 eV   16.38 nm  f=0.0040  <S**2>=0.000
       2 -> 31         0.56797
       3 -> 34         0.41828

 Excited State 113:      Singlet-B2    76.1290 eV   16.29 nm  f=0.0062  <S**2>=0.000
       2 -> 31        -0.42070
       3 -> 34         0.56214

 Excited State 114:      Singlet-A1    76.6329 eV   16.18 nm  f=0.0047  <S**2>=0.000
       2 -> 32         0.70346

 Excited State 115:      Singlet-B2    84.7621 eV   14.63 nm  f=0.0222  <S**2>=0.000
       2 -> 33         0.70389

 Excited State 116:      Singlet-A1    87.9628 eV   14.10 nm  f=0.1344  <S**2>=0.000
       2 -> 34        -0.12069
       4 -> 37        -0.20947
       5 -> 35         0.66068

 Excited State 117:      Singlet-A1    88.5925 eV   13.99 nm  f=0.0382  <S**2>=0.000
       2 -> 34         0.69363
       5 -> 35         0.10894

 Excited State 118:      Singlet-B1    89.4540 eV   13.86 nm  f=0.0784  <S**2>=0.000
       3 -> 36        -0.17849
       4 -> 35         0.65180
       5 -> 37         0.19519

 Excited State 119:      Singlet-A2    89.9415 eV   13.78 nm  f=0.0000  <S**2>=0.000
       4 -> 36         0.70560

 Excited State 120:      Singlet-B2    89.9543 eV   13.78 nm  f=0.2053  <S**2>=0.000
       3 -> 37         0.12353
       5 -> 36         0.68732

 Excited State 121:      Singlet-B1    91.9195 eV   13.49 nm  f=0.0184  <S**2>=0.000
       3 -> 36         0.20168
       4 -> 35        -0.13932
       5 -> 37         0.66234

 Excited State 122:      Singlet-A2    92.0552 eV   13.47 nm  f=0.0000  <S**2>=0.000
       3 -> 35         0.70608

 Excited State 123:      Singlet-B1    95.7334 eV   12.95 nm  f=0.1871  <S**2>=0.000
       3 -> 36         0.63354
       4 -> 35         0.19533
       5 -> 37        -0.14167
       5 -> 38         0.18843

 Excited State 124:      Singlet-A1    96.5980 eV   12.84 nm  f=0.2999  <S**2>=0.000
       4 -> 37         0.66964
       5 -> 35         0.20456

 Excited State 125:      Singlet-B2    98.3887 eV   12.60 nm  f=0.0728  <S**2>=0.000
       3 -> 37         0.69221
       5 -> 36        -0.11081

 Excited State 126:      Singlet-B1   104.9269 eV   11.82 nm  f=0.0472  <S**2>=0.000
       2 -> 35         0.60342
       5 -> 38        -0.35651

 Excited State 127:      Singlet-A1   105.6049 eV   11.74 nm  f=0.0097  <S**2>=0.000
       4 -> 38         0.70505

 Excited State 128:      Singlet-B1   105.7463 eV   11.72 nm  f=0.2778  <S**2>=0.000
       2 -> 35         0.36741
       3 -> 36        -0.13622
       5 -> 38         0.57640

 Excited State 129:      Singlet-A2   106.6252 eV   11.63 nm  f=0.0000  <S**2>=0.000
       2 -> 36         0.70614

 Excited State 130:      Singlet-B2   109.9470 eV   11.28 nm  f=0.0577  <S**2>=0.000
       3 -> 38         0.69529
       4 -> 39         0.10973

 Excited State 131:      Singlet-A1   110.4018 eV   11.23 nm  f=0.0068  <S**2>=0.000
       2 -> 37         0.70538

 Excited State 132:      Singlet-A2   114.1083 eV   10.87 nm  f=0.0000  <S**2>=0.000
       5 -> 39         0.70680

 Excited State 133:      Singlet-B2   117.5547 eV   10.55 nm  f=0.1684  <S**2>=0.000
       3 -> 38        -0.10190
       4 -> 39         0.69501

 Excited State 134:      Singlet-A1   121.2446 eV   10.23 nm  f=0.0898  <S**2>=0.000
       3 -> 39         0.69629

 Excited State 135:      Singlet-A1   121.7227 eV   10.19 nm  f=0.0195  <S**2>=0.000
       2 -> 38         0.69966

 Excited State 136:      Singlet-B2   132.4770 eV    9.36 nm  f=0.0022  <S**2>=0.000
       2 -> 39         0.70691

 The electronic state is 1-A1.
 Alpha  occ. eigenvalues --  -18.78897  -0.92352  -0.49242  -0.34361  -0.27103
 Alpha virt. eigenvalues --   -0.02633   0.04143   0.09252   0.09348   0.13843
 Alpha virt. eigenvalues --    0.16106   0.20458   0.22229   0.25160   0.32237
 Alpha virt. eigenvalues --    0.32869   0.36030   0.49446   0.50310   0.54407

 Mulliken charges:
               1
     1  O   -0.241025
     2  H    0.120513
     3  H    0.120513
 Sum of Mulliken charges =   0.00000

 Dipole moment (field-independent basis, Debye):
    X=             -0.0000    Y=             -0.0000    Z=             -1.8244  Tot=              1.8244
 Quadrupole moment (field-independent basis, Debye-Ang):
   XX=             -7.9095   YY=             -4.6006   ZZ=             -6.6170
   XY=              0.0000   XZ=              0.0000   YZ=              0.0000

 Normal termination of Gaussian 16 at Mon Mar 21 20:11:05 2022.
