 Gaussian 16, Revision C.01,
 Gaussian 16:  EM64L-G16RevC.01  3-Jul-2019

 ----------------------------------------------------------------------
 #P TD(Nstates=10000) pw91pw91/Gen SCF(maxcycles=100) Int(Grid=ultrafin
 e)
 ----------------------------------------------------------------------

 ---------------------
 xGDB7_00001_tier4.com
 ---------------------
 Symbolic Z-matrix:
 Charge =  0 Multiplicity = 1

                         Standard orientation:
 ---------------------------------------------------------------------
 Center     Atomic      Atomic             Coordinates (Angstroms)
 Number     Number       Type             X           Y           Z
 ---------------------------------------------------------------------
      1          7           0        1.111035   -0.177046   -0.052467
      2          6           0       -0.122009    0.419593    0.001774
      3          7           0       -1.267607   -0.121443    0.008098
      4          1           0        1.920558    0.367802    0.180104
      5          1           0        1.180700   -1.165617    0.115308
      6          1           0       -0.065701    1.508813    0.004046
      7          1           0       -1.207497   -1.139126    0.000481
 ---------------------------------------------------------------------

 SCF Done:  E(RPW91-PW91) =  -149.853357367     A.U. after   14 cycles

 Excitation energies and oscillator strengths:

 Excited State   1:      Singlet-A      5.7016 eV  217.45 nm  f=0.0050  <S**2>=0.000
      11 -> 13        -0.11222
      12 -> 13         0.47878
      12 -> 14         0.50705
 This state for optimization and/or second-order correction.
 Total Energy, E(TD-HF/TD-DFT) =  -149.643826054
 Copying the excited state density for this state as the 1-particle RhoCI density.

 Excited State   2:      Singlet-A      5.8862 eV  210.64 nm  f=0.0135  <S**2>=0.000
      11 -> 13         0.45926
      11 -> 14         0.46687
      12 -> 13        -0.13492
      12 -> 14         0.22596

 Excited State   3:      Singlet-A      6.0670 eV  204.36 nm  f=0.0144  <S**2>=0.000
      11 -> 13        -0.36816
      11 -> 14         0.52603
      12 -> 13         0.16336
      12 -> 14        -0.23977

 Excited State   4:      Singlet-A      6.5182 eV  190.21 nm  f=0.0067  <S**2>=0.000
      11 -> 15         0.11031
      12 -> 15         0.69158

 Excited State   5:      Singlet-A      6.7528 eV  183.60 nm  f=0.0497  <S**2>=0.000
      11 -> 15         0.66856
      12 -> 13         0.11982
      12 -> 14        -0.10408
      12 -> 15        -0.12754

 Excited State   6:      Singlet-A      7.0192 eV  176.64 nm  f=0.2106  <S**2>=0.000
      11 -> 13         0.31449
      11 -> 15        -0.15566
      11 -> 16        -0.18547
      12 -> 13         0.37731
      12 -> 14        -0.28799
      12 -> 16         0.29090

 Excited State   7:      Singlet-A      7.2269 eV  171.56 nm  f=0.0515  <S**2>=0.000
      11 -> 16         0.23742
      12 -> 13        -0.14001
      12 -> 14         0.12497
      12 -> 16         0.62482

 Excited State   8:      Singlet-A      7.4300 eV  166.87 nm  f=0.0596  <S**2>=0.000
      11 -> 13         0.11655
      11 -> 15        -0.10299
      11 -> 16         0.63627
      12 -> 13         0.15912
      12 -> 14        -0.11200
      12 -> 16        -0.14587

 Excited State   9:      Singlet-A      8.2449 eV  150.38 nm  f=0.0056  <S**2>=0.000
      12 -> 17         0.70324

 Excited State  10:      Singlet-A      8.4207 eV  147.24 nm  f=0.0115  <S**2>=0.000
      11 -> 17         0.70464

 Excited State  11:      Singlet-A      8.7903 eV  141.05 nm  f=0.0005  <S**2>=0.000
      11 -> 18         0.11449
      12 -> 18         0.69113

 Excited State  12:      Singlet-A      9.0307 eV  137.29 nm  f=0.0324  <S**2>=0.000
      10 -> 13         0.30877
      10 -> 14         0.51786
      11 -> 18        -0.34157
      12 -> 18         0.12644

 Excited State  13:      Singlet-A      9.0505 eV  136.99 nm  f=0.0143  <S**2>=0.000
      10 -> 13         0.21871
      10 -> 14         0.28507
      11 -> 18         0.59958

 Excited State  14:      Singlet-A      9.5027 eV  130.47 nm  f=0.0166  <S**2>=0.000
      11 -> 19        -0.28248
      11 -> 20         0.10734
      12 -> 19         0.60070
      12 -> 20         0.19617

 Excited State  15:      Singlet-A      9.6095 eV  129.02 nm  f=0.0084  <S**2>=0.000
      11 -> 19         0.42142
      12 -> 20         0.56038

 Excited State  16:      Singlet-A      9.6298 eV  128.75 nm  f=0.0019  <S**2>=0.000
       9 -> 13        -0.12687
      10 -> 13         0.11185
      11 -> 19         0.45109
      11 -> 20         0.18944
      12 -> 19         0.26664
      12 -> 20        -0.35185
      12 -> 21         0.10580

 Excited State  17:      Singlet-A      9.7603 eV  127.03 nm  f=0.0028  <S**2>=0.000
       9 -> 13         0.58847
       9 -> 14         0.21846
      10 -> 15         0.24942
      12 -> 20        -0.12759

 Excited State  18:      Singlet-A      9.8029 eV  126.48 nm  f=0.0024  <S**2>=0.000
       9 -> 14        -0.29427
      10 -> 13         0.14363
      10 -> 15         0.58393
      11 -> 20        -0.14493

 Excited State  19:      Singlet-A      9.8174 eV  126.29 nm  f=0.0236  <S**2>=0.000
      10 -> 15         0.12183
      11 -> 19        -0.11539
      11 -> 20         0.65146
      12 -> 19        -0.16901

 Excited State  20:      Singlet-A      9.9461 eV  124.66 nm  f=0.0005  <S**2>=0.000
       9 -> 13        -0.32132
       9 -> 14         0.55505
      10 -> 15         0.26128

 Excited State  21:      Singlet-A     10.1838 eV  121.75 nm  f=0.0569  <S**2>=0.000
       9 -> 13         0.10407
       9 -> 14         0.15597
      10 -> 13         0.41050
      10 -> 14        -0.26020
      10 -> 16         0.10073
      12 -> 19        -0.11989
      12 -> 21         0.39562

 Excited State  22:      Singlet-A     10.3523 eV  119.76 nm  f=0.0252  <S**2>=0.000
       9 -> 14         0.11623
      10 -> 13         0.18017
      10 -> 14        -0.12733
      10 -> 16         0.14932
      11 -> 21         0.54679
      12 -> 21        -0.31705

 Excited State  23:      Singlet-A     10.4785 eV  118.32 nm  f=0.0175  <S**2>=0.000
      10 -> 16         0.63782
      11 -> 21        -0.24592
      12 -> 21        -0.13981

 Excited State  24:      Singlet-A     10.5902 eV  117.07 nm  f=0.1154  <S**2>=0.000
      10 -> 13        -0.25455
      10 -> 14         0.16460
      10 -> 16         0.22889
      11 -> 21         0.31842
      11 -> 22         0.10682
      12 -> 21         0.39724
      12 -> 22         0.14875

 Excited State  25:      Singlet-A     10.6882 eV  116.00 nm  f=0.0121  <S**2>=0.000
       9 -> 15         0.26059
      12 -> 22         0.63508

 Excited State  26:      Singlet-A     10.7856 eV  114.95 nm  f=0.0630  <S**2>=0.000
       9 -> 15         0.56834
      11 -> 22        -0.30982
      12 -> 22        -0.21640

 Excited State  27:      Singlet-A     10.9650 eV  113.07 nm  f=0.1151  <S**2>=0.000
       9 -> 15         0.27901
      11 -> 22         0.52261
      11 -> 23         0.17147
      12 -> 23        -0.31493

 Excited State  28:      Singlet-A     11.0147 eV  112.56 nm  f=0.0741  <S**2>=0.000
       9 -> 15         0.10495
      11 -> 22         0.24025
      11 -> 23         0.13608
      12 -> 22        -0.12523
      12 -> 23         0.61108

 Excited State  29:      Singlet-A     11.2183 eV  110.52 nm  f=0.0460  <S**2>=0.000
       9 -> 16        -0.25267
      11 -> 22        -0.16657
      11 -> 23         0.60656
      12 -> 24         0.15724

 Excited State  30:      Singlet-A     11.4000 eV  108.76 nm  f=0.0648  <S**2>=0.000
       9 -> 16         0.61569
      11 -> 23         0.16127
      12 -> 24         0.28317

 Excited State  31:      Singlet-A     11.5319 eV  107.51 nm  f=0.0040  <S**2>=0.000
      10 -> 17         0.70419

 Excited State  32:      Singlet-A     11.6569 eV  106.36 nm  f=0.0201  <S**2>=0.000
      11 -> 24         0.61192
      12 -> 24        -0.31182

 Excited State  33:      Singlet-A     11.8117 eV  104.97 nm  f=0.0444  <S**2>=0.000
       9 -> 16        -0.16916
      10 -> 19         0.16638
      11 -> 22         0.10281
      11 -> 23        -0.16243
      11 -> 24         0.34125
      12 -> 24         0.50634

 Excited State  34:      Singlet-A     12.1610 eV  101.95 nm  f=0.0487  <S**2>=0.000
      10 -> 18         0.67980
      12 -> 25         0.11931

 Excited State  35:      Singlet-A     12.3474 eV  100.41 nm  f=0.0347  <S**2>=0.000
       8 -> 13        -0.16436
       9 -> 17        -0.16584
      10 -> 18        -0.11626
      12 -> 25         0.63628

 Excited State  36:      Singlet-A     12.3966 eV  100.01 nm  f=0.0699  <S**2>=0.000
       8 -> 13         0.23041
       9 -> 17         0.58901
      11 -> 25         0.19330
      12 -> 25         0.20074

 Excited State  37:      Singlet-A     12.4722 eV   99.41 nm  f=0.0173  <S**2>=0.000
       8 -> 13         0.56450
       9 -> 17        -0.28622
      11 -> 25         0.19837
      12 -> 26         0.19715

 Excited State  38:      Singlet-A     12.5492 eV   98.80 nm  f=0.0154  <S**2>=0.000
       8 -> 13        -0.23241
      11 -> 25         0.26451
      12 -> 25        -0.12771
      12 -> 26         0.56330

 Excited State  39:      Singlet-A     12.5926 eV   98.46 nm  f=0.0065  <S**2>=0.000
       8 -> 13        -0.12990
       8 -> 14         0.65102
      11 -> 25         0.13244
      11 -> 26         0.13843

 Excited State  40:      Singlet-A     12.6695 eV   97.86 nm  f=0.1394  <S**2>=0.000
       8 -> 13        -0.10314
      11 -> 25         0.49314
      11 -> 26        -0.29839
      12 -> 26        -0.33659

 Excited State  41:      Singlet-A     12.7730 eV   97.07 nm  f=0.0486  <S**2>=0.000
       8 -> 14        -0.13609
       9 -> 18        -0.22743
      10 -> 19         0.21686
      11 -> 25         0.19329
      11 -> 26         0.53448
      11 -> 27         0.15688
      12 -> 27        -0.10627

 Excited State  42:      Singlet-A     12.9147 eV   96.00 nm  f=0.0631  <S**2>=0.000
       9 -> 18         0.59818
      10 -> 19        -0.17341
      11 -> 25         0.10388
      11 -> 26         0.20764
      11 -> 27         0.12568

 Excited State  43:      Singlet-A     12.9328 eV   95.87 nm  f=0.0304  <S**2>=0.000
       8 -> 14         0.10166
       9 -> 18         0.21603
      10 -> 19         0.33424
      10 -> 20         0.50253
      12 -> 27        -0.18415

 Excited State  44:      Singlet-A     13.0588 eV   94.94 nm  f=0.0051  <S**2>=0.000
       7 -> 13        -0.16562
       7 -> 14        -0.11169
       9 -> 18         0.15146
      10 -> 19         0.43022
      10 -> 20        -0.35066
      12 -> 27         0.22229

 Excited State  45:      Singlet-A     13.1574 eV   94.23 nm  f=0.0339  <S**2>=0.000
       7 -> 13         0.43413
       7 -> 14        -0.21749
       9 -> 19         0.10111
      10 -> 20        -0.22106
      11 -> 27        -0.18104
      12 -> 27        -0.37066

 Excited State  46:      Singlet-A     13.2572 eV   93.52 nm  f=0.0487  <S**2>=0.000
       7 -> 13         0.48207
       9 -> 19        -0.12310
      10 -> 20         0.15426
      11 -> 27         0.16355
      12 -> 27         0.40226

 Excited State  47:      Singlet-A     13.3414 eV   92.93 nm  f=0.0225  <S**2>=0.000
       7 -> 14        -0.13017
       8 -> 15         0.57755
      10 -> 21         0.18086
      11 -> 27        -0.31594

 Excited State  48:      Singlet-A     13.4693 eV   92.05 nm  f=0.0494  <S**2>=0.000
       7 -> 13         0.11698
       7 -> 14         0.55851
       7 -> 15         0.15317
       8 -> 15         0.18892
       9 -> 19         0.11329
      10 -> 19         0.12994
      10 -> 21        -0.23762

 Excited State  49:      Singlet-A     13.5224 eV   91.69 nm  f=0.0859  <S**2>=0.000
       7 -> 14         0.11260
       8 -> 15        -0.15290
       9 -> 19         0.53437
      10 -> 21         0.35044
      12 -> 27         0.12056

 Excited State  50:      Singlet-A     13.5715 eV   91.36 nm  f=0.1113  <S**2>=0.000
       7 -> 14        -0.23999
       8 -> 15         0.17659
       9 -> 19         0.39645
       9 -> 20        -0.14099
      10 -> 21        -0.38446
      11 -> 27         0.20882

 Excited State  51:      Singlet-A     13.7293 eV   90.31 nm  f=0.0144  <S**2>=0.000
       8 -> 15         0.17476
       8 -> 16         0.36976
      10 -> 21         0.28873
      11 -> 26        -0.11240
      11 -> 27         0.36330
      12 -> 27        -0.17524

 Excited State  52:      Singlet-A     13.8430 eV   89.56 nm  f=0.0416  <S**2>=0.000
       7 -> 15        -0.18927
       9 -> 20         0.64666

 Excited State  53:      Singlet-A     13.9978 eV   88.57 nm  f=0.0053  <S**2>=0.000
      10 -> 22         0.68820

 Excited State  54:      Singlet-A     14.1190 eV   87.81 nm  f=0.0320  <S**2>=0.000
       8 -> 16        -0.12293
      10 -> 23         0.11460
      11 -> 29         0.12224
      12 -> 28         0.65843

 Excited State  55:      Singlet-A     14.1539 eV   87.60 nm  f=0.0535  <S**2>=0.000
       7 -> 15        -0.11797
       8 -> 16         0.36172
      10 -> 23        -0.14455
      11 -> 27        -0.10992
      11 -> 28         0.16630
      12 -> 29         0.49879

 Excited State  56:      Singlet-A     14.1967 eV   87.33 nm  f=0.0255  <S**2>=0.000
       7 -> 15        -0.11604
       8 -> 16         0.16494
       9 -> 21         0.59353
      12 -> 28         0.12114
      12 -> 29        -0.26600

 Excited State  57:      Singlet-A     14.2152 eV   87.22 nm  f=0.0385  <S**2>=0.000
       7 -> 15        -0.13040
       8 -> 16         0.34715
       8 -> 17        -0.10374
       9 -> 21        -0.31329
      10 -> 23         0.28021
      11 -> 27        -0.12956
      12 -> 29        -0.29739

 Excited State  58:      Singlet-A     14.2727 eV   86.87 nm  f=0.0018  <S**2>=0.000
       9 -> 21         0.11166
      10 -> 23         0.34302
      11 -> 28         0.48652
      11 -> 29        -0.29867

 Excited State  59:      Singlet-A     14.3096 eV   86.64 nm  f=0.0046  <S**2>=0.000
       7 -> 15         0.14615
       9 -> 21         0.16423
      10 -> 23         0.49593
      11 -> 28        -0.29685
      11 -> 29         0.13956
      12 -> 28        -0.11291
      12 -> 29         0.23651

 Excited State  60:      Singlet-A     14.3201 eV   86.58 nm  f=0.0867  <S**2>=0.000
       7 -> 15         0.50754
       8 -> 16         0.13339
       9 -> 20         0.12091
      11 -> 28         0.15331
      11 -> 29        -0.14612
      11 -> 30        -0.15753
      12 -> 30         0.18419

 Excited State  61:      Singlet-A     14.4414 eV   85.85 nm  f=0.0260  <S**2>=0.000
       7 -> 15         0.17495
      11 -> 28         0.22891
      11 -> 29         0.45516
      11 -> 30         0.16798
      12 -> 30        -0.35247
      12 -> 32         0.12720

 Excited State  62:      Singlet-A     14.4694 eV   85.69 nm  f=0.0037  <S**2>=0.000
      11 -> 28         0.14502
      11 -> 29         0.27045
      11 -> 30         0.23185
      12 -> 30         0.55866

 Excited State  63:      Singlet-A     14.6795 eV   84.46 nm  f=0.0325  <S**2>=0.000
       7 -> 16         0.25628
      11 -> 28        -0.12792
      11 -> 29        -0.13970
      11 -> 30         0.56370
      12 -> 32        -0.15765

 Excited State  64:      Singlet-A     14.7683 eV   83.95 nm  f=0.0108  <S**2>=0.000
       7 -> 16         0.57451
      10 -> 24        -0.12626
      11 -> 30        -0.12826
      12 -> 31         0.29609

 Excited State  65:      Singlet-A     14.7977 eV   83.79 nm  f=0.0182  <S**2>=0.000
       7 -> 16        -0.22362
      12 -> 31         0.59589
      12 -> 32        -0.22238

 Excited State  66:      Singlet-A     14.8741 eV   83.36 nm  f=0.0361  <S**2>=0.000
       7 -> 16        -0.11497
       8 -> 17         0.10388
       9 -> 22         0.52129
      10 -> 24        -0.41565

 Excited State  67:      Singlet-A     14.9093 eV   83.16 nm  f=0.0125  <S**2>=0.000
       9 -> 22        -0.12497
       9 -> 23         0.12964
      11 -> 29         0.10239
      11 -> 30        -0.11609
      11 -> 31         0.49605
      11 -> 32         0.15153
      12 -> 31        -0.12614
      12 -> 32        -0.35759

 Excited State  68:      Singlet-A     15.0060 eV   82.62 nm  f=0.0742  <S**2>=0.000
       9 -> 23         0.12513
      11 -> 31        -0.41143
      11 -> 32         0.44075
      12 -> 32        -0.30085

 Excited State  69:      Singlet-A     15.0124 eV   82.59 nm  f=0.0194  <S**2>=0.000
       6 -> 13        -0.15167
       6 -> 14        -0.21550
       8 -> 17         0.15184
       9 -> 22         0.24438
      10 -> 24         0.35466
      11 -> 31         0.21098
      11 -> 32         0.30698
      12 -> 32         0.23963

 Excited State  70:      Singlet-A     15.0370 eV   82.45 nm  f=0.0130  <S**2>=0.000
       8 -> 17         0.31422
       9 -> 23         0.54542
      11 -> 32        -0.24734

 Excited State  71:      Singlet-A     15.1826 eV   81.66 nm  f=0.0632  <S**2>=0.000
       7 -> 16         0.11232
       7 -> 17         0.10330
       8 -> 17         0.19772
       8 -> 18         0.17209
       9 -> 22         0.23221
       9 -> 23        -0.20417
      10 -> 24         0.28120
      11 -> 30        -0.11241
      11 -> 32        -0.26054
      12 -> 32        -0.24642

 Excited State  72:      Singlet-A     15.2658 eV   81.22 nm  f=0.0099  <S**2>=0.000
       6 -> 13        -0.30871
       6 -> 14        -0.27861
       6 -> 15        -0.11077
       8 -> 17         0.31262
       8 -> 18        -0.13101
       9 -> 22        -0.13887
       9 -> 23        -0.28733
      10 -> 24        -0.18812

 Excited State  73:      Singlet-A     15.3816 eV   80.61 nm  f=0.0757  <S**2>=0.000
       6 -> 13         0.24128
       6 -> 14         0.34277
       6 -> 15        -0.21366
       7 -> 17         0.19014
       8 -> 17         0.34436
       9 -> 22        -0.10279
      11 -> 32         0.14463
      11 -> 33         0.11735
      12 -> 32         0.12830

 Excited State  74:      Singlet-A     15.4448 eV   80.28 nm  f=0.0214  <S**2>=0.000
       8 -> 18         0.17269
       9 -> 24         0.11199
      12 -> 33         0.65740

 Excited State  75:      Singlet-A     15.5606 eV   79.68 nm  f=0.0024  <S**2>=0.000
       6 -> 13         0.25896
       6 -> 14        -0.24895
       8 -> 18        -0.10936
       9 -> 24         0.56082
      11 -> 33         0.15094

 Excited State  76:      Singlet-A     15.6204 eV   79.37 nm  f=0.0374  <S**2>=0.000
       7 -> 17        -0.11910
       8 -> 18        -0.10278
       9 -> 24        -0.15752
      10 -> 25         0.35510
      11 -> 33         0.49614
      12 -> 34        -0.21997

 Excited State  77:      Singlet-A     15.6449 eV   79.25 nm  f=0.0111  <S**2>=0.000
       6 -> 14        -0.13970
       8 -> 18         0.35414
      10 -> 25         0.49431
      11 -> 33        -0.15606
      12 -> 34         0.22073

 Excited State  78:      Singlet-A     15.7001 eV   78.97 nm  f=0.0655  <S**2>=0.000
       8 -> 18         0.29972
      10 -> 25        -0.26899
      10 -> 26        -0.12404
      11 -> 33         0.37494
      12 -> 34         0.37341

 Excited State  79:      Singlet-A     15.7459 eV   78.74 nm  f=0.0478  <S**2>=0.000
       6 -> 13         0.26018
       6 -> 14        -0.20923
       8 -> 18        -0.26835
       9 -> 24        -0.27730
      10 -> 26         0.18619
      11 -> 34         0.16696
      12 -> 33         0.12062
      12 -> 34         0.30769

 Excited State  80:      Singlet-A     15.8069 eV   78.44 nm  f=0.0670  <S**2>=0.000
       6 -> 13         0.17003
       6 -> 14        -0.15763
       6 -> 15        -0.12039
       7 -> 17        -0.17673
       8 -> 18         0.21104
       9 -> 24        -0.11740
      10 -> 25        -0.13196
      10 -> 26        -0.13313
      11 -> 34         0.44036
      12 -> 34        -0.26315

 Excited State  81:      Singlet-A     15.8571 eV   78.19 nm  f=0.0662  <S**2>=0.000
       6 -> 13        -0.16614
       6 -> 14         0.16451
       7 -> 17        -0.22418
       8 -> 18        -0.17229
       9 -> 24         0.16849
      10 -> 25         0.13636
      10 -> 26        -0.22874
      10 -> 27         0.10907
      11 -> 34         0.36672
      12 -> 34         0.27257

 Excited State  82:      Singlet-A     15.9143 eV   77.91 nm  f=0.0789  <S**2>=0.000
       6 -> 13        -0.11532
       6 -> 14         0.11438
       8 -> 18         0.10513
       9 -> 24         0.10099
      10 -> 26         0.59355
      11 -> 34         0.20112

 Excited State  83:      Singlet-A     16.0771 eV   77.12 nm  f=0.0519  <S**2>=0.000
       6 -> 15         0.39664
       7 -> 17         0.41702
       7 -> 18        -0.15042
      11 -> 34         0.27055

 Excited State  84:      Singlet-A     16.1844 eV   76.61 nm  f=0.0057  <S**2>=0.000
       8 -> 19         0.69855

 Excited State  85:      Singlet-A     16.3001 eV   76.06 nm  f=0.0347  <S**2>=0.000
       6 -> 15        -0.33304
       7 -> 17         0.21708
       8 -> 17        -0.10848
       8 -> 20         0.52006

 Excited State  86:      Singlet-A     16.4680 eV   75.29 nm  f=0.0090  <S**2>=0.000
       7 -> 17         0.13584
       7 -> 18         0.28842
       8 -> 20        -0.19135
       9 -> 25        -0.30503
       9 -> 26         0.11336
      10 -> 27         0.45418

 Excited State  87:      Singlet-A     16.4907 eV   75.18 nm  f=0.0549  <S**2>=0.000
       6 -> 15         0.22694
       6 -> 16        -0.21727
       7 -> 18         0.48463
       8 -> 20         0.26635
      10 -> 27        -0.11262

 Excited State  88:      Singlet-A     16.5678 eV   74.83 nm  f=0.0582  <S**2>=0.000
       6 -> 13         0.13612
       7 -> 17        -0.17856
       8 -> 20         0.13215
       9 -> 25         0.35098
       9 -> 26        -0.16721
      10 -> 27         0.43874
      12 -> 36         0.10718

 Excited State  89:      Singlet-A     16.5821 eV   74.77 nm  f=0.0133  <S**2>=0.000
       7 -> 17        -0.11705

 The electronic state is 1-A.
 Alpha  occ. eigenvalues --  -14.03794 -13.97297  -9.97380  -0.86307  -0.77184
 Alpha  occ. eigenvalues --   -0.56478  -0.49577  -0.46686  -0.36815  -0.33944
 Alpha  occ. eigenvalues --   -0.22444  -0.21817
 Alpha virt. eigenvalues --   -0.01581  -0.00884   0.02020   0.04403   0.08272
 Alpha virt. eigenvalues --    0.10357   0.12726   0.13451   0.15296   0.17437
 Alpha virt. eigenvalues --    0.18226   0.20466   0.23454   0.24185   0.25991

 Mulliken charges:
               1
     1  N    0.140499
     2  C    0.638388
     3  N   -0.146725
     4  H   -0.094383
     5  H   -0.118606
     6  H   -0.372139
     7  H   -0.047034
 Sum of Mulliken charges =   0.00000

 Dipole moment (field-independent basis, Debye):
    X=              3.3835    Y=             -0.7692    Z=              0.5391  Tot=              3.5115
 Quadrupole moment (field-independent basis, Debye-Ang):
   XX=            -20.7053   YY=            -15.0731   ZZ=            -20.6685
   XY=              1.2079   XZ=              1.1011   YZ=             -0.1520

 Normal termination of Gaussian 16 at Mon Mar 21 04:17:47 2022.
