 Gaussian 16, Revision C.01,
 Gaussian 16:  EM64L-G16RevC.01  3-Jul-2019

 ----------------------------------------------------------------------
 #P TD(Nstates=10000) pw91pw91/Gen SCF(maxcycles=100) Int(Grid=ultrafin
 e)
 ----------------------------------------------------------------------

 ---------------------
 xGDB7_00001_tier4.com
 ---------------------
 Symbolic Z-matrix:
 Charge =  0 Multiplicity = 1

                         Standard orientation:
 ---------------------------------------------------------------------
 Center     Atomic      Atomic             Coordinates (Angstroms)
 Number     Number       Type             X           Y           Z
 ---------------------------------------------------------------------
      1          6           0        0.000284   -0.018657   -1.236532
      2          6           0       -0.000055    0.003295    0.218717
      3          6           0       -0.000323    0.021367    1.415619
      4          1           0        0.273656    0.958689   -1.636635
      5          1           0       -0.987794   -0.279414   -1.618263
      6          1           0        0.715256   -0.752703   -1.610700
      7          1           0       -0.000556    0.037402    2.478776
 ---------------------------------------------------------------------

 SCF Done:  E(RPW91-PW91) =  -116.514898260     A.U. after   13 cycles

 Excitation energies and oscillator strengths:

 Excited State   1:      Singlet-A      6.5975 eV  187.93 nm  f=0.0034  <S**2>=0.000
      10 -> 12         0.49506
      11 -> 12         0.50425
 This state for optimization and/or second-order correction.
 Total Energy, E(TD-HF/TD-DFT) =  -116.272445479
 Copying the excited state density for this state as the 1-particle RhoCI density.

 Excited State   2:      Singlet-A      6.5976 eV  187.92 nm  f=0.0034  <S**2>=0.000
      10 -> 12         0.50425
      11 -> 12        -0.49506

 Excited State   3:      Singlet-A      6.7941 eV  182.49 nm  f=0.0000  <S**2>=0.000
      10 -> 13         0.37996
      10 -> 14        -0.32500
      11 -> 13        -0.32504
      11 -> 14        -0.37995

 Excited State   4:      Singlet-A      6.9702 eV  177.88 nm  f=0.0011  <S**2>=0.000
      10 -> 13         0.37283
      10 -> 14         0.33255
      11 -> 13        -0.33253
      11 -> 14         0.37286

 Excited State   5:      Singlet-A      6.9702 eV  177.88 nm  f=0.0011  <S**2>=0.000
      10 -> 13        -0.33255
      10 -> 14         0.37285
      11 -> 13        -0.37284
      11 -> 14        -0.33253

 Excited State   6:      Singlet-A      7.6949 eV  161.12 nm  f=0.0337  <S**2>=0.000
      11 -> 15         0.70199

 Excited State   7:      Singlet-A      7.6949 eV  161.12 nm  f=0.0337  <S**2>=0.000
      10 -> 15         0.70199

 Excited State   8:      Singlet-A      8.3485 eV  148.51 nm  f=0.0368  <S**2>=0.000
      10 -> 16         0.47581
      11 -> 16         0.52025

 Excited State   9:      Singlet-A      8.3486 eV  148.51 nm  f=0.0368  <S**2>=0.000
      10 -> 16         0.52025
      11 -> 16        -0.47581

 Excited State  10:      Singlet-A      8.6871 eV  142.72 nm  f=0.3719  <S**2>=0.000
      10 -> 13        -0.20930
      10 -> 14        -0.24474
      10 -> 17         0.35078
      10 -> 18         0.13382
      11 -> 13        -0.24474
      11 -> 14         0.20930
      11 -> 17        -0.13382
      11 -> 18         0.35078

 Excited State  11:      Singlet-A      9.0423 eV  137.12 nm  f=0.0000  <S**2>=0.000
      10 -> 17         0.17841
      10 -> 18        -0.46687
      11 -> 17         0.46740
      11 -> 18         0.17802

 Excited State  12:      Singlet-A      9.0729 eV  136.65 nm  f=0.0024  <S**2>=0.000
      10 -> 17        -0.18976
      10 -> 18         0.46207
      11 -> 17         0.46174
      11 -> 18         0.18964

 Excited State  13:      Singlet-A      9.0729 eV  136.65 nm  f=0.0024  <S**2>=0.000
      10 -> 17        -0.46181
      10 -> 18        -0.18996
      11 -> 17        -0.18944
      11 -> 18         0.46200

 Excited State  14:      Singlet-A      9.8888 eV  125.38 nm  f=0.0000  <S**2>=0.000
      10 -> 20        -0.49463
      11 -> 19         0.49475

 Excited State  15:      Singlet-A      9.9312 eV  124.84 nm  f=0.0439  <S**2>=0.000
      10 -> 17         0.11387
      10 -> 19         0.45813
      11 -> 18         0.11388
      11 -> 20         0.45772

 Excited State  16:      Singlet-A      9.9680 eV  124.38 nm  f=0.0002  <S**2>=0.000
      10 -> 19        -0.46875
      10 -> 20        -0.13227
      10 -> 21        -0.11941
      11 -> 19        -0.13235
      11 -> 20         0.46964

 Excited State  17:      Singlet-A      9.9681 eV  124.38 nm  f=0.0002  <S**2>=0.000
      10 -> 19        -0.13321
      10 -> 20         0.46911
      11 -> 19         0.46926
      11 -> 20         0.13140
      11 -> 21        -0.11945

 Excited State  18:      Singlet-A     10.1071 eV  122.67 nm  f=0.7587  <S**2>=0.000
       8 -> 14        -0.14296
       9 -> 13        -0.14299
      10 -> 13         0.19410
      10 -> 14         0.22682
      10 -> 17         0.26345
      10 -> 18         0.10049
      10 -> 19        -0.17573
      11 -> 13         0.22682
      11 -> 14        -0.19410
      11 -> 17        -0.10051
      11 -> 18         0.26345
      11 -> 20        -0.17582

 Excited State  19:      Singlet-A     10.1358 eV  122.32 nm  f=0.0265  <S**2>=0.000
      10 -> 21        -0.28848
      11 -> 21         0.62467

 Excited State  20:      Singlet-A     10.1358 eV  122.32 nm  f=0.0265  <S**2>=0.000
      10 -> 21         0.62468
      11 -> 21         0.28848

 Excited State  21:      Singlet-A     10.8152 eV  114.64 nm  f=0.0940  <S**2>=0.000
       9 -> 12         0.69719

 Excited State  22:      Singlet-A     10.8153 eV  114.64 nm  f=0.0940  <S**2>=0.000
       8 -> 12         0.69719

 Excited State  23:      Singlet-A     10.8869 eV  113.88 nm  f=0.0000  <S**2>=0.000
       8 -> 13        -0.42136
       8 -> 14         0.26898
       9 -> 13         0.26910
       9 -> 14         0.42152

 Excited State  24:      Singlet-A     11.0567 eV  112.13 nm  f=0.0214  <S**2>=0.000
       7 -> 13        -0.12676
       8 -> 13        -0.21711
       8 -> 14        -0.43250
       9 -> 13         0.43252
       9 -> 14        -0.21718

 Excited State  25:      Singlet-A     11.0567 eV  112.13 nm  f=0.0214  <S**2>=0.000
       7 -> 14         0.12677
       8 -> 13         0.43260
       8 -> 14        -0.21721
       9 -> 13         0.21708
       9 -> 14         0.43240

 Excited State  26:      Singlet-A     11.2679 eV  110.03 nm  f=0.0025  <S**2>=0.000
      10 -> 22         0.13304
      10 -> 23        -0.47590
      11 -> 22         0.48859
      11 -> 23         0.11802

 Excited State  27:      Singlet-A     11.2680 eV  110.03 nm  f=0.0025  <S**2>=0.000
      10 -> 22         0.48566
      10 -> 23         0.12850
      11 -> 22        -0.12277
      11 -> 23         0.47893

 Excited State  28:      Singlet-A     11.2698 eV  110.01 nm  f=0.0000  <S**2>=0.000
      10 -> 22        -0.37546
      10 -> 23        -0.33050
      11 -> 22        -0.31375
      11 -> 23         0.38892

 Excited State  29:      Singlet-A     11.2859 eV  109.86 nm  f=0.0338  <S**2>=0.000
       7 -> 12         0.69842

 Excited State  30:      Singlet-A     11.4958 eV  107.85 nm  f=0.0007  <S**2>=0.000
       7 -> 13         0.46562
      10 -> 24        -0.39246
      11 -> 24        -0.33781

 Excited State  31:      Singlet-A     11.4958 eV  107.85 nm  f=0.0007  <S**2>=0.000
       7 -> 14         0.46567
      10 -> 24        -0.33775
      11 -> 24         0.39244

 Excited State  32:      Singlet-A     11.7273 eV  105.72 nm  f=0.0267  <S**2>=0.000
       8 -> 13         0.22382
       8 -> 14         0.35057
       9 -> 13         0.35055
       9 -> 14        -0.22373
      10 -> 25         0.12524
      11 -> 26        -0.12523

 Excited State  33:      Singlet-A     11.7771 eV  105.28 nm  f=0.0058  <S**2>=0.000
       9 -> 15         0.70576

 Excited State  34:      Singlet-A     11.7772 eV  105.27 nm  f=0.0058  <S**2>=0.000
       8 -> 15         0.70576

 Excited State  35:      Singlet-A     11.8886 eV  104.29 nm  f=0.0104  <S**2>=0.000
       7 -> 13         0.49651
      10 -> 24         0.34059
      11 -> 24         0.32719

 Excited State  36:      Singlet-A     11.8886 eV  104.29 nm  f=0.0104  <S**2>=0.000
       7 -> 14         0.49646
      10 -> 24         0.32725
      11 -> 24        -0.34061

 Excited State  37:      Singlet-A     12.1485 eV  102.06 nm  f=0.1574  <S**2>=0.000
       7 -> 15         0.42409
      10 -> 22         0.22868
      10 -> 23        -0.27133
      11 -> 22        -0.27131
      11 -> 23        -0.22867

 Excited State  38:      Singlet-A     12.4054 eV   99.94 nm  f=0.0018  <S**2>=0.000
       9 -> 16         0.70146

 Excited State  39:      Singlet-A     12.4055 eV   99.94 nm  f=0.0018  <S**2>=0.000
       8 -> 16         0.70146

 Excited State  40:      Singlet-A     12.4726 eV   99.40 nm  f=0.0074  <S**2>=0.000
       6 -> 12         0.11626
       6 -> 15         0.11314
       7 -> 15         0.54736
      10 -> 22        -0.15468
      10 -> 23         0.18354
      11 -> 22         0.18352
      11 -> 23         0.15468

 Excited State  41:      Singlet-A     12.9383 eV   95.83 nm  f=0.0010  <S**2>=0.000
       6 -> 12         0.67481
       7 -> 16         0.14360

 Excited State  42:      Singlet-A     13.0341 eV   95.12 nm  f=0.1926  <S**2>=0.000
       6 -> 12        -0.13189
       7 -> 16         0.67666

 Excited State  43:      Singlet-A     13.0560 eV   94.96 nm  f=0.0000  <S**2>=0.000
      10 -> 26         0.48542
      11 -> 25         0.48555

 Excited State  44:      Singlet-A     13.1297 eV   94.43 nm  f=0.0019  <S**2>=0.000
      10 -> 25         0.40841
      10 -> 27         0.18178
      10 -> 28        -0.19665
      11 -> 26        -0.40836
      11 -> 27        -0.19664
      11 -> 28        -0.18178

 Excited State  45:      Singlet-A     13.1419 eV   94.34 nm  f=0.0000  <S**2>=0.000
       8 -> 17         0.11147
       8 -> 18        -0.48700
       9 -> 17         0.48740
       9 -> 18         0.11156

 Excited State  46:      Singlet-A     13.2361 eV   93.67 nm  f=0.0107  <S**2>=0.000
       6 -> 14         0.34045
       8 -> 17        -0.12008
       8 -> 18         0.16030
       9 -> 17         0.16009
       9 -> 18         0.12004
      10 -> 26         0.37054
      11 -> 25        -0.37045

 Excited State  47:      Singlet-A     13.2361 eV   93.67 nm  f=0.0107  <S**2>=0.000
       6 -> 13        -0.34044
       8 -> 17        -0.16033
       8 -> 18        -0.12017
       9 -> 17        -0.12008
       9 -> 18         0.16035
      10 -> 25         0.37040
      11 -> 26         0.37043

 Excited State  48:      Singlet-A     13.2947 eV   93.26 nm  f=0.0657  <S**2>=0.000
       6 -> 13        -0.13381
       6 -> 14         0.17749
       8 -> 17         0.37909
       8 -> 18        -0.23390
       9 -> 17        -0.23366
       9 -> 18        -0.37904
      10 -> 26         0.10927
      11 -> 25        -0.10929

 Excited State  49:      Singlet-A     13.2947 eV   93.26 nm  f=0.0657  <S**2>=0.000
       6 -> 13        -0.17762
       6 -> 14        -0.13377
       8 -> 17         0.23366
       8 -> 18         0.37918
       9 -> 17         0.37894
       9 -> 18        -0.23375
      10 -> 25         0.10941
      11 -> 26         0.10938

 Excited State  50:      Singlet-A     13.4691 eV   92.05 nm  f=0.0000  <S**2>=0.000
       6 -> 14         0.29562
      10 -> 26        -0.12831
      10 -> 27         0.32584
      10 -> 28         0.27819
      11 -> 25         0.12845
      11 -> 27        -0.27871
      11 -> 28         0.32636

 Excited State  51:      Singlet-A     13.4691 eV   92.05 nm  f=0.0000  <S**2>=0.000
       6 -> 13        -0.29554
      10 -> 25        -0.12836
      10 -> 27         0.27873
      10 -> 28        -0.32591
      11 -> 26        -0.12836
      11 -> 27         0.32639
      11 -> 28         0.27823

 Excited State  52:      Singlet-A     13.4816 eV   91.97 nm  f=0.0000  <S**2>=0.000
      10 -> 26        -0.10420
      10 -> 27         0.35906
      10 -> 28         0.33227
      11 -> 25        -0.10398
      11 -> 27         0.33147
      11 -> 28        -0.35887

 Excited State  53:      Singlet-A     13.6370 eV   90.92 nm  f=0.0023  <S**2>=0.000
       7 -> 17         0.17939
       7 -> 18         0.30349
      10 -> 29         0.45075
      11 -> 29         0.35901

 Excited State  54:      Singlet-A     13.6372 eV   90.92 nm  f=0.0023  <S**2>=0.000
       7 -> 17        -0.30420
       7 -> 18         0.17976
      10 -> 29        -0.35871
      11 -> 29         0.45046

 Excited State  55:      Singlet-A     13.7110 eV   90.43 nm  f=0.0181  <S**2>=0.000
       7 -> 17         0.38969
       7 -> 18         0.45700
      10 -> 29        -0.31835
      11 -> 29        -0.17377

 Excited State  56:      Singlet-A     13.7110 eV   90.43 nm  f=0.0181  <S**2>=0.000
       7 -> 17         0.45654
       7 -> 18        -0.38955
      10 -> 29        -0.17440
      11 -> 29         0.31884

 Excited State  57:      Singlet-A     13.9437 eV   88.92 nm  f=0.0052  <S**2>=0.000
       8 -> 17        -0.28728
       8 -> 19         0.38306
       9 -> 18        -0.28727
       9 -> 20         0.38331

 Excited State  58:      Singlet-A     14.0163 eV   88.46 nm  f=0.0000  <S**2>=0.000
       8 -> 20        -0.49949
       9 -> 19         0.50028

 Excited State  59:      Singlet-A     14.0423 eV   88.29 nm  f=0.1625  <S**2>=0.000
       6 -> 15         0.41226
       7 -> 21        -0.14126
       8 -> 17         0.14363
       9 -> 18         0.14363
      10 -> 25        -0.14786
      10 -> 27         0.20359
      10 -> 28        -0.21916
      11 -> 26         0.14770
      11 -> 27        -0.22037
      11 -> 28        -0.20275

 Excited State  60:      Singlet-A     14.0503 eV   88.24 nm  f=0.0778  <S**2>=0.000
       6 -> 14         0.33059
       8 -> 19        -0.11815
       8 -> 20         0.27405
       8 -> 21        -0.10195
       9 -> 19         0.27299
       9 -> 20         0.11841
       9 -> 21         0.11015
      10 -> 26        -0.17075
      10 -> 27        -0.14138
      10 -> 28        -0.10269
      11 -> 25         0.17080
      11 -> 27         0.10108
      11 -> 28        -0.14294
      11 -> 29         0.11182

 Excited State  61:      Singlet-A     14.0504 eV   88.24 nm  f=0.0778  <S**2>=0.000
       6 -> 13         0.33053
       8 -> 19         0.27364
       8 -> 20         0.11838
       8 -> 21        -0.11024
       9 -> 19         0.11804
       9 -> 20        -0.27336
       9 -> 21        -0.10211
      10 -> 25         0.17059
      10 -> 27         0.10206
      10 -> 28        -0.14246
      10 -> 29        -0.11206
      11 -> 26         0.17100
      11 -> 27         0.14173
      11 -> 28         0.10162

 Excited State  62:      Singlet-A     14.2130 eV   87.23 nm  f=0.0371  <S**2>=0.000
       6 -> 13         0.12984
       6 -> 14        -0.13060
       8 -> 21        -0.13625
       9 -> 21         0.60906

 Excited State  63:      Singlet-A     14.2131 eV   87.23 nm  f=0.0371  <S**2>=0.000
       6 -> 13         0.13053
       6 -> 14         0.12978
       8 -> 21         0.60915
       9 -> 21         0.13632

 Excited State  64:      Singlet-A     14.3116 eV   86.63 nm  f=0.0283  <S**2>=0.000
       6 -> 15         0.35103
       6 -> 16         0.26201
       8 -> 17        -0.23494
       8 -> 19        -0.24642
       9 -> 18        -0.23492
       9 -> 20        -0.24643
      10 -> 31         0.11681
      11 -> 30         0.11681

 Excited State  65:      Singlet-A     14.5409 eV   85.27 nm  f=0.0310  <S**2>=0.000
       6 -> 15         0.30722
       7 -> 21         0.11049
       7 -> 24        -0.12870
       8 -> 17         0.18721
       8 -> 19         0.17993
       9 -> 18         0.18718
       9 -> 20         0.17995
      10 -> 27        -0.12296
      10 -> 28         0.13300
      10 -> 31         0.22296
      11 -> 27         0.13299
      11 -> 28         0.12296
      11 -> 30         0.22299

 Excited State  66:      Singlet-A     14.5578 eV   85.17 nm  f=0.0026  <S**2>=0.000
       7 -> 19         0.70414

 Excited State  67:      Singlet-A     14.5578 eV   85.17 nm  f=0.0026  <S**2>=0.000
       7 -> 20         0.70414

 Excited State  68:      Singlet-A     14.7223 eV   84.22 nm  f=0.0127  <S**2>=0.000
       6 -> 16         0.49982
       7 -> 21         0.43793
      10 -> 31        -0.10707
      11 -> 30        -0.10694

 Excited State  69:      Singlet-A     14.7440 eV   84.09 nm  f=0.4815  <S**2>=0.000
       6 -> 13        -0.17965
       6 -> 18         0.12019
       8 -> 19         0.29564
       8 -> 21         0.13846
       9 -> 20        -0.29553
       9 -> 21         0.18816
      10 -> 25        -0.10733
      10 -> 31        -0.17454
      10 -> 32        -0.10960
      10 -> 34        -0.11343
      11 -> 26        -0.10733
      11 -> 30         0.17456
      11 -> 32        -0.11209
      11 -> 34        -0.11600

 Excited State  70:      Singlet-A     14.7441 eV   84.09 nm  f=0.4816  <S**2>=0.000
       6 -> 14        -0.17964
       6 -> 17         0.12022
       8 -> 20         0.29562
       8 -> 21         0.18821
       9 -> 19         0.29545
       9 -> 21        -0.13869
      10 -> 26         0.10733
      10 -> 30        -0.17455
      10 -> 32        -0.11215
      10 -> 34        -0.11599
      11 -> 25        -0.10731
      11 -> 31        -0.17457
      11 -> 32         0.10964
      11 -> 34         0.11341

 Excited State  71:      Singlet-A     14.8776 eV   83.34 nm  f=0.0000  <S**2>=0.000
      10 -> 30         0.46701
      10 -> 31         0.17889
      11 -> 30         0.17842
      11 -> 31        -0.46680

 Excited State  72:      Singlet-A     14.9215 eV   83.09 nm  f=0.0335  <S**2>=0.000
       8 -> 19        -0.13297
       9 -> 20         0.13294
      10 -> 31        -0.44389
      11 -> 30         0.44403

 Excited State  73:      Singlet-A     14.9216 eV   83.09 nm  f=0.0335  <S**2>=0.000
       8 -> 20         0.13295
       9 -> 19         0.13289
      10 -> 30         0.44382
      11 -> 31         0.44407

 Excited State  74:      Singlet-A     15.0874 eV   82.18 nm  f=0.0960  <S**2>=0.000
       6 -> 18         0.11564
      10 -> 32         0.33646
      11 -> 32         0.58087

 Excited State  75:      Singlet-A     15.0874 eV   82.18 nm  f=0.0960  <S**2>=0.000
       6 -> 17         0.11562
      10 -> 32         0.58086
      11 -> 32        -0.33645

 Excited State  76:      Singlet-A     15.2997 eV   81.04 nm  f=0.0008  <S**2>=0.000
       6 -> 15        -0.19404
       6 -> 16         0.22487
       7 -> 21        -0.22479
       7 -> 24         0.11606
       8 -> 22         0.20263
       8 -> 23        -0.18157
       9 -> 22        -0.18195
       9 -> 23        -0.20275
      10 -> 31         0.25287
      11 -> 30         0.25283

 Excited State  77:      Singlet-A     15.3605 eV   80.72 nm  f=0.0041  <S**2>=0.000
      10 -> 33         0.65140
      11 -> 33        -0.26627

 Excited State  78:      Singlet-A     15.3605 eV   80.72 nm  f=0.0041  <S**2>=0.000
      10 -> 33         0.26638
      11 -> 33         0.65142

 Excited State  79:      Singlet-A     15.3641 eV   80.70 nm  f=0.0000  <S**2>=0.000
       8 -> 22         0.33123
       8 -> 23         0.36740
       9 -> 22         0.37706
       9 -> 23        -0.33632

 Excited State  80:      Singlet-A     15.3691 eV   80.67 nm  f=0.0120  <S**2>=0.000
       8 -> 22         0.48992
       9 -> 23         0.48576

 Excited State  81:      Singlet-A     15.3692 eV   80.67 nm  f=0.0120  <S**2>=0.000
       8 -> 23         0.49097
       9 -> 22        -0.48457

 Excited State  82:      Singlet-A     15.3855 eV   80.59 nm  f=0.0198  <S**2>=0.000
       6 -> 16        -0.30293
       7 -> 21         0.38953
       8 -> 22         0.20159
       8 -> 23        -0.18112
       9 -> 22        -0.17992
       9 -> 23        -0.20101

 Excited State  83:      Singlet-A     15.4680 eV   80.16 nm  f=0.0075  <S**2>=0.000
       6 -> 17         0.55878
       6 -> 18         0.25577
      10 -> 34         0.32518

 Excited State  84:      Singlet-A     15.4680 eV   80.16 nm  f=0.0075  <S**2>=0.000
       6 -> 17        -0.25580
       6 -> 18         0.55876
      11 -> 34         0.32519

 Excited State  85:      Singlet-A     15.6996 eV   78.97 nm  f=0.0032  <S**2>=0.000
       9 -> 24         0.67361
      11 -> 34        -0.10922

 Excited State  86:      Singlet-A     15.6997 eV   78.97 nm  f=0.0032  <S**2>=0.000
       8 -> 24         0.67360
      10 -> 34        -0.10923

 Excited State  87:      Singlet-A     15.7471 eV   78.73 nm  f=0.0785  <S**2>=0.000
       6 -> 18        -0.19555
       7 -> 23         0.36735
      10 -> 34         0.34282
      11 -> 34         0.39001

 Excited State  88:      Singlet-A     15.7471 eV   78.73 nm  f=0.0784  <S**2>=0.000
       6 -> 17        -0.19545
       7 -> 22        -0.36743
      10 -> 34         0.39000
      11 -> 34        -0.34280

 Excited State  89:      Singlet-A     15.7557 eV   78.69 nm  f=0.0216  <S**2>=0.000
       6 -> 15        -0.11791
       6 -> 21        -0.11045
       6 -> 24        -0.10417
       7 -> 21         0.17712
       8 -> 22        -0.22977
       8 -> 23         0.20606
       9 -> 22         0.20604
       9 -> 23         0.22984
      10 -> 31         0.24156
      11 -> 30         0.24156

 Excited State  90:      Singlet-A     16.0002 eV   77.49 nm  f=0.0274  <S**2>=0.000
       7 -> 22         0.14023
       7 -> 23         0.32222
      10 -> 35         0.23561
      11 -> 34        -0.12470
      11 -> 35         0.47461
      11 -> 36         0.15862

 Excited State  91:      Singlet-A     16.0002 eV   77.49 nm  f=0.0275  <S**2>=0.000
       7 -> 22        -0.32281
       7 -> 23         0.14013
      10 -> 34        -0.12478
      10 -> 35         0.47434
      10 -> 36         0.15860
      11 -> 35        -0.23520

 Excited State  92:      Singlet-A     16.0600 eV   77.20 nm  f=0.2925  <S**2>=0.000

 The electronic state is 1-A.
 Alpha  occ. eigenvalues --   -9.93344  -9.91235  -9.89810  -0.70501  -0.63055
 Alpha  occ. eigenvalues --   -0.47336  -0.41022  -0.39132  -0.39132  -0.24100
 Alpha  occ. eigenvalues --   -0.24100
 Alpha virt. eigenvalues --    0.00042   0.00869   0.00869   0.04088   0.06331
 Alpha virt. eigenvalues --    0.09142   0.09142   0.12347   0.12347   0.12934
 Alpha virt. eigenvalues --    0.17331   0.17331   0.17899   0.24432   0.24432

 Mulliken charges:
               1
     1  C    0.468010
     2  C    0.913574
     3  C   -1.077124
     4  H   -0.059147
     5  H   -0.059156
     6  H   -0.059167
     7  H   -0.126990
 Sum of Mulliken charges =  -0.00000

 Dipole moment (field-independent basis, Debye):
    X=              0.0002    Y=             -0.0124    Z=             -0.8211  Tot=              0.8212
 Quadrupole moment (field-independent basis, Debye-Ang):
   XX=            -19.5626   YY=            -19.5614   ZZ=            -14.5296
   XY=             -0.0000   XZ=             -0.0011   YZ=              0.0759

 Normal termination of Gaussian 16 at Mon Mar 21 20:15:24 2022.
