 Gaussian 16, Revision C.01,
 Gaussian 16:  EM64L-G16RevC.01  3-Jul-2019

 ----------------------------------------------------------------------
 #P TD(Nstates=10000) pw91pw91/Gen SCF(maxcycles=100) Int(Grid=ultrafin
 e)
 ----------------------------------------------------------------------

 ---------------------
 xGDB7_00001_tier4.com
 ---------------------
 Symbolic Z-matrix:
 Charge =  0 Multiplicity = 1

                         Standard orientation:
 ---------------------------------------------------------------------
 Center     Atomic      Atomic             Coordinates (Angstroms)
 Number     Number       Type             X           Y           Z
 ---------------------------------------------------------------------
      1          6           0        0.630149   -0.000001   -0.000003
      2          9           0       -0.748512    0.000002    0.000001
      3          1           0        0.985250    0.897475   -0.509314
      4          1           0        0.985222   -0.889832   -0.522562
      5          1           0        0.985245   -0.007652    1.031883
 ---------------------------------------------------------------------

 SCF Done:  E(RPW91-PW91) =  -139.596362493     A.U. after   11 cycles

 Excitation energies and oscillator strengths:

 Excited State   1:      Singlet-A      8.2208 eV  150.82 nm  f=0.0158  <S**2>=0.000
       9 -> 10         0.70641
 This state for optimization and/or second-order correction.
 Total Energy, E(TD-HF/TD-DFT) =  -139.294255171
 Copying the excited state density for this state as the 1-particle RhoCI density.

 Excited State   2:      Singlet-A      8.2208 eV  150.82 nm  f=0.0158  <S**2>=0.000
       8 -> 10         0.70641

 Excited State   3:      Singlet-A      9.1034 eV  136.20 nm  f=0.0127  <S**2>=0.000
       9 -> 11         0.70595

 Excited State   4:      Singlet-A      9.1034 eV  136.20 nm  f=0.0127  <S**2>=0.000
       8 -> 11         0.70595

 Excited State   5:      Singlet-A     10.0985 eV  122.77 nm  f=0.0000  <S**2>=0.000
       8 -> 13        -0.49467
       9 -> 12         0.49518

 Excited State   6:      Singlet-A     10.1592 eV  122.04 nm  f=0.0252  <S**2>=0.000
       8 -> 13         0.49602
       9 -> 12         0.49553

 Excited State   7:      Singlet-A     10.1592 eV  122.04 nm  f=0.0252  <S**2>=0.000
       8 -> 12        -0.49577
       9 -> 13         0.49578

 Excited State   8:      Singlet-A     10.3800 eV  119.44 nm  f=0.0944  <S**2>=0.000
       8 -> 12         0.48634
       9 -> 13         0.48631

 Excited State   9:      Singlet-A     11.3374 eV  109.36 nm  f=0.0115  <S**2>=0.000
       9 -> 14         0.69399

 Excited State  10:      Singlet-A     11.3374 eV  109.36 nm  f=0.0115  <S**2>=0.000
       8 -> 14         0.69397

 Excited State  11:      Singlet-A     11.4623 eV  108.17 nm  f=0.0000  <S**2>=0.000
       8 -> 15         0.49706
       9 -> 16         0.49703

 Excited State  12:      Singlet-A     11.6936 eV  106.03 nm  f=0.0025  <S**2>=0.000
       8 -> 16        -0.47002
       8 -> 17        -0.14821
       9 -> 15         0.47096
       9 -> 18        -0.14819

 Excited State  13:      Singlet-A     11.7233 eV  105.76 nm  f=0.0228  <S**2>=0.000
       6 -> 10        -0.12482
       7 -> 10        -0.16977
       8 -> 15        -0.13774
       8 -> 16         0.44844
       9 -> 15         0.44760
       9 -> 16         0.13782

 Excited State  14:      Singlet-A     11.7233 eV  105.76 nm  f=0.0228  <S**2>=0.000
       6 -> 10         0.16973
       7 -> 10        -0.12486
       8 -> 15         0.44802
       8 -> 16         0.13800
       9 -> 15         0.13755
       9 -> 16        -0.44801

 Excited State  15:      Singlet-A     11.9540 eV  103.72 nm  f=0.1555  <S**2>=0.000
       7 -> 10         0.66709
       8 -> 16         0.12609
       9 -> 15         0.12609

 Excited State  16:      Singlet-A     11.9541 eV  103.72 nm  f=0.1555  <S**2>=0.000
       6 -> 10         0.66711
       8 -> 15        -0.12603
       9 -> 16         0.12604

 Excited State  17:      Singlet-A     12.2156 eV  101.50 nm  f=0.0000  <S**2>=0.000
       8 -> 18        -0.49911
       9 -> 17         0.50031

 Excited State  18:      Singlet-A     12.2573 eV  101.15 nm  f=0.0006  <S**2>=0.000
       8 -> 18         0.49728
       9 -> 17         0.49609

 Excited State  19:      Singlet-A     12.2573 eV  101.15 nm  f=0.0006  <S**2>=0.000
       8 -> 17         0.49670
       9 -> 18        -0.49667

 Excited State  20:      Singlet-A     12.2952 eV  100.84 nm  f=0.0001  <S**2>=0.000
       5 -> 10         0.65905
       5 -> 11         0.11049
       8 -> 17        -0.15223
       9 -> 18        -0.15224

 Excited State  21:      Singlet-A     12.6637 eV   97.91 nm  f=0.0000  <S**2>=0.000
       5 -> 10         0.21549
       5 -> 11        -0.26887
       6 -> 12         0.12419
       7 -> 13         0.12419
       8 -> 16        -0.10604
       8 -> 17         0.39588
       9 -> 15         0.10601
       9 -> 18         0.39591

 Excited State  22:      Singlet-A     12.8161 eV   96.74 nm  f=0.0090  <S**2>=0.000
       7 -> 11         0.69664

 Excited State  23:      Singlet-A     12.8161 eV   96.74 nm  f=0.0090  <S**2>=0.000
       6 -> 11         0.69664

 Excited State  24:      Singlet-A     13.6650 eV   90.73 nm  f=0.3710  <S**2>=0.000
       5 -> 11         0.60790
       5 -> 14         0.17703
       8 -> 17         0.15741
       9 -> 18         0.15743

 Excited State  25:      Singlet-A     13.7324 eV   90.29 nm  f=0.0000  <S**2>=0.000
       6 -> 12         0.17875
       6 -> 13        -0.46671
       7 -> 12         0.46710
       7 -> 13         0.17883

 Excited State  26:      Singlet-A     13.8402 eV   89.58 nm  f=0.0392  <S**2>=0.000
       6 -> 12         0.48552
       7 -> 13        -0.48549

 Excited State  27:      Singlet-A     13.8402 eV   89.58 nm  f=0.0392  <S**2>=0.000
       6 -> 13         0.48568
       7 -> 12         0.48533

 Excited State  28:      Singlet-A     14.0422 eV   88.29 nm  f=0.0000  <S**2>=0.000
       5 -> 13        -0.33738
       9 -> 19         0.61316

 Excited State  29:      Singlet-A     14.0422 eV   88.29 nm  f=0.0000  <S**2>=0.000
       5 -> 12        -0.33750
       8 -> 19         0.61309

 Excited State  30:      Singlet-A     14.1755 eV   87.46 nm  f=0.0509  <S**2>=0.000
       5 -> 12         0.61083
       8 -> 19         0.33562

 Excited State  31:      Singlet-A     14.1755 eV   87.46 nm  f=0.0509  <S**2>=0.000
       5 -> 13         0.61089
       9 -> 19         0.33549

 Excited State  32:      Singlet-A     14.6413 eV   84.68 nm  f=0.0149  <S**2>=0.000
       4 -> 10         0.10150
       6 -> 12         0.41986
       6 -> 13         0.16079
       7 -> 12        -0.16078
       7 -> 13         0.41983

 Excited State  33:      Singlet-A     14.9390 eV   82.99 nm  f=0.0051  <S**2>=0.000
       7 -> 14         0.52925
       9 -> 20         0.45940

 Excited State  34:      Singlet-A     14.9391 eV   82.99 nm  f=0.0051  <S**2>=0.000
       6 -> 14         0.52912
       8 -> 20         0.45953

 Excited State  35:      Singlet-A     15.0287 eV   82.50 nm  f=0.0130  <S**2>=0.000
       6 -> 16         0.16269
       7 -> 14        -0.42689
       7 -> 15         0.16271
       9 -> 20         0.48311

 Excited State  36:      Singlet-A     15.0288 eV   82.50 nm  f=0.0130  <S**2>=0.000
       6 -> 14        -0.42699
       6 -> 15        -0.16272
       7 -> 16         0.16284
       8 -> 20         0.48298

 Excited State  37:      Singlet-A     15.1149 eV   82.03 nm  f=0.0000  <S**2>=0.000
       6 -> 15         0.49664
       7 -> 16         0.49654

 Excited State  38:      Singlet-A     15.2311 eV   81.40 nm  f=0.0041  <S**2>=0.000
       5 -> 14        -0.31273
       6 -> 16        -0.43318
       7 -> 15         0.43322

 Excited State  39:      Singlet-A     15.5308 eV   79.83 nm  f=0.0207  <S**2>=0.000
       5 -> 15         0.69005

 Excited State  40:      Singlet-A     15.5309 eV   79.83 nm  f=0.0206  <S**2>=0.000
       5 -> 16         0.69010

 Excited State  41:      Singlet-A     15.5782 eV   79.59 nm  f=0.1536  <S**2>=0.000
       6 -> 14         0.11920
       6 -> 15        -0.25831
       6 -> 16         0.20291
       7 -> 15         0.20286
       7 -> 16         0.25832
       8 -> 20        -0.11790
       8 -> 22         0.31426
       9 -> 21         0.31439

 Excited State  42:      Singlet-A     15.5782 eV   79.59 nm  f=0.1536  <S**2>=0.000
       6 -> 15         0.20285
       6 -> 16         0.25831
       7 -> 14         0.11909
       7 -> 15         0.25826
       7 -> 16        -0.20287
       8 -> 21         0.31436
       9 -> 20        -0.11790
       9 -> 22        -0.31433

 Excited State  43:      Singlet-A     15.6518 eV   79.21 nm  f=0.0014  <S**2>=0.000
       5 -> 14         0.51748
       6 -> 16        -0.19514
       6 -> 17        -0.16540
       7 -> 15         0.19509
       7 -> 18        -0.16540
       8 -> 21         0.14756
       9 -> 22         0.14756

 Excited State  44:      Singlet-A     15.7015 eV   78.96 nm  f=0.0000  <S**2>=0.000
       8 -> 21         0.23864
       8 -> 22        -0.43928
       9 -> 21         0.43941
       9 -> 22         0.23869

 Excited State  45:      Singlet-A     15.7758 eV   78.59 nm  f=0.0510  <S**2>=0.000
       6 -> 15         0.17712
       6 -> 18         0.24511
       7 -> 16        -0.17713
       7 -> 17         0.24548
       8 -> 21        -0.13333
       8 -> 22         0.32998
       9 -> 21         0.32972
       9 -> 22         0.13315

 Excited State  46:      Singlet-A     15.7758 eV   78.59 nm  f=0.0510  <S**2>=0.000
       6 -> 16         0.17715
       6 -> 17        -0.24528
       7 -> 15         0.17714
       7 -> 18         0.24531
       8 -> 21        -0.32981
       8 -> 22        -0.13327
       9 -> 21        -0.13321
       9 -> 22         0.32987

 Excited State  47:      Singlet-A     15.8558 eV   78.19 nm  f=0.0000  <S**2>=0.000
       6 -> 18        -0.49094
       7 -> 17         0.49099

 Excited State  48:      Singlet-A     16.0109 eV   77.44 nm  f=0.1906  <S**2>=0.000
       5 -> 17        -0.11233
       6 -> 15        -0.18437
       6 -> 17         0.10592
       6 -> 18         0.39236
       7 -> 16         0.18440
       7 -> 17         0.39207
       7 -> 18        -0.10595
       8 -> 22        -0.12160
       9 -> 21        -0.12171

 Excited State  49:      Singlet-A     16.0110 eV   77.44 nm  f=0.1906  <S**2>=0.000
       5 -> 18        -0.11228
       6 -> 16         0.18440
       6 -> 17         0.39225
       6 -> 18        -0.10599
       7 -> 15         0.18441
       7 -> 17        -0.10587
       7 -> 18        -0.39218
       8 -> 21        -0.12159
       9 -> 22         0.12168

 Excited State  50:      Singlet-A     16.0233 eV   77.38 nm  f=0.3394  <S**2>=0.000
       4 -> 10         0.10239
       5 -> 14        -0.20659
       5 -> 19        -0.13479
       8 -> 21         0.38908
       8 -> 22         0.21142
       9 -> 21        -0.21130
       9 -> 22         0.38907

 Excited State  51:      Singlet-A     16.1593 eV   76.73 nm  f=0.0787  <S**2>=0.000
       5 -> 14         0.16334
       5 -> 19         0.14466
       6 -> 16        -0.11016
       6 -> 17         0.44357
       7 -> 15         0.11013
       7 -> 18         0.44357

 Excited State  52:      Singlet-A     16.2302 eV   76.39 nm  f=0.0172  <S**2>=0.000
       5 -> 17         0.56551
       8 -> 23         0.41412

 Excited State  53:      Singlet-A     16.2302 eV   76.39 nm  f=0.0172  <S**2>=0.000
       5 -> 18         0.56533
       9 -> 23         0.41438

 Excited State  54:      Singlet-A     16.3277 eV   75.93 nm  f=0.0157  <S**2>=0.000
       5 -> 18        -0.40186
       9 -> 23         0.56735

 Excited State  55:      Singlet-A     16.3278 eV   75.93 nm  f=0.0157  <S**2>=0.000
       5 -> 17        -0.40159
       8 -> 23         0.56753

 Excited State  56:      Singlet-A     16.8777 eV   73.46 nm  f=0.0125  <S**2>=0.000
       9 -> 24         0.70384

 Excited State  57:      Singlet-A     16.8778 eV   73.46 nm  f=0.0125  <S**2>=0.000
       8 -> 24         0.70384

 Excited State  58:      Singlet-A     17.0391 eV   72.76 nm  f=0.0000  <S**2>=0.000
       8 -> 25         0.48623
       8 -> 26        -0.11619
       9 -> 25         0.11624
       9 -> 26         0.48620

 Excited State  59:      Singlet-A     17.2090 eV   72.05 nm  f=0.0154  <S**2>=0.000
       8 -> 25         0.21338
       8 -> 26         0.43048
       9 -> 25         0.43109
       9 -> 26        -0.21359

 Excited State  60:      Singlet-A     17.2090 eV   72.05 nm  f=0.0154  <S**2>=0.000
       8 -> 25         0.43082
       8 -> 26        -0.21335
       9 -> 25        -0.21362
       9 -> 26        -0.43075

 Excited State  61:      Singlet-A     17.2454 eV   71.89 nm  f=0.0103  <S**2>=0.000
       4 -> 10         0.36551
       4 -> 11         0.10389
       5 -> 19         0.14430
       8 -> 26         0.38771
       9 -> 25        -0.38693

 Excited State  62:      Singlet-A     17.5282 eV   70.73 nm  f=0.0267  <S**2>=0.000
       4 -> 10         0.54482
       5 -> 19         0.15178
       5 -> 20         0.10161
       8 -> 26        -0.24756
       9 -> 25         0.24749

 Excited State  63:      Singlet-A     17.7285 eV   69.94 nm  f=0.0006  <S**2>=0.000
       7 -> 19         0.69695

 Excited State  64:      Singlet-A     17.7285 eV   69.93 nm  f=0.0006  <S**2>=0.000
       6 -> 19         0.69695

 Excited State  65:      Singlet-A     18.3529 eV   67.56 nm  f=0.0533  <S**2>=0.000
       4 -> 11         0.61909
       8 -> 27         0.15026
       8 -> 28        -0.10764
       9 -> 27         0.10768
       9 -> 28         0.15024

 Excited State  66:      Singlet-A     18.5444 eV   66.86 nm  f=0.0000  <S**2>=0.000
       8 -> 27        -0.29113
       8 -> 28        -0.40594
       9 -> 27         0.40684
       9 -> 28        -0.29110

 Excited State  67:      Singlet-A     18.5453 eV   66.85 nm  f=0.0950  <S**2>=0.000
       4 -> 11        -0.18187
       5 -> 19        -0.29619
       5 -> 20        -0.17529
       8 -> 27         0.32402
       8 -> 28        -0.23182
       9 -> 27         0.23233
       9 -> 28         0.32399

 Excited State  68:      Singlet-A     18.5758 eV   66.74 nm  f=0.0185  <S**2>=0.000
       7 -> 20         0.42121
       8 -> 27         0.27963
       8 -> 28        -0.28210
       9 -> 27        -0.28136
       9 -> 28        -0.27988

 Excited State  69:      Singlet-A     18.5758 eV   66.74 nm  f=0.0185  <S**2>=0.000
       6 -> 20         0.42109
       8 -> 27         0.28183
       8 -> 28         0.28018
       9 -> 27         0.27939
       9 -> 28        -0.28174

 Excited State  70:      Singlet-A     18.6950 eV   66.32 nm  f=0.0638  <S**2>=0.000
       4 -> 13        -0.10912
       7 -> 20         0.53916
       8 -> 27        -0.20624
       8 -> 28         0.21205
       9 -> 27         0.21184
       9 -> 28         0.20615

 Excited State  71:      Singlet-A     18.6951 eV   66.32 nm  f=0.0638  <S**2>=0.000
       4 -> 12        -0.10914
       6 -> 20         0.53925
       8 -> 27        -0.21188
       8 -> 28        -0.20621
       9 -> 27        -0.20608
       9 -> 28         0.21187

 Excited State  72:      Singlet-A     18.9229 eV   65.52 nm  f=0.0028  <S**2>=0.000
       4 -> 10        -0.10989
       5 -> 19         0.16438
       5 -> 20         0.59407
       8 -> 27         0.14234
       8 -> 28        -0.10190
       9 -> 27         0.10199
       9 -> 28         0.14233

 Excited State  73:      Singlet-A     18.9678 eV   65.37 nm  f=0.0301  <S**2>=0.000
       9 -> 29         0.69722

 Excited State  74:      Singlet-A     18.9678 eV   65.37 nm  f=0.0301  <S**2>=0.000
       8 -> 29         0.69722

 Excited State  75:      Singlet-A     19.3324 eV   64.13 nm  f=0.0153  <S**2>=0.000
       4 -> 12         0.40332
       4 -> 13        -0.25679
       6 -> 21        -0.28159
       6 -> 22         0.18540
       7 -> 21         0.20333
       7 -> 22         0.29736

 Excited State  76:      Singlet-A     19.3324 eV   64.13 nm  f=0.0153  <S**2>=0.000
       4 -> 12         0.25673
       4 -> 13         0.40344
       6 -> 21         0.19953
       6 -> 22         0.28368
       7 -> 21         0.29519
       7 -> 22        -0.18957

 Excited State  77:      Singlet-A     19.3334 eV   64.13 nm  f=0.0000  <S**2>=0.000
       6 -> 21        -0.33377
       6 -> 22         0.38441
       7 -> 21        -0.36651
       7 -> 22        -0.32596

 Excited State  78:      Singlet-A     19.4121 eV   63.87 nm  f=0.0065  <S**2>=0.000
       4 -> 12         0.44739
       4 -> 13        -0.12462
       5 -> 21        -0.13043
       6 -> 21         0.21747
       6 -> 22        -0.26671
       7 -> 21        -0.26651
       7 -> 22        -0.21725

 Excited State  79:      Singlet-A     19.4121 eV   63.87 nm  f=0.0065  <S**2>=0.000
       4 -> 12         0.12458
       4 -> 13         0.44745
       5 -> 22        -0.13042
       6 -> 21        -0.26648
       6 -> 22        -0.21735
       7 -> 21        -0.21739
       7 -> 22         0.26664

 Excited State  80:      Singlet-A     19.5246 eV   63.50 nm  f=0.0007  <S**2>=0.000
       4 -> 11        -0.15418
       4 -> 14        -0.12925
       5 -> 19         0.28505
       5 -> 20        -0.22579
       6 -> 21        -0.25727
       6 -> 22        -0.22605
       6 -> 26        -0.13329
       7 -> 21         0.22591
       7 -> 22        -0.25717
       7 -> 25         0.13328

 Excited State  81:      Singlet-A     19.6974 eV   62.94 nm  f=0.1155  <S**2>=0.000
       4 -> 10        -0.10301
       5 -> 19         0.34033
       5 -> 20        -0.17713
       6 -> 21         0.23961
       6 -> 22         0.21054
       7 -> 21        -0.21045
       7 -> 22         0.23955
       8 -> 31        -0.17488
       9 -> 32        -0.17488

 Excited State  82:      Singlet-A     19.7722 eV   62.71 nm  f=0.0195  <S**2>=0.000
       5 -> 21         0.65000
       5 -> 22         0.12787
       8 -> 30         0.17711

 Excited State  83:      Singlet-A     19.7723 eV   62.71 nm  f=0.0195  <S**2>=0.000
       5 -> 21        -0.12785
       5 -> 22         0.64997
       9 -> 30         0.17724

 Excited State  84:      Singlet-A     19.8798 eV   62.37 nm  f=0.0057  <S**2>=0.000
       5 -> 22        -0.12747
       7 -> 23        -0.25416
       9 -> 30         0.62768

 Excited State  85:      Singlet-A     19.8799 eV   62.37 nm  f=0.0057  <S**2>=0.000
       5 -> 21        -0.12735
       6 -> 23        -0.25410
       8 -> 30         0.62773

 Excited State  86:      Singlet-A     20.0408 eV   61.87 nm  f=0.1031  <S**2>=0.000
       7 -> 23         0.63472
       9 -> 30         0.24121

 Excited State  87:      Singlet-A     20.0409 eV   61.87 nm  f=0.1031  <S**2>=0.000
       6 -> 23         0.63474
       8 -> 30         0.24115

 Excited State  88:      Singlet-A     20.3376 eV   60.96 nm  f=0.0533  <S**2>=0.000
       4 -> 14         0.38340
       5 -> 23         0.58259

 Excited State  89:      Singlet-A     20.5039 eV   60.47 nm  f=0.0033  <S**2>=0.000
       4 -> 16        -0.25183
       7 -> 24         0.65656

 Excited State  90:      Singlet-A     20.5040 eV   60.47 nm  f=0.0033  <S**2>=0.000
       4 -> 15        -0.25193
       6 -> 24         0.65652

 Excited State  91:      Singlet-A     20.6625 eV   60.00 nm  f=0.0000  <S**2>=0.000
       6 -> 25         0.49700
       7 -> 26         0.49701

 Excited State  92:      Singlet-A     20.6633 eV   60.00 nm  f=0.0257  <S**2>=0.000
       4 -> 14         0.54856
       4 -> 19         0.12434
       5 -> 23        -0.34961
       6 -> 26         0.10262
       7 -> 25        -0.10267

 Excited State  93:      Singlet-A     20.7254 eV   59.82 nm  f=0.0000  <S**2>=0.000
       4 -> 15         0.62597
       5 -> 25        -0.13217
       6 -> 24         0.24235

 Excited State  94:      Singlet-A     20.7254 eV   59.82 nm  f=0.0000  <S**2>=0.000
       4 -> 16         0.62601
       5 -> 26        -0.13215
       7 -> 24         0.24225

 Excited State  95:      Singlet-A     20.8721 eV   59.40 nm  f=0.0000  <S**2>=0.000
       5 -> 24         0.70357

 Excited State  96:      Singlet-A     20.9679 eV   59.13 nm  f=0.0384  <S**2>=0.000
       5 -> 25         0.39119
       6 -> 25        -0.21818
       6 -> 26        -0.25689
       7 -> 25        -0.25696
       7 -> 26         0.21818
       8 -> 31         0.22043
       9 -> 32        -0.22045

 Excited State  97:      Singlet-A     20.9679 eV   59.13 nm  f=0.0385  <S**2>=0.000
       5 -> 26         0.39114
       6 -> 25        -0.25693
       6 -> 26         0.21815
       7 -> 25         0.21820
       7 -> 26         0.25691
       8 -> 32        -0.22045
       9 -> 31        -0.22052

 Excited State  98:      Singlet-A     21.1207 eV   58.70 nm  f=0.0000  <S**2>=0.000
       8 -> 31         0.20832
       8 -> 32        -0.45382
       9 -> 31         0.45410
       9 -> 32         0.20833

 Excited State  99:      Singlet-A     21.1567 eV   58.60 nm  f=0.0346  <S**2>=0.000
       4 -> 15         0.11226
       5 -> 25         0.48329
       5 -> 26         0.14556
       8 -> 31        -0.30535
       9 -> 32         0.30531

 Excited State 100:      Singlet-A     21.1568 eV   58.60 nm  f=0.0346  <S**2>=0.000
       4 -> 16         0.11226
       5 -> 25        -0.14552
       5 -> 26         0.48336
       8 -> 32         0.30546
       9 -> 31         0.30511

 Excited State 101:      Singlet-A     21.2931 eV   58.23 nm  f=0.1015  <S**2>=0.000
       4 -> 17         0.59358
       6 -> 25        -0.12362
       7 -> 26         0.12362
       8 -> 32         0.19601
       9 -> 31         0.19592

 Excited State 102:      Singlet-A     21.2931 eV   58.23 nm  f=0.1016  <S**2>=0.000
       4 -> 18         0.59341
       6 -> 26         0.12374
       7 -> 25         0.12381
       8 -> 31         0.19604
       9 -> 32        -0.19604

 Excited State 103:      Singlet-A     21.3456 eV   58.08 nm  f=0.0641  <S**2>=0.000
       4 -> 17         0.35988
       5 -> 26         0.24833
       6 -> 25         0.23937
       6 -> 26        -0.15104
       7 -> 25        -0.15234
       7 -> 26        -0.23936
       8 -> 32        -0.22518
       9 -> 31        -0.22505

 The electronic state is 1-A.
 Alpha  occ. eigenvalues --  -24.27823  -9.98435  -1.08278  -0.63155  -0.44778
 Alpha  occ. eigenvalues --   -0.43403  -0.43402  -0.30059  -0.30059
 Alpha virt. eigenvalues --   -0.00087   0.02631   0.07047   0.07047   0.11516
 Alpha virt. eigenvalues --    0.12070   0.12070   0.14849   0.14850   0.21022
 Alpha virt. eigenvalues --    0.24547   0.27641   0.27641   0.29780   0.31947

 Mulliken charges:
               1
     1  C    0.765735
     2  F   -0.461407
     3  H   -0.101429
     4  H   -0.101447
     5  H   -0.101452
 Sum of Mulliken charges =   0.00000

 Dipole moment (field-independent basis, Debye):
    X=              1.7710    Y=             -0.0000    Z=              0.0000  Tot=              1.7710
 Quadrupole moment (field-independent basis, Debye-Ang):
   XX=            -12.8021   YY=            -12.0990   ZZ=            -12.0991
   XY=              0.0000   XZ=              0.0000   YZ=              0.0000

 Normal termination of Gaussian 16 at Mon Mar 21 20:11:39 2022.
