 Gaussian 16, Revision C.01,
 Gaussian 16:  EM64L-G16RevC.01  3-Jul-2019

 ----------------------------------------------------------------------
 #P TD(Nstates=10000) pw91pw91/Gen SCF(maxcycles=100) Int(Grid=ultrafin
 e)
 ----------------------------------------------------------------------

 ---------------------
 xGDB7_00001_tier4.com
 ---------------------
 Symbolic Z-matrix:
 Charge =  0 Multiplicity = 1

                         Standard orientation:
 ---------------------------------------------------------------------
 Center     Atomic      Atomic             Coordinates (Angstroms)
 Number     Number       Type             X           Y           Z
 ---------------------------------------------------------------------
      1          6           0        0.037922   -0.393776    0.738519
      2          6           0        0.037922   -0.393776   -0.738519
      3          7           0        0.037922    0.865964    0.000000
      4          1           0        0.953211   -0.606479    1.276872
      5          1           0       -0.870248   -0.700655    1.244917
      6          1           0       -0.870248   -0.700655   -1.244917
      7          1           0        0.953211   -0.606479   -1.276872
      8          1           0       -0.886454    1.277834    0.000000
 ---------------------------------------------------------------------

 SCF Done:  E(RPW91-PW91) =  -133.777277434     A.U. after   12 cycles

 Excitation energies and oscillator strengths:

 Excited State   1:      Singlet-A'     5.8999 eV  210.15 nm  f=0.0024  <S**2>=0.000
      12 -> 13         0.70593
 This state for optimization and/or second-order correction.
 Total Energy, E(TD-HF/TD-DFT) =  -133.560460479
 Copying the excited state density for this state as the 1-particle RhoCI density.

 Excited State   2:      Singlet-A"     6.6443 eV  186.60 nm  f=0.0022  <S**2>=0.000
      12 -> 15         0.70674

 Excited State   3:      Singlet-A'     6.6973 eV  185.13 nm  f=0.0243  <S**2>=0.000
      12 -> 14         0.70535

 Excited State   4:      Singlet-A'     7.4783 eV  165.79 nm  f=0.0740  <S**2>=0.000
      12 -> 16         0.70386

 Excited State   5:      Singlet-A'     8.2554 eV  150.19 nm  f=0.0053  <S**2>=0.000
      11 -> 13         0.70424

 Excited State   6:      Singlet-A"     8.3149 eV  149.11 nm  f=0.0305  <S**2>=0.000
      12 -> 17         0.69414

 Excited State   7:      Singlet-A'     8.5391 eV  145.20 nm  f=0.0047  <S**2>=0.000
      12 -> 18         0.70330

 Excited State   8:      Singlet-A"     8.5992 eV  144.18 nm  f=0.0010  <S**2>=0.000
      10 -> 13         0.70329

 Excited State   9:      Singlet-A"     8.9895 eV  137.92 nm  f=0.0113  <S**2>=0.000
      12 -> 19         0.70284

 Excited State  10:      Singlet-A"     9.0521 eV  136.97 nm  f=0.0367  <S**2>=0.000
       9 -> 13         0.18535
      11 -> 15         0.67242

 Excited State  11:      Singlet-A'     9.0688 eV  136.71 nm  f=0.0295  <S**2>=0.000
      11 -> 14         0.69906

 Excited State  12:      Singlet-A"     9.1612 eV  135.34 nm  f=0.0223  <S**2>=0.000
       9 -> 13         0.67836
      11 -> 15        -0.17918

 Excited State  13:      Singlet-A'     9.4007 eV  131.89 nm  f=0.0117  <S**2>=0.000
      10 -> 15         0.64393
      12 -> 20        -0.28664

 Excited State  14:      Singlet-A"     9.4112 eV  131.74 nm  f=0.0503  <S**2>=0.000
      10 -> 14         0.69633

 Excited State  15:      Singlet-A'     9.4467 eV  131.25 nm  f=0.0351  <S**2>=0.000
      10 -> 15         0.27919
      12 -> 20         0.63764

 Excited State  16:      Singlet-A'     9.7940 eV  126.59 nm  f=0.0152  <S**2>=0.000
      11 -> 16         0.70180

 Excited State  17:      Singlet-A"     9.9077 eV  125.14 nm  f=0.0077  <S**2>=0.000
       9 -> 14         0.70014

 Excited State  18:      Singlet-A'     9.9782 eV  124.25 nm  f=0.0718  <S**2>=0.000
       9 -> 15         0.70485

 Excited State  19:      Singlet-A"    10.0871 eV  122.91 nm  f=0.0000  <S**2>=0.000
      10 -> 16         0.36489
      11 -> 17        -0.11858
      12 -> 21         0.58919

 Excited State  20:      Singlet-A"    10.1256 eV  122.45 nm  f=0.0028  <S**2>=0.000
      10 -> 16         0.58823
      12 -> 21        -0.37190

 Excited State  21:      Singlet-A"    10.3501 eV  119.79 nm  f=0.0009  <S**2>=0.000
      12 -> 22         0.70030

 Excited State  22:      Singlet-A'    10.5710 eV  117.29 nm  f=0.0007  <S**2>=0.000
      10 -> 17        -0.11353
      12 -> 23         0.65726
      12 -> 24        -0.21316

 Excited State  23:      Singlet-A"    10.7950 eV  114.85 nm  f=0.1862  <S**2>=0.000
       9 -> 16         0.66483
      11 -> 17        -0.19148

 Excited State  24:      Singlet-A'    10.8630 eV  114.13 nm  f=0.0323  <S**2>=0.000
      10 -> 17        -0.29254
      11 -> 18         0.44287
      12 -> 23         0.12138
      12 -> 24         0.44072

 Excited State  25:      Singlet-A'    10.9526 eV  113.20 nm  f=0.0098  <S**2>=0.000
      10 -> 17         0.17687
      11 -> 18         0.53989
      12 -> 24        -0.40051

 Excited State  26:      Singlet-A"    10.9686 eV  113.04 nm  f=0.0550  <S**2>=0.000
       9 -> 16         0.19118
      10 -> 16         0.10594
      11 -> 17         0.60768
      11 -> 19        -0.14553
      12 -> 26        -0.12296

 Excited State  27:      Singlet-A"    11.2331 eV  110.37 nm  f=0.0005  <S**2>=0.000
      10 -> 18         0.70273

 Excited State  28:      Singlet-A'    11.2730 eV  109.98 nm  f=0.0058  <S**2>=0.000
       9 -> 17         0.61354
      10 -> 17         0.17899
      12 -> 24         0.11449
      12 -> 25         0.25877

 Excited State  29:      Singlet-A'    11.3056 eV  109.67 nm  f=0.0054  <S**2>=0.000
       9 -> 17        -0.26644
      12 -> 25         0.64871

 Excited State  30:      Singlet-A"    11.3681 eV  109.06 nm  f=0.0070  <S**2>=0.000
      11 -> 17         0.10716
      11 -> 19         0.68534

 Excited State  31:      Singlet-A'    11.4946 eV  107.86 nm  f=0.0302  <S**2>=0.000
       9 -> 17        -0.20094
      10 -> 17         0.43475
      11 -> 20         0.35394
      12 -> 23         0.13358
      12 -> 24         0.19791
      12 -> 27        -0.22976

 Excited State  32:      Singlet-A'    11.6636 eV  106.30 nm  f=0.0059  <S**2>=0.000
       8 -> 13         0.61146
      10 -> 19         0.34631

 Excited State  33:      Singlet-A'    11.7128 eV  105.85 nm  f=0.0290  <S**2>=0.000
       8 -> 13        -0.33420
      10 -> 19         0.60681
      11 -> 20        -0.10901

 Excited State  34:      Singlet-A"    11.8402 eV  104.71 nm  f=0.0035  <S**2>=0.000
       9 -> 18         0.70006

 Excited State  35:      Singlet-A"    11.9375 eV  103.86 nm  f=0.0433  <S**2>=0.000
      10 -> 20         0.10821
      11 -> 21         0.11087
      12 -> 26         0.67096

 Excited State  36:      Singlet-A'    12.0159 eV  103.18 nm  f=0.0097  <S**2>=0.000
       9 -> 19        -0.22149
      10 -> 17        -0.15420
      11 -> 20         0.51128
      12 -> 24        -0.12565
      12 -> 27         0.31302

 Excited State  37:      Singlet-A"    12.0951 eV  102.51 nm  f=0.0073  <S**2>=0.000
      10 -> 20         0.69280

 Excited State  38:      Singlet-A'    12.3191 eV  100.64 nm  f=0.0348  <S**2>=0.000
       8 -> 14         0.45063
       9 -> 19        -0.15775
      10 -> 17         0.15088
      11 -> 20        -0.13737
      12 -> 27         0.39060
      12 -> 28        -0.19033

 Excited State  39:      Singlet-A'    12.3924 eV  100.05 nm  f=0.0208  <S**2>=0.000
       7 -> 13         0.12144
       8 -> 14        -0.18423
       9 -> 19         0.52759
      10 -> 17         0.10392
      10 -> 21         0.22032
      12 -> 27         0.28142
      12 -> 28        -0.10056

 Excited State  40:      Singlet-A"    12.4685 eV   99.44 nm  f=0.0578  <S**2>=0.000
       8 -> 15         0.66900
      11 -> 21        -0.21262

 Excited State  41:      Singlet-A"    12.4902 eV   99.27 nm  f=0.0415  <S**2>=0.000
       8 -> 15         0.20641
      11 -> 21         0.64901

 Excited State  42:      Singlet-A"    12.6037 eV   98.37 nm  f=0.0099  <S**2>=0.000
       9 -> 20         0.66958
      11 -> 22         0.21081

 Excited State  43:      Singlet-A'    12.6110 eV   98.31 nm  f=0.2333  <S**2>=0.000
       7 -> 13         0.10425
       8 -> 14         0.49006
       8 -> 16         0.11389
       9 -> 19         0.27891
      10 -> 17        -0.11295
      11 -> 20         0.12992
      11 -> 25        -0.11459
      12 -> 27        -0.17273
      12 -> 28         0.22199

 Excited State  44:      Singlet-A"    12.7680 eV   97.11 nm  f=0.0276  <S**2>=0.000
       9 -> 20        -0.19085
      11 -> 22         0.65372

 Excited State  45:      Singlet-A'    12.8253 eV   96.67 nm  f=0.0131  <S**2>=0.000
      10 -> 21        -0.15036
      11 -> 23        -0.43686
      11 -> 24        -0.12573
      12 -> 27         0.14779
      12 -> 28         0.46452

 Excited State  46:      Singlet-A'    12.8986 eV   96.12 nm  f=0.0472  <S**2>=0.000
       7 -> 13        -0.23952
       8 -> 16        -0.16175
      10 -> 21         0.35546
      11 -> 23         0.35866
      12 -> 28         0.35915

 Excited State  47:      Singlet-A'    12.9423 eV   95.80 nm  f=0.0143  <S**2>=0.000
       7 -> 13        -0.29392
      10 -> 21         0.40733
      11 -> 23        -0.39911
      11 -> 24         0.10768
      12 -> 27        -0.12421
      12 -> 28        -0.14048

 Excited State  48:      Singlet-A'    13.0730 eV   94.84 nm  f=0.0025  <S**2>=0.000
      10 -> 22         0.66656
      11 -> 24        -0.21717

 Excited State  49:      Singlet-A"    13.1617 eV   94.20 nm  f=0.0000  <S**2>=0.000
      10 -> 23         0.35528
      12 -> 29         0.59657

 Excited State  50:      Singlet-A'    13.1665 eV   94.17 nm  f=0.0532  <S**2>=0.000
       7 -> 13        -0.35095
       8 -> 16         0.39690
      10 -> 21        -0.15162
      11 -> 24         0.37553

 Excited State  51:      Singlet-A"    13.1921 eV   93.98 nm  f=0.0096  <S**2>=0.000
      10 -> 23         0.60529
      10 -> 24        -0.11145
      12 -> 29        -0.34070

 Excited State  52:      Singlet-A'    13.2484 eV   93.58 nm  f=0.0140  <S**2>=0.000
       7 -> 13         0.24482
       8 -> 16        -0.16083
       9 -> 21         0.32034
       9 -> 22        -0.13986
      10 -> 22         0.14961
      11 -> 24         0.46902

 Excited State  53:      Singlet-A'    13.3699 eV   92.73 nm  f=0.0382  <S**2>=0.000
       8 -> 16         0.25327
       9 -> 21         0.57037
       9 -> 22         0.22479
      11 -> 24        -0.15700
      11 -> 25        -0.11391

 Excited State  54:      Singlet-A"    13.5257 eV   91.67 nm  f=0.0287  <S**2>=0.000
       8 -> 17        -0.11942
      10 -> 24         0.67562
      12 -> 29        -0.10395

 Excited State  55:      Singlet-A'    13.6515 eV   90.82 nm  f=0.0251  <S**2>=0.000
       7 -> 13         0.15823
       7 -> 14        -0.22200
       8 -> 16         0.14338
      10 -> 21         0.12758
      12 -> 30         0.58390

 Excited State  56:      Singlet-A'    13.7149 eV   90.40 nm  f=0.0073  <S**2>=0.000
       7 -> 13        -0.11368
       7 -> 14         0.48359
       8 -> 16        -0.11184
       9 -> 22        -0.16818
      11 -> 25        -0.27308
      12 -> 30         0.31870

 Excited State  57:      Singlet-A"    13.7355 eV   90.27 nm  f=0.0018  <S**2>=0.000
       7 -> 15        -0.10462
       8 -> 17         0.29336
       9 -> 23         0.60391
      10 -> 25         0.16218

 Excited State  58:      Singlet-A'    13.7777 eV   89.99 nm  f=0.0271  <S**2>=0.000
       7 -> 13        -0.19736
       7 -> 14        -0.14436
       7 -> 16        -0.18395
       8 -> 16        -0.27708
       9 -> 19         0.14361
       9 -> 21         0.14822
      10 -> 21        -0.13902
      11 -> 25         0.37946
      12 -> 30         0.21808

 Excited State  59:      Singlet-A"    13.8279 eV   89.66 nm  f=0.0297  <S**2>=0.000
       7 -> 15         0.67932
      10 -> 25         0.12024

 Excited State  60:      Singlet-A'    13.8919 eV   89.25 nm  f=0.1604  <S**2>=0.000
       8 -> 16        -0.18319
       8 -> 18         0.22373
       9 -> 22         0.53149
      10 -> 26         0.11672
      11 -> 24         0.10658
      11 -> 25        -0.23186

 Excited State  61:      Singlet-A"    13.9075 eV   89.15 nm  f=0.0004  <S**2>=0.000
       8 -> 17         0.61076
       9 -> 23        -0.24444
       9 -> 24        -0.15126
      10 -> 25        -0.14889

 Excited State  62:      Singlet-A"    14.0022 eV   88.55 nm  f=0.0116  <S**2>=0.000
       7 -> 15        -0.10753
       9 -> 24        -0.38999
      10 -> 25         0.46611
      12 -> 31         0.33172

 Excited State  63:      Singlet-A'    14.0300 eV   88.37 nm  f=0.2971  <S**2>=0.000
       7 -> 13         0.13261
       7 -> 14         0.40429
       8 -> 18         0.25501
       9 -> 22         0.10679
      10 -> 21         0.12153
      11 -> 25         0.38836
      12 -> 32         0.14203

 Excited State  64:      Singlet-A"    14.0515 eV   88.24 nm  f=0.0060  <S**2>=0.000
       9 -> 24         0.28711
      10 -> 25        -0.19090
      12 -> 31         0.59623

 Excited State  65:      Singlet-A"    14.2353 eV   87.10 nm  f=0.0006  <S**2>=0.000
      11 -> 26         0.69335

 Excited State  66:      Singlet-A'    14.3504 eV   86.40 nm  f=0.0290  <S**2>=0.000
      11 -> 27         0.37758
      12 -> 32         0.56285

 Excited State  67:      Singlet-A"    14.3692 eV   86.28 nm  f=0.3681  <S**2>=0.000
       9 -> 23        -0.18717
       9 -> 24         0.41753
       9 -> 25         0.27199
      10 -> 25         0.36288
      10 -> 28         0.10449

 Excited State  68:      Singlet-A'    14.4428 eV   85.85 nm  f=0.0539  <S**2>=0.000
       8 -> 18        -0.12081
      10 -> 26        -0.29937
      11 -> 27         0.52514
      12 -> 32        -0.29293

 Excited State  69:      Singlet-A'    14.4887 eV   85.57 nm  f=0.1197  <S**2>=0.000
       7 -> 16        -0.34523
       8 -> 18         0.46861
       9 -> 22        -0.13191
      10 -> 26        -0.30912

 Excited State  70:      Singlet-A"    14.6493 eV   84.64 nm  f=0.0407  <S**2>=0.000
       9 -> 24        -0.14689
       9 -> 25         0.54152
      10 -> 27        -0.39223

 Excited State  71:      Singlet-A'    14.7303 eV   84.17 nm  f=0.0462  <S**2>=0.000
       7 -> 16        -0.23690
      10 -> 26         0.42968
      11 -> 27         0.12336
      12 -> 32        -0.11760
      12 -> 33         0.43181

 Excited State  72:      Singlet-A"    14.7754 eV   83.91 nm  f=0.0681  <S**2>=0.000
       8 -> 19        -0.42281
       9 -> 25         0.29066
      10 -> 27         0.45107

 Excited State  73:      Singlet-A'    14.8357 eV   83.57 nm  f=0.2160  <S**2>=0.000
       6 -> 15         0.13138
       7 -> 13        -0.12471
       7 -> 16         0.48880
       8 -> 18         0.29693
       9 -> 22        -0.10770
      11 -> 27         0.12813
      12 -> 33         0.12100

 Excited State  74:      Singlet-A"    14.8713 eV   83.37 nm  f=0.0000  <S**2>=0.000
       6 -> 13         0.22571
       8 -> 19         0.52637
       9 -> 25         0.16313
      10 -> 27         0.32499

 Excited State  75:      Singlet-A'    14.9529 eV   82.92 nm  f=0.2347  <S**2>=0.000
       7 -> 18        -0.14367
       8 -> 18        -0.15349
       8 -> 20        -0.10037
       9 -> 22         0.13276
      10 -> 26        -0.28123
      11 -> 27        -0.15202
      12 -> 33         0.51590

 Excited State  76:      Singlet-A'    15.0875 eV   82.18 nm  f=0.0174  <S**2>=0.000
       8 -> 20        -0.15212
       9 -> 26         0.21883
      11 -> 28         0.63525

 Excited State  77:      Singlet-A"    15.1251 eV   81.97 nm  f=0.0461  <S**2>=0.000
       7 -> 17         0.21563
       9 -> 27         0.11391
      12 -> 34         0.64789

 Excited State  78:      Singlet-A'    15.1435 eV   81.87 nm  f=0.0326  <S**2>=0.000
       8 -> 20         0.52627
       9 -> 26        -0.38774
      11 -> 28         0.24622

 Excited State  79:      Singlet-A"    15.1757 eV   81.70 nm  f=0.0264  <S**2>=0.000
       6 -> 13         0.62508
       8 -> 19        -0.12465
       9 -> 27        -0.12207
      10 -> 28         0.17101

 Excited State  80:      Singlet-A"    15.2072 eV   81.53 nm  f=0.0183  <S**2>=0.000
       7 -> 17         0.57885
       9 -> 27         0.27016
      10 -> 28         0.15207
      12 -> 34        -0.22080

 Excited State  81:      Singlet-A"    15.2798 eV   81.14 nm  f=0.0022  <S**2>=0.000
       7 -> 17        -0.29516
       9 -> 27         0.56993
      10 -> 28         0.25518
      11 -> 29        -0.10193

 Excited State  82:      Singlet-A'    15.3043 eV   81.01 nm  f=0.2698  <S**2>=0.000
       8 -> 20         0.39360
       9 -> 26         0.50223
      10 -> 29         0.14062

 Excited State  83:      Singlet-A"    15.4697 eV   80.15 nm  f=0.0028  <S**2>=0.000
       6 -> 13        -0.12104
       6 -> 14        -0.10843
       9 -> 27        -0.14272
      10 -> 28         0.43644
      11 -> 29         0.48505

 Excited State  84:      Singlet-A"    15.6367 eV   79.29 nm  f=0.0205  <S**2>=0.000
      11 -> 29        -0.16628
      12 -> 35         0.66388

 Excited State  85:      Singlet-A"    15.6869 eV   79.04 nm  f=0.1906  <S**2>=0.000
       6 -> 14         0.13625
       8 -> 21        -0.16753
       9 -> 27         0.18124
       9 -> 28         0.17424
      10 -> 28        -0.32189
      11 -> 29         0.42191
      11 -> 31        -0.13797
      12 -> 35         0.18732

 Excited State  86:      Singlet-A'    15.7832 eV   78.55 nm  f=0.1223  <S**2>=0.000
       6 -> 15         0.20236
       7 -> 18         0.62063
      11 -> 30         0.10020
      12 -> 36         0.14825

 Excited State  87:      Singlet-A"    15.8599 eV   78.17 nm  f=0.0128  <S**2>=0.000
       6 -> 14         0.18474
       8 -> 21         0.53658
       9 -> 28         0.38696
      12 -> 37         0.13851

 Excited State  88:      Singlet-A"    15.9178 eV   77.89 nm  f=0.0050  <S**2>=0.000
       6 -> 14         0.55501
       7 -> 19         0.12629
       8 -> 21        -0.13504
       8 -> 22        -0.16856
      10 -> 28         0.10180
      11 -> 31         0.12916
      12 -> 37        -0.27255

 Excited State  89:      Singlet-A"    15.9565 eV   77.70 nm  f=0.0404  <S**2>=0.000
       8 -> 21        -0.31479
       8 -> 22        -0.10142
       9 -> 28         0.21376
      12 -> 37         0.54656

 Excited State  90:      Singlet-A"    15.9892 eV   77.54 nm  f=0.0311  <S**2>=0.000
       6 -> 14        -0.25120
       8 -> 21        -0.19152
       9 -> 28         0.50976
      12 -> 37        -0.31723

 Excited State  91:      Singlet-A'    16.0206 eV   77.39 nm  f=0.0438  <S**2>=0.000
       6 -> 15         0.16965
       7 -> 18        -0.19809
      10 -> 29         0.19919
      11 -> 30         0.55184
      12 -> 36         0.23604

 Excited State  92:      Singlet-A'    16.0522 eV   77.24 nm  f=0.0504  <S**2>=0.000
       5 -> 13        -0.13910
       6 -> 15        -0.23268
       7 -> 18         0.12506
       7 -> 20        -0.10663
      10 -> 29        -0.26683
      11 -> 30         0.41384
      12 -> 36        -0.37133

 Excited State  93:      Singlet-A'    16.1403 eV   76.82 nm  f=0.0094  <S**2>=0.000
       5 -> 13         0.25533
       5 -> 14        -0.17918
       6 -> 15         0.46759
      10 -> 29        -0.27338
      12 -> 36        -0.20973

 Excited State  94:      Singlet-A"    16.1679 eV   76.69 nm  f=0.0207  <S**2>=0.000
       7 -> 19         0.65022
       8 -> 22         0.16248
      11 -> 31        -0.17904

 Excited State  95:      Singlet-A'    16.1700 eV   76.68 nm  f=0.1295  <S**2>=0.000
       5 -> 13         0.43691
       6 -> 15        -0.12247
       9 -> 29         0.10239
      10 -> 29         0.38142
      12 -> 36        -0.32444

 Excited State  96:      Singlet-A"    16.2586 eV   76.26 nm  f=0.0103  <S**2>=0.000
       8 -> 22         0.59091
      10 -> 30        -0.24119
      11 -> 31         0.21708

 Excited State  97:      Singlet-A'    16.2746 eV   76.18 nm  f=0.0834  <S**2>=0.000
       5 -> 13        -0.13888
       8 -> 23         0.65290
      12 -> 36        -0.11096

 Excited State  98:      Singlet-A'    16.3729 eV   75.73 nm  f=0.0017  <S**2>=0.000
       5 -> 13         0.36538
       6 -> 15        -0.18102
       7 -> 20        -0.30781
       8 -> 23         0.22072
      10 -> 29        -0.18082
      10 -> 31        -0.12187
      12 -> 36         0.29431

 Excited State  99:      Singlet-A"    16.3955 eV   75.62 nm  f=0.0026  <S**2>=0.000
       8 -> 22         0.12424
      10 -> 30         0.60285
      11 -> 31         0.29305
      12 -> 38        -0.16320

 Excited State 100:      Singlet-A'    16.4644 eV   75.30 nm  f=0.0092  <S**2>=0.000
       9 -> 29         0.58957
      12 -> 39        -0.32864

 Excited State 101:      Singlet-A'    16.4770 eV   75.25 nm  f=0.0179  <S**2>=0.000
       9 -> 29         0.30638
      12 -> 39         0.60889

 Excited State 102:      Singlet-A"    16.5087 eV   75.10 nm  f=0.0318  <S**2>=0.000
      10 -> 30         0.13165
      12 -> 38         0.67351

 Excited State 103:      Singlet-A'    16.5730 eV   74.81 nm  f=0.0244  <S**2>=0.000
       5 -> 13         0.11678
       7 -> 20         0.46204
       8 -> 24        -0.15659
      10 -> 29        -0.10370
      10 -> 31        -0.20358
      11 -> 32         0.40641

 Excited State 104:      Singlet-A"    16.6274 eV   74.57 nm  f=0.0178  <S**2>=0.000
       5 -> 15         0.26277
       6 -> 16        -0.27075
       7 -> 19         0.13459
       7 -> 21        -0.11793
       8 -> 22        -0.13071
      10 -> 30        -0.15467
      10 -> 32         0.20036
      11 -> 31         0.42506

 Excited State 105:      Singlet-A'    16.6570 eV   74.43 nm  f=0.0152  <S**2>=0.000
       8 -> 24         0.18544
      10 -> 31        -0.26843
      11 -> 32        -0.11204
      12 -> 40         0.59504

 Excited State 106:      Singlet-A'    16.6634 eV   74.41 nm  f=0.0043  <S**2>=0.000
       5 -> 14         0.12940
       7 -> 20         0.12404
       8 -> 24         0.46862
      10 -> 31        -0.30322
      11 -> 32        -0.15070
      12 -> 40        -0.33356

 Excited State 107:      Singlet-A"    16.6852 eV   74.31 nm  f=0.0026  <S**2>=0.000
       5 -> 15         0.17545
       6 -> 16         0.62103
       9 -> 30         0.12439
      11 -> 31         0.15235

 Excited State 108:      Singlet-A'    16.7073 eV   74.21 nm  f=0.1072  <S**2>=0.000
       8 -> 24         0.41221

 The electronic state is 1-A'.
 Alpha  occ. eigenvalues --  -14.00870  -9.93702  -9.93690  -0.87961  -0.59199
 Alpha  occ. eigenvalues --   -0.55225  -0.47569  -0.42572  -0.33320  -0.31349
 Alpha  occ. eigenvalues --   -0.30038  -0.21414
 Alpha virt. eigenvalues --   -0.00015   0.02822   0.02952   0.05636   0.07650
 Alpha virt. eigenvalues --    0.09833   0.11553   0.12864   0.15610   0.16529
 Alpha virt. eigenvalues --    0.17065   0.18078   0.19927   0.22131   0.22635

 Mulliken charges:
               1
     1  C    0.645317
     2  C    0.645317
     3  N   -0.360304
     4  H   -0.261396
     5  H   -0.184914
     6  H   -0.184914
     7  H   -0.261396
     8  H   -0.037711
 Sum of Mulliken charges =  -0.00000

 Dipole moment (field-independent basis, Debye):
    X=             -1.2697    Y=             -0.9957    Z=              0.0000  Tot=              1.6135
 Quadrupole moment (field-independent basis, Debye-Ang):
   XX=            -17.9924   YY=            -21.3339   ZZ=            -18.8667
   XY=             -2.0993   XZ=              0.0000   YZ=             -0.0000

 Normal termination of Gaussian 16 at Mon Mar 21 20:15:51 2022.
