 Gaussian 16, Revision C.01,
 Gaussian 16:  EM64L-G16RevC.01  3-Jul-2019

 ----------------------------------------------------------------------
 #P TD(Nstates=10000) pw91pw91/Gen SCF(maxcycles=100) Int(Grid=ultrafin
 e)
 ----------------------------------------------------------------------

 ---------------------
 xGDB7_00001_tier4.com
 ---------------------
 Symbolic Z-matrix:
 Charge =  0 Multiplicity = 1

                         Standard orientation:
 ---------------------------------------------------------------------
 Center     Atomic      Atomic             Coordinates (Angstroms)
 Number     Number       Type             X           Y           Z
 ---------------------------------------------------------------------
      1          6           0       -1.208422   -0.239069   -0.021917
      2          6           0        0.083893    0.553452    0.046734
      3          8           0        1.233467   -0.256002   -0.105864
      4          1           0       -2.071999    0.425135    0.051700
      5          1           0       -1.270670   -0.957756    0.799731
      6          1           0       -1.270625   -0.788280   -0.962327
      7          1           0        0.130030    1.119197    0.986112
      8          1           0        0.125951    1.277026   -0.768547
      9          1           0        1.236751   -0.913605    0.591341
 ---------------------------------------------------------------------

 SCF Done:  E(RPW91-PW91) =  -154.873300202     A.U. after   13 cycles

 Excitation energies and oscillator strengths:

 Excited State   1:      Singlet-A      6.0907 eV  203.56 nm  f=0.0134  <S**2>=0.000
      13 -> 14         0.70609
 This state for optimization and/or second-order correction.
 Total Energy, E(TD-HF/TD-DFT) =  -154.649472651
 Copying the excited state density for this state as the 1-particle RhoCI density.

 Excited State   2:      Singlet-A      6.9561 eV  178.24 nm  f=0.0123  <S**2>=0.000
      13 -> 15         0.70300

 Excited State   3:      Singlet-A      7.2830 eV  170.24 nm  f=0.0197  <S**2>=0.000
      13 -> 16         0.70080

 Excited State   4:      Singlet-A      7.5345 eV  164.56 nm  f=0.0159  <S**2>=0.000
      12 -> 14         0.70111

 Excited State   5:      Singlet-A      7.8229 eV  158.49 nm  f=0.0458  <S**2>=0.000
      13 -> 17         0.70214

 Excited State   6:      Singlet-A      8.3863 eV  147.84 nm  f=0.0146  <S**2>=0.000
      12 -> 15         0.70114

 Excited State   7:      Singlet-A      8.4596 eV  146.56 nm  f=0.0199  <S**2>=0.000
      13 -> 18         0.70127

 Excited State   8:      Singlet-A      8.7423 eV  141.82 nm  f=0.0322  <S**2>=0.000
      12 -> 16         0.69007
      13 -> 19         0.10859

 Excited State   9:      Singlet-A      8.7916 eV  141.03 nm  f=0.0152  <S**2>=0.000
      11 -> 14         0.64337
      13 -> 19         0.26103

 Excited State  10:      Singlet-A      8.7996 eV  140.90 nm  f=0.0246  <S**2>=0.000
      11 -> 14        -0.24877
      12 -> 16        -0.11851
      13 -> 19         0.61165
      13 -> 20         0.19426

 Excited State  11:      Singlet-A      9.0001 eV  137.76 nm  f=0.0041  <S**2>=0.000
      10 -> 14        -0.27029
      13 -> 19        -0.16252
      13 -> 20         0.62225

 Excited State  12:      Singlet-A      9.0655 eV  136.76 nm  f=0.0290  <S**2>=0.000
      10 -> 14         0.63685
      13 -> 19        -0.10746
      13 -> 20         0.24413

 Excited State  13:      Singlet-A      9.2597 eV  133.90 nm  f=0.0140  <S**2>=0.000
      12 -> 17         0.50703
      13 -> 21         0.48286

 Excited State  14:      Singlet-A      9.2669 eV  133.79 nm  f=0.0293  <S**2>=0.000
      12 -> 17        -0.47960
      13 -> 21         0.51035

 Excited State  15:      Singlet-A      9.5945 eV  129.22 nm  f=0.0107  <S**2>=0.000
      11 -> 15        -0.20965
      13 -> 22         0.65484

 Excited State  16:      Singlet-A      9.6509 eV  128.47 nm  f=0.0059  <S**2>=0.000
      11 -> 15         0.66685
      13 -> 22         0.20669

 Excited State  17:      Singlet-A      9.8602 eV  125.74 nm  f=0.0041  <S**2>=0.000
      10 -> 15        -0.13332
      13 -> 23         0.67794

 Excited State  18:      Singlet-A      9.9035 eV  125.19 nm  f=0.0184  <S**2>=0.000
      10 -> 15         0.64257
      12 -> 18        -0.22033
      13 -> 23         0.14906

 Excited State  19:      Singlet-A      9.9154 eV  125.04 nm  f=0.0222  <S**2>=0.000
      10 -> 15         0.22471
      12 -> 18         0.66062

 Excited State  20:      Singlet-A     10.0134 eV  123.82 nm  f=0.0510  <S**2>=0.000
      11 -> 16         0.69220

 Excited State  21:      Singlet-A     10.2470 eV  121.00 nm  f=0.0273  <S**2>=0.000
      10 -> 16         0.15239
      12 -> 19         0.67082

 Excited State  22:      Singlet-A     10.2834 eV  120.57 nm  f=0.0618  <S**2>=0.000
       9 -> 14         0.24297
      10 -> 16         0.62540
      11 -> 17        -0.10726
      12 -> 19        -0.13843

 Excited State  23:      Singlet-A     10.3621 eV  119.65 nm  f=0.0430  <S**2>=0.000
       9 -> 14         0.63157
      10 -> 16        -0.20940
      13 -> 24         0.19830

 Excited State  24:      Singlet-A     10.4129 eV  119.07 nm  f=0.0206  <S**2>=0.000
       9 -> 14        -0.17410
      12 -> 20         0.23313
      13 -> 24         0.61733

 Excited State  25:      Singlet-A     10.4887 eV  118.21 nm  f=0.0102  <S**2>=0.000
      11 -> 17         0.23240
      12 -> 20         0.57808
      13 -> 24        -0.16380
      13 -> 25        -0.23353

 Excited State  26:      Singlet-A     10.5371 eV  117.66 nm  f=0.0719  <S**2>=0.000
      11 -> 17         0.62836
      12 -> 20        -0.17203
      12 -> 21        -0.10775
      13 -> 24         0.10592
      13 -> 25         0.12103

 Excited State  27:      Singlet-A     10.7077 eV  115.79 nm  f=0.0042  <S**2>=0.000
      10 -> 17        -0.36478
      12 -> 20         0.13486
      12 -> 21         0.26431
      13 -> 25         0.49823

 Excited State  28:      Singlet-A     10.7681 eV  115.14 nm  f=0.0245  <S**2>=0.000
      10 -> 17         0.51272
      12 -> 21         0.44721
      13 -> 25         0.13631

 Excited State  29:      Singlet-A     10.8262 eV  114.52 nm  f=0.0290  <S**2>=0.000
       8 -> 14        -0.14900
      10 -> 17        -0.28969
      12 -> 20        -0.13577
      12 -> 21         0.43678
      12 -> 22        -0.10301
      13 -> 25        -0.34669

 Excited State  30:      Singlet-A     10.9668 eV  113.05 nm  f=0.0215  <S**2>=0.000
       8 -> 14         0.58833
      12 -> 22        -0.36211

 Excited State  31:      Singlet-A     11.0011 eV  112.70 nm  f=0.0288  <S**2>=0.000
       8 -> 14         0.32986
      12 -> 22         0.58067
      13 -> 25        -0.10050

 Excited State  32:      Singlet-A     11.1969 eV  110.73 nm  f=0.0067  <S**2>=0.000
       9 -> 15         0.49290
      11 -> 18        -0.48075
      12 -> 23        -0.10048

 Excited State  33:      Singlet-A     11.2633 eV  110.08 nm  f=0.0393  <S**2>=0.000
       9 -> 15         0.45822
      10 -> 18        -0.17788
      11 -> 18         0.43542
      12 -> 23         0.16582
      13 -> 26         0.12366

 Excited State  34:      Singlet-A     11.3099 eV  109.62 nm  f=0.0184  <S**2>=0.000
       9 -> 15        -0.12733
      11 -> 18        -0.11287
      11 -> 19         0.10299
      12 -> 23         0.22643
      13 -> 26         0.61692

 Excited State  35:      Singlet-A     11.3227 eV  109.50 nm  f=0.0046  <S**2>=0.000
      11 -> 18        -0.13029
      12 -> 23         0.63238
      13 -> 26        -0.25292

 Excited State  36:      Singlet-A     11.4006 eV  108.75 nm  f=0.0214  <S**2>=0.000
      13 -> 27         0.69147

 Excited State  37:      Singlet-A     11.4733 eV  108.06 nm  f=0.0078  <S**2>=0.000
      10 -> 18         0.12468
      11 -> 19         0.67016

 Excited State  38:      Singlet-A     11.5401 eV  107.44 nm  f=0.0095  <S**2>=0.000
       8 -> 15         0.10190
       9 -> 16        -0.22169
      10 -> 18         0.58800
      10 -> 20         0.10258
      11 -> 18         0.11288
      11 -> 19        -0.13787

 Excited State  39:      Singlet-A     11.5850 eV  107.02 nm  f=0.0758  <S**2>=0.000
       9 -> 16         0.64355
      10 -> 18         0.21184

 Excited State  40:      Singlet-A     11.7072 eV  105.90 nm  f=0.0067  <S**2>=0.000
      10 -> 19         0.49958
      11 -> 20        -0.47068

 Excited State  41:      Singlet-A     11.7490 eV  105.53 nm  f=0.0024  <S**2>=0.000
       8 -> 15        -0.14100
       9 -> 16         0.11033
      10 -> 19         0.45375
      10 -> 20         0.12205
      11 -> 20         0.44493
      13 -> 28        -0.14665

 Excited State  42:      Singlet-A     11.8044 eV  105.03 nm  f=0.0116  <S**2>=0.000
       8 -> 15         0.29882
      10 -> 19         0.12960
      11 -> 20         0.12488
      13 -> 28         0.58661

 Excited State  43:      Singlet-A     11.8259 eV  104.84 nm  f=0.0730  <S**2>=0.000
       8 -> 15         0.57708
      12 -> 24        -0.13201
      13 -> 28        -0.34298

 Excited State  44:      Singlet-A     11.9349 eV  103.88 nm  f=0.0514  <S**2>=0.000
       8 -> 15         0.14916
      10 -> 20         0.11929
      12 -> 24         0.64600

 Excited State  45:      Singlet-A     11.9773 eV  103.52 nm  f=0.0174  <S**2>=0.000
       7 -> 14        -0.11685
       9 -> 17         0.18668
      10 -> 20         0.58981
      11 -> 21         0.21225
      12 -> 24        -0.12592

 Excited State  46:      Singlet-A     12.0436 eV  102.95 nm  f=0.0066  <S**2>=0.000
       9 -> 17         0.51076
      11 -> 21        -0.38541
      12 -> 25        -0.27495

 Excited State  47:      Singlet-A     12.1165 eV  102.33 nm  f=0.0247  <S**2>=0.000
       8 -> 16        -0.36491
       9 -> 17         0.18314
      10 -> 20        -0.20322
      10 -> 22         0.14822
      11 -> 21         0.37267
      11 -> 22        -0.17909
      12 -> 25        -0.25710

 Excited State  48:      Singlet-A     12.1572 eV  101.98 nm  f=0.0116  <S**2>=0.000
       8 -> 16         0.28124
       9 -> 17         0.30973
      10 -> 20        -0.12059
      10 -> 21        -0.16838
      11 -> 21         0.11976
      11 -> 22        -0.32052
      12 -> 25         0.37271

 Excited State  49:      Singlet-A     12.1894 eV  101.71 nm  f=0.0278  <S**2>=0.000
       7 -> 14        -0.15382
       8 -> 16         0.47651
       9 -> 17        -0.13039
      10 -> 21        -0.10846
      11 -> 21         0.12784
      12 -> 25        -0.40043

 Excited State  50:      Singlet-A     12.2572 eV  101.15 nm  f=0.0170  <S**2>=0.000
      10 -> 21         0.61652
      11 -> 22        -0.30138

 Excited State  51:      Singlet-A     12.2744 eV  101.01 nm  f=0.0245  <S**2>=0.000
       7 -> 14        -0.16403
       8 -> 16         0.13399
       8 -> 17        -0.10062
       9 -> 17         0.16056
      10 -> 21         0.22473
      10 -> 22         0.17752
      11 -> 21         0.19919
      11 -> 22         0.49216
      12 -> 25         0.11018

 Excited State  52:      Singlet-A     12.3268 eV  100.58 nm  f=0.0574  <S**2>=0.000
       7 -> 14         0.60382
       8 -> 16         0.12437
       8 -> 17        -0.12267
      10 -> 22         0.16656

 Excited State  53:      Singlet-A     12.5822 eV   98.54 nm  f=0.0245  <S**2>=0.000
       8 -> 17         0.32122
       9 -> 18         0.19334
      10 -> 22         0.50108
      11 -> 23        -0.22983
      13 -> 29         0.15955

 Excited State  54:      Singlet-A     12.6355 eV   98.12 nm  f=0.0109  <S**2>=0.000
      10 -> 23        -0.12550
      11 -> 23         0.45309
      12 -> 26         0.10673
      13 -> 29         0.48845

 Excited State  55:      Singlet-A     12.6545 eV   97.98 nm  f=0.0392  <S**2>=0.000
       9 -> 18        -0.12456
      10 -> 22        -0.22884
      10 -> 23         0.12715
      11 -> 23        -0.40627
      13 -> 29         0.43124

 Excited State  56:      Singlet-A     12.7588 eV   97.18 nm  f=0.0257  <S**2>=0.000
       8 -> 17         0.45648
       9 -> 18        -0.36121
      10 -> 23        -0.16418
      12 -> 26        -0.25445

 Excited State  57:      Singlet-A     12.7987 eV   96.87 nm  f=0.0091  <S**2>=0.000
       7 -> 15         0.12825
       9 -> 18        -0.33677
      12 -> 26         0.54448
      12 -> 27         0.13538

 Excited State  58:      Singlet-A     12.8527 eV   96.47 nm  f=0.0105  <S**2>=0.000
       9 -> 18         0.14216
       9 -> 19        -0.10297
      10 -> 23        -0.18701
      12 -> 27         0.62736

 Excited State  59:      Singlet-A     12.9256 eV   95.92 nm  f=0.0363  <S**2>=0.000
       9 -> 18        -0.19874
       9 -> 19         0.19913
      10 -> 23         0.46467
      11 -> 23         0.12396
      12 -> 27         0.20160
      13 -> 30        -0.28800

 Excited State  60:      Singlet-A     12.9907 eV   95.44 nm  f=0.0237  <S**2>=0.000
       7 -> 16         0.12039
       8 -> 17        -0.25384
       8 -> 18        -0.10471
       9 -> 18        -0.22439
       9 -> 19         0.31337
       9 -> 20        -0.13789
      10 -> 22         0.15374
      10 -> 23        -0.30051
      11 -> 24         0.12040
      12 -> 26        -0.19219

 Excited State  61:      Singlet-A     13.0272 eV   95.17 nm  f=0.0068  <S**2>=0.000
       7 -> 15        -0.40396
       9 -> 19         0.10069
      10 -> 23         0.12121
      13 -> 30         0.52425

 Excited State  62:      Singlet-A     13.1070 eV   94.59 nm  f=0.0760  <S**2>=0.000
       7 -> 15         0.45970
       9 -> 19        -0.23813
      10 -> 23         0.16442
      11 -> 24         0.18646
      12 -> 26        -0.15305
      13 -> 30         0.27158

 Excited State  63:      Singlet-A     13.1886 eV   94.01 nm  f=0.0204  <S**2>=0.000
       9 -> 20         0.12459
      11 -> 24         0.54977
      11 -> 25        -0.22545
      12 -> 28         0.22873
      13 -> 30        -0.10914

 Excited State  64:      Singlet-A     13.2106 eV   93.85 nm  f=0.0054  <S**2>=0.000
       7 -> 15         0.16389
       7 -> 16        -0.10575
       8 -> 17         0.10925
       8 -> 18         0.17277
       9 -> 19         0.38854
       9 -> 20         0.37725
      12 -> 28        -0.23646
      13 -> 31        -0.11900

 Excited State  65:      Singlet-A     13.2773 eV   93.38 nm  f=0.0272  <S**2>=0.000
       7 -> 15        -0.11972
       8 -> 18        -0.26340
       9 -> 19        -0.16198
       9 -> 20         0.50239
      10 -> 24         0.12278
      11 -> 25         0.21937

 Excited State  66:      Singlet-A     13.3520 eV   92.86 nm  f=0.0157  <S**2>=0.000
       7 -> 16        -0.14758
       8 -> 18         0.27209
      10 -> 24        -0.20992
      11 -> 25         0.32900
      12 -> 28         0.46471

 Excited State  67:      Singlet-A     13.3940 eV   92.57 nm  f=0.0034  <S**2>=0.000
       7 -> 16         0.44359
       8 -> 18         0.39418
       9 -> 18        -0.10107
       9 -> 20         0.13963
      11 -> 25        -0.24758

 Excited State  68:      Singlet-A     13.4852 eV   91.94 nm  f=0.0784  <S**2>=0.000
       7 -> 16         0.27149
       8 -> 18         0.14114
       8 -> 20        -0.13027
       9 -> 21        -0.17317
      10 -> 24        -0.14812
      11 -> 24         0.23524
      11 -> 25         0.34712
      12 -> 28        -0.24648

 Excited State  69:      Singlet-A     13.5388 eV   91.58 nm  f=0.0145  <S**2>=0.000
       7 -> 16         0.26546
       8 -> 18        -0.18864
       9 -> 21         0.50382
      10 -> 25        -0.17879
      11 -> 25         0.14088
      12 -> 28         0.14255

 Excited State  70:      Singlet-A     13.5895 eV   91.24 nm  f=0.0303  <S**2>=0.000
       8 -> 19         0.10982
       8 -> 20        -0.17259
      10 -> 24         0.42849
      10 -> 25         0.36787
      11 -> 25         0.16320
      13 -> 31        -0.21824

 Excited State  71:      Singlet-A     13.6185 eV   91.04 nm  f=0.0118  <S**2>=0.000
       7 -> 16         0.16724
       7 -> 17         0.12071
       8 -> 18        -0.13253
       8 -> 19         0.41572
       9 -> 21        -0.27774
      10 -> 25        -0.22375
      12 -> 28         0.10039
      13 -> 31        -0.26434

 Excited State  72:      Singlet-A     13.6744 eV   90.67 nm  f=0.0652  <S**2>=0.000
       7 -> 16        -0.18169
       7 -> 17        -0.18864
       8 -> 18         0.13903
       8 -> 19         0.35742
       9 -> 19        -0.14086
       9 -> 21         0.26017
      10 -> 25        -0.21228
      11 -> 24         0.10114
      11 -> 26        -0.10222
      12 -> 28        -0.13774
      13 -> 31        -0.12053

 Excited State  73:      Singlet-A     13.7008 eV   90.49 nm  f=0.0338  <S**2>=0.000
       9 -> 21         0.10968
       9 -> 22         0.32891
      10 -> 24        -0.33023
      10 -> 25         0.34866
      11 -> 27         0.12197
      13 -> 31        -0.27357

 Excited State  74:      Singlet-A     13.7752 eV   90.01 nm  f=0.0341  <S**2>=0.000
       7 -> 17         0.21067
       8 -> 19         0.30312
       8 -> 20        -0.14393
       9 -> 22         0.21325
      10 -> 25         0.12716
      11 -> 26        -0.10569
      13 -> 31         0.43930
      13 -> 32         0.13701

 Excited State  75:      Singlet-A     13.8556 eV   89.48 nm  f=0.0077  <S**2>=0.000
       8 -> 20         0.31373
      11 -> 26         0.14926
      13 -> 32         0.58874

 Excited State  76:      Singlet-A     13.8838 eV   89.30 nm  f=0.0583  <S**2>=0.000
       8 -> 19        -0.16530
       9 -> 21        -0.10141
       9 -> 22         0.52326
       9 -> 23        -0.14314
      10 -> 24         0.15100
      10 -> 25        -0.18777
      11 -> 27        -0.18772
      12 -> 29        -0.11521

 Excited State  77:      Singlet-A     13.9437 eV   88.92 nm  f=0.0892  <S**2>=0.000
       7 -> 17         0.12370
       8 -> 20         0.46174
       8 -> 21        -0.11711
       9 -> 22         0.14728
       9 -> 23         0.13347
      11 -> 27        -0.18708
      12 -> 29        -0.11013
      13 -> 32        -0.30294

 Excited State  78:      Singlet-A     13.9938 eV   88.60 nm  f=0.0019  <S**2>=0.000
       7 -> 17        -0.31939
      11 -> 26         0.54492
      11 -> 27        -0.11293
      12 -> 29         0.13594
      12 -> 30         0.11148
      13 -> 31         0.10623

 Excited State  79:      Singlet-A     14.0290 eV   88.38 nm  f=0.0112  <S**2>=0.000
       7 -> 17        -0.21333
       8 -> 20         0.15431
       8 -> 21         0.14934
      11 -> 26        -0.27002
      11 -> 27        -0.18203
      12 -> 29         0.52204

 Excited State  80:      Singlet-A     14.1165 eV   87.83 nm  f=0.0193  <S**2>=0.000
       7 -> 17         0.37480
       8 -> 21        -0.11884
       9 -> 23        -0.24224
      10 -> 26         0.20376
      11 -> 26         0.17487
      11 -> 27        -0.11227
      12 -> 29         0.33774

 Excited State  81:      Singlet-A     14.1911 eV   87.37 nm  f=0.0622  <S**2>=0.000
       9 -> 23         0.12988
      10 -> 24         0.10314
      10 -> 26         0.33166
      11 -> 27         0.47302
      13 -> 33         0.21775

 Excited State  82:      Singlet-A     14.2343 eV   87.10 nm  f=0.0533  <S**2>=0.000
       8 -> 21        -0.38728
       9 -> 23         0.41873
      10 -> 26         0.11187
      10 -> 27        -0.20728
      11 -> 27        -0.10325
      13 -> 33         0.15303
      13 -> 34        -0.12299

 Excited State  83:      Singlet-A     14.3006 eV   86.70 nm  f=0.0490  <S**2>=0.000
       7 -> 17         0.13509
       8 -> 21         0.43076
       9 -> 23         0.21972
      10 -> 27        -0.16200
      11 -> 27        -0.15848
      13 -> 33         0.27499
      13 -> 34         0.11983

 Excited State  84:      Singlet-A     14.3402 eV   86.46 nm  f=0.0026  <S**2>=0.000
       8 -> 22         0.20877
      10 -> 26        -0.14755
      10 -> 27         0.42750
      11 -> 28        -0.10574
      13 -> 33         0.45169

 Excited State  85:      Singlet-A     14.3601 eV   86.34 nm  f=0.0460  <S**2>=0.000
       7 -> 18        -0.11933
       8 -> 22         0.37440
       8 -> 23        -0.10268
      10 -> 26         0.44019
      11 -> 27        -0.17020
      11 -> 28         0.15126

 Excited State  86:      Singlet-A     14.4119 eV   86.03 nm  f=0.0060  <S**2>=0.000
      10 -> 27         0.10454
      11 -> 28        -0.12687
      12 -> 30         0.52982
      13 -> 34        -0.41034

 Excited State  87:      Singlet-A     14.4576 eV   85.76 nm  f=0.0712  <S**2>=0.000
       7 -> 18         0.30284
       8 -> 22         0.39425
      10 -> 26        -0.12013
      10 -> 27        -0.28411
      11 -> 28        -0.19248
      12 -> 30         0.16621
      13 -> 34         0.20436

 Excited State  88:      Singlet-A     14.4857 eV   85.59 nm  f=0.0427  <S**2>=0.000
       8 -> 21        -0.12016
       8 -> 22        -0.26998
       9 -> 24        -0.10695
      10 -> 26         0.12718
      11 -> 28        -0.23111
      12 -> 30         0.24202
      13 -> 34         0.43426

 Excited State  89:      Singlet-A     14.5738 eV   85.07 nm  f=0.2129  <S**2>=0.000
       7 -> 18         0.26255
       7 -> 19        -0.11689
       7 -> 20         0.10685
       8 -> 22        -0.18369
       9 -> 23        -0.20655
       9 -> 24        -0.15994
      10 -> 27        -0.20599
      12 -> 30        -0.10954
      13 -> 33         0.22334
      13 -> 34        -0.19634
      13 -> 35        -0.22507

 Excited State  90:      Singlet-A     14.6253 eV   84.77 nm  f=0.0601  <S**2>=0.000
       7 -> 18         0.42949
       7 -> 19         0.13060
       9 -> 24         0.14114
      10 -> 27         0.11804
      11 -> 28         0.43452
      12 -> 30         0.12320

 Excited State  91:      Singlet-A     14.7127 eV   84.27 nm  f=0.0121  <S**2>=0.000
       7 -> 18         0.15085
       8 -> 23        -0.11450
       9 -> 24        -0.45796
       9 -> 25        -0.11088
      13 -> 35         0.46539

 Excited State  92:      Singlet-A     14.7480 eV   84.07 nm  f=0.0404  <S**2>=0.000
       7 -> 18         0.14195
       7 -> 19        -0.14303
       8 -> 23        -0.10198
       9 -> 24         0.28343
       9 -> 25         0.14379
      10 -> 28         0.46557

 The electronic state is 1-A.
 Alpha  occ. eigenvalues --  -18.78075  -9.95533  -9.90562  -0.93067  -0.67706
 Alpha  occ. eigenvalues --   -0.56622  -0.45893  -0.41263  -0.39092  -0.34249
 Alpha  occ. eigenvalues --   -0.33286  -0.28666  -0.23358
 Alpha virt. eigenvalues --   -0.01352   0.01830   0.03201   0.05040   0.07582
 Alpha virt. eigenvalues --    0.08624   0.09318   0.10549   0.11531   0.12766
 Alpha virt. eigenvalues --    0.14702   0.15510   0.17921   0.18323   0.19860

 Mulliken charges:
               1
     1  C    0.314974
     2  C    0.230586
     3  O   -0.397871
     4  H    0.012836
     5  H   -0.031160
     6  H   -0.005871
     7  H   -0.105592
     8  H   -0.190624
     9  H    0.172722
 Sum of Mulliken charges =   0.00000

 Dipole moment (field-independent basis, Debye):
    X=             -1.2626    Y=             -0.1610    Z=              1.1026  Tot=              1.6840
 Quadrupole moment (field-independent basis, Debye-Ang):
   XX=            -22.7338   YY=            -19.0556   ZZ=            -19.6519
   XY=             -0.9611   XZ=              1.6859   YZ=             -1.4685

 Normal termination of Gaussian 16 at Mon Mar 21 20:16:54 2022.
