 Gaussian 16, Revision C.01,
 Gaussian 16:  EM64L-G16RevC.01  3-Jul-2019

 ----------------------------------------------------------------------
 #P TD(Nstates=10000) pw91pw91/Gen SCF(maxcycles=100) Int(Grid=ultrafin
 e)
 ----------------------------------------------------------------------

 ---------------------
 xGDB7_00001_tier4.com
 ---------------------
 Symbolic Z-matrix:
 Charge =  0 Multiplicity = 1

                         Standard orientation:
 ---------------------------------------------------------------------
 Center     Atomic      Atomic             Coordinates (Angstroms)
 Number     Number       Type             X           Y           Z
 ---------------------------------------------------------------------
      1          6           0        0.000000    0.865978    0.000000
      2          6           0        0.749967   -0.432983    0.000000
      3          6           0       -0.749954   -0.432999    0.000000
      4          1           0       -0.000033    1.451806   -0.909176
      5          1           0       -0.000033    1.451806    0.909176
      6          1           0        1.257295   -0.725894    0.909177
      7          1           0        1.257295   -0.725894   -0.909177
      8          1           0       -1.257302   -0.725899    0.909179
      9          1           0       -1.257302   -0.725899   -0.909179
 ---------------------------------------------------------------------

 SCF Done:  E(RPW91-PW91) =  -117.756684020     A.U. after   11 cycles

 Excitation energies and oscillator strengths:

 Excited State   1:      Singlet-A'     7.4366 eV  166.72 nm  f=0.0019  <S**2>=0.000
      12 -> 13         0.70492
 This state for optimization and/or second-order correction.
 Total Energy, E(TD-HF/TD-DFT) =  -117.483394951
 Copying the excited state density for this state as the 1-particle RhoCI density.

 Excited State   2:      Singlet-A'     7.4367 eV  166.72 nm  f=0.0019  <S**2>=0.000
      11 -> 13         0.70492

 Excited State   3:      Singlet-A'     8.1049 eV  152.97 nm  f=0.0000  <S**2>=0.000
      11 -> 14         0.42098
      11 -> 15        -0.26851
      12 -> 14         0.26995
      12 -> 15         0.42132

 Excited State   4:      Singlet-A'     8.1072 eV  152.93 nm  f=0.0000  <S**2>=0.000
      11 -> 14        -0.26910
      11 -> 15        -0.41980
      12 -> 14         0.42224
      12 -> 15        -0.26920

 Excited State   5:      Singlet-A'     8.1593 eV  151.95 nm  f=0.0737  <S**2>=0.000
      11 -> 14         0.32839
      11 -> 15         0.37463
      12 -> 14         0.37257
      12 -> 15        -0.32809

 Excited State   6:      Singlet-A'     8.1593 eV  151.95 nm  f=0.0737  <S**2>=0.000
      11 -> 14         0.37370
      11 -> 15        -0.32921
      12 -> 14        -0.32727
      12 -> 15        -0.37351

 Excited State   7:      Singlet-A"     8.2994 eV  149.39 nm  f=0.0000  <S**2>=0.000
      12 -> 16         0.70607

 Excited State   8:      Singlet-A"     8.2996 eV  149.39 nm  f=0.0000  <S**2>=0.000
      11 -> 16         0.70607

 Excited State   9:      Singlet-A"     9.0058 eV  137.67 nm  f=0.0000  <S**2>=0.000
       9 -> 13        -0.13297
      10 -> 13         0.69244

 Excited State  10:      Singlet-A"     9.0059 eV  137.67 nm  f=0.0000  <S**2>=0.000
       9 -> 13         0.69244
      10 -> 13         0.13297

 Excited State  11:      Singlet-A'     9.5983 eV  129.17 nm  f=0.0011  <S**2>=0.000
      12 -> 17         0.70299

 Excited State  12:      Singlet-A'     9.5984 eV  129.17 nm  f=0.0011  <S**2>=0.000
      11 -> 17         0.70298

 Excited State  13:      Singlet-A"     9.6188 eV  128.90 nm  f=0.0000  <S**2>=0.000
       9 -> 14         0.21426
       9 -> 15         0.45074
      10 -> 14         0.45262
      10 -> 15        -0.21418

 Excited State  14:      Singlet-A"     9.6684 eV  128.24 nm  f=0.0000  <S**2>=0.000
       9 -> 14         0.39998
       9 -> 15         0.29912
      10 -> 14        -0.29834
      10 -> 15         0.39913

 Excited State  15:      Singlet-A"     9.6684 eV  128.24 nm  f=0.0000  <S**2>=0.000
       9 -> 14        -0.29827
       9 -> 15         0.40019
      10 -> 14        -0.39891
      10 -> 15        -0.29919

 Excited State  16:      Singlet-A"     9.7650 eV  126.97 nm  f=0.1347  <S**2>=0.000
       9 -> 14        -0.45055
       9 -> 15         0.21397
      10 -> 14         0.21348
      10 -> 15         0.45072

 Excited State  17:      Singlet-A'    10.0326 eV  123.58 nm  f=0.1129  <S**2>=0.000
      10 -> 16         0.69496

 Excited State  18:      Singlet-A'    10.0327 eV  123.58 nm  f=0.1129  <S**2>=0.000
       9 -> 16         0.69496

 Excited State  19:      Singlet-A"    10.4423 eV  118.73 nm  f=0.0000  <S**2>=0.000
      11 -> 19        -0.45928
      11 -> 20         0.19228
      12 -> 19         0.19513
      12 -> 20         0.46234

 Excited State  20:      Singlet-A"    10.4468 eV  118.68 nm  f=0.0187  <S**2>=0.000
      11 -> 19         0.19276
      11 -> 20         0.45610
      12 -> 19         0.46495
      12 -> 20        -0.19443

 Excited State  21:      Singlet-A"    10.4586 eV  118.55 nm  f=0.0000  <S**2>=0.000
      11 -> 19         0.49572
      12 -> 20         0.49240

 Excited State  22:      Singlet-A"    10.4587 eV  118.55 nm  f=0.0000  <S**2>=0.000
      11 -> 20         0.49865
      12 -> 19        -0.48944

 Excited State  23:      Singlet-A'    10.5921 eV  117.05 nm  f=0.1747  <S**2>=0.000
      12 -> 18         0.66404

 Excited State  24:      Singlet-A'    10.5922 eV  117.05 nm  f=0.1747  <S**2>=0.000
      11 -> 18         0.66403

 Excited State  25:      Singlet-A'    11.1655 eV  111.04 nm  f=0.0000  <S**2>=0.000
      11 -> 21         0.20577
      11 -> 22         0.45401
      12 -> 21         0.45640
      12 -> 22        -0.20599

 Excited State  26:      Singlet-A"    11.1956 eV  110.74 nm  f=0.0000  <S**2>=0.000
      10 -> 17         0.70111

 Excited State  27:      Singlet-A"    11.1957 eV  110.74 nm  f=0.0000  <S**2>=0.000
       9 -> 17         0.70111

 Excited State  28:      Singlet-A'    11.2110 eV  110.59 nm  f=0.0134  <S**2>=0.000
      11 -> 21         0.48688
      12 -> 22         0.48712

 Excited State  29:      Singlet-A'    11.2111 eV  110.59 nm  f=0.0134  <S**2>=0.000
      11 -> 22         0.48806
      12 -> 21        -0.48593

 Excited State  30:      Singlet-A"    11.4606 eV  108.18 nm  f=0.0000  <S**2>=0.000
      10 -> 18         0.70426

 Excited State  31:      Singlet-A"    11.4607 eV  108.18 nm  f=0.0000  <S**2>=0.000
       9 -> 18         0.70426

 Excited State  32:      Singlet-A'    11.4917 eV  107.89 nm  f=0.0000  <S**2>=0.000
       8 -> 13        -0.20018
       9 -> 19         0.14107
      10 -> 20         0.14109
      11 -> 21         0.40419
      11 -> 22        -0.18286
      12 -> 21        -0.18270
      12 -> 22        -0.40406

 Excited State  33:      Singlet-A'    11.7664 eV  105.37 nm  f=0.0000  <S**2>=0.000
      11 -> 23         0.45466
      11 -> 24        -0.20467
      12 -> 23         0.20532
      12 -> 24         0.45521

 Excited State  34:      Singlet-A'    11.7716 eV  105.32 nm  f=0.0000  <S**2>=0.000
       8 -> 13         0.30137
       9 -> 19         0.10801
      10 -> 20         0.10822
      11 -> 23        -0.17652
      11 -> 24        -0.39141
      12 -> 23         0.39266
      12 -> 24        -0.17678

 Excited State  35:      Singlet-A'    11.8427 eV  104.69 nm  f=0.0300  <S**2>=0.000
      11 -> 23         0.29051
      11 -> 24         0.38228
      12 -> 23         0.38732
      12 -> 24        -0.29298

 Excited State  36:      Singlet-A'    11.8427 eV  104.69 nm  f=0.0300  <S**2>=0.000
      11 -> 23         0.38568
      11 -> 24        -0.29094
      12 -> 23        -0.29253
      12 -> 24        -0.38402

 Excited State  37:      Singlet-A'    11.8462 eV  104.66 nm  f=0.0000  <S**2>=0.000
       8 -> 13         0.55712
       9 -> 19         0.14771
      10 -> 20         0.15029
      11 -> 23         0.10490
      11 -> 24         0.23533
      12 -> 23        -0.22209
      12 -> 24         0.10120

 Excited State  38:      Singlet-A"    11.9190 eV  104.02 nm  f=0.0000  <S**2>=0.000
      12 -> 25         0.69693

 Excited State  39:      Singlet-A"    11.9192 eV  104.02 nm  f=0.0000  <S**2>=0.000
      11 -> 25         0.69693

 Excited State  40:      Singlet-A'    11.9981 eV  103.34 nm  f=0.0000  <S**2>=0.000
       9 -> 19        -0.24977
       9 -> 20        -0.43235
      10 -> 19         0.43270
      10 -> 20        -0.24981

 Excited State  41:      Singlet-A'    12.1597 eV  101.96 nm  f=0.0091  <S**2>=0.000
       8 -> 15         0.11646
       9 -> 20         0.47349
      10 -> 19         0.47318

 Excited State  42:      Singlet-A'    12.1597 eV  101.96 nm  f=0.0091  <S**2>=0.000
       8 -> 14         0.11651
       9 -> 19         0.47335
      10 -> 20        -0.47332

 Excited State  43:      Singlet-A"    12.2121 eV  101.53 nm  f=0.0000  <S**2>=0.000
      11 -> 26        -0.43038
      11 -> 27         0.23852
      12 -> 26         0.24652
      12 -> 27         0.43387

 Excited State  44:      Singlet-A"    12.2121 eV  101.53 nm  f=0.0000  <S**2>=0.000
      11 -> 26         0.24405
      11 -> 27         0.42770
      12 -> 26         0.43651
      12 -> 27        -0.24106

 Excited State  45:      Singlet-A"    12.2193 eV  101.47 nm  f=0.0000  <S**2>=0.000
      11 -> 26        -0.18489
      11 -> 27         0.47121
      12 -> 26        -0.45893
      12 -> 27        -0.18185

 Excited State  46:      Singlet-A"    12.3259 eV  100.59 nm  f=0.0134  <S**2>=0.000
       7 -> 13        -0.16575
       8 -> 16        -0.19564
      11 -> 26         0.42815
      11 -> 27         0.16884
      12 -> 26        -0.16861
      12 -> 27         0.42768

 Excited State  47:      Singlet-A'    12.4692 eV   99.43 nm  f=0.0705  <S**2>=0.000
       8 -> 14         0.65912
      11 -> 28         0.10288
      12 -> 28        -0.18243

 Excited State  48:      Singlet-A'    12.4694 eV   99.43 nm  f=0.0705  <S**2>=0.000
       8 -> 15         0.65911
      11 -> 28         0.18241
      12 -> 28         0.10297

 Excited State  49:      Singlet-A"    12.4796 eV   99.35 nm  f=0.0425  <S**2>=0.000
       7 -> 13         0.64087
       8 -> 16        -0.27413

 Excited State  50:      Singlet-A'    12.6074 eV   98.34 nm  f=0.0000  <S**2>=0.000
       7 -> 16         0.34478
       8 -> 13        -0.20623
       9 -> 19         0.32235
       9 -> 20        -0.18618
      10 -> 19         0.18614
      10 -> 20         0.32235
      11 -> 21        -0.13448
      12 -> 22         0.13447

 Excited State  51:      Singlet-A"    12.6790 eV   97.79 nm  f=0.0165  <S**2>=0.000
       7 -> 13         0.10253
       8 -> 16         0.38855
       9 -> 21         0.20889
       9 -> 22         0.33967
      10 -> 21        -0.34081
      10 -> 22         0.20888

 Excited State  52:      Singlet-A"    12.6955 eV   97.66 nm  f=0.0000  <S**2>=0.000
       9 -> 21         0.42591
       9 -> 22        -0.26093
      10 -> 21         0.26222
      10 -> 22         0.42622

 Excited State  53:      Singlet-A"    12.7284 eV   97.41 nm  f=0.0000  <S**2>=0.000
       9 -> 21         0.49584
      10 -> 22        -0.49557

 Excited State  54:      Singlet-A"    12.7285 eV   97.41 nm  f=0.0000  <S**2>=0.000
       9 -> 22         0.49625
      10 -> 21         0.49515

 Excited State  55:      Singlet-A"    12.7803 eV   97.01 nm  f=0.1362  <S**2>=0.000
       7 -> 13         0.17183
       8 -> 16         0.45097
       9 -> 21        -0.15424
       9 -> 22        -0.25140
       9 -> 23         0.16750
      10 -> 21         0.25075
      10 -> 22        -0.15404
      10 -> 24        -0.16746
      11 -> 26         0.11118
      12 -> 27         0.11103

 Excited State  56:      Singlet-A'    12.7974 eV   96.88 nm  f=0.2277  <S**2>=0.000
       8 -> 14         0.18960
       9 -> 25         0.13167
      12 -> 28         0.62897

 Excited State  57:      Singlet-A'    12.7976 eV   96.88 nm  f=0.2276  <S**2>=0.000
       8 -> 15        -0.18960
      10 -> 25         0.13169
      11 -> 28         0.62899

 Excited State  58:      Singlet-A"    13.1326 eV   94.41 nm  f=0.0000  <S**2>=0.000
       7 -> 14         0.70528

 Excited State  59:      Singlet-A"    13.1327 eV   94.41 nm  f=0.0000  <S**2>=0.000
       7 -> 15         0.70528

 Excited State  60:      Singlet-A"    13.3263 eV   93.04 nm  f=0.0000  <S**2>=0.000
       9 -> 23         0.14654
       9 -> 24         0.47768
      10 -> 23         0.47836
      10 -> 24        -0.14658

 Excited State  61:      Singlet-A"    13.4331 eV   92.30 nm  f=0.0000  <S**2>=0.000
       9 -> 23         0.30181
       9 -> 24         0.38652
      10 -> 23        -0.38599
      10 -> 24         0.30163

 Excited State  62:      Singlet-A"    13.4331 eV   92.30 nm  f=0.0000  <S**2>=0.000
       9 -> 23         0.38618
       9 -> 24        -0.30189
      10 -> 23         0.30154
      10 -> 24         0.38633

 Excited State  63:      Singlet-A'    13.6741 eV   90.67 nm  f=0.0117  <S**2>=0.000
       9 -> 26        -0.19888
       9 -> 27        -0.15509
      10 -> 25         0.59150
      10 -> 26         0.15530
      10 -> 27        -0.19900

 Excited State  64:      Singlet-A'    13.6742 eV   90.67 nm  f=0.0117  <S**2>=0.000
       9 -> 25         0.59147
       9 -> 26        -0.15512
       9 -> 27         0.19877
      10 -> 26        -0.19917
      10 -> 27        -0.15536

 Excited State  65:      Singlet-A'    13.7309 eV   90.30 nm  f=0.0000  <S**2>=0.000
       7 -> 16         0.40588
       8 -> 17        -0.23150
       9 -> 26         0.16512
       9 -> 27        -0.30121
      10 -> 26        -0.30100
      10 -> 27        -0.16498

 Excited State  66:      Singlet-A'    13.7875 eV   89.92 nm  f=0.0000  <S**2>=0.000
       8 -> 18         0.16388
       9 -> 26         0.42627
       9 -> 27         0.23365
      10 -> 26         0.23362
      10 -> 27        -0.42619

 Excited State  67:      Singlet-A'    13.8741 eV   89.36 nm  f=0.0000  <S**2>=0.000
       7 -> 16        -0.24114
       8 -> 17         0.44372
       9 -> 26         0.16063
       9 -> 27        -0.29299
      10 -> 26        -0.29288
      10 -> 27        -0.16052

 Excited State  68:      Singlet-A"    13.8864 eV   89.28 nm  f=0.5820  <S**2>=0.000
       7 -> 13        -0.11540
       7 -> 17        -0.30189
       8 -> 16        -0.14039
       9 -> 23         0.39420
       9 -> 24        -0.12088
      10 -> 23        -0.12084
      10 -> 24        -0.39419

 Excited State  69:      Singlet-A'    14.0903 eV   87.99 nm  f=0.4720  <S**2>=0.000
       9 -> 25        -0.26797
       9 -> 27         0.39541
      10 -> 25         0.10266
      10 -> 26        -0.39540
      11 -> 30         0.10536
      12 -> 28         0.12616
      12 -> 29        -0.10544

 Excited State  70:      Singlet-A'    14.0903 eV   87.99 nm  f=0.4721  <S**2>=0.000
       9 -> 25         0.10271
       9 -> 26         0.39540
      10 -> 25         0.26792
      10 -> 27         0.39542
      11 -> 28        -0.12618
      11 -> 29        -0.10542
      12 -> 30        -0.10540

 Excited State  71:      Singlet-A'    14.1912 eV   87.37 nm  f=0.0000  <S**2>=0.000
       5 -> 14        -0.12931
       6 -> 15         0.12930
       7 -> 16         0.34123
       8 -> 17         0.48828
       9 -> 27         0.11706
      10 -> 26         0.11707

 Excited State  72:      Singlet-A"    14.2270 eV   87.15 nm  f=0.0000  <S**2>=0.000
      10 -> 28         0.69281

 Excited State  73:      Singlet-A"    14.2271 eV   87.15 nm  f=0.0000  <S**2>=0.000
       9 -> 28         0.69281

 Excited State  74:      Singlet-A'    14.3453 eV   86.43 nm  f=0.0000  <S**2>=0.000
       8 -> 18         0.64797
      11 -> 29        -0.12335
      11 -> 30        -0.10677
      12 -> 29        -0.10680
      12 -> 30         0.12335

 Excited State  75:      Singlet-A'    14.6423 eV   84.68 nm  f=0.0000  <S**2>=0.000
       8 -> 18         0.21472
      11 -> 29         0.35583
      11 -> 30         0.30787
      12 -> 29         0.30818
      12 -> 30        -0.35576

 Excited State  76:      Singlet-A'    14.6630 eV   84.56 nm  f=0.0000  <S**2>=0.000
      11 -> 29        -0.31934
      11 -> 30         0.36858
      12 -> 29         0.36909
      12 -> 30         0.31928

 Excited State  77:      Singlet-A'    14.7895 eV   83.83 nm  f=0.1244  <S**2>=0.000
       6 -> 13         0.61896
      11 -> 29        -0.22200
      12 -> 30        -0.22205

 Excited State  78:      Singlet-A'    14.7895 eV   83.83 nm  f=0.1245  <S**2>=0.000
       5 -> 13         0.61889
      11 -> 30        -0.22241
      12 -> 29         0.22183

 Excited State  79:      Singlet-A"    14.8084 eV   83.73 nm  f=0.0000  <S**2>=0.000
       8 -> 19         0.70428

 Excited State  80:      Singlet-A"    14.8084 eV   83.73 nm  f=0.0000  <S**2>=0.000
       8 -> 20         0.70428

 Excited State  81:      Singlet-A"    14.8807 eV   83.32 nm  f=0.0000  <S**2>=0.000
       7 -> 18         0.70577

 Excited State  82:      Singlet-A'    14.8934 eV   83.25 nm  f=0.1837  <S**2>=0.000
       5 -> 13         0.11855
       6 -> 13         0.25361
      10 -> 25         0.12969
      11 -> 29         0.26879
      11 -> 30         0.22474
      11 -> 31         0.19526
      11 -> 32        -0.12229
      12 -> 29        -0.22447
      12 -> 30         0.26890
      12 -> 32         0.24321

 Excited State  83:      Singlet-A'    14.8934 eV   83.25 nm  f=0.1837  <S**2>=0.000
       5 -> 13         0.25367
       6 -> 13        -0.11836
       9 -> 25         0.12970
      11 -> 29        -0.22467
      11 -> 30         0.26894
      11 -> 32        -0.24315
      12 -> 29        -0.26866
      12 -> 30        -0.22464
      12 -> 31         0.19536
      12 -> 32        -0.12232

 Excited State  84:      Singlet-A"    14.9716 eV   82.81 nm  f=0.5484  <S**2>=0.000
       7 -> 17         0.62660
       8 -> 25        -0.11522
       9 -> 23         0.15523
      10 -> 24        -0.15522

 Excited State  85:      Singlet-A'    15.1834 eV   81.66 nm  f=0.0379  <S**2>=0.000
      11 -> 30        -0.10099
      11 -> 32         0.14864
      12 -> 29         0.10086
      12 -> 31         0.66114

 Excited State  86:      Singlet-A'    15.1836 eV   81.66 nm  f=0.0379  <S**2>=0.000
      11 -> 29        -0.10084
      11 -> 31         0.66116
      12 -> 30        -0.10087
      12 -> 32        -0.14871

 Excited State  87:      Singlet-A'    15.3911 eV   80.56 nm  f=0.0140  <S**2>=0.000
       5 -> 15         0.38820
       6 -> 14        -0.38952
      12 -> 32         0.40137

 Excited State  88:      Singlet-A'    15.3912 eV   80.56 nm  f=0.0140  <S**2>=0.000
       5 -> 14        -0.38902
       6 -> 15        -0.38902
      11 -> 32         0.40122

 Excited State  89:      Singlet-A'    15.4370 eV   80.32 nm  f=0.0000  <S**2>=0.000
       5 -> 14         0.25477
       5 -> 15         0.42494
       6 -> 14         0.42548
       6 -> 15        -0.25457

 Excited State  90:      Singlet-A'    15.4489 eV   80.25 nm  f=0.0163  <S**2>=0.000
       5 -> 14         0.12223
       5 -> 15         0.21093
       6 -> 14        -0.20857
       6 -> 15         0.12076
       7 -> 19         0.35069
       7 -> 20         0.33430
       8 -> 21        -0.16432
       8 -> 22         0.18166
      11 -> 32         0.10522
      12 -> 32        -0.24106

 Excited State  91:      Singlet-A'    15.4489 eV   80.25 nm  f=0.0163  <S**2>=0.000
       5 -> 14        -0.20897
       5 -> 15         0.12262
       6 -> 14        -0.12069
       6 -> 15        -0.21011
       7 -> 19        -0.33451
       7 -> 20         0.35053
       8 -> 21        -0.18185
       8 -> 22        -0.16419
      11 -> 32        -0.24123
      12 -> 32        -0.10507

 Excited State  92:      Singlet-A"    15.5344 eV   79.81 nm  f=0.0000  <S**2>=0.000
      12 -> 33         0.70080

 Excited State  93:      Singlet-A"    15.5345 eV   79.81 nm  f=0.0000  <S**2>=0.000
      11 -> 33         0.70080

 Excited State  94:      Singlet-A'    15.5493 eV   79.74 nm  f=0.0883  <S**2>=0.000
       7 -> 20         0.39731
       8 -> 21         0.56180

 Excited State  95:      Singlet-A'    15.5493 eV   79.74 nm  f=0.0883  <S**2>=0.000
       7 -> 19        -0.39705
       8 -> 22         0.56193

 Excited State  96:      Singlet-A"    15.6446 eV   79.25 nm  f=0.0000  <S**2>=0.000
       5 -> 16         0.52609
       6 -> 16        -0.10677
      12 -> 34        -0.42176

 Excited State  97:      Singlet-A"    15.6446 eV   79.25 nm  f=0.0000  <S**2>=0.000
       5 -> 16         0.10487
       6 -> 16         0.53323
      11 -> 34        -0.41197

 Excited State  98:      Singlet-A"    15.6514 eV   79.22 nm  f=0.0000  <S**2>=0.000
       5 -> 16         0.41405
      12 -> 34         0.55498

 Excited State  99:      Singlet-A"    15.6515 eV   79.22 nm  f=0.0000  <S**2>=0.000
       6 -> 16         0.40433
      11 -> 34         0.56267

 Excited State 100:      Singlet-A'    15.9706 eV   77.63 nm  f=0.0000  <S**2>=0.000
       5 -> 14         0.37834
       5 -> 15        -0.22658
       6 -> 14        -0.22660
       6 -> 15        -0.37832
       7 -> 16         0.13008
       8 -> 28        -0.13375

 Excited State 101:      Singlet-A'    16.0456 eV   77.27 nm  f=0.0011  <S**2>=0.000
       7 -> 19         0.20809
       8 -> 22         0.19520
       8 -> 23        -0.17587
       8 -> 24         0.48685
      11 -> 32        -0.17366
      12 -> 32         0.17909

 Excited State 102:      Singlet-A'    16.0456 eV   77.27 nm  f=0.0011  <S**2>=0.000
       7 -> 20         0.20809
       8 -> 21        -0.19515
       8 -> 23         0.48695
       8 -> 24         0.17585
      11 -> 32         0.17906
      12 -> 32         0.17360

 Excited State 103:      Singlet-A"    16.0875 eV   77.07 nm  f=0.0000  <S**2>=0.000
       9 -> 29         0.27683
       9 -> 30        -0.41488
      10 -> 29         0.41579
      10 -> 30         0.27660

 Excited State 104:      Singlet-A"    16.1685 eV   76.68 nm  f=0.0000  <S**2>=0.000
       7 -> 21         0.63427
       9 -> 30        -0.21088
      10 -> 29        -0.21055

 Excited State 105:      Singlet-A"    16.1685 eV   76.68 nm  f=0.0000  <S**2>=0.000
       7 -> 22         0.63398
       9 -> 29        -0.21120
      10 -> 30         0.21103

 Excited State 106:      Singlet-A"    16.2108 eV   76.48 nm  f=0.0000  <S**2>=0.000
       6 -> 16         0.12696
       7 -> 21        -0.17702
       7 -> 22         0.25419
       9 -> 29         0.33437
       9 -> 30        -0.26879
      10 -> 29        -0.26913

 The electronic state is 1-A'.
 Alpha  occ. eigenvalues --   -9.90912  -9.90900  -9.90900  -0.77621  -0.53239
 Alpha  occ. eigenvalues --   -0.53239  -0.44731  -0.42248  -0.32037  -0.32036
 Alpha  occ. eigenvalues --   -0.26289  -0.26288
 Alpha virt. eigenvalues --    0.00816   0.03310   0.03310   0.03962   0.08875
 Alpha virt. eigenvalues --    0.09597   0.12059   0.12059   0.14670   0.14670
 Alpha virt. eigenvalues --    0.16943   0.16943   0.17268   0.18608   0.18608

 Mulliken charges:
               1
     1  C    0.475748
     2  C    0.475868
     3  C    0.475769
     4  H   -0.237886
     5  H   -0.237886
     6  H   -0.237907
     7  H   -0.237907
     8  H   -0.237899
     9  H   -0.237899
 Sum of Mulliken charges =  -0.00000

 Dipole moment (field-independent basis, Debye):
    X=             -0.0000    Y=             -0.0000    Z=              0.0000  Tot=              0.0000
 Quadrupole moment (field-independent basis, Debye-Ang):
   XX=            -20.8519   YY=            -20.8519   ZZ=            -18.6827
   XY=             -0.0001   XZ=              0.0000   YZ=             -0.0000

 Normal termination of Gaussian 16 at Mon Mar 21 20:20:43 2022.
