 Gaussian 16, Revision C.01,
 Gaussian 16:  EM64L-G16RevC.01  3-Jul-2019

 ----------------------------------------------------------------------
 #P TD(Nstates=10000) pw91pw91/Gen SCF(maxcycles=100) Int(Grid=ultrafin
 e)
 ----------------------------------------------------------------------

 ---------------------
 xGDB7_00001_tier4.com
 ---------------------
 Symbolic Z-matrix:
 Charge =  0 Multiplicity = 1

                         Standard orientation:
 ---------------------------------------------------------------------
 Center     Atomic      Atomic             Coordinates (Angstroms)
 Number     Number       Type             X           Y           Z
 ---------------------------------------------------------------------
      1          6           0       -0.026655   -0.220923    1.206915
      2          7           0       -0.026655    0.579675   -0.000000
      3          6           0       -0.026655   -0.220923   -1.206915
      4          1           0        0.028929    0.427196    2.082330
      5          1           0        0.800836   -0.947383    1.258571
      6          1           0       -0.961718   -0.783094    1.269367
      7          1           0        0.770359    1.199905   -0.000000
      8          1           0       -0.961718   -0.783094   -1.269367
      9          1           0        0.800836   -0.947383   -1.258571
     10          1           0        0.028929    0.427196   -2.082330
 ---------------------------------------------------------------------

 SCF Done:  E(RPW91-PW91) =  -135.009203989     A.U. after   12 cycles

 Excitation energies and oscillator strengths:

 Excited State   1:      Singlet-A'     5.0223 eV  246.87 nm  f=0.0050  <S**2>=0.000
      13 -> 14         0.70635
 This state for optimization and/or second-order correction.
 Total Energy, E(TD-HF/TD-DFT) =  -134.824639561
 Copying the excited state density for this state as the 1-particle RhoCI density.

 Excited State   2:      Singlet-A"     5.8709 eV  211.19 nm  f=0.0041  <S**2>=0.000
      13 -> 15         0.70667

 Excited State   3:      Singlet-A'     6.1028 eV  203.16 nm  f=0.0267  <S**2>=0.000
      13 -> 16         0.70517

 Excited State   4:      Singlet-A'     6.9858 eV  177.48 nm  f=0.0069  <S**2>=0.000
      13 -> 17         0.54453
      13 -> 18        -0.44922

 Excited State   5:      Singlet-A'     7.0941 eV  174.77 nm  f=0.0897  <S**2>=0.000
      13 -> 17         0.44572
      13 -> 18         0.54287

 Excited State   6:      Singlet-A"     7.7314 eV  160.37 nm  f=0.0127  <S**2>=0.000
      13 -> 19         0.70125

 Excited State   7:      Singlet-A'     7.8872 eV  157.20 nm  f=0.0054  <S**2>=0.000
      13 -> 20         0.69956

 Excited State   8:      Singlet-A"     8.2275 eV  150.70 nm  f=0.0773  <S**2>=0.000
      13 -> 21         0.69803

 Excited State   9:      Singlet-A'     8.2844 eV  149.66 nm  f=0.0060  <S**2>=0.000
      13 -> 22         0.70096

 Excited State  10:      Singlet-A"     8.7830 eV  141.16 nm  f=0.0420  <S**2>=0.000
      12 -> 14         0.68891
      13 -> 23        -0.15108

 Excited State  11:      Singlet-A"     8.8256 eV  140.48 nm  f=0.0072  <S**2>=0.000
      12 -> 14         0.14878
      13 -> 23         0.68671

 Excited State  12:      Singlet-A'     8.8763 eV  139.68 nm  f=0.0085  <S**2>=0.000
      11 -> 14         0.69295
      13 -> 24        -0.12816

 Excited State  13:      Singlet-A'     9.1366 eV  135.70 nm  f=0.0034  <S**2>=0.000
      11 -> 14         0.12132
      13 -> 24         0.68710

 Excited State  14:      Singlet-A"     9.3338 eV  132.83 nm  f=0.0007  <S**2>=0.000
      10 -> 14         0.66138
      13 -> 25         0.24178

 Excited State  15:      Singlet-A"     9.3715 eV  132.30 nm  f=0.0174  <S**2>=0.000
      10 -> 14        -0.24301
      13 -> 25         0.65974

 Excited State  16:      Singlet-A'     9.7174 eV  127.59 nm  f=0.0178  <S**2>=0.000
      12 -> 15         0.70064

 Excited State  17:      Singlet-A"     9.7266 eV  127.47 nm  f=0.0026  <S**2>=0.000
      11 -> 15         0.69785

 Excited State  18:      Singlet-A"     9.8116 eV  126.36 nm  f=0.0067  <S**2>=0.000
      12 -> 16         0.70115

 Excited State  19:      Singlet-A"     9.9553 eV  124.54 nm  f=0.0232  <S**2>=0.000
      13 -> 26         0.69619

 Excited State  20:      Singlet-A'     9.9570 eV  124.52 nm  f=0.1030  <S**2>=0.000
      11 -> 16         0.69513

 Excited State  21:      Singlet-A'    10.2424 eV  121.05 nm  f=0.0574  <S**2>=0.000
      10 -> 15         0.69497

 Excited State  22:      Singlet-A"    10.3675 eV  119.59 nm  f=0.0008  <S**2>=0.000
      10 -> 16         0.70324

 Excited State  23:      Singlet-A'    10.6461 eV  116.46 nm  f=0.0084  <S**2>=0.000
      13 -> 27         0.66719
      13 -> 28        -0.11142

 Excited State  24:      Singlet-A"    10.7314 eV  115.53 nm  f=0.0043  <S**2>=0.000
       9 -> 14        -0.22344
      12 -> 17         0.55027
      12 -> 18         0.37947

 Excited State  25:      Singlet-A'    10.7820 eV  114.99 nm  f=0.0174  <S**2>=0.000
      11 -> 17         0.69525

 Excited State  26:      Singlet-A'    10.8174 eV  114.62 nm  f=0.0565  <S**2>=0.000
       8 -> 14         0.67444
      11 -> 18        -0.14765

 Excited State  27:      Singlet-A"    10.8202 eV  114.59 nm  f=0.0060  <S**2>=0.000
       9 -> 14         0.62178
      10 -> 17         0.10713
      12 -> 17         0.28566

 Excited State  28:      Singlet-A"    10.8820 eV  113.93 nm  f=0.1750  <S**2>=0.000
       9 -> 14         0.20726
      12 -> 17        -0.31343
      12 -> 18         0.58181

 Excited State  29:      Singlet-A'    11.0347 eV  112.36 nm  f=0.0562  <S**2>=0.000
       8 -> 14         0.13921
      11 -> 18         0.65688
      12 -> 19         0.10007
      13 -> 28        -0.11907

 Excited State  30:      Singlet-A'    11.1796 eV  110.90 nm  f=0.0163  <S**2>=0.000
       9 -> 15        -0.10958
      11 -> 18         0.10539
      13 -> 28         0.66943

 Excited State  31:      Singlet-A"    11.2304 eV  110.40 nm  f=0.0119  <S**2>=0.000
      10 -> 17         0.20405
      13 -> 29         0.66747

 Excited State  32:      Singlet-A"    11.3570 eV  109.17 nm  f=0.0092  <S**2>=0.000
      10 -> 17         0.54634
      10 -> 18        -0.40113
      13 -> 29        -0.14155

 Excited State  33:      Singlet-A"    11.4780 eV  108.02 nm  f=0.0245  <S**2>=0.000
      10 -> 17         0.29365
      10 -> 18         0.49624
      11 -> 19         0.33668
      13 -> 29        -0.10834

 Excited State  34:      Singlet-A"    11.5976 eV  106.91 nm  f=0.0100  <S**2>=0.000
       8 -> 15        -0.22059
       9 -> 16         0.17629
      10 -> 17        -0.19893
      10 -> 18        -0.20140
      11 -> 19         0.48852
      12 -> 20        -0.26602

 Excited State  35:      Singlet-A'    11.6271 eV  106.63 nm  f=0.0073  <S**2>=0.000
       8 -> 16         0.12795
      11 -> 20        -0.29837
      12 -> 19         0.59238

 Excited State  36:      Singlet-A"    11.6601 eV  106.33 nm  f=0.0000  <S**2>=0.000
       8 -> 15        -0.29215
      11 -> 19         0.16921
      12 -> 20         0.60599

 Excited State  37:      Singlet-A'    11.6725 eV  106.22 nm  f=0.0642  <S**2>=0.000
       9 -> 15         0.61131
      11 -> 20         0.25966
      12 -> 19         0.17056

 Excited State  38:      Singlet-A'    11.6833 eV  106.12 nm  f=0.0002  <S**2>=0.000
       7 -> 14        -0.10478
       9 -> 15        -0.29950
      11 -> 20         0.54533
      12 -> 19         0.20655
      13 -> 30         0.18544

 Excited State  39:      Singlet-A"    11.6887 eV  106.07 nm  f=0.0274  <S**2>=0.000
       8 -> 15         0.59700
       9 -> 16         0.10360
      11 -> 19         0.25779
      12 -> 20         0.18388

 Excited State  40:      Singlet-A'    11.7984 eV  105.09 nm  f=0.0041  <S**2>=0.000
       8 -> 16         0.63295
      12 -> 19        -0.14901
      13 -> 30         0.22597

 Excited State  41:      Singlet-A"    11.8365 eV  104.75 nm  f=0.0513  <S**2>=0.000
       9 -> 16         0.64649
      11 -> 19        -0.14410
      11 -> 21        -0.21389

 Excited State  42:      Singlet-A'    11.8575 eV  104.56 nm  f=0.0964  <S**2>=0.000
       8 -> 16        -0.23797
      10 -> 19         0.11319
      11 -> 20        -0.11834
      13 -> 30         0.60776
      13 -> 31        -0.10689

 Excited State  43:      Singlet-A'    11.9047 eV  104.15 nm  f=0.0006  <S**2>=0.000
      10 -> 19         0.14608
      12 -> 21         0.68112

 Excited State  44:      Singlet-A"    12.0016 eV  103.31 nm  f=0.0100  <S**2>=0.000
       9 -> 16        -0.11766
      11 -> 21        -0.46740
      12 -> 22         0.51033

 Excited State  45:      Singlet-A"    12.0676 eV  102.74 nm  f=0.0609  <S**2>=0.000
      10 -> 20         0.52286
      11 -> 21         0.31624
      12 -> 22         0.31767

 Excited State  46:      Singlet-A'    12.0903 eV  102.55 nm  f=0.0586  <S**2>=0.000
      10 -> 19         0.66991
      12 -> 21        -0.13255

 Excited State  47:      Singlet-A'    12.1183 eV  102.31 nm  f=0.0391  <S**2>=0.000
       7 -> 14         0.37356
      11 -> 22         0.57624

 Excited State  48:      Singlet-A'    12.1938 eV  101.68 nm  f=0.0274  <S**2>=0.000
       7 -> 14         0.54258
       8 -> 17         0.10031
      10 -> 21         0.14636
      11 -> 22        -0.36973

 Excited State  49:      Singlet-A"    12.2174 eV  101.48 nm  f=0.0191  <S**2>=0.000
      10 -> 18        -0.13064
      10 -> 20         0.45817
      11 -> 21        -0.31088
      11 -> 23         0.14332
      12 -> 22        -0.33776

 Excited State  50:      Singlet-A'    12.4911 eV   99.26 nm  f=0.0339  <S**2>=0.000
       8 -> 17        -0.13300
      10 -> 21         0.15689
      12 -> 23        -0.14100
      13 -> 31         0.61534
      13 -> 33         0.16787

 Excited State  51:      Singlet-A'    12.5886 eV   98.49 nm  f=0.0464  <S**2>=0.000
       8 -> 17        -0.20705
       8 -> 18        -0.11923
      10 -> 21         0.42882
      12 -> 23        -0.41736
      13 -> 31        -0.24504

 Excited State  52:      Singlet-A"    12.6108 eV   98.32 nm  f=0.0056  <S**2>=0.000
       9 -> 18         0.10769
      10 -> 22         0.63269
      11 -> 23         0.26177

 Excited State  53:      Singlet-A'    12.6792 eV   97.79 nm  f=0.0571  <S**2>=0.000
       8 -> 17        -0.31700
       8 -> 18        -0.13815
      10 -> 21         0.27809
      10 -> 23        -0.11046
      12 -> 23         0.50638

 Excited State  54:      Singlet-A"    12.6904 eV   97.70 nm  f=0.0004  <S**2>=0.000
       9 -> 17         0.48115
      11 -> 23         0.19104
      13 -> 32         0.46854

 Excited State  55:      Singlet-A"    12.7078 eV   97.57 nm  f=0.0026  <S**2>=0.000
       9 -> 17         0.45451
       9 -> 18         0.25865
      11 -> 23        -0.23197
      13 -> 32        -0.39062

 Excited State  56:      Singlet-A"    12.7767 eV   97.04 nm  f=0.0903  <S**2>=0.000
       9 -> 18         0.21937
      10 -> 22        -0.26918
      11 -> 23         0.46181
      12 -> 24         0.28952
      13 -> 32        -0.23015

 Excited State  57:      Singlet-A'    12.7823 eV   97.00 nm  f=0.0006  <S**2>=0.000
       8 -> 17        -0.16520
       8 -> 18         0.31407
      11 -> 24         0.23832
      12 -> 25         0.11387
      13 -> 31        -0.10253
      13 -> 33         0.49272
      13 -> 34         0.18837

 Excited State  58:      Singlet-A'    12.8120 eV   96.77 nm  f=0.0155  <S**2>=0.000
       8 -> 17        -0.22674
       8 -> 18         0.49115
      11 -> 24         0.14300
      13 -> 33        -0.38870

 Excited State  59:      Singlet-A"    12.8529 eV   96.46 nm  f=0.0163  <S**2>=0.000
       7 -> 15         0.17984
       9 -> 17        -0.18650
       9 -> 18         0.54808
      11 -> 25         0.10452
      12 -> 24        -0.24514
      13 -> 32         0.17965

 Excited State  60:      Singlet-A"    12.9185 eV   95.97 nm  f=0.0006  <S**2>=0.000
       9 -> 18         0.18866
      11 -> 23        -0.30368
      12 -> 24         0.55312
      13 -> 32         0.11631

 Excited State  61:      Singlet-A'    12.9211 eV   95.95 nm  f=0.0356  <S**2>=0.000
       8 -> 17         0.16211
      12 -> 25        -0.10398
      13 -> 33        -0.12661
      13 -> 34         0.64035

 Excited State  62:      Singlet-A'    12.9635 eV   95.64 nm  f=0.0121  <S**2>=0.000
       7 -> 16         0.13069
       8 -> 18        -0.22282
      10 -> 23         0.19091
      11 -> 24         0.55064
      12 -> 25        -0.22705
      13 -> 33        -0.11873

 Excited State  63:      Singlet-A"    13.0218 eV   95.21 nm  f=0.0842  <S**2>=0.000
       7 -> 15         0.65805
       8 -> 19        -0.10636
      12 -> 24         0.13123

 Excited State  64:      Singlet-A'    13.0738 eV   94.83 nm  f=0.0156  <S**2>=0.000
       7 -> 16         0.34981
       8 -> 17         0.30373
       8 -> 18         0.21385
       9 -> 19        -0.13674
      10 -> 21         0.23901
      12 -> 25        -0.29538
      13 -> 34        -0.15079

 Excited State  65:      Singlet-A"    13.1666 eV   94.17 nm  f=0.0029  <S**2>=0.000
      11 -> 25         0.68668

 Excited State  66:      Singlet-A'    13.2115 eV   93.85 nm  f=0.0468  <S**2>=0.000
       7 -> 16         0.30040
       8 -> 20         0.10378
       9 -> 19        -0.22122
      12 -> 25         0.53119
      13 -> 33        -0.11902

 Excited State  67:      Singlet-A'    13.2313 eV   93.71 nm  f=0.0063  <S**2>=0.000
       7 -> 16        -0.38851
       8 -> 17         0.13449
       9 -> 19        -0.21672
      10 -> 21         0.16181
      10 -> 23         0.44624

 Excited State  68:      Singlet-A'    13.3813 eV   92.65 nm  f=0.1217  <S**2>=0.000
       7 -> 16         0.24351
       8 -> 17        -0.12947
       8 -> 20         0.26560
       9 -> 19         0.36157
      10 -> 23         0.38477
      11 -> 24        -0.15855
      13 -> 35         0.11428

 Excited State  69:      Singlet-A"    13.4100 eV   92.46 nm  f=0.0199  <S**2>=0.000
       8 -> 19        -0.15658
       9 -> 20        -0.13272
      10 -> 24         0.66839

 Excited State  70:      Singlet-A"    13.5634 eV   91.41 nm  f=0.0287  <S**2>=0.000
       8 -> 19         0.57060
       8 -> 21        -0.14684
       9 -> 20        -0.24209
      13 -> 36        -0.24330

 Excited State  71:      Singlet-A"    13.6013 eV   91.16 nm  f=0.0495  <S**2>=0.000
       8 -> 19         0.31056
       9 -> 20         0.48789
      10 -> 24         0.15841
      13 -> 36         0.34468

 Excited State  72:      Singlet-A'    13.6144 eV   91.07 nm  f=0.0072  <S**2>=0.000
      10 -> 25        -0.14372
      13 -> 35         0.65314

 Excited State  73:      Singlet-A'    13.6575 eV   90.78 nm  f=0.0319  <S**2>=0.000
       8 -> 20         0.39513
       9 -> 19        -0.19094
      10 -> 25        -0.33051
      12 -> 26        -0.39309

 Excited State  74:      Singlet-A"    13.6849 eV   90.60 nm  f=0.0504  <S**2>=0.000
       9 -> 20        -0.28447
      11 -> 26        -0.44101
      13 -> 36         0.44697

 Excited State  75:      Singlet-A'    13.6968 eV   90.52 nm  f=0.0333  <S**2>=0.000
       8 -> 20         0.14348
       9 -> 21        -0.13256
      10 -> 25        -0.37008
      12 -> 26         0.49756
      13 -> 35        -0.14764
      13 -> 37         0.14117

 Excited State  76:      Singlet-A'    13.7921 eV   89.89 nm  f=0.0153  <S**2>=0.000
       7 -> 18        -0.21704
       8 -> 17         0.13177
       8 -> 22         0.15296
       9 -> 19         0.34175
       9 -> 21        -0.17214
      10 -> 23        -0.10522
      10 -> 25         0.10230
      11 -> 24         0.12112
      12 -> 26        -0.16438
      13 -> 37         0.35707

 Excited State  77:      Singlet-A'    13.8208 eV   89.71 nm  f=0.1424  <S**2>=0.000
       7 -> 17         0.15464
       8 -> 20         0.37736
       8 -> 22         0.16985
      10 -> 23        -0.13198
      10 -> 25         0.29319
      12 -> 26         0.17501
      13 -> 37        -0.33256

 Excited State  78:      Singlet-A"    13.8870 eV   89.28 nm  f=0.1750  <S**2>=0.000
       8 -> 21        -0.24592
       9 -> 20        -0.21420
      11 -> 26         0.50884
      12 -> 27         0.10572
      13 -> 36         0.28433

 Excited State  79:      Singlet-A'    13.9073 eV   89.15 nm  f=0.0505  <S**2>=0.000
       7 -> 18         0.19322
       8 -> 20         0.12793
       9 -> 21         0.48677
      10 -> 25         0.12958
      13 -> 37         0.37169

 Excited State  80:      Singlet-A'    13.9870 eV   88.64 nm  f=0.0326  <S**2>=0.000
       7 -> 18        -0.31629
       8 -> 22        -0.33352
       9 -> 19         0.13611
       9 -> 21         0.37546
      10 -> 26         0.12244
      11 -> 27         0.11022
      13 -> 37        -0.20703

 Excited State  81:      Singlet-A"    13.9928 eV   88.61 nm  f=0.0038  <S**2>=0.000
       8 -> 21         0.28116
       9 -> 22         0.61367
      11 -> 26         0.10573
      12 -> 27         0.11313

 Excited State  82:      Singlet-A'    14.0283 eV   88.38 nm  f=0.0290  <S**2>=0.000
       7 -> 17         0.63172
       8 -> 22        -0.21998
      10 -> 26        -0.10002

 Excited State  83:      Singlet-A"    14.1036 eV   87.91 nm  f=0.0351  <S**2>=0.000
       8 -> 19         0.12650
       8 -> 21         0.52347
       9 -> 22        -0.33420
      12 -> 27         0.21348

 Excited State  84:      Singlet-A'    14.1330 eV   87.73 nm  f=0.0285  <S**2>=0.000
       7 -> 18        -0.15820
       8 -> 22        -0.19549
      10 -> 26        -0.17351
      13 -> 38         0.61025

 Excited State  85:      Singlet-A'    14.1724 eV   87.48 nm  f=0.0160  <S**2>=0.000
       8 -> 22         0.16953
      11 -> 27         0.63166
      13 -> 38         0.15362

 Excited State  86:      Singlet-A"    14.1760 eV   87.46 nm  f=0.0778  <S**2>=0.000
       8 -> 21        -0.16707
       9 -> 20         0.11023
      11 -> 29        -0.10730
      12 -> 27         0.63327
      12 -> 28         0.13642

 Excited State  87:      Singlet-A'    14.2303 eV   87.13 nm  f=0.0752  <S**2>=0.000
       7 -> 17         0.16748
       8 -> 20        -0.10817
       8 -> 22         0.24280
      10 -> 25        -0.14773
      10 -> 26         0.46863
      11 -> 27        -0.18112
      13 -> 37        -0.11145
      13 -> 38         0.27458

 Excited State  88:      Singlet-A"    14.2951 eV   86.73 nm  f=0.0013  <S**2>=0.000
      13 -> 39         0.70251

 Excited State  89:      Singlet-A'    14.4070 eV   86.06 nm  f=0.1561  <S**2>=0.000
       7 -> 18        -0.19843
       7 -> 20         0.15394
       8 -> 17        -0.11861
       8 -> 22        -0.12004
       9 -> 19        -0.12715
       9 -> 21        -0.10901
       9 -> 23         0.36231
      10 -> 25         0.11765
      10 -> 26         0.35402
      11 -> 27         0.15485
      13 -> 37         0.12084

 Excited State  90:      Singlet-A'    14.5203 eV   85.39 nm  f=0.0207  <S**2>=0.000
       7 -> 18        -0.34006
       8 -> 22         0.20422
       9 -> 23        -0.11124
       9 -> 25         0.11880
      10 -> 26        -0.12105
      13 -> 40         0.45989

 Excited State  91:      Singlet-A'    14.5768 eV   85.06 nm  f=0.0381  <S**2>=0.000
       7 -> 18         0.24338
       8 -> 22        -0.14688
       9 -> 19         0.11292
       9 -> 23         0.20592
       9 -> 25        -0.10935
      13 -> 40         0.51276

 Excited State  92:      Singlet-A"    14.5794 eV   85.04 nm  f=0.0066  <S**2>=0.000
       8 -> 23         0.46444
      10 -> 27        -0.12576
      13 -> 41         0.50650

 Excited State  93:      Singlet-A"    14.6580 eV   84.58 nm  f=0.0002  <S**2>=0.000
       7 -> 19         0.14150
       8 -> 23        -0.44151
       8 -> 25        -0.12213
      10 -> 27         0.19612
      13 -> 41         0.46745

 Excited State  94:      Singlet-A'    14.6961 eV   84.37 nm  f=0.1247  <S**2>=0.000
       7 -> 20        -0.26404
       8 -> 22         0.15077
       9 -> 23         0.49646
      10 -> 25        -0.10361
      10 -> 26        -0.17983
      11 -> 28        -0.20174

 Excited State  95:      Singlet-A"    14.6990 eV   84.35 nm  f=0.0421  <S**2>=0.000
       7 -> 19        -0.15115
       8 -> 23         0.18747
       9 -> 24        -0.19398
      10 -> 27         0.62612

 Excited State  96:      Singlet-A"    14.8255 eV   83.63 nm  f=0.0152  <S**2>=0.000
       7 -> 19        -0.19989
       9 -> 24         0.63193
      10 -> 27         0.12827
      12 -> 28        -0.16744

 Excited State  97:      Singlet-A'    14.8443 eV   83.52 nm  f=0.0201  <S**2>=0.000
       8 -> 24         0.67424
       9 -> 25        -0.14028

 Excited State  98:      Singlet-A"    14.8643 eV   83.41 nm  f=0.0497  <S**2>=0.000
       7 -> 19         0.55696
       8 -> 23         0.15536
       9 -> 24         0.19712
      10 -> 27         0.13131
      11 -> 29         0.17232
      12 -> 28         0.20189

 Excited State  99:      Singlet-A"    14.9177 eV   83.11 nm  f=0.0028  <S**2>=0.000
       7 -> 19        -0.25228
      11 -> 29         0.36161
      12 -> 28         0.51514
      13 -> 42         0.11993

 Excited State 100:      Singlet-A"    14.9628 eV   82.86 nm  f=0.0026  <S**2>=0.000
       8 -> 25         0.13654
      12 -> 28        -0.11424
      13 -> 42         0.66208
      13 -> 43        -0.11549

 Excited State 101:      Singlet-A'    15.0236 eV   82.53 nm  f=0.1227  <S**2>=0.000
       7 -> 20         0.48155
       7 -> 22         0.15776
       8 -> 24        -0.10760
       9 -> 23         0.12008
      11 -> 28        -0.25996
      12 -> 29         0.28208

 Excited State 102:      Singlet-A"    15.0491 eV   82.39 nm  f=0.0018  <S**2>=0.000
       8 -> 25         0.10258
      11 -> 29        -0.10618
      13 -> 42         0.11122
      13 -> 43         0.67596

 Excited State 103:      Singlet-A'    15.1241 eV   81.98 nm  f=0.0211  <S**2>=0.000
       7 -> 20         0.15683
       7 -> 22         0.26483
       9 -> 23         0.10263
       9 -> 25         0.43783
      11 -> 28         0.41145

 Excited State 104:      Singlet-A"    15.2373 eV   81.37 nm  f=0.0630  <S**2>=0.000
       7 -> 21         0.64501
       8 -> 25         0.12479
      11 -> 29         0.17468

 Excited State 105:      Singlet-A'    15.2517 eV   81.29 nm  f=0.1470  <S**2>=0.000
       6 -> 14        -0.20600
       7 -> 20        -0.22197
       7 -> 22         0.11667
       9 -> 25        -0.15121
       9 -> 26         0.21929
      10 -> 29        -0.12741
      11 -> 28         0.19744
      12 -> 29         0.47181

 Excited State 106:      Singlet-A"    15.2593 eV   81.25 nm  f=0.0878  <S**2>=0.000

 The electronic state is 1-A'.
 Alpha  occ. eigenvalues --  -13.99735  -9.92328  -9.92327  -0.81802  -0.63070
 Alpha  occ. eigenvalues --   -0.56235  -0.44425  -0.39626  -0.39569  -0.34331
 Alpha  occ. eigenvalues --   -0.32489  -0.32253  -0.18436
 Alpha virt. eigenvalues --   -0.00246   0.03018   0.03563   0.06937   0.07199
 Alpha virt. eigenvalues --    0.09787   0.10052   0.11391   0.11807   0.13830
 Alpha virt. eigenvalues --    0.14725   0.15737   0.17906   0.19519   0.22195

 Mulliken charges:
               1
     1  C    0.687496
     2  N   -0.677708
     3  C    0.687496
     4  H   -0.223635
     5  H    0.008015
     6  H   -0.095114
     7  H   -0.075817
     8  H   -0.095114
     9  H    0.008015
    10  H   -0.223635
 Sum of Mulliken charges =   0.00000

 Dipole moment (field-independent basis, Debye):
    X=              0.8746    Y=             -0.2948    Z=             -0.0000  Tot=              0.9230
 Quadrupole moment (field-independent basis, Debye-Ang):
   XX=            -21.1953   YY=            -21.7252   ZZ=            -20.1916
   XY=              2.1035   XZ=              0.0000   YZ=             -0.0000

 Normal termination of Gaussian 16 at Mon Mar 21 20:13:32 2022.
