 Gaussian 16, Revision C.01,
 Gaussian 16:  EM64L-G16RevC.01  3-Jul-2019

 ----------------------------------------------------------------------
 #P TD(Nstates=10000) pw91pw91/Gen SCF(maxcycles=100) Int(Grid=ultrafin
 e)
 ----------------------------------------------------------------------

 ---------------------
 xGDB7_00001_tier4.com
 ---------------------
 Symbolic Z-matrix:
 Charge =  0 Multiplicity = 1

                         Standard orientation:
 ---------------------------------------------------------------------
 Center     Atomic      Atomic             Coordinates (Angstroms)
 Number     Number       Type             X           Y           Z
 ---------------------------------------------------------------------
      1          6           0        0.926251   -0.719055    0.000000
      2          6           0        0.000000    0.459276    0.000000
      3          8           0       -1.196998    0.387136    0.000000
      4          1           0        1.575965   -0.668678    0.877698
      5          1           0        1.575965   -0.668678   -0.877698
      6          1           0        0.366733   -1.652236    0.000000
      7          1           0        0.499813    1.451182    0.000000
 ---------------------------------------------------------------------

 SCF Done:  E(RPW91-PW91) =  -153.668276649     A.U. after   14 cycles

 Excitation energies and oscillator strengths:

 Excited State   1:      Singlet-A"     4.2197 eV  293.82 nm  f=0.0000  <S**2>=0.000
      12 -> 13         0.70727
 This state for optimization and/or second-order correction.
 Total Energy, E(TD-HF/TD-DFT) =  -153.513205247
 Copying the excited state density for this state as the 1-particle RhoCI density.

 Excited State   2:      Singlet-A'     6.0810 eV  203.89 nm  f=0.0219  <S**2>=0.000
      12 -> 14         0.70324

 Excited State   3:      Singlet-A'     6.8179 eV  181.85 nm  f=0.0605  <S**2>=0.000
      12 -> 15         0.70392

 Excited State   4:      Singlet-A"     7.6820 eV  161.40 nm  f=0.0144  <S**2>=0.000
      12 -> 16         0.70189

 Excited State   5:      Singlet-A"     7.8962 eV  157.02 nm  f=0.0022  <S**2>=0.000
      10 -> 13         0.69434

 Excited State   6:      Singlet-A'     7.9121 eV  156.70 nm  f=0.0622  <S**2>=0.000
      12 -> 17         0.69203

 Excited State   7:      Singlet-A'     8.1915 eV  151.36 nm  f=0.0314  <S**2>=0.000
      11 -> 13         0.16459
      12 -> 18         0.68178

 Excited State   8:      Singlet-A"     8.5533 eV  144.95 nm  f=0.0000  <S**2>=0.000
      12 -> 19         0.70467

 Excited State   9:      Singlet-A'     8.5652 eV  144.75 nm  f=0.1117  <S**2>=0.000
       8 -> 13        -0.29349
      11 -> 13         0.53589
      12 -> 18        -0.14588
      12 -> 20         0.25133

 Excited State  10:      Singlet-A'     8.6669 eV  143.05 nm  f=0.1446  <S**2>=0.000
      11 -> 13        -0.22652
      12 -> 20         0.65816

 Excited State  11:      Singlet-A'     9.0885 eV  136.42 nm  f=0.0102  <S**2>=0.000
      12 -> 21         0.69889

 Excited State  12:      Singlet-A"     9.1027 eV  136.21 nm  f=0.0001  <S**2>=0.000
       9 -> 13         0.69226

 Excited State  13:      Singlet-A"     9.2467 eV  134.08 nm  f=0.0050  <S**2>=0.000
      11 -> 14         0.70544

 Excited State  14:      Singlet-A"     9.7445 eV  127.24 nm  f=0.0019  <S**2>=0.000
      12 -> 22         0.70415

 Excited State  15:      Singlet-A'     9.8496 eV  125.88 nm  f=0.0320  <S**2>=0.000
       8 -> 13         0.10905
      10 -> 14         0.69484

 Excited State  16:      Singlet-A"     9.9625 eV  124.45 nm  f=0.0146  <S**2>=0.000
       7 -> 13        -0.11777
      11 -> 15         0.69551

 Excited State  17:      Singlet-A"    10.1237 eV  122.47 nm  f=0.0023  <S**2>=0.000
       7 -> 13         0.68412
      11 -> 15         0.12047

 Excited State  18:      Singlet-A'    10.2895 eV  120.50 nm  f=0.0403  <S**2>=0.000
       8 -> 13        -0.42823
      10 -> 14         0.10116
      11 -> 13        -0.14590
      12 -> 23         0.50839

 Excited State  19:      Singlet-A'    10.5391 eV  117.64 nm  f=0.0075  <S**2>=0.000
       8 -> 13         0.20310
      12 -> 23         0.29248
      12 -> 24         0.58730
      12 -> 25        -0.10200

 Excited State  20:      Singlet-A'    10.6217 eV  116.73 nm  f=0.0459  <S**2>=0.000
       8 -> 13        -0.17991
      10 -> 15         0.65858

 Excited State  21:      Singlet-A'    10.6811 eV  116.08 nm  f=0.0447  <S**2>=0.000
       8 -> 13         0.21126
       9 -> 14         0.52374
      10 -> 15         0.15037
      11 -> 13         0.11188
      12 -> 23         0.25532
      12 -> 24        -0.24393

 Excited State  22:      Singlet-A'    10.8435 eV  114.34 nm  f=0.1000  <S**2>=0.000
       8 -> 13        -0.19869
       9 -> 14         0.41963
      10 -> 15        -0.15084
      11 -> 13        -0.13113
      11 -> 16        -0.32025
      12 -> 23        -0.20694
      12 -> 24         0.18732
      12 -> 25        -0.20628

 Excited State  23:      Singlet-A'    10.9610 eV  113.11 nm  f=0.0391  <S**2>=0.000
      11 -> 16        -0.41010
      12 -> 25         0.55593

 Excited State  24:      Singlet-A"    11.0682 eV  112.02 nm  f=0.0116  <S**2>=0.000
       8 -> 14        -0.15077
      11 -> 17         0.68425

 Excited State  25:      Singlet-A'    11.1089 eV  111.61 nm  f=0.0124  <S**2>=0.000
       8 -> 13        -0.13758
       9 -> 14         0.20460
      11 -> 13        -0.13235
      11 -> 16         0.45436
      12 -> 23        -0.11879
      12 -> 24         0.19495
      12 -> 25         0.34719

 Excited State  26:      Singlet-A"    11.2719 eV  109.99 nm  f=0.1210  <S**2>=0.000
       8 -> 14         0.67491
      10 -> 16        -0.11464
      11 -> 17         0.14928

 Excited State  27:      Singlet-A"    11.3653 eV  109.09 nm  f=0.0001  <S**2>=0.000
      10 -> 16        -0.23251
      11 -> 18         0.66022

 Excited State  28:      Singlet-A'    11.5025 eV  107.79 nm  f=0.0250  <S**2>=0.000
       9 -> 15         0.69335

 Excited State  29:      Singlet-A"    11.5035 eV  107.78 nm  f=0.0107  <S**2>=0.000
       8 -> 14         0.10500
      10 -> 16         0.65151
      11 -> 18         0.22417

 Excited State  30:      Singlet-A'    11.6975 eV  105.99 nm  f=0.0267  <S**2>=0.000
       7 -> 14        -0.13163
      10 -> 17         0.66880
      10 -> 18        -0.10138

 Excited State  31:      Singlet-A"    11.8754 eV  104.40 nm  f=0.0110  <S**2>=0.000
       8 -> 15        -0.13887
      11 -> 20         0.67841

 Excited State  32:      Singlet-A'    11.9048 eV  104.15 nm  f=0.0081  <S**2>=0.000
       7 -> 14         0.55257
      11 -> 19        -0.40984

 Excited State  33:      Singlet-A"    11.9205 eV  104.01 nm  f=0.0079  <S**2>=0.000
      12 -> 26         0.69704

 Excited State  34:      Singlet-A"    11.9273 eV  103.95 nm  f=0.0020  <S**2>=0.000
       8 -> 15         0.68397
      11 -> 20         0.14222

 Excited State  35:      Singlet-A'    11.9827 eV  103.47 nm  f=0.0209  <S**2>=0.000
       7 -> 14         0.38382
       8 -> 16         0.12602
      10 -> 17         0.11319
      10 -> 18        -0.15917
      11 -> 19         0.51695

 Excited State  36:      Singlet-A'    12.1866 eV  101.74 nm  f=0.0961  <S**2>=0.000
      10 -> 18         0.63414
      10 -> 20        -0.16925

 Excited State  37:      Singlet-A"    12.3110 eV  100.71 nm  f=0.0003  <S**2>=0.000
      11 -> 21         0.69506

 Excited State  38:      Singlet-A"    12.3888 eV  100.08 nm  f=0.0005  <S**2>=0.000
       9 -> 16         0.68724
      10 -> 19        -0.13452

 Excited State  39:      Singlet-A"    12.4240 eV   99.79 nm  f=0.0135  <S**2>=0.000
       9 -> 16        -0.11696
      10 -> 19        -0.33576
      12 -> 27         0.60510

 Excited State  40:      Singlet-A'    12.4687 eV   99.44 nm  f=0.0037  <S**2>=0.000
       7 -> 15        -0.16575
       8 -> 16         0.11254
       9 -> 17         0.10182
      10 -> 18         0.11036
      10 -> 20         0.64623

 Excited State  41:      Singlet-A"    12.4696 eV   99.43 nm  f=0.0368  <S**2>=0.000
      10 -> 19         0.58097
      12 -> 27         0.34120

 Excited State  42:      Singlet-A'    12.6117 eV   98.31 nm  f=0.0491  <S**2>=0.000
       7 -> 15         0.38866
       9 -> 17         0.57367

 Excited State  43:      Singlet-A'    12.6490 eV   98.02 nm  f=0.0743  <S**2>=0.000
       7 -> 15         0.55000
       8 -> 16         0.12033
       9 -> 17        -0.36002
      10 -> 20         0.15205

 Excited State  44:      Singlet-A'    12.8669 eV   96.36 nm  f=0.0060  <S**2>=0.000
       9 -> 18         0.39194
      12 -> 28         0.56715

 Excited State  45:      Singlet-A"    12.8764 eV   96.29 nm  f=0.0016  <S**2>=0.000
       6 -> 13         0.56758
       8 -> 17        -0.35017
       8 -> 18         0.14275

 Excited State  46:      Singlet-A'    12.8964 eV   96.14 nm  f=0.0185  <S**2>=0.000
       8 -> 16        -0.32833
       9 -> 18         0.14086
      10 -> 21         0.59730

 Excited State  47:      Singlet-A'    12.9770 eV   95.54 nm  f=0.0019  <S**2>=0.000
       8 -> 16        -0.12264
       9 -> 18         0.33668
      10 -> 21        -0.19524
      11 -> 22         0.49163
      12 -> 28        -0.24467
      12 -> 29         0.14131

 Excited State  48:      Singlet-A"    13.0391 eV   95.09 nm  f=0.0064  <S**2>=0.000
       6 -> 13         0.27902
       8 -> 17         0.60272
       8 -> 18         0.17673

 Excited State  49:      Singlet-A'    13.0769 eV   94.81 nm  f=0.0891  <S**2>=0.000
       8 -> 16         0.24402
       9 -> 18         0.35046
      10 -> 21         0.12144
      11 -> 22        -0.34776
      12 -> 28        -0.24775
      12 -> 29         0.28555

 Excited State  50:      Singlet-A"    13.2874 eV   93.31 nm  f=0.0031  <S**2>=0.000
       8 -> 18         0.11358
       9 -> 19         0.69208

 Excited State  51:      Singlet-A'    13.3090 eV   93.16 nm  f=0.0163  <S**2>=0.000
       7 -> 17        -0.15314
       8 -> 16         0.35040
       9 -> 20         0.45476
       9 -> 21        -0.10138
      10 -> 21         0.16601
      11 -> 22         0.23711

 Excited State  52:      Singlet-A"    13.3445 eV   92.91 nm  f=0.0095  <S**2>=0.000
       7 -> 16        -0.18154
       8 -> 18         0.58981
       9 -> 19        -0.12934
      11 -> 23         0.27717

 Excited State  53:      Singlet-A'    13.4500 eV   92.18 nm  f=0.0169  <S**2>=0.000
       7 -> 17         0.27053
       7 -> 18         0.12516
       8 -> 16        -0.21606
       9 -> 20         0.51160
       9 -> 21         0.15680
      10 -> 21        -0.11609
      11 -> 22        -0.16041

 Excited State  54:      Singlet-A"    13.4853 eV   91.94 nm  f=0.0000  <S**2>=0.000
       7 -> 16         0.36717
       8 -> 18        -0.11585
      10 -> 22        -0.11741
      11 -> 23         0.56919

 Excited State  55:      Singlet-A"    13.5658 eV   91.39 nm  f=0.0462  <S**2>=0.000
       6 -> 13        -0.11465
       7 -> 16         0.50702
       8 -> 18         0.16509
       8 -> 20        -0.12628
      10 -> 22         0.36962
      11 -> 23        -0.18076

 Excited State  56:      Singlet-A'    13.5770 eV   91.32 nm  f=0.1797  <S**2>=0.000
       7 -> 17        -0.16665
       8 -> 16        -0.10278
       9 -> 18        -0.15487
       9 -> 21         0.21433
      12 -> 28         0.13776
      12 -> 29         0.55491
      12 -> 34         0.10771

 Excited State  57:      Singlet-A"    13.5894 eV   91.24 nm  f=0.0065  <S**2>=0.000
       7 -> 16        -0.20731
       8 -> 18        -0.12967
       8 -> 20         0.22694
      10 -> 22         0.56989
      11 -> 23         0.18914

 Excited State  58:      Singlet-A'    13.7668 eV   90.06 nm  f=0.0084  <S**2>=0.000
       7 -> 17         0.55912
       7 -> 18        -0.12340
       8 -> 19        -0.19220
       9 -> 21        -0.19590
      12 -> 29         0.16362
      12 -> 30         0.11536

 Excited State  59:      Singlet-A"    13.7739 eV   90.01 nm  f=0.0020  <S**2>=0.000
       8 -> 20         0.24199
      11 -> 24         0.66176

 Excited State  60:      Singlet-A'    13.8904 eV   89.26 nm  f=0.0321  <S**2>=0.000
       7 -> 18        -0.22964
       8 -> 19        -0.43068
       9 -> 21         0.46581

 Excited State  61:      Singlet-A"    13.9188 eV   89.08 nm  f=0.0224  <S**2>=0.000
       7 -> 19        -0.11170
       8 -> 20         0.53447
      11 -> 24        -0.18260
      11 -> 25         0.35158

 Excited State  62:      Singlet-A'    13.9304 eV   89.00 nm  f=0.0634  <S**2>=0.000
       7 -> 17         0.15426
       7 -> 18        -0.26343
       8 -> 16         0.13198
       8 -> 19         0.44910
       9 -> 21         0.29756
      10 -> 23        -0.17902
      10 -> 24         0.13908
      12 -> 30         0.10229

 Excited State  63:      Singlet-A'    14.0799 eV   88.06 nm  f=0.0042  <S**2>=0.000
       6 -> 14        -0.15006
       6 -> 15         0.10537
       7 -> 17         0.10605
       7 -> 18         0.49511
       7 -> 20         0.13734
       8 -> 16         0.10895
       9 -> 21         0.22762
      10 -> 23         0.22704
      12 -> 30         0.19331

 Excited State  64:      Singlet-A"    14.2251 eV   87.16 nm  f=0.0236  <S**2>=0.000
       7 -> 19         0.15899
       8 -> 21         0.55694
      11 -> 25         0.38026

 Excited State  65:      Singlet-A'    14.2624 eV   86.93 nm  f=0.0412  <S**2>=0.000
       7 -> 18        -0.22594
       7 -> 20        -0.11620
      10 -> 23         0.45060
      12 -> 30         0.40097
      12 -> 32         0.17236

 Excited State  66:      Singlet-A"    14.2726 eV   86.87 nm  f=0.0097  <S**2>=0.000
      12 -> 31         0.70416

 Excited State  67:      Singlet-A"    14.3194 eV   86.58 nm  f=0.0447  <S**2>=0.000
       7 -> 19         0.48972
       8 -> 20        -0.10000
       8 -> 21        -0.37504
       9 -> 22        -0.12449
      11 -> 25         0.28096

 Excited State  68:      Singlet-A'    14.3557 eV   86.37 nm  f=0.0753  <S**2>=0.000
       6 -> 14         0.50572
      10 -> 23        -0.23683
      12 -> 30         0.32244
      12 -> 32        -0.18687

 Excited State  69:      Singlet-A'    14.4039 eV   86.08 nm  f=0.0129  <S**2>=0.000
       6 -> 14         0.38070
       7 -> 20        -0.14520
       8 -> 16         0.10449
       8 -> 19         0.12938
       9 -> 23        -0.13489
      10 -> 23         0.27508
      12 -> 30        -0.35519

 Excited State  70:      Singlet-A"    14.4521 eV   85.79 nm  f=0.0003  <S**2>=0.000
       7 -> 19         0.27502
       9 -> 22         0.63505

 Excited State  71:      Singlet-A'    14.4676 eV   85.70 nm  f=0.0326  <S**2>=0.000
       6 -> 14         0.13922
       7 -> 20         0.14705
       8 -> 22         0.10281
      10 -> 23        -0.12033
      10 -> 24        -0.18267
      12 -> 32         0.61441

 Excited State  72:      Singlet-A'    14.5504 eV   85.21 nm  f=0.1861  <S**2>=0.000
       7 -> 20        -0.18497
       8 -> 19        -0.10555
       8 -> 22         0.15290
      10 -> 24         0.58943
      12 -> 32         0.17200

 Excited State  73:      Singlet-A'    14.6078 eV   84.88 nm  f=0.0133  <S**2>=0.000
       6 -> 15        -0.10769
       7 -> 18        -0.10627
       7 -> 20         0.55497
       9 -> 24        -0.10072
      10 -> 23         0.13087
      10 -> 24         0.18260
      10 -> 25         0.24478

 Excited State  74:      Singlet-A"    14.6548 eV   84.60 nm  f=0.2538  <S**2>=0.000
       6 -> 13         0.10550
       7 -> 19        -0.33145
       8 -> 20        -0.17243
       8 -> 21        -0.15538
       9 -> 22         0.25926
      11 -> 25         0.27146
      12 -> 33         0.35445

 Excited State  75:      Singlet-A'    14.7312 eV   84.16 nm  f=0.0080  <S**2>=0.000
       6 -> 15         0.10660
       7 -> 20        -0.20283
      10 -> 25         0.64295
      12 -> 34        -0.12499

 Excited State  76:      Singlet-A"    14.9265 eV   83.06 nm  f=0.1229  <S**2>=0.000
       7 -> 19         0.15587
       7 -> 22        -0.11298
       8 -> 20         0.11558
      11 -> 25        -0.16033
      12 -> 33         0.60142

 Excited State  77:      Singlet-A'    14.9454 eV   82.96 nm  f=0.0024  <S**2>=0.000
       7 -> 21         0.58134
       8 -> 22        -0.18441
       9 -> 23         0.31659
      12 -> 34         0.12370

 Excited State  78:      Singlet-A'    14.9989 eV   82.66 nm  f=0.1305  <S**2>=0.000
       6 -> 15         0.14325
       7 -> 21        -0.26733
       8 -> 22        -0.35383
       9 -> 23         0.11496
      11 -> 26        -0.26044
      12 -> 34         0.41417

 Excited State  79:      Singlet-A'    15.1011 eV   82.10 nm  f=0.0443  <S**2>=0.000
       6 -> 15        -0.10197
       7 -> 21        -0.23163
       9 -> 23         0.49428
       9 -> 24        -0.13147
      11 -> 26         0.36161

 Excited State  80:      Singlet-A'    15.1706 eV   81.73 nm  f=0.0347  <S**2>=0.000
       6 -> 15        -0.23489
       8 -> 22         0.33483
       9 -> 24         0.24679
      11 -> 26         0.12161
      12 -> 34         0.38983
      12 -> 35         0.21914

 Excited State  81:      Singlet-A'    15.3133 eV   80.97 nm  f=0.1110  <S**2>=0.000
       6 -> 15         0.15968
       8 -> 22         0.37530
       9 -> 23         0.23047
       9 -> 24        -0.19768
       9 -> 25         0.16109
      10 -> 24        -0.10317
      11 -> 26        -0.37038
      12 -> 35        -0.10093

 Excited State  82:      Singlet-A'    15.4071 eV   80.47 nm  f=0.0614  <S**2>=0.000
       9 -> 23         0.16403
       9 -> 24         0.52411
       9 -> 25        -0.15577
      11 -> 26        -0.16775
      11 -> 27        -0.21968
      12 -> 34        -0.13146
      12 -> 35        -0.14120
      12 -> 36        -0.14286

 Excited State  83:      Singlet-A"    15.4409 eV   80.30 nm  f=0.0025  <S**2>=0.000
       8 -> 23         0.69779

 Excited State  84:      Singlet-A'    15.4961 eV   80.01 nm  f=0.0161  <S**2>=0.000
       6 -> 15         0.51593
       7 -> 23         0.14050
       9 -> 25        -0.11203
      11 -> 26         0.20330
      12 -> 35         0.21262

 Excited State  85:      Singlet-A'    15.6007 eV   79.47 nm  f=0.0303  <S**2>=0.000
       9 -> 25         0.42048
      11 -> 26         0.16249
      11 -> 27        -0.24746
      12 -> 34         0.11223
      12 -> 35        -0.40668
      12 -> 36         0.11769

 Excited State  86:      Singlet-A"    15.6213 eV   79.37 nm  f=0.0021  <S**2>=0.000
       7 -> 22         0.61397
      10 -> 26         0.32191

 Excited State  87:      Singlet-A'    15.6893 eV   79.02 nm  f=0.0366  <S**2>=0.000
       6 -> 17         0.10154
       9 -> 25         0.43967
      11 -> 27        -0.16010
      12 -> 34        -0.11912
      12 -> 35         0.38200
      12 -> 36        -0.27492

 Excited State  88:      Singlet-A"    15.7238 eV   78.85 nm  f=0.0108  <S**2>=0.000
       8 -> 24         0.62068
      10 -> 26         0.31159

 Excited State  89:      Singlet-A"    15.7853 eV   78.54 nm  f=0.0724  <S**2>=0.000
       6 -> 16         0.19334
       7 -> 22        -0.27397
       8 -> 24        -0.28810
       8 -> 25         0.16879
      10 -> 26         0.49400

 Excited State  90:      Singlet-A'    15.8305 eV   78.32 nm  f=0.1206  <S**2>=0.000
       6 -> 18        -0.12608
       7 -> 24        -0.12556
       9 -> 24         0.19060
       9 -> 25         0.18698
      11 -> 27         0.56309
      12 -> 36        -0.12919
      12 -> 37        -0.10739

 Excited State  91:      Singlet-A"    15.9562 eV   77.70 nm  f=0.0185  <S**2>=0.000
       6 -> 16         0.66364
       7 -> 22         0.10944
       8 -> 25        -0.11121
      10 -> 26        -0.13460

 Excited State  92:      Singlet-A'    15.9853 eV   77.56 nm  f=0.0257  <S**2>=0.000
       6 -> 17         0.17535
       7 -> 23        -0.31026
       9 -> 25         0.10898
      12 -> 36         0.52294

 Excited State  93:      Singlet-A"    16.0596 eV   77.20 nm  f=0.0256  <S**2>=0.000
      11 -> 28         0.70304

 Excited State  94:      Singlet-A'    16.1598 eV   76.72 nm  f=0.0010  <S**2>=0.000
       6 -> 17         0.64033
       6 -> 18         0.17857

 Excited State  95:      Singlet-A"    16.1825 eV   76.62 nm  f=0.0505  <S**2>=0.000
       8 -> 25         0.56345
      10 -> 27         0.35891

 Excited State  96:      Singlet-A"    16.2345 eV   76.37 nm  f=0.0015  <S**2>=0.000
       5 -> 13         0.10247
       8 -> 25        -0.32578
      10 -> 27         0.60001

 Excited State  97:      Singlet-A'    16.2697 eV   76.21 nm  f=0.0194  <S**2>=0.000
       7 -> 23         0.50770
      12 -> 36         0.19653
      12 -> 37        -0.37012

 Excited State  98:      Singlet-A'    16.4344 eV   75.44 nm  f=0.0138  <S**2>=0.000
       6 -> 18        -0.22456
       7 -> 23         0.24633
       7 -> 24        -0.27334
      12 -> 37         0.50374

 Excited State  99:      Singlet-A"    16.4774 eV   75.25 nm  f=0.0069  <S**2>=0.000
      12 -> 38         0.70085

 Excited State 100:      Singlet-A'    16.4859 eV   75.21 nm  f=0.0972  <S**2>=0.000
       6 -> 18         0.46598
       7 -> 24        -0.36940
      10 -> 28         0.32239

 Excited State 101:      Singlet-A"    16.6140 eV   74.63 nm  f=0.0426  <S**2>=0.000
       5 -> 13         0.14732
       9 -> 26         0.43289
      11 -> 29         0.52215

 Excited State 102:      Singlet-A'    16.6417 eV   74.50 nm  f=0.1076  <S**2>=0.000
       6 -> 18        -0.21210
       7 -> 23        -0.12407
       7 -> 24        -0.37192
       7 -> 25         0.39997
      12 -> 37        -0.23054

 Excited State 103:      Singlet-A"    16.6446 eV   74.49 nm  f=0.0047  <S**2>=0.000
       6 -> 19         0.13232
       9 -> 26         0.54774
      11 -> 29        -0.41099

 Excited State 104:      Singlet-A'    16.7386 eV   74.07 nm  f=0.1050  <S**2>=0.000
       6 -> 17         0.10240
       6 -> 18        -0.25044
       7 -> 24         0.10287
      10 -> 28         0.60436

 Excited State 105:      Singlet-A"    16.8335 eV   73.65 nm  f=0.0048  <S**2>=0.000
       5 -> 13         0.19582
       6 -> 19         0.66542
       9 -> 26        -0.10055

 Excited State 106:      Singlet-A'    16.8551 eV   73.56 nm  f=0.0440  <S**2>=0.000
       6 -> 18         0.14766
       6 -> 20         0.46364
       7 -> 24         0.18730
       7 -> 25         0.39034
       8 -> 26        -0.11188

 The electronic state is 1-A'.
 Alpha  occ. eigenvalues --  -18.78699 -10.00487  -9.92568  -0.96490  -0.68746
 Alpha  occ. eigenvalues --   -0.52453  -0.43600  -0.41164  -0.39560  -0.36099
 Alpha  occ. eigenvalues --   -0.34040  -0.22197
 Alpha virt. eigenvalues --   -0.07572  -0.00272   0.02500   0.05927   0.06463
 Alpha virt. eigenvalues --    0.07496   0.09212   0.09458   0.11194   0.13599
 Alpha virt. eigenvalues --    0.15369   0.16508   0.17784   0.21512   0.23423

 Mulliken charges:
               1
     1  C    0.331121
     2  C    0.020544
     3  O   -0.278453
     4  H    0.063088
     5  H    0.063088
     6  H   -0.032141
     7  H   -0.167246
 Sum of Mulliken charges =  -0.00000

 Dipole moment (field-independent basis, Debye):
    X=              2.7584    Y=             -0.3714    Z=             -0.0000  Tot=              2.7833
 Quadrupole moment (field-independent basis, Debye-Ang):
   XX=            -21.3669   YY=            -18.2476   ZZ=            -18.0804
   XY=              0.7032   XZ=              0.0000   YZ=              0.0000

 Normal termination of Gaussian 16 at Mon Mar 21 20:26:14 2022.
