 Gaussian 16, Revision C.01,
 Gaussian 16:  EM64L-G16RevC.01  3-Jul-2019

 ----------------------------------------------------------------------
 #P TD(Nstates=10000) pw91pw91/Gen SCF(maxcycles=100) Int(Grid=ultrafin
 e)
 ----------------------------------------------------------------------

 ---------------------
 xGDB7_00001_tier4.com
 ---------------------
 Symbolic Z-matrix:
 Charge =  0 Multiplicity = 1

                         Standard orientation:
 ---------------------------------------------------------------------
 Center     Atomic      Atomic             Coordinates (Angstroms)
 Number     Number       Type             X           Y           Z
 ---------------------------------------------------------------------
      1          8           0       -1.023805   -0.438791    0.000000
      2          6           0       -0.000000    0.418952    0.000000
      3          8           0        1.152985    0.109982   -0.000000
      4          1           0       -0.656943   -1.333011    0.000000
      5          1           0       -0.376498    1.449770    0.000000
 ---------------------------------------------------------------------

 SCF Done:  E(RPW91-PW91) =  -189.582829979     A.U. after   14 cycles

 Excitation energies and oscillator strengths:

 Excited State   1:      Singlet-A"     5.7103 eV  217.12 nm  f=0.0007  <S**2>=0.000
      12 -> 13         0.70682
 This state for optimization and/or second-order correction.
 Total Energy, E(TD-HF/TD-DFT) =  -189.372981298
 Copying the excited state density for this state as the 1-particle RhoCI density.

 Excited State   2:      Singlet-A'     6.7251 eV  184.36 nm  f=0.0416  <S**2>=0.000
      11 -> 13        -0.14662
      12 -> 14         0.68997

 Excited State   3:      Singlet-A'     7.5242 eV  164.78 nm  f=0.0503  <S**2>=0.000
      12 -> 15         0.70409

 Excited State   4:      Singlet-A"     7.9437 eV  156.08 nm  f=0.0032  <S**2>=0.000
      11 -> 14         0.70617

 Excited State   5:      Singlet-A'     8.3763 eV  148.02 nm  f=0.1891  <S**2>=0.000
      11 -> 13         0.63098
      12 -> 14         0.13001
      12 -> 16         0.18975

 Excited State   6:      Singlet-A"     8.7141 eV  142.28 nm  f=0.0147  <S**2>=0.000
      10 -> 13         0.11173
      12 -> 17         0.69757

 Excited State   7:      Singlet-A'     8.7459 eV  141.76 nm  f=0.0825  <S**2>=0.000
      11 -> 13        -0.15606
      12 -> 16         0.66921
      12 -> 18         0.11106

 Excited State   8:      Singlet-A"     8.7564 eV  141.59 nm  f=0.0017  <S**2>=0.000
      10 -> 13         0.67838
      11 -> 15        -0.15280
      12 -> 17        -0.11422

 Excited State   9:      Singlet-A"     8.7726 eV  141.33 nm  f=0.0004  <S**2>=0.000
      10 -> 13         0.15392
      11 -> 15         0.68986

 Excited State  10:      Singlet-A'     9.4716 eV  130.90 nm  f=0.0112  <S**2>=0.000
      12 -> 18         0.68756

 Excited State  11:      Singlet-A'     9.7064 eV  127.73 nm  f=0.0492  <S**2>=0.000
      10 -> 14         0.68649
      12 -> 19         0.13962

 Excited State  12:      Singlet-A'     9.9219 eV  124.96 nm  f=0.0052  <S**2>=0.000
      10 -> 14        -0.14749
      11 -> 17        -0.23957
      12 -> 19         0.63162

 Excited State  13:      Singlet-A"     9.9751 eV  124.29 nm  f=0.0215  <S**2>=0.000
      11 -> 16         0.70427

 Excited State  14:      Singlet-A'    10.1419 eV  122.25 nm  f=0.0049  <S**2>=0.000
      11 -> 13         0.10064
      11 -> 17         0.62546
      12 -> 19         0.20580
      12 -> 20         0.18770

 Excited State  15:      Singlet-A'    10.2464 eV  121.00 nm  f=0.0021  <S**2>=0.000
      11 -> 17        -0.16975
      12 -> 20         0.67587

 Excited State  16:      Singlet-A"    10.3141 eV  120.21 nm  f=0.0041  <S**2>=0.000
      12 -> 21         0.70642

 Excited State  17:      Singlet-A'    10.5313 eV  117.73 nm  f=0.0521  <S**2>=0.000
      10 -> 15         0.69389

 Excited State  18:      Singlet-A"    10.7083 eV  115.78 nm  f=0.0002  <S**2>=0.000
      11 -> 18         0.70160

 Excited State  19:      Singlet-A"    10.9746 eV  112.97 nm  f=0.0024  <S**2>=0.000
       8 -> 13         0.66987
       9 -> 14         0.13429

 Excited State  20:      Singlet-A"    11.0473 eV  112.23 nm  f=0.0412  <S**2>=0.000
       8 -> 13        -0.12059
       9 -> 14         0.68961

 Excited State  21:      Singlet-A'    11.0670 eV  112.03 nm  f=0.0564  <S**2>=0.000
      12 -> 22         0.69830

 Excited State  22:      Singlet-A"    11.1104 eV  111.59 nm  f=0.0000  <S**2>=0.000
      11 -> 19         0.70553

 Excited State  23:      Singlet-A'    11.3327 eV  109.40 nm  f=0.0531  <S**2>=0.000
       8 -> 14        -0.10773
       9 -> 13         0.58254
      11 -> 21         0.30124
      12 -> 24        -0.11925

 Excited State  24:      Singlet-A"    11.5365 eV  107.47 nm  f=0.0014  <S**2>=0.000
       7 -> 13        -0.11858
      11 -> 20         0.68734

 Excited State  25:      Singlet-A'    11.6186 eV  106.71 nm  f=0.0173  <S**2>=0.000
       8 -> 14         0.68487

 Excited State  26:      Singlet-A'    11.6822 eV  106.13 nm  f=0.0165  <S**2>=0.000
      10 -> 16         0.58936
      11 -> 21         0.36087

 Excited State  27:      Singlet-A"    11.6949 eV  106.02 nm  f=0.0030  <S**2>=0.000
      10 -> 17         0.65135
      12 -> 23        -0.25969

 Excited State  28:      Singlet-A"    11.7434 eV  105.58 nm  f=0.0024  <S**2>=0.000
      10 -> 17         0.25994
      12 -> 23         0.64159

 Excited State  29:      Singlet-A"    11.8600 eV  104.54 nm  f=0.0337  <S**2>=0.000
       7 -> 13         0.38227
       9 -> 15         0.57788

 Excited State  30:      Singlet-A'    11.9052 eV  104.14 nm  f=0.0143  <S**2>=0.000
       9 -> 13        -0.24322
      10 -> 16        -0.35862
      10 -> 18         0.11112
      11 -> 21         0.48645
      12 -> 24         0.17226

 Excited State  31:      Singlet-A"    11.9484 eV  103.77 nm  f=0.0000  <S**2>=0.000
       7 -> 13         0.55470
       9 -> 15        -0.40270

 Excited State  32:      Singlet-A'    12.2842 eV  100.93 nm  f=0.0546  <S**2>=0.000
       7 -> 14         0.12787
       8 -> 15        -0.19992
       9 -> 13         0.12618
      12 -> 24         0.62223

 Excited State  33:      Singlet-A"    12.3765 eV  100.18 nm  f=0.0000  <S**2>=0.000
      11 -> 22         0.70178

 Excited State  34:      Singlet-A'    12.4618 eV   99.49 nm  f=0.0108  <S**2>=0.000
       8 -> 15         0.60378
      10 -> 18        -0.32449
      12 -> 24         0.11667

 Excited State  35:      Singlet-A'    12.5961 eV   98.43 nm  f=0.0541  <S**2>=0.000
       8 -> 15         0.27967
       9 -> 17        -0.14224
      10 -> 18         0.58187
      10 -> 19         0.10766

 Excited State  36:      Singlet-A'    12.7777 eV   97.03 nm  f=0.0228  <S**2>=0.000
       7 -> 14         0.58270
      10 -> 19        -0.34275
      11 -> 23         0.14388

 Excited State  37:      Singlet-A'    12.8478 eV   96.50 nm  f=0.0854  <S**2>=0.000
       7 -> 14         0.30885
      10 -> 19         0.59529
      12 -> 25         0.14189

 Excited State  38:      Singlet-A"    13.0811 eV   94.78 nm  f=0.0147  <S**2>=0.000
       9 -> 16         0.70262

 Excited State  39:      Singlet-A'    13.1324 eV   94.41 nm  f=0.0157  <S**2>=0.000
       9 -> 17         0.29347
      10 -> 20        -0.16288
      11 -> 23         0.54647
      12 -> 25        -0.23943
      12 -> 26        -0.10767

 Excited State  40:      Singlet-A'    13.2037 eV   93.90 nm  f=0.0401  <S**2>=0.000
      10 -> 20         0.55401
      12 -> 25        -0.43206

 Excited State  41:      Singlet-A"    13.3021 eV   93.21 nm  f=0.0170  <S**2>=0.000
      10 -> 21         0.69886
      11 -> 24         0.10260

 Excited State  42:      Singlet-A'    13.3111 eV   93.14 nm  f=0.0381  <S**2>=0.000
       7 -> 14        -0.15083
       9 -> 17        -0.30960
      10 -> 20         0.29242
      11 -> 23         0.33070
      12 -> 25         0.32875
      12 -> 26        -0.20646

 Excited State  43:      Singlet-A'    13.3804 eV   92.66 nm  f=0.0034  <S**2>=0.000
       7 -> 15        -0.25612
       9 -> 17         0.47763
      10 -> 18         0.11622
      10 -> 20         0.23499
      12 -> 25         0.30408

 Excited State  44:      Singlet-A"    13.4931 eV   91.89 nm  f=0.0081  <S**2>=0.000
      11 -> 24         0.69413

 Excited State  45:      Singlet-A"    13.6773 eV   90.65 nm  f=0.0019  <S**2>=0.000
       8 -> 17         0.69512
       9 -> 18         0.12246

 Excited State  46:      Singlet-A'    13.6947 eV   90.53 nm  f=0.0868  <S**2>=0.000
       8 -> 16         0.67252
      12 -> 26        -0.17137

 Excited State  47:      Singlet-A"    13.8829 eV   89.31 nm  f=0.0177  <S**2>=0.000
       8 -> 17        -0.11334
       9 -> 18         0.67163

 Excited State  48:      Singlet-A'    13.8903 eV   89.26 nm  f=0.0605  <S**2>=0.000
       7 -> 15         0.61524
       8 -> 18         0.14152
       9 -> 17         0.19750
      10 -> 22        -0.11660

 Excited State  49:      Singlet-A"    13.9849 eV   88.66 nm  f=0.0057  <S**2>=0.000
      12 -> 27         0.70061

 Excited State  50:      Singlet-A'    14.1059 eV   87.90 nm  f=0.0290  <S**2>=0.000
       7 -> 15         0.12408
      10 -> 22         0.68147

 Excited State  51:      Singlet-A"    14.2240 eV   87.17 nm  f=0.0087  <S**2>=0.000
       9 -> 19         0.69555

 Excited State  52:      Singlet-A'    14.3776 eV   86.23 nm  f=0.0672  <S**2>=0.000
       8 -> 18        -0.42305
       9 -> 21        -0.17699
      12 -> 26         0.43531
      12 -> 28        -0.14777

 Excited State  53:      Singlet-A"    14.5011 eV   85.50 nm  f=0.0112  <S**2>=0.000
       9 -> 20        -0.13210
      11 -> 25         0.68573

 Excited State  54:      Singlet-A'    14.6140 eV   84.84 nm  f=0.0766  <S**2>=0.000
       7 -> 16        -0.13314
       8 -> 18         0.45885
       9 -> 21        -0.36812
      10 -> 24         0.13456
      12 -> 26         0.25749

 Excited State  55:      Singlet-A"    14.7229 eV   84.21 nm  f=0.0010  <S**2>=0.000
       9 -> 20        -0.15203
      10 -> 23         0.67782

 Excited State  56:      Singlet-A"    14.7485 eV   84.07 nm  f=0.0329  <S**2>=0.000
       6 -> 13         0.13076
       7 -> 17         0.35327
       9 -> 20         0.55642
      10 -> 23         0.16449

 Excited State  57:      Singlet-A'    14.7684 eV   83.95 nm  f=0.0061  <S**2>=0.000
       7 -> 16         0.46170
       8 -> 19         0.52186

 Excited State  58:      Singlet-A'    14.8137 eV   83.70 nm  f=0.0013  <S**2>=0.000
       8 -> 18        -0.14537
       9 -> 21        -0.40571
      12 -> 28         0.51904

 Excited State  59:      Singlet-A"    14.8186 eV   83.67 nm  f=0.0561  <S**2>=0.000
       7 -> 17         0.60450
       9 -> 20        -0.32650

 Excited State  60:      Singlet-A'    14.8476 eV   83.50 nm  f=0.0323  <S**2>=0.000
       7 -> 16         0.47886
       8 -> 19        -0.45255
       9 -> 21        -0.13626

 Excited State  61:      Singlet-A'    14.9879 eV   82.72 nm  f=0.0055  <S**2>=0.000
       7 -> 16         0.10702
       7 -> 18         0.12276
       8 -> 19        -0.10211
       8 -> 20        -0.21476
       9 -> 21         0.34063
      10 -> 24         0.10543
      12 -> 26         0.21648
      12 -> 28         0.41848
      12 -> 31         0.14951

 Excited State  62:      Singlet-A"    15.1890 eV   81.63 nm  f=0.0252  <S**2>=0.000
       6 -> 13        -0.11828
       8 -> 21        -0.21221
       9 -> 22        -0.10696
      11 -> 26         0.64623

 Excited State  63:      Singlet-A'    15.2472 eV   81.32 nm  f=0.0077  <S**2>=0.000
       8 -> 20         0.42587
      10 -> 24        -0.35249
      11 -> 27         0.35243
      12 -> 26         0.10849
      12 -> 31         0.11191

 Excited State  64:      Singlet-A'    15.2663 eV   81.21 nm  f=0.0192  <S**2>=0.000
       8 -> 20         0.49293
      10 -> 24         0.30921
      11 -> 27        -0.37024

 Excited State  65:      Singlet-A"    15.3111 eV   80.98 nm  f=0.0094  <S**2>=0.000
       8 -> 21         0.67146
      11 -> 26         0.19070

 Excited State  66:      Singlet-A'    15.3497 eV   80.77 nm  f=0.0792  <S**2>=0.000
       8 -> 18        -0.11066
      10 -> 24         0.46893
      11 -> 27         0.47582

 Excited State  67:      Singlet-A"    15.4623 eV   80.18 nm  f=0.0031  <S**2>=0.000
       9 -> 22         0.69066
      11 -> 26         0.12023

 Excited State  68:      Singlet-A'    15.5577 eV   79.69 nm  f=0.0099  <S**2>=0.000
       7 -> 18         0.56913
      12 -> 29         0.35488
      12 -> 30         0.13356

 Excited State  69:      Singlet-A'    15.6740 eV   79.10 nm  f=0.0219  <S**2>=0.000
       7 -> 18        -0.29952
      12 -> 29         0.33574
      12 -> 30         0.51308

 Excited State  70:      Singlet-A'    15.7189 eV   78.88 nm  f=0.0164  <S**2>=0.000
       7 -> 18        -0.17066
      12 -> 29         0.48352
      12 -> 30        -0.45878

 Excited State  71:      Singlet-A'    15.9809 eV   77.58 nm  f=0.0056  <S**2>=0.000
       6 -> 14        -0.12262
       7 -> 19         0.66796
      10 -> 25        -0.11545

 Excited State  72:      Singlet-A"    16.0070 eV   77.46 nm  f=0.0505  <S**2>=0.000
       6 -> 13         0.58677
       8 -> 23        -0.16685
       9 -> 20        -0.10956
       9 -> 24         0.10707
      12 -> 32        -0.25437

 Excited State  73:      Singlet-A'    16.0469 eV   77.26 nm  f=0.0265  <S**2>=0.000
       8 -> 22         0.66188
       9 -> 23         0.12437
      10 -> 25        -0.10622
      12 -> 31        -0.13946

 Excited State  74:      Singlet-A"    16.1800 eV   76.63 nm  f=0.0261  <S**2>=0.000
      11 -> 28         0.66607
      12 -> 32         0.22973

 Excited State  75:      Singlet-A'    16.2105 eV   76.48 nm  f=0.0301  <S**2>=0.000
       9 -> 23         0.36225
      10 -> 25         0.55034
      12 -> 31        -0.18436

 Excited State  76:      Singlet-A'    16.3120 eV   76.01 nm  f=0.0209  <S**2>=0.000
       6 -> 14         0.18183
       7 -> 20         0.44391
       9 -> 23        -0.43352
      10 -> 25         0.23919

 Excited State  77:      Singlet-A"    16.3696 eV   75.74 nm  f=0.1114  <S**2>=0.000
       6 -> 13         0.14168
       8 -> 23        -0.22223
       9 -> 24         0.15778
      11 -> 28        -0.21172
      12 -> 32         0.58730

 Excited State  78:      Singlet-A"    16.4130 eV   75.54 nm  f=0.0011  <S**2>=0.000
       7 -> 21         0.70594

 Excited State  79:      Singlet-A'    16.4241 eV   75.49 nm  f=0.0925  <S**2>=0.000
       7 -> 20         0.51920
       8 -> 22        -0.11326
       9 -> 23         0.29417
      10 -> 25        -0.29542

 Excited State  80:      Singlet-A'    16.5739 eV   74.81 nm  f=0.0241  <S**2>=0.000
       6 -> 14         0.21472
       8 -> 24         0.11658
       9 -> 23         0.18899
      10 -> 25         0.10329
      10 -> 26         0.13583
      12 -> 26        -0.11379
      12 -> 31         0.52844
      12 -> 33         0.11969

 Excited State  81:      Singlet-A"    16.5892 eV   74.74 nm  f=0.0030  <S**2>=0.000
       8 -> 23         0.25934
       9 -> 24         0.65066

 Excited State  82:      Singlet-A'    16.7259 eV   74.13 nm  f=0.1217  <S**2>=0.000
       6 -> 14         0.51663
       8 -> 24        -0.11772
       9 -> 23         0.11471
      10 -> 26        -0.37919
      12 -> 31        -0.10156

 Excited State  83:      Singlet-A"    16.8461 eV   73.60 nm  f=0.0376  <S**2>=0.000
       6 -> 13         0.16293
       8 -> 23         0.52981
       9 -> 24        -0.16414
      10 -> 27        -0.34759
      12 -> 32         0.13325

 Excited State  84:      Singlet-A"    16.9534 eV   73.13 nm  f=0.0000  <S**2>=0.000
      11 -> 29         0.68820
      11 -> 30         0.15315

 Excited State  85:      Singlet-A"    17.0140 eV   72.87 nm  f=0.0143  <S**2>=0.000
      10 -> 27        -0.31376
      11 -> 29        -0.12171
      11 -> 30         0.61230

 Excited State  86:      Singlet-A"    17.0539 eV   72.70 nm  f=0.1282  <S**2>=0.000
       6 -> 13         0.15065
       8 -> 23         0.24816
      10 -> 27         0.51693
      11 -> 30         0.30828
      12 -> 32         0.10315

 Excited State  87:      Singlet-A'    17.0662 eV   72.65 nm  f=0.0144  <S**2>=0.000
       6 -> 14         0.22064
       6 -> 15         0.12886
       7 -> 22         0.10790
       8 -> 24        -0.31973
      10 -> 26         0.50563
      11 -> 32        -0.15470
      12 -> 31        -0.10118

 Excited State  88:      Singlet-A'    17.2052 eV   72.06 nm  f=0.0486  <S**2>=0.000
       7 -> 22         0.66465
       8 -> 24         0.18676

 Excited State  89:      Singlet-A'    17.2627 eV   71.82 nm  f=0.0376  <S**2>=0.000
       6 -> 14         0.12078
       6 -> 15         0.15727
       7 -> 22        -0.14008
       8 -> 24         0.54862
      10 -> 26         0.15116
      10 -> 28        -0.10224
      11 -> 32        -0.17062
      12 -> 31        -0.11461
      12 -> 33        -0.18816

 Excited State  90:      Singlet-A'    17.4528 eV   71.04 nm  f=0.0091  <S**2>=0.000
       6 -> 15         0.28621
      11 -> 32        -0.19719
      12 -> 33         0.58679

 Excited State  91:      Singlet-A"    17.4966 eV   70.86 nm  f=0.0005  <S**2>=0.000
       9 -> 25        -0.17720
      11 -> 31         0.68066

 Excited State  92:      Singlet-A'    17.5807 eV   70.52 nm  f=0.0035  <S**2>=0.000
       6 -> 15         0.54562
      11 -> 32         0.34653
      12 -> 33        -0.15512

 Excited State  93:      Singlet-A"    17.6514 eV   70.24 nm  f=0.0180  <S**2>=0.000
       9 -> 25         0.67610
      11 -> 31         0.17061

 Excited State  94:      Singlet-A'    17.7626 eV   69.80 nm  f=0.0997  <S**2>=0.000
       6 -> 15        -0.16875
       7 -> 24         0.15692
       8 -> 25        -0.10203
      10 -> 26         0.13038
      10 -> 28        -0.25864
      11 -> 32         0.49311
      12 -> 33         0.22159

 Excited State  95:      Singlet-A"    17.8113 eV   69.61 nm  f=0.0642  <S**2>=0.000
       7 -> 23         0.68960

 Excited State  96:      Singlet-A'    17.9643 eV   69.02 nm  f=0.0668  <S**2>=0.000
       7 -> 24         0.11929
      10 -> 28         0.61006
      12 -> 31        -0.10910
      12 -> 33         0.12896

 Excited State  97:      Singlet-A'    18.1837 eV   68.18 nm  f=0.0020  <S**2>=0.000
       8 -> 25         0.68830

 Excited State  98:      Singlet-A"    18.3690 eV   67.50 nm  f=0.0337  <S**2>=0.000
       6 -> 17        -0.19408
       9 -> 26         0.62124
      11 -> 33        -0.14000
      12 -> 34        -0.16524

 Excited State  99:      Singlet-A'    18.4250 eV   67.29 nm  f=0.0078  <S**2>=0.000
       6 -> 16        -0.28981
       9 -> 27         0.62066

 Excited State 100:      Singlet-A"    18.4530 eV   67.19 nm  f=0.0028  <S**2>=0.000
       9 -> 26         0.17228
      12 -> 34         0.68116

 Excited State 101:      Singlet-A'    18.4626 eV   67.15 nm  f=0.0877  <S**2>=0.000
       6 -> 16        -0.43568
       7 -> 24         0.45411
       9 -> 27        -0.23003
      10 -> 29         0.14131

 Excited State 102:      Singlet-A"    18.5574 eV   66.81 nm  f=0.0061  <S**2>=0.000
       6 -> 17         0.67684
       9 -> 26         0.16140

 Excited State 103:      Singlet-A'    18.5643 eV   66.79 nm  f=0.0333  <S**2>=0.000
       6 -> 16         0.44247
       6 -> 18         0.13889
       7 -> 24         0.39531
       9 -> 27         0.13049
      10 -> 29         0.10734
      10 -> 30        -0.23904

 Excited State 104:      Singlet-A'    18.7283 eV   66.20 nm  f=0.0011  <S**2>=0.000
       8 -> 26         0.15456
       9 -> 27         0.11208
      10 -> 29         0.45225
      10 -> 30         0.48083

 Excited State 105:      Singlet-A"    18.7922 eV   65.98 nm  f=0.0152  <S**2>=0.000
       9 -> 26         0.13809
      11 -> 33         0.67677

 Excited State 106:      Singlet-A'    18.9327 eV   65.49 nm  f=0.0821  <S**2>=0.000
       7 -> 24         0.17138
       7 -> 25         0.12890
       8 -> 26        -0.21053
      10 -> 29        -0.35906
      10 -> 30         0.38426
      12 -> 35        -0.29806

 Excited State 107:      Singlet-A"    18.9466 eV   65.44 nm  f=0.0137  <S**2>=0.000
       8 -> 27         0.70105

 Excited State 108:      Singlet-A'    19.0237 eV   65.17 nm  f=0.0008  <S**2>=0.000
       8 -> 26         0.61459
      10 -> 29        -0.22407
      10 -> 31        -0.13347
      12 -> 36         0.11336

 Excited State 109:      Singlet-A'    19.1770 eV   64.65 nm  f=0.0744  <S**2>=0.000
       8 -> 26         0.13033
      10 -> 31         0.51397
      12 -> 35        -0.41471

 Excited State 110:      Singlet-A'    19.2336 eV   64.46 nm  f=0.0089  <S**2>=0.000
       6 -> 18         0.27496
       7 -> 25         0.25155
      10 -> 29        -0.11166
      10 -> 31         0.41941
      12 -> 35         0.39931

 Excited State 111:      Singlet-A"    19.2673 eV   64.35 nm  f=0.0033  <S**2>=0.000
      10 -> 32         0.70317

 Excited State 112:      Singlet-A"    19.3256 eV   64.16 nm  f=0.0083  <S**2>=0.000
       9 -> 28         0.68771

 Excited State 113:      Singlet-A'    19.4484 eV   63.75 nm  f=0.0972  <S**2>=0.000
       6 -> 18         0.54761
       6 -> 19         0.12326
       7 -> 26         0.26473
      10 -> 31        -0.14313
      12 -> 35        -0.19697

 Excited State 114:      Singlet-A'    19.5716 eV   63.35 nm  f=0.2215  <S**2>=0.000
       6 -> 18        -0.11414
       7 -> 25         0.57690
       8 -> 28        -0.18126
      10 -> 29         0.10866
      10 -> 30        -0.12246
      12 -> 35        -0.14478
      12 -> 36         0.13348

 Excited State 115:      Singlet-A'    19.6453 eV   63.11 nm  f=0.0070  <S**2>=0.000
       6 -> 19         0.64783
      11 -> 34         0.23388
      12 -> 36         0.10789

 Excited State 116:      Singlet-A'    19.8055 eV   62.60 nm  f=0.0126  <S**2>=0.000
       6 -> 19        -0.22090
       8 -> 28         0.33637
      11 -> 34         0.52415
      12 -> 36         0.18385

 Excited State 117:      Singlet-A'    19.8658 eV   62.41 nm  f=0.0496  <S**2>=0.000
       6 -> 20         0.13409
       7 -> 25         0.15665
       8 -> 28         0.52630
      11 -> 34        -0.18854
      12 -> 36        -0.32653

 Excited State 118:      Singlet-A"    20.0816 eV   61.74 nm  f=0.0353  <S**2>=0.000
       7 -> 27         0.65568
       9 -> 29         0.21915
       9 -> 30        -0.10576

 Excited State 119:      Singlet-A'    20.0848 eV   61.73 nm  f=0.0100  <S**2>=0.000
       6 -> 20         0.66612
       7 -> 26         0.15311

 The electronic state is 1-A'.
 Alpha  occ. eigenvalues --  -18.84952 -18.79265 -10.05124  -1.03508  -0.94899
 Alpha  occ. eigenvalues --   -0.62093  -0.48375  -0.44287  -0.42211  -0.37003
 Alpha  occ. eigenvalues --   -0.30883  -0.26057
 Alpha virt. eigenvalues --   -0.05856  -0.01952   0.01356   0.05665   0.05941
 Alpha virt. eigenvalues --    0.08375   0.09981   0.11585   0.11921   0.14466
 Alpha virt. eigenvalues --    0.16835   0.18636   0.22384   0.24503   0.25307

 Mulliken charges:
               1
     1  O   -0.179055
     2  C    0.597513
     3  O   -0.283660
     4  H    0.160732
     5  H   -0.295530
 Sum of Mulliken charges =  -0.00000

 Dipole moment (field-independent basis, Debye):
    X=             -1.4875    Y=             -0.3524    Z=             -0.0000  Tot=              1.5287
 Quadrupole moment (field-independent basis, Debye-Ang):
   XX=            -22.3130   YY=            -13.3088   ZZ=            -17.2802
   XY=              0.0706   XZ=              0.0000   YZ=             -0.0000

 Normal termination of Gaussian 16 at Mon Mar 21 20:26:13 2022.
