 Gaussian 16, Revision C.01,
 Gaussian 16:  EM64L-G16RevC.01  3-Jul-2019

 ----------------------------------------------------------------------
 #P TD(Nstates=10000) pw91pw91/Gen SCF(maxcycles=100) Int(Grid=ultrafin
 e)
 ----------------------------------------------------------------------

 ---------------------
 xGDB7_00001_tier4.com
 ---------------------
 Symbolic Z-matrix:
 Charge =  0 Multiplicity = 1

                         Standard orientation:
 ---------------------------------------------------------------------
 Center     Atomic      Atomic             Coordinates (Angstroms)
 Number     Number       Type             X           Y           Z
 ---------------------------------------------------------------------
      1          6           0       -0.049078    0.702042   -0.000000
      2          7           0       -0.049078   -0.754243    0.000000
      3          1           0        0.946109    1.166603   -0.000000
      4          1           0       -0.587574    1.062597    0.877770
      5          1           0       -0.587574    1.062597   -0.877770
      6          1           0        0.433525   -1.112175    0.812504
      7          1           0        0.433525   -1.112175   -0.812504
 ---------------------------------------------------------------------

 SCF Done:  E(RPW91-PW91) =  -95.7500384558     A.U. after   12 cycles

 Excitation energies and oscillator strengths:

 Excited State   1:      Singlet-A'     5.4120 eV  229.09 nm  f=0.0039  <S**2>=0.000
       9 -> 10         0.70570
 This state for optimization and/or second-order correction.
 Total Energy, E(TD-HF/TD-DFT) =  -95.5511495968
 Copying the excited state density for this state as the 1-particle RhoCI density.

 Excited State   2:      Singlet-A'     6.4141 eV  193.30 nm  f=0.0335  <S**2>=0.000
       9 -> 11         0.70508

 Excited State   3:      Singlet-A"     7.1412 eV  173.62 nm  f=0.0060  <S**2>=0.000
       9 -> 12         0.70528

 Excited State   4:      Singlet-A'     7.7196 eV  160.61 nm  f=0.0729  <S**2>=0.000
       9 -> 13         0.70515

 Excited State   5:      Singlet-A"     8.1125 eV  152.83 nm  f=0.0008  <S**2>=0.000
       9 -> 14         0.70504

 Excited State   6:      Singlet-A'     8.7503 eV  141.69 nm  f=0.0035  <S**2>=0.000
       9 -> 15         0.70603

 Excited State   7:      Singlet-A"     8.8914 eV  139.44 nm  f=0.0045  <S**2>=0.000
       8 -> 10         0.70623

 Excited State   8:      Singlet-A'     8.9340 eV  138.78 nm  f=0.0144  <S**2>=0.000
       9 -> 16         0.70642

 Excited State   9:      Singlet-A"     9.3145 eV  133.11 nm  f=0.0003  <S**2>=0.000
       9 -> 17         0.70666

 Excited State  10:      Singlet-A'     9.8958 eV  125.29 nm  f=0.0413  <S**2>=0.000
       7 -> 10         0.70299

 Excited State  11:      Singlet-A"     9.9181 eV  125.01 nm  f=0.0681  <S**2>=0.000
       8 -> 11         0.70490

 Excited State  12:      Singlet-A'    10.3994 eV  119.22 nm  f=0.0018  <S**2>=0.000
       6 -> 10        -0.13606
       8 -> 12         0.13250
       9 -> 18         0.55296
       9 -> 19         0.38356

 Excited State  13:      Singlet-A'    10.6211 eV  116.73 nm  f=0.0226  <S**2>=0.000
       7 -> 11        -0.19477
       8 -> 12         0.45590
       9 -> 18         0.16877
       9 -> 19        -0.45180

 Excited State  14:      Singlet-A"    10.6421 eV  116.50 nm  f=0.0117  <S**2>=0.000
       9 -> 20         0.70369

 Excited State  15:      Singlet-A'    10.7744 eV  115.07 nm  f=0.0108  <S**2>=0.000
       6 -> 10         0.28978
       8 -> 12         0.47566
       9 -> 18        -0.26598
       9 -> 19         0.32333

 Excited State  16:      Singlet-A'    10.8933 eV  113.82 nm  f=0.0685  <S**2>=0.000
       6 -> 10         0.18151
       7 -> 11         0.63543
       9 -> 18         0.12905
       9 -> 19        -0.14945

 Excited State  17:      Singlet-A'    11.0213 eV  112.50 nm  f=0.1185  <S**2>=0.000
       6 -> 10         0.58370
       7 -> 11        -0.22878
       8 -> 12        -0.16793
       9 -> 18         0.22033

 Excited State  18:      Singlet-A"    11.1679 eV  111.02 nm  f=0.0173  <S**2>=0.000
       8 -> 13         0.69855

 Excited State  19:      Singlet-A"    11.5521 eV  107.33 nm  f=0.0147  <S**2>=0.000
       7 -> 12         0.70002

 Excited State  20:      Singlet-A'    11.8058 eV  105.02 nm  f=0.0014  <S**2>=0.000
       6 -> 11        -0.34512
       7 -> 13        -0.15196
       8 -> 14         0.53607
       9 -> 21         0.23474

 Excited State  21:      Singlet-A'    11.8914 eV  104.26 nm  f=0.1356  <S**2>=0.000
       6 -> 11         0.60045
       7 -> 13        -0.16770
       8 -> 14         0.29590

 Excited State  22:      Singlet-A'    12.0642 eV  102.77 nm  f=0.1722  <S**2>=0.000
       7 -> 13         0.17512
       8 -> 14        -0.17878
       9 -> 21         0.63869

 Excited State  23:      Singlet-A"    12.1007 eV  102.46 nm  f=0.0006  <S**2>=0.000
       5 -> 10        -0.35626
       9 -> 22         0.60357

 Excited State  24:      Singlet-A"    12.2115 eV  101.53 nm  f=0.0810  <S**2>=0.000
       5 -> 10         0.52577
       6 -> 12         0.13059
       8 -> 15        -0.27521
       8 -> 16        -0.13486
       9 -> 22         0.31993

 Excited State  25:      Singlet-A"    12.2893 eV  100.89 nm  f=0.0218  <S**2>=0.000
       5 -> 10         0.22792
       7 -> 14         0.20990
       8 -> 15         0.61972

 Excited State  26:      Singlet-A'    12.4155 eV   99.86 nm  f=0.0372  <S**2>=0.000
       6 -> 13        -0.14693
       7 -> 13         0.59308
       8 -> 14         0.20434
       8 -> 17        -0.18533

 Excited State  27:      Singlet-A"    12.4249 eV   99.79 nm  f=0.0013  <S**2>=0.000
       6 -> 12         0.21337
       8 -> 16         0.66613

 Excited State  28:      Singlet-A"    12.5859 eV   98.51 nm  f=0.0025  <S**2>=0.000
       6 -> 12         0.54469
       7 -> 14        -0.39824
       8 -> 16        -0.16731

 Excited State  29:      Singlet-A'    12.6087 eV   98.33 nm  f=0.2079  <S**2>=0.000
       9 -> 23         0.66607
       9 -> 24        -0.14585

 Excited State  30:      Singlet-A"    12.7441 eV   97.29 nm  f=0.2018  <S**2>=0.000
       5 -> 10        -0.14248
       6 -> 12         0.34592
       7 -> 14         0.51796
       8 -> 15        -0.14563
       8 -> 19        -0.13621
       9 -> 22        -0.12420

 Excited State  31:      Singlet-A'    12.9252 eV   95.92 nm  f=0.0003  <S**2>=0.000
       6 -> 13         0.18240
       8 -> 17        -0.44832
       9 -> 23         0.13993
       9 -> 24         0.48073

 Excited State  32:      Singlet-A'    12.9805 eV   95.52 nm  f=0.0049  <S**2>=0.000
       6 -> 13        -0.21469
       7 -> 15        -0.15302
       8 -> 17         0.41684
       9 -> 24         0.48320

 Excited State  33:      Singlet-A"    13.1422 eV   94.34 nm  f=0.0165  <S**2>=0.000
       5 -> 11         0.69510

 Excited State  34:      Singlet-A'    13.1918 eV   93.99 nm  f=0.0314  <S**2>=0.000
       6 -> 13        -0.44397
       7 -> 15         0.52915

 Excited State  35:      Singlet-A'    13.4514 eV   92.17 nm  f=0.0276  <S**2>=0.000
       5 -> 12        -0.30837
       6 -> 13         0.35720
       7 -> 13         0.13566
       7 -> 15         0.38433
       7 -> 16        -0.21965
       8 -> 17         0.17854

 Excited State  36:      Singlet-A"    13.5165 eV   91.73 nm  f=0.0022  <S**2>=0.000
       6 -> 14         0.27907
       8 -> 18         0.63829

 Excited State  37:      Singlet-A"    13.5402 eV   91.57 nm  f=0.0120  <S**2>=0.000
       6 -> 14         0.63390
       8 -> 18        -0.29319

 Excited State  38:      Singlet-A'    13.6658 eV   90.73 nm  f=0.1331  <S**2>=0.000
       5 -> 12        -0.15046
       6 -> 13         0.16049
       7 -> 16         0.59914
       9 -> 25         0.18503

 Excited State  39:      Singlet-A'    13.7825 eV   89.96 nm  f=0.0522  <S**2>=0.000
       7 -> 16        -0.17916
       9 -> 25         0.67157

 Excited State  40:      Singlet-A"    13.7860 eV   89.93 nm  f=0.0010  <S**2>=0.000
       7 -> 17         0.64226
       8 -> 19         0.28685

 Excited State  41:      Singlet-A"    14.1299 eV   87.75 nm  f=0.0007  <S**2>=0.000
       8 -> 19        -0.22628
       9 -> 26         0.65937

 Excited State  42:      Singlet-A'    14.1736 eV   87.48 nm  f=0.0152  <S**2>=0.000
       5 -> 12         0.30008
       6 -> 15         0.55045
       8 -> 20        -0.27474

 Excited State  43:      Singlet-A"    14.2149 eV   87.22 nm  f=0.0927  <S**2>=0.000
       5 -> 13         0.40915
       7 -> 17        -0.18660
       8 -> 19         0.44884
       9 -> 26         0.22839

 Excited State  44:      Singlet-A'    14.2894 eV   86.77 nm  f=0.0051  <S**2>=0.000
       5 -> 12         0.10471
       6 -> 15        -0.33848
       6 -> 16         0.44340
       8 -> 20        -0.38602
       9 -> 29         0.10916

 Excited State  45:      Singlet-A"    14.4542 eV   85.78 nm  f=0.1679  <S**2>=0.000
       5 -> 13         0.54131
       6 -> 17        -0.12636
       7 -> 17         0.10327
       8 -> 19        -0.26374
       9 -> 27        -0.25826

 Excited State  46:      Singlet-A'    14.4731 eV   85.66 nm  f=0.0647  <S**2>=0.000
       5 -> 12        -0.24890
       5 -> 14         0.12518
       6 -> 16        -0.19775
       7 -> 18         0.46035
       8 -> 17        -0.10202
       8 -> 20        -0.28739
       9 -> 29        -0.14257
       9 -> 30         0.11908

 Excited State  47:      Singlet-A"    14.5687 eV   85.10 nm  f=0.0225  <S**2>=0.000
       5 -> 13         0.13833
       6 -> 17        -0.11803
       7 -> 20        -0.11258
       8 -> 19        -0.12051
       9 -> 27         0.63559
       9 -> 28        -0.14054

 Excited State  48:      Singlet-A'    14.6184 eV   84.81 nm  f=0.2543  <S**2>=0.000
       5 -> 12         0.20748
       5 -> 14        -0.15985
       6 -> 16         0.14348
       7 -> 18         0.49376
       7 -> 19        -0.10396
       8 -> 20         0.33114

 Excited State  49:      Singlet-A'    14.7701 eV   83.94 nm  f=0.0069  <S**2>=0.000
       5 -> 12         0.16400
       5 -> 14         0.14314
       6 -> 15        -0.13649
       6 -> 16        -0.28563
       7 -> 18         0.12956
       7 -> 19         0.11118
       9 -> 29         0.54431

 Excited State  50:      Singlet-A"    14.7865 eV   83.85 nm  f=0.0586  <S**2>=0.000
       6 -> 17         0.59762
       7 -> 20        -0.13225
       9 -> 28         0.28586

 Excited State  51:      Singlet-A"    14.8298 eV   83.60 nm  f=0.0002  <S**2>=0.000
       6 -> 17        -0.31349
       9 -> 28         0.61495

 Excited State  52:      Singlet-A'    14.9242 eV   83.08 nm  f=0.0603  <S**2>=0.000
       5 -> 14        -0.38604
       6 -> 16        -0.12310
       7 -> 19        -0.25271
       9 -> 30         0.49725

 Excited State  53:      Singlet-A'    14.9743 eV   82.80 nm  f=0.0547  <S**2>=0.000
       4 -> 11         0.12421
       5 -> 12        -0.27836
       6 -> 15         0.20461
       6 -> 16         0.30540
       7 -> 15        -0.10769
       7 -> 19        -0.13147
       8 -> 20         0.14580
       9 -> 29         0.34920
       9 -> 30         0.10040

 Excited State  54:      Singlet-A'    15.0669 eV   82.29 nm  f=0.0432  <S**2>=0.000
       5 -> 14        -0.41383
       6 -> 18         0.16803
       7 -> 19         0.47286
       9 -> 30        -0.10037

 Excited State  55:      Singlet-A'    15.1341 eV   81.92 nm  f=0.2550  <S**2>=0.000
       5 -> 14         0.25691
       6 -> 16         0.10906
       6 -> 18         0.11218
       7 -> 19         0.36317
       8 -> 20         0.13789
       8 -> 22        -0.10075
       9 -> 30         0.44675

 Excited State  56:      Singlet-A"    15.2173 eV   81.48 nm  f=0.0224  <S**2>=0.000
       5 -> 15         0.23168
       7 -> 20         0.63075
       8 -> 21         0.10578

 Excited State  57:      Singlet-A"    15.3513 eV   80.76 nm  f=0.0035  <S**2>=0.000
       8 -> 21         0.69056

 Excited State  58:      Singlet-A"    15.5773 eV   79.59 nm  f=0.0281  <S**2>=0.000
       5 -> 15         0.52820
       5 -> 16         0.42900
       7 -> 20        -0.11755

 Excited State  59:      Singlet-A'    15.6328 eV   79.31 nm  f=0.0795  <S**2>=0.000
       5 -> 14         0.10111
       6 -> 18         0.32327
       6 -> 19        -0.22605
       8 -> 22         0.55838

 Excited State  60:      Singlet-A'    15.6448 eV   79.25 nm  f=0.0712  <S**2>=0.000
       5 -> 17        -0.15175
       6 -> 18         0.53414
       6 -> 19        -0.10138
       8 -> 22        -0.37209

 Excited State  61:      Singlet-A"    15.7636 eV   78.65 nm  f=0.1581  <S**2>=0.000
       5 -> 15        -0.32251
       5 -> 16         0.51058
       6 -> 20         0.28362
       7 -> 20         0.11085

 Excited State  62:      Singlet-A"    15.8894 eV   78.03 nm  f=0.0145  <S**2>=0.000
       8 -> 23         0.69114
       9 -> 31         0.11382

 Excited State  63:      Singlet-A"    15.9102 eV   77.93 nm  f=0.0014  <S**2>=0.000
       8 -> 23        -0.10747
       9 -> 31         0.69316

 Excited State  64:      Singlet-A'    15.9677 eV   77.65 nm  f=0.0275  <S**2>=0.000
       4 -> 10         0.12108
       6 -> 19        -0.34806
       9 -> 32         0.58603

 Excited State  65:      Singlet-A'    16.0111 eV   77.44 nm  f=0.0517  <S**2>=0.000
       4 -> 10         0.40412
       5 -> 17        -0.13645
       6 -> 19        -0.39314
       7 -> 21         0.12025
       9 -> 32        -0.36216

 Excited State  66:      Singlet-A'    16.1654 eV   76.70 nm  f=0.1076  <S**2>=0.000
       4 -> 10        -0.21299
       5 -> 17         0.54461
       6 -> 19        -0.23616
       7 -> 21         0.26631
       8 -> 22        -0.10198

 Excited State  67:      Singlet-A"    16.2267 eV   76.41 nm  f=0.1347  <S**2>=0.000
       5 -> 15         0.14852
       5 -> 16        -0.15893
       6 -> 20         0.61996

 Excited State  68:      Singlet-A'    16.3023 eV   76.05 nm  f=0.0838  <S**2>=0.000
       4 -> 10        -0.34815
       5 -> 17        -0.35263
       6 -> 18        -0.11166
       7 -> 21         0.45700

 Excited State  69:      Singlet-A"    16.5238 eV   75.03 nm  f=0.0262  <S**2>=0.000
       7 -> 22         0.63940
       8 -> 24        -0.27494

 Excited State  70:      Singlet-A"    16.6020 eV   74.68 nm  f=0.0621  <S**2>=0.000
       7 -> 22         0.28604
       8 -> 24         0.62212

 Excited State  71:      Singlet-A'    16.6716 eV   74.37 nm  f=0.0379  <S**2>=0.000
       4 -> 10         0.27571
       6 -> 19         0.20436
       6 -> 21         0.10863
       6 -> 23        -0.10603
       7 -> 21         0.33807
       7 -> 23        -0.11520
       7 -> 24         0.10625
       9 -> 33         0.37766
       9 -> 34        -0.10923

 Excited State  72:      Singlet-A"    16.7792 eV   73.89 nm  f=0.0087  <S**2>=0.000
       5 -> 18         0.69473

 Excited State  73:      Singlet-A'    16.8209 eV   73.71 nm  f=0.0132  <S**2>=0.000
       4 -> 10        -0.14100
       6 -> 19        -0.11330
       7 -> 21        -0.20188
       9 -> 33         0.58980
       9 -> 34         0.14679

 Excited State  74:      Singlet-A'    17.0016 eV   72.93 nm  f=0.0288  <S**2>=0.000
       7 -> 21         0.10039
       7 -> 23         0.66375

 Excited State  75:      Singlet-A"    17.2095 eV   72.04 nm  f=0.0058  <S**2>=0.000
       8 -> 25         0.70017

 Excited State  76:      Singlet-A'    17.2170 eV   72.01 nm  f=0.0107  <S**2>=0.000
       4 -> 11         0.49152
       6 -> 21        -0.40776
       7 -> 24         0.13897
       9 -> 34        -0.19363

 Excited State  77:      Singlet-A'    17.2324 eV   71.95 nm  f=0.0004  <S**2>=0.000
       4 -> 11         0.21684
       5 -> 20         0.11317
       7 -> 24         0.18478
       9 -> 34         0.61435

 Excited State  78:      Singlet-A"    17.3503 eV   71.46 nm  f=0.0265  <S**2>=0.000
       5 -> 19         0.66417
       6 -> 22        -0.15393

 Excited State  79:      Singlet-A'    17.5113 eV   70.80 nm  f=0.0062  <S**2>=0.000
       4 -> 11         0.34392
       6 -> 21         0.38821
       7 -> 24        -0.36935
       8 -> 26        -0.17258

 Excited State  80:      Singlet-A'    17.5430 eV   70.67 nm  f=0.0128  <S**2>=0.000
       5 -> 20         0.56069
       6 -> 21        -0.19537
       7 -> 24        -0.24569
       8 -> 26        -0.21839

 Excited State  81:      Singlet-A"    17.5440 eV   70.67 nm  f=0.0084  <S**2>=0.000
       5 -> 19         0.14344
       6 -> 22         0.68710

 Excited State  82:      Singlet-A'    17.6614 eV   70.20 nm  f=0.0101  <S**2>=0.000
       4 -> 11         0.10909
       5 -> 20         0.20180
       8 -> 26         0.63521
       8 -> 28        -0.11126

 Excited State  83:      Singlet-A'    17.7645 eV   69.79 nm  f=0.1325  <S**2>=0.000
       5 -> 20         0.27230
       6 -> 21         0.27717
       7 -> 24         0.39249
       7 -> 25         0.16420
       8 -> 27        -0.13419
       8 -> 28        -0.11345
       9 -> 34        -0.15915
       9 -> 36        -0.15505

 Excited State  84:      Singlet-A"    17.8075 eV   69.62 nm  f=0.0005  <S**2>=0.000
       4 -> 12         0.17193
       9 -> 35         0.68456

 Excited State  85:      Singlet-A"    17.8753 eV   69.36 nm  f=0.0012  <S**2>=0.000
       4 -> 12         0.67790
       9 -> 35        -0.16980

 Excited State  86:      Singlet-A'    17.9522 eV   69.06 nm  f=0.0216  <S**2>=0.000
       6 -> 23         0.50592
       8 -> 27        -0.12163
       9 -> 36         0.43824

 Excited State  87:      Singlet-A'    18.1382 eV   68.36 nm  f=0.0304  <S**2>=0.000
       6 -> 23        -0.28864
       6 -> 24         0.21383
       7 -> 25         0.43422
       8 -> 28         0.18330
       9 -> 36         0.35320

 Excited State  88:      Singlet-A"    18.2026 eV   68.11 nm  f=0.0031  <S**2>=0.000
       8 -> 30        -0.10225
       9 -> 37         0.68951

 Excited State  89:      Singlet-A'    18.2919 eV   67.78 nm  f=0.0164  <S**2>=0.000
       5 -> 20         0.12663
       6 -> 23         0.17808
       6 -> 24        -0.34542
       7 -> 25         0.28957
       8 -> 27         0.20016
       8 -> 28         0.37166
       9 -> 36        -0.18015

 Excited State  90:      Singlet-A"    18.3124 eV   67.71 nm  f=0.0057  <S**2>=0.000
       7 -> 27        -0.12395
       8 -> 29         0.63098
       8 -> 30        -0.24635

 Excited State  91:      Singlet-A'    18.3630 eV   67.52 nm  f=0.0729  <S**2>=0.000
       4 -> 13        -0.17828
       6 -> 24         0.26956
       6 -> 25        -0.10555
       7 -> 25        -0.31418
       8 -> 27         0.38469
       8 -> 28         0.30013

 Excited State  92:      Singlet-A"    18.4283 eV   67.28 nm  f=0.0214  <S**2>=0.000
       5 -> 21         0.28280
       7 -> 27        -0.12134
       8 -> 29         0.21945
       8 -> 30         0.57777

 Excited State  93:      Singlet-A'    18.5489 eV   66.84 nm  f=0.0575  <S**2>=0.000
       4 -> 13         0.60481
       7 -> 24         0.17077
       7 -> 29        -0.10832
       8 -> 27         0.21504
       9 -> 36         0.10411

 Excited State  94:      Singlet-A'    18.6189 eV   66.59 nm  f=0.1785  <S**2>=0.000
       6 -> 23         0.23645
       6 -> 24         0.33507
       6 -> 25         0.21631
       7 -> 25         0.23725
       7 -> 30        -0.15702
       8 -> 27         0.21448
       8 -> 28        -0.25269
       9 -> 36        -0.13598

 Excited State  95:      Singlet-A"    18.6224 eV   66.58 nm  f=0.0207  <S**2>=0.000
       5 -> 21         0.15213
       7 -> 26         0.66099
       8 -> 30        -0.13032

 Excited State  96:      Singlet-A"    18.6770 eV   66.38 nm  f=0.0361  <S**2>=0.000
       4 -> 14         0.10983
       5 -> 21         0.60566
       7 -> 26        -0.18749
       8 -> 30        -0.21203
       9 -> 37        -0.10551

 Excited State  97:      Singlet-A'    18.8593 eV   65.74 nm  f=0.0506  <S**2>=0.000
       4 -> 13        -0.18730
       5 -> 22         0.53714
       6 -> 24        -0.16781
       7 -> 29        -0.13875
       8 -> 27         0.23593
       8 -> 28        -0.16639

 Excited State  98:      Singlet-A'    18.9422 eV   65.45 nm  f=0.1146  <S**2>=0.000
       4 -> 13         0.15939
       5 -> 22         0.42959
       6 -> 24         0.25410
       6 -> 25         0.13742
       7 -> 29         0.16951
       8 -> 27        -0.20557
       8 -> 28         0.23138
       9 -> 36        -0.16416

 Excited State  99:      Singlet-A"    18.9561 eV   65.41 nm  f=0.0283  <S**2>=0.000
       4 -> 14         0.64258
       5 -> 23         0.20524
       8 -> 30         0.10017

 Excited State 100:      Singlet-A"    19.0873 eV   64.96 nm  f=0.0113  <S**2>=0.000
       7 -> 27         0.40060
       7 -> 28         0.57116

 Excited State 101:      Singlet-A"    19.1437 eV   64.77 nm  f=0.0052  <S**2>=0.000
       4 -> 14        -0.17003
       5 -> 23         0.66660
       5 -> 24        -0.10556

 Excited State 102:      Singlet-A'    19.3870 eV   63.95 nm  f=0.0156  <S**2>=0.000
       4 -> 15        -0.17507
       6 -> 25         0.12320
       7 -> 29         0.26046
       8 -> 31         0.58816
       9 -> 38         0.14220

 Excited State 103:      Singlet-A"    19.4042 eV   63.90 nm  f=0.0453  <S**2>=0.000
       5 -> 24         0.10847
       6 -> 26         0.15675
       7 -> 27         0.28770
       7 -> 28        -0.21575
       8 -> 32         0.54853

 Excited State 104:      Singlet-A'    19.4173 eV   63.85 nm  f=0.1323  <S**2>=0.000
       6 -> 25         0.49985
       7 -> 29         0.12708
       7 -> 30         0.20590
       8 -> 31        -0.23627
       9 -> 38         0.27181

 Excited State 105:      Singlet-A"    19.4366 eV   63.79 nm  f=0.0190  <S**2>=0.000
       4 -> 17        -0.10070
       6 -> 28        -0.10972
       7 -> 27        -0.37450
       7 -> 28         0.30236
       8 -> 29        -0.10340
       8 -> 32         0.42740

 Excited State 106:      Singlet-A'    19.4694 eV   63.68 nm  f=0.0296  <S**2>=0.000
       4 -> 15        -0.12673
       6 -> 29         0.11461
       7 -> 29        -0.18685
       7 -> 30         0.58053
       8 -> 31         0.15576
       9 -> 38        -0.23035

 Excited State 107:      Singlet-A'    19.5115 eV   63.54 nm  f=0.0826  <S**2>=0.000
       4 -> 15         0.53910
       4 -> 16        -0.11022
       6 -> 25        -0.11136
       6 -> 29        -0.12712
       7 -> 29         0.31192
       7 -> 30         0.17561

 The electronic state is 1-A'.
 Alpha  occ. eigenvalues --  -13.99164  -9.92429  -0.79390  -0.59166  -0.44509
 Alpha  occ. eigenvalues --   -0.39776  -0.36155  -0.32594  -0.19805
 Alpha virt. eigenvalues --   -0.00232   0.03334   0.06155   0.08144   0.09720
 Alpha virt. eigenvalues --    0.12258   0.12875   0.14359   0.16965   0.18470
 Alpha virt. eigenvalues --    0.19176   0.23533   0.24591   0.25720   0.27501

 Mulliken charges:
               1
     1  C    0.675648
     2  N   -0.257610
     3  H   -0.065614
     4  H   -0.153876
     5  H   -0.153876
     6  H   -0.022336
     7  H   -0.022336
 Sum of Mulliken charges =   0.00000

 Dipole moment (field-independent basis, Debye):
    X=              1.2108    Y=              0.3117    Z=             -0.0000  Tot=              1.2503
 Quadrupole moment (field-independent basis, Debye-Ang):
   XX=            -15.2225   YY=            -14.5377   ZZ=            -12.8605
   XY=             -2.0651   XZ=              0.0000   YZ=             -0.0000

 Normal termination of Gaussian 16 at Mon Mar 21 20:22:18 2022.
