 Gaussian 16, Revision C.01,
 Gaussian 16:  EM64L-G16RevC.01  3-Jul-2019

 ----------------------------------------------------------------------
 #P TD(Nstates=10000) pw91pw91/Gen SCF(maxcycles=100) Int(Grid=ultrafin
 e)
 ----------------------------------------------------------------------

 ---------------------
 xGDB7_00001_tier4.com
 ---------------------
 Symbolic Z-matrix:
 Charge =  0 Multiplicity = 1

                         Standard orientation:
 ---------------------------------------------------------------------
 Center     Atomic      Atomic             Coordinates (Angstroms)
 Number     Number       Type             X           Y           Z
 ---------------------------------------------------------------------
      1          8           0       -1.028621   -0.395177   -0.000000
      2          7           0       -0.000000    0.526228   -0.000000
      3          6           0        1.132746   -0.030907    0.000000
      4          1           0       -1.816572    0.151791   -0.000000
      5          1           0        1.994262    0.623439    0.000000
      6          1           0        1.254802   -1.111965    0.000000
 ---------------------------------------------------------------------

 SCF Done:  E(RPW91-PW91) =  -169.646947665     A.U. after   14 cycles

 Excitation energies and oscillator strengths:

 Excited State   1:      Singlet-A"     5.6577 eV  219.14 nm  f=0.0005  <S**2>=0.000
      11 -> 13         0.70542
 This state for optimization and/or second-order correction.
 Total Energy, E(TD-HF/TD-DFT) =  -169.439030049
 Copying the excited state density for this state as the 1-particle RhoCI density.

 Excited State   2:      Singlet-A"     6.3612 eV  194.91 nm  f=0.0023  <S**2>=0.000
      12 -> 14         0.70590

 Excited State   3:      Singlet-A'     6.3901 eV  194.03 nm  f=0.0396  <S**2>=0.000
       9 -> 13         0.11730
      11 -> 14         0.49327
      12 -> 13         0.48065

 Excited State   4:      Singlet-A'     6.5207 eV  190.14 nm  f=0.1161  <S**2>=0.000
      11 -> 14         0.50243
      12 -> 13        -0.46224

 Excited State   5:      Singlet-A"     7.2994 eV  169.86 nm  f=0.0135  <S**2>=0.000
      12 -> 15         0.70665

 Excited State   6:      Singlet-A'     7.4204 eV  167.09 nm  f=0.0305  <S**2>=0.000
      11 -> 15         0.68651
      11 -> 16        -0.11250

 Excited State   7:      Singlet-A"     8.4137 eV  147.36 nm  f=0.0029  <S**2>=0.000
      12 -> 16         0.66708
      12 -> 17         0.22701

 Excited State   8:      Singlet-A"     8.5605 eV  144.83 nm  f=0.0048  <S**2>=0.000
      12 -> 16        -0.22506
      12 -> 17         0.66576

 Excited State   9:      Singlet-A'     8.6441 eV  143.43 nm  f=0.1040  <S**2>=0.000
      11 -> 16         0.10178
      11 -> 17         0.69480

 Excited State  10:      Singlet-A'     8.7582 eV  141.56 nm  f=0.0789  <S**2>=0.000
      11 -> 16         0.64382
      11 -> 17        -0.11073
      12 -> 18         0.21037

 Excited State  11:      Singlet-A"     9.0122 eV  137.57 nm  f=0.0005  <S**2>=0.000
      10 -> 13         0.70304

 Excited State  12:      Singlet-A"     9.1032 eV  136.20 nm  f=0.0314  <S**2>=0.000
      11 -> 18         0.70480

 Excited State  13:      Singlet-A'     9.3155 eV  133.09 nm  f=0.0189  <S**2>=0.000
      11 -> 16        -0.15742
      11 -> 19         0.15555
      11 -> 21         0.10747
      12 -> 18         0.63697

 Excited State  14:      Singlet-A"     9.5235 eV  130.19 nm  f=0.0002  <S**2>=0.000
      12 -> 19         0.70042

 Excited State  15:      Singlet-A'     9.6458 eV  128.54 nm  f=0.0052  <S**2>=0.000
      11 -> 19         0.67702
      12 -> 18        -0.13744

 Excited State  16:      Singlet-A"     9.7065 eV  127.73 nm  f=0.0107  <S**2>=0.000
      12 -> 20         0.69362

 Excited State  17:      Singlet-A'     9.8076 eV  126.42 nm  f=0.0080  <S**2>=0.000
       9 -> 13         0.10130
      10 -> 14        -0.15953
      11 -> 20         0.66071

 Excited State  18:      Singlet-A'    10.0904 eV  122.87 nm  f=0.0580  <S**2>=0.000
       9 -> 13        -0.27796
      10 -> 14         0.61100
      11 -> 20         0.17679

 Excited State  19:      Singlet-A"    10.1268 eV  122.43 nm  f=0.0275  <S**2>=0.000
       9 -> 14         0.68783
      12 -> 21         0.14627

 Excited State  20:      Singlet-A"    10.3485 eV  119.81 nm  f=0.0054  <S**2>=0.000
       8 -> 13         0.52279
       9 -> 14        -0.14056
      12 -> 21         0.45056

 Excited State  21:      Singlet-A'    10.3726 eV  119.53 nm  f=0.1941  <S**2>=0.000
       9 -> 13         0.56000
      10 -> 14         0.29038
      11 -> 21         0.16226
      12 -> 13        -0.12324
      12 -> 23        -0.11737

 Excited State  22:      Singlet-A"    10.5233 eV  117.82 nm  f=0.0061  <S**2>=0.000
       8 -> 13        -0.46289
      12 -> 21         0.51929

 Excited State  23:      Singlet-A'    10.6743 eV  116.15 nm  f=0.0767  <S**2>=0.000
       9 -> 13        -0.12086
      10 -> 15         0.10561
      11 -> 16         0.11006
      11 -> 21         0.64004

 Excited State  24:      Singlet-A"    11.0442 eV  112.26 nm  f=0.0073  <S**2>=0.000
       9 -> 15         0.70573

 Excited State  25:      Singlet-A'    11.0945 eV  111.75 nm  f=0.0585  <S**2>=0.000
       8 -> 14        -0.11274
      10 -> 15         0.68486

 Excited State  26:      Singlet-A'    11.3755 eV  108.99 nm  f=0.0423  <S**2>=0.000
       8 -> 14         0.67783
      12 -> 22         0.15201

 Excited State  27:      Singlet-A"    11.5901 eV  106.97 nm  f=0.0004  <S**2>=0.000
      11 -> 22         0.70519

 Excited State  28:      Singlet-A'    11.6188 eV  106.71 nm  f=0.0877  <S**2>=0.000
       8 -> 14        -0.12895
      12 -> 22         0.67165

 Excited State  29:      Singlet-A"    11.7790 eV  105.26 nm  f=0.0022  <S**2>=0.000
       7 -> 13        -0.13388
      11 -> 23         0.69222

 Excited State  30:      Singlet-A"    11.9226 eV  103.99 nm  f=0.0019  <S**2>=0.000
      12 -> 24         0.69829

 Excited State  31:      Singlet-A'    11.9393 eV  103.85 nm  f=0.1015  <S**2>=0.000
      10 -> 16        -0.24578
      10 -> 17        -0.15533
      11 -> 24         0.11611
      12 -> 23         0.60794

 Excited State  32:      Singlet-A"    12.0691 eV  102.73 nm  f=0.0071  <S**2>=0.000
       7 -> 13         0.37404
       9 -> 16        -0.21080
      12 -> 25         0.55691

 Excited State  33:      Singlet-A'    12.1193 eV  102.30 nm  f=0.0117  <S**2>=0.000
      11 -> 24         0.58320
      11 -> 25        -0.32274
      12 -> 23        -0.12511

 Excited State  34:      Singlet-A"    12.1807 eV  101.79 nm  f=0.0194  <S**2>=0.000
       7 -> 13        -0.17175
       9 -> 16         0.50813
       9 -> 17         0.32035
      12 -> 25         0.31201

 Excited State  35:      Singlet-A'    12.1910 eV  101.70 nm  f=0.0096  <S**2>=0.000
      10 -> 16        -0.26020
      10 -> 17         0.15753
      11 -> 24         0.22739
      11 -> 25         0.56586

 Excited State  36:      Singlet-A'    12.2763 eV  100.99 nm  f=0.0006  <S**2>=0.000
       8 -> 15         0.50039
      10 -> 16         0.28648
      10 -> 17         0.37059
      12 -> 23         0.13013

 Excited State  37:      Singlet-A"    12.2786 eV  100.98 nm  f=0.0378  <S**2>=0.000
       6 -> 13         0.14508
       7 -> 13         0.52837
       9 -> 16         0.25649
       9 -> 17         0.18533
      11 -> 23         0.11437
      12 -> 25        -0.26896

 Excited State  38:      Singlet-A"    12.3742 eV  100.20 nm  f=0.0081  <S**2>=0.000
       9 -> 16        -0.34441
       9 -> 17         0.59920

 Excited State  39:      Singlet-A'    12.3893 eV  100.07 nm  f=0.0247  <S**2>=0.000
       7 -> 14        -0.11998
       8 -> 15        -0.10855
       9 -> 18        -0.12169
      10 -> 16        -0.36778
      10 -> 17         0.47616
      11 -> 24        -0.14251
      11 -> 25        -0.21983

 Excited State  40:      Singlet-A'    12.5437 eV   98.84 nm  f=0.0384  <S**2>=0.000
       8 -> 15         0.45494
      10 -> 16        -0.31026
      10 -> 17        -0.25639
      11 -> 24        -0.15739
      11 -> 26         0.12864
      12 -> 23        -0.17762

 Excited State  41:      Singlet-A"    12.7545 eV   97.21 nm  f=0.0020  <S**2>=0.000
      10 -> 18         0.70202

 Excited State  42:      Singlet-A'    12.9695 eV   95.60 nm  f=0.0048  <S**2>=0.000
       7 -> 14        -0.26035
       9 -> 18         0.60675
      10 -> 19        -0.16277

 Excited State  43:      Singlet-A"    13.0736 eV   94.84 nm  f=0.0001  <S**2>=0.000
      12 -> 26         0.70301

 Excited State  44:      Singlet-A'    13.0867 eV   94.74 nm  f=0.0185  <S**2>=0.000
       7 -> 14         0.53714
       9 -> 18         0.16417
      10 -> 20        -0.19930
      11 -> 26         0.34399

 Excited State  45:      Singlet-A"    13.3046 eV   93.19 nm  f=0.0043  <S**2>=0.000
       9 -> 19         0.68580
       9 -> 20        -0.15980

 Excited State  46:      Singlet-A'    13.3142 eV   93.12 nm  f=0.0055  <S**2>=0.000
       7 -> 14        -0.14927
       8 -> 16         0.23608
       8 -> 17         0.10370
      10 -> 19         0.53554
      11 -> 26         0.32134

 Excited State  47:      Singlet-A'    13.4276 eV   92.34 nm  f=0.0108  <S**2>=0.000
       7 -> 14        -0.24340
       8 -> 17        -0.35491
      10 -> 19        -0.22762
      10 -> 20        -0.13989
      11 -> 26         0.39673
      12 -> 27         0.19065

 Excited State  48:      Singlet-A"    13.4967 eV   91.86 nm  f=0.0867  <S**2>=0.000
       6 -> 13        -0.19192
       9 -> 19         0.15565
       9 -> 20         0.65739

 Excited State  49:      Singlet-A'    13.5636 eV   91.41 nm  f=0.0277  <S**2>=0.000
       8 -> 17         0.31145
      12 -> 27         0.61569

 Excited State  50:      Singlet-A"    13.5837 eV   91.27 nm  f=0.0005  <S**2>=0.000
      11 -> 27         0.69844

 Excited State  51:      Singlet-A'    13.6442 eV   90.87 nm  f=0.0452  <S**2>=0.000
       8 -> 16        -0.25821
       8 -> 19         0.13834
      10 -> 20         0.57041
      11 -> 26         0.17467

 Excited State  52:      Singlet-A'    13.7504 eV   90.17 nm  f=0.0643  <S**2>=0.000
       7 -> 15        -0.21166
       8 -> 16         0.29339
       8 -> 17         0.33722
       9 -> 18        -0.15961
      10 -> 19        -0.27623
      10 -> 20         0.15548
      11 -> 26         0.11368
      12 -> 27        -0.21827

 Excited State  53:      Singlet-A'    13.8903 eV   89.26 nm  f=0.1885  <S**2>=0.000
       7 -> 14         0.11022
       8 -> 16         0.46055
       8 -> 17        -0.32167
      10 -> 20         0.20186
      10 -> 21        -0.14242
      11 -> 26        -0.15644
      12 -> 27         0.12377

 Excited State  54:      Singlet-A"    14.0539 eV   88.22 nm  f=0.0002  <S**2>=0.000
       8 -> 18         0.70303

 Excited State  55:      Singlet-A'    14.1529 eV   87.60 nm  f=0.0406  <S**2>=0.000
       7 -> 15         0.58588
       8 -> 20        -0.12032
      10 -> 19        -0.11415
      10 -> 21         0.24482

 Excited State  56:      Singlet-A"    14.2038 eV   87.29 nm  f=0.0019  <S**2>=0.000
       9 -> 21         0.69926

 Excited State  57:      Singlet-A'    14.3583 eV   86.35 nm  f=0.1323  <S**2>=0.000
       7 -> 15        -0.22729
       7 -> 16         0.12986
      10 -> 21         0.60692
      11 -> 29        -0.10636

 Excited State  58:      Singlet-A"    14.4237 eV   85.96 nm  f=0.0289  <S**2>=0.000
       6 -> 13         0.45897
       9 -> 20         0.10913
      10 -> 22        -0.12227
      12 -> 28         0.49074

 Excited State  59:      Singlet-A'    14.6566 eV   84.59 nm  f=0.0707  <S**2>=0.000
       8 -> 19         0.48475
       8 -> 20         0.21678
      11 -> 28         0.44446

 Excited State  60:      Singlet-A"    14.6761 eV   84.48 nm  f=0.0552  <S**2>=0.000
       6 -> 13        -0.39747
       9 -> 20        -0.11261
      10 -> 22         0.22761
      12 -> 28         0.49765

 Excited State  61:      Singlet-A'    14.7289 eV   84.18 nm  f=0.0154  <S**2>=0.000
       6 -> 14         0.11050
       8 -> 19        -0.11392
       8 -> 20         0.63670
      11 -> 28        -0.18381

 Excited State  62:      Singlet-A'    14.8318 eV   83.59 nm  f=0.0768  <S**2>=0.000
       6 -> 14        -0.10693
       7 -> 16        -0.14342
       8 -> 19        -0.43723
      11 -> 28         0.45035
      12 -> 30         0.10386

 Excited State  63:      Singlet-A"    15.0266 eV   82.51 nm  f=0.0416  <S**2>=0.000
      12 -> 29         0.70314

 Excited State  64:      Singlet-A'    15.0835 eV   82.20 nm  f=0.0444  <S**2>=0.000
       7 -> 16         0.20105
      11 -> 29         0.66047

 Excited State  65:      Singlet-A'    15.1039 eV   82.09 nm  f=0.0197  <S**2>=0.000
       6 -> 14         0.60761
       7 -> 16         0.12049
       7 -> 17         0.20623
      10 -> 25        -0.10004
      12 -> 30         0.15734

 Excited State  66:      Singlet-A'    15.2746 eV   81.17 nm  f=0.0801  <S**2>=0.000
       6 -> 14        -0.10415
       7 -> 16         0.39160
       7 -> 17         0.29789
       9 -> 22         0.25083
       9 -> 23         0.15065
      10 -> 24        -0.16046
      11 -> 29        -0.15382
      11 -> 31        -0.10406
      12 -> 30        -0.25439

 Excited State  67:      Singlet-A'    15.3154 eV   80.95 nm  f=0.0442  <S**2>=0.000
       7 -> 16        -0.30424
       7 -> 17         0.49763
       8 -> 21        -0.24961
       9 -> 23        -0.10538
      12 -> 30        -0.21431

 Excited State  68:      Singlet-A"    15.3413 eV   80.82 nm  f=0.0108  <S**2>=0.000
       6 -> 13         0.10217
      10 -> 22         0.43189
      10 -> 23         0.24182
      11 -> 30         0.48199

 Excited State  69:      Singlet-A'    15.3575 eV   80.73 nm  f=0.0426  <S**2>=0.000
       9 -> 22         0.56606
       9 -> 23        -0.20988
      12 -> 30         0.29807

 Excited State  70:      Singlet-A"    15.4197 eV   80.41 nm  f=0.0255  <S**2>=0.000
      10 -> 23         0.60319
      11 -> 30        -0.35492

 Excited State  71:      Singlet-A"    15.4568 eV   80.21 nm  f=0.0781  <S**2>=0.000
       6 -> 13         0.13378
      10 -> 22         0.39052
      10 -> 23        -0.24237
      11 -> 30        -0.30459
      12 -> 31         0.36759

 Excited State  72:      Singlet-A'    15.4928 eV   80.03 nm  f=0.0305  <S**2>=0.000
       6 -> 14        -0.16341
       6 -> 15         0.14030
       7 -> 16         0.14281
       7 -> 17         0.22623
       9 -> 22        -0.23993
       9 -> 23        -0.14834
      10 -> 24        -0.16018
      10 -> 25         0.14188
      11 -> 31         0.21132
      12 -> 30         0.39840

 Excited State  73:      Singlet-A"    15.4982 eV   80.00 nm  f=0.0607  <S**2>=0.000
      10 -> 22        -0.25520
      10 -> 23         0.11347
      11 -> 30         0.20610
      12 -> 31         0.60121

 Excited State  74:      Singlet-A'    15.5295 eV   79.84 nm  f=0.0241  <S**2>=0.000
       8 -> 21         0.42352
       9 -> 23         0.11144
      10 -> 24         0.11328
      11 -> 31         0.48842
      12 -> 30        -0.15740

 Excited State  75:      Singlet-A'    15.6062 eV   79.45 nm  f=0.0090  <S**2>=0.000
       9 -> 23         0.45624
      10 -> 24         0.39155
      11 -> 31        -0.10818
      12 -> 30         0.23710

 Excited State  76:      Singlet-A'    15.6373 eV   79.29 nm  f=0.0358  <S**2>=0.000
       6 -> 15        -0.16095
       8 -> 21        -0.36922
       9 -> 23         0.27817
      10 -> 24        -0.24172
      10 -> 25        -0.12606
      11 -> 31         0.36943

 Excited State  77:      Singlet-A"    15.7054 eV   78.94 nm  f=0.0005  <S**2>=0.000
       7 -> 18         0.21391
       9 -> 24         0.66211

 Excited State  78:      Singlet-A"    15.7444 eV   78.75 nm  f=0.0014  <S**2>=0.000
       7 -> 18         0.66961
       9 -> 24        -0.21468

 Excited State  79:      Singlet-A'    15.7517 eV   78.71 nm  f=0.1118  <S**2>=0.000
       6 -> 15        -0.20482
       7 -> 16        -0.17724
       8 -> 21         0.12360
       9 -> 23         0.17495
      10 -> 24        -0.37644
      10 -> 25         0.40102
      11 -> 31        -0.15567
      11 -> 32        -0.14983

 Excited State  80:      Singlet-A"    15.8898 eV   78.03 nm  f=0.0008  <S**2>=0.000
       9 -> 25         0.68502

 Excited State  81:      Singlet-A"    16.0237 eV   77.38 nm  f=0.0002  <S**2>=0.000
      12 -> 32         0.69124

 Excited State  82:      Singlet-A'    16.0444 eV   77.28 nm  f=0.1046  <S**2>=0.000
       6 -> 15        -0.23206
       7 -> 20         0.14637
      10 -> 24         0.12253
      10 -> 25         0.31395
      11 -> 32         0.52377

 Excited State  83:      Singlet-A'    16.1263 eV   76.88 nm  f=0.0368  <S**2>=0.000
       6 -> 15         0.32917
       7 -> 20         0.29912
       8 -> 21        -0.14460
      10 -> 25         0.34658
      11 -> 32        -0.24117

 Excited State  84:      Singlet-A'    16.3139 eV   76.00 nm  f=0.0573  <S**2>=0.000
       6 -> 15        -0.34415
       7 -> 19         0.40836
       7 -> 20         0.21825
       9 -> 23        -0.11245
      11 -> 32        -0.27649
      11 -> 33         0.11298
      11 -> 34         0.11214

 Excited State  85:      Singlet-A'    16.4959 eV   75.16 nm  f=0.0762  <S**2>=0.000
       6 -> 15         0.26248
       7 -> 19         0.53357
       7 -> 20        -0.11093
       9 -> 23         0.10421
      11 -> 32         0.13622
      11 -> 33        -0.18860

 Excited State  86:      Singlet-A"    16.5113 eV   75.09 nm  f=0.0008  <S**2>=0.000
       8 -> 22         0.56665
      12 -> 33         0.41310

 Excited State  87:      Singlet-A'    16.6045 eV   74.67 nm  f=0.0277  <S**2>=0.000
       7 -> 20        -0.34477
      10 -> 25         0.12499
      10 -> 26         0.15360
      11 -> 33         0.53147

 Excited State  88:      Singlet-A'    16.6759 eV   74.35 nm  f=0.0113  <S**2>=0.000
       6 -> 15        -0.12456
       7 -> 20        -0.29618
      10 -> 26         0.41330
      11 -> 32        -0.11753
      11 -> 33        -0.37286
      12 -> 35        -0.11030

 Excited State  89:      Singlet-A"    16.7026 eV   74.23 nm  f=0.1143  <S**2>=0.000
       8 -> 22        -0.37397
       8 -> 23         0.12937
       9 -> 26        -0.22221
      12 -> 33         0.48163
      12 -> 34         0.16741

 Excited State  90:      Singlet-A"    16.7136 eV   74.18 nm  f=0.0013  <S**2>=0.000
       8 -> 23        -0.48469
      12 -> 34         0.50778

 Excited State  91:      Singlet-A"    16.7336 eV   74.09 nm  f=0.0059  <S**2>=0.000
       8 -> 23         0.49633
      12 -> 33        -0.20123
      12 -> 34         0.45084

 Excited State  92:      Singlet-A"    16.8827 eV   73.44 nm  f=0.0729  <S**2>=0.000
       8 -> 22        -0.13724
       9 -> 26         0.65785
      10 -> 27        -0.11920
      12 -> 33         0.13347

 Excited State  93:      Singlet-A'    16.9166 eV   73.29 nm  f=0.1125  <S**2>=0.000
       6 -> 16         0.16055
       7 -> 20         0.19370
       8 -> 24        -0.21361
      10 -> 25        -0.10585
      10 -> 26         0.49075
      11 -> 33         0.10150
      11 -> 34         0.21597
      12 -> 35         0.14313

 Excited State  94:      Singlet-A'    16.9728 eV   73.05 nm  f=0.0269  <S**2>=0.000
       6 -> 16        -0.30692
       7 -> 20         0.10737
       8 -> 24         0.54494
       8 -> 25        -0.19862
      10 -> 26         0.16196

 Excited State  95:      Singlet-A'    16.9958 eV   72.95 nm  f=0.0144  <S**2>=0.000
       6 -> 16        -0.14995
       6 -> 17         0.10078
       7 -> 20        -0.11092
       8 -> 25         0.28522
      10 -> 26        -0.12015
      11 -> 34         0.56696

 Excited State  96:      Singlet-A'    17.1763 eV   72.18 nm  f=0.0063  <S**2>=0.000
       6 -> 16        -0.24129
       6 -> 17        -0.18417
       7 -> 21         0.53848
       8 -> 24        -0.19861
       8 -> 25        -0.19925

 Excited State  97:      Singlet-A'    17.1935 eV   72.11 nm  f=0.0406  <S**2>=0.000
       6 -> 17        -0.33491
       7 -> 20         0.10525
       7 -> 21         0.14244
       8 -> 25         0.52444
       9 -> 27         0.10018
      11 -> 34        -0.13075

 Excited State  98:      Singlet-A'    17.2414 eV   71.91 nm  f=0.0411  <S**2>=0.000
       6 -> 16         0.10259
       6 -> 17         0.49831
       7 -> 21         0.32182
       8 -> 25         0.14312
       9 -> 27         0.29038

 Excited State  99:      Singlet-A"    17.2629 eV   71.82 nm  f=0.0928  <S**2>=0.000
      10 -> 27         0.68890

 Excited State 100:      Singlet-A'    17.3593 eV   71.42 nm  f=0.0383  <S**2>=0.000
       6 -> 16        -0.16189
       7 -> 21        -0.20492
       8 -> 24        -0.16756
       9 -> 27         0.58048
      12 -> 35         0.17659

 Excited State 101:      Singlet-A'    17.5364 eV   70.70 nm  f=0.0350  <S**2>=0.000
       6 -> 16        -0.26505
       6 -> 17         0.24354
       9 -> 27        -0.19786
      11 -> 34        -0.12928
      11 -> 36         0.13402
      12 -> 35         0.47274

 Excited State 102:      Singlet-A"    17.6456 eV   70.26 nm  f=0.0129  <S**2>=0.000
       6 -> 18         0.15506
      11 -> 35         0.68540

 Excited State 103:      Singlet-A"    17.7088 eV   70.01 nm  f=0.0003  <S**2>=0.000
       6 -> 18         0.68399
      11 -> 35        -0.15616

 Excited State 104:      Singlet-A"    17.8987 eV   69.27 nm  f=0.0001  <S**2>=0.000
      12 -> 36         0.70186

 Excited State 105:      Singlet-A'    18.0302 eV   68.76 nm  f=0.0297  <S**2>=0.000
       6 -> 16         0.21906
       6 -> 20         0.14836
       6 -> 21        -0.11120
       7 -> 24         0.16971
       8 -> 24         0.10288
      11 -> 36         0.50063
      12 -> 35         0.20562

 Excited State 106:      Singlet-A'    18.0933 eV   68.53 nm  f=0.0457  <S**2>=0.000
       6 -> 16        -0.12936
       6 -> 19         0.14974
       7 -> 24        -0.12442
       8 -> 26         0.46324
      11 -> 36         0.37997
      12 -> 35        -0.18325

 Excited State 107:      Singlet-A'    18.2094 eV   68.09 nm  f=0.0482  <S**2>=0.000
       6 -> 16         0.12878
       6 -> 19         0.40304
       6 -> 20         0.15744
       7 -> 24         0.10118
       8 -> 26         0.29340
      10 -> 28         0.30402
      11 -> 36        -0.17522

 The electronic state is 1-A'.
 Alpha  occ. eigenvalues --  -18.83174 -14.06889  -9.94221  -1.00944  -0.78954
 Alpha  occ. eigenvalues --   -0.56123  -0.48919  -0.42731  -0.38170  -0.37925
 Alpha  occ. eigenvalues --   -0.24548  -0.24317
 Alpha virt. eigenvalues --   -0.05445  -0.01263   0.02352   0.06141   0.06987
 Alpha virt. eigenvalues --    0.08828   0.10615   0.11042   0.13677   0.17992
 Alpha virt. eigenvalues --    0.18681   0.19274   0.20027   0.23706   0.25314

 Mulliken charges:
               1
     1  O   -0.337231
     2  N   -0.038091
     3  C    0.582435
     4  H    0.197076
     5  H   -0.256210
     6  H   -0.147979
 Sum of Mulliken charges =  -0.00000

 Dipole moment (field-independent basis, Debye):
    X=              0.1295    Y=             -0.1414    Z=              0.0000  Tot=              0.1918
 Quadrupole moment (field-independent basis, Debye-Ang):
   XX=            -12.3696   YY=            -19.6764   ZZ=            -19.2133
   XY=             -1.3697   XZ=              0.0000   YZ=              0.0000

 Normal termination of Gaussian 16 at Mon Mar 21 20:23:21 2022.
