 Gaussian 16, Revision C.01,
 Gaussian 16:  EM64L-G16RevC.01  3-Jul-2019

 ----------------------------------------------------------------------
 #P TD(Nstates=10000) pw91pw91/Gen SCF(maxcycles=100) Int(Grid=ultrafin
 e)
 ----------------------------------------------------------------------

 ---------------------
 xGDB7_00001_tier4.com
 ---------------------
 Symbolic Z-matrix:
 Charge =  0 Multiplicity = 1

                         Standard orientation:
 ---------------------------------------------------------------------
 Center     Atomic      Atomic             Coordinates (Angstroms)
 Number     Number       Type             X           Y           Z
 ---------------------------------------------------------------------
      1          9           0        0.000000    1.098813   -0.289120
      2          6           0       -0.000000   -0.000000    0.499944
      3          9           0       -0.000000   -1.098813   -0.289120
      4          1           0       -0.911346    0.000000    1.102246
      5          1           0        0.911346   -0.000000    1.102246
 ---------------------------------------------------------------------

 SCF Done:  E(RPW91-PW91) =  -238.752241793     A.U. after   11 cycles

 Excitation energies and oscillator strengths:

 Excited State   1:      Singlet-B1     8.2384 eV  150.50 nm  f=0.0171  <S**2>=0.000
      13 -> 14         0.70625
 This state for optimization and/or second-order correction.
 Total Energy, E(TD-HF/TD-DFT) =  -238.449487490
 Copying the excited state density for this state as the 1-particle RhoCI density.

 Excited State   2:      Singlet-A2     9.1705 eV  135.20 nm  f=0.0000  <S**2>=0.000
      13 -> 15         0.70610

 Excited State   3:      Singlet-B1     9.5894 eV  129.29 nm  f=0.0226  <S**2>=0.000
      13 -> 16         0.70533

 Excited State   4:      Singlet-B2     9.6808 eV  128.07 nm  f=0.0340  <S**2>=0.000
      12 -> 14         0.70465

 Excited State   5:      Singlet-A1     9.7383 eV  127.32 nm  f=0.0527  <S**2>=0.000
      11 -> 14        -0.15471
      13 -> 17         0.68529

 Excited State   6:      Singlet-A2    10.1208 eV  122.50 nm  f=0.0000  <S**2>=0.000
      10 -> 14         0.70682

 Excited State   7:      Singlet-A1    10.1543 eV  122.10 nm  f=0.0035  <S**2>=0.000
      11 -> 14         0.68557
      13 -> 17         0.14661

 Excited State   8:      Singlet-A1    10.7533 eV  115.30 nm  f=0.0114  <S**2>=0.000
      12 -> 15         0.69469

 Excited State   9:      Singlet-A2    11.0500 eV  112.20 nm  f=0.0000  <S**2>=0.000
      12 -> 17         0.70696

 Excited State  10:      Singlet-B1    11.0557 eV  112.15 nm  f=0.0148  <S**2>=0.000
      10 -> 15        -0.32106
      13 -> 18         0.62467

 Excited State  11:      Singlet-B2    11.0887 eV  111.81 nm  f=0.0000  <S**2>=0.000
      11 -> 15         0.36930
      12 -> 16         0.60006

 Excited State  12:      Singlet-B1    11.1122 eV  111.57 nm  f=0.0468  <S**2>=0.000
      10 -> 15         0.62632
      13 -> 18         0.31445

 Excited State  13:      Singlet-B2    11.3556 eV  109.18 nm  f=0.0639  <S**2>=0.000
      11 -> 15         0.54655
      12 -> 16        -0.33339
      13 -> 21         0.23265

 Excited State  14:      Singlet-B1    11.4605 eV  108.18 nm  f=0.0424  <S**2>=0.000
      11 -> 17         0.70134

 Excited State  15:      Singlet-A2    11.4724 eV  108.07 nm  f=0.0000  <S**2>=0.000
      10 -> 16         0.68063
      13 -> 19        -0.18803

 Excited State  16:      Singlet-A1    11.4763 eV  108.04 nm  f=0.1083  <S**2>=0.000
      11 -> 16         0.70078

 Excited State  17:      Singlet-B2    11.5327 eV  107.51 nm  f=0.0430  <S**2>=0.000
      10 -> 17         0.69807

 Excited State  18:      Singlet-A2    11.5545 eV  107.30 nm  f=0.0000  <S**2>=0.000
      10 -> 16         0.18669
      13 -> 19         0.67968

 Excited State  19:      Singlet-B1    11.8343 eV  104.77 nm  f=0.0158  <S**2>=0.000
      13 -> 20         0.70177

 Excited State  20:      Singlet-B2    11.9257 eV  103.96 nm  f=0.0157  <S**2>=0.000
      11 -> 15        -0.17394
      12 -> 16         0.10244
      12 -> 18         0.10050
      13 -> 21         0.65263

 Excited State  21:      Singlet-A1    12.2452 eV  101.25 nm  f=0.0589  <S**2>=0.000
      13 -> 22         0.67213

 Excited State  22:      Singlet-B2    12.4354 eV   99.70 nm  f=0.0024  <S**2>=0.000
      12 -> 18         0.69201

 Excited State  23:      Singlet-A2    12.6327 eV   98.15 nm  f=0.0000  <S**2>=0.000
      13 -> 23         0.70030

 Excited State  24:      Singlet-A2    12.8294 eV   96.64 nm  f=0.0000  <S**2>=0.000
      10 -> 18         0.70196

 Excited State  25:      Singlet-A1    12.8569 eV   96.43 nm  f=0.0110  <S**2>=0.000
      11 -> 18         0.69531

 Excited State  26:      Singlet-A1    12.9781 eV   95.53 nm  f=0.0050  <S**2>=0.000
      12 -> 19         0.70319

 Excited State  27:      Singlet-B1    13.2748 eV   93.40 nm  f=0.0106  <S**2>=0.000
      12 -> 21         0.70046

 Excited State  28:      Singlet-B2    13.2760 eV   93.39 nm  f=0.0624  <S**2>=0.000
      11 -> 19        -0.21698
      12 -> 20         0.66972

 Excited State  29:      Singlet-A2    13.3370 eV   92.96 nm  f=0.0000  <S**2>=0.000
      12 -> 22         0.70573

 Excited State  30:      Singlet-B1    13.4534 eV   92.16 nm  f=0.0018  <S**2>=0.000
      10 -> 19         0.69492

 Excited State  31:      Singlet-B2    13.5082 eV   91.78 nm  f=0.0002  <S**2>=0.000
      10 -> 22        -0.26740
      11 -> 19         0.60914
      12 -> 20         0.18656

 Excited State  32:      Singlet-B2    13.6162 eV   91.06 nm  f=0.0007  <S**2>=0.000
       7 -> 14         0.69870

 Excited State  33:      Singlet-A2    13.6431 eV   90.88 nm  f=0.0000  <S**2>=0.000
      10 -> 20         0.12160
      11 -> 21         0.69561

 Excited State  34:      Singlet-B1    13.6893 eV   90.57 nm  f=0.0577  <S**2>=0.000
       8 -> 14         0.58067
      13 -> 24         0.38910

 Excited State  35:      Singlet-A1    13.7269 eV   90.32 nm  f=0.0199  <S**2>=0.000
       9 -> 14         0.60036
      10 -> 21        -0.33609

 Excited State  36:      Singlet-A2    13.7375 eV   90.25 nm  f=0.0000  <S**2>=0.000
      10 -> 20         0.69492
      11 -> 21        -0.12061

 Excited State  37:      Singlet-A1    13.7393 eV   90.24 nm  f=0.0127  <S**2>=0.000
       9 -> 14         0.28360
      10 -> 21         0.38567
      11 -> 20         0.50600

 Excited State  38:      Singlet-B1    13.7416 eV   90.23 nm  f=0.0488  <S**2>=0.000
       8 -> 14        -0.34305
      11 -> 22         0.28107
      13 -> 24         0.53168

 Excited State  39:      Singlet-B1    13.7697 eV   90.04 nm  f=0.0118  <S**2>=0.000
       8 -> 14         0.16668
      11 -> 22         0.64155
      13 -> 24        -0.22054

 Excited State  40:      Singlet-A1    13.9944 eV   88.60 nm  f=0.0016  <S**2>=0.000
       9 -> 14        -0.12913
      10 -> 21        -0.38499
      11 -> 20         0.42351
      12 -> 23         0.35632

 Excited State  41:      Singlet-B2    14.1388 eV   87.69 nm  f=0.0044  <S**2>=0.000
      10 -> 22         0.59365
      11 -> 19         0.17981
      11 -> 23        -0.20896
      12 -> 24        -0.17591

 Excited State  42:      Singlet-A1    14.2599 eV   86.95 nm  f=0.0007  <S**2>=0.000
       8 -> 17        -0.15477
       9 -> 14         0.12448
       9 -> 16         0.10989
      10 -> 21         0.24466
      11 -> 20        -0.15366
      12 -> 23         0.58614

 Excited State  43:      Singlet-B2    14.5038 eV   85.48 nm  f=0.0104  <S**2>=0.000
       7 -> 16         0.11770
       9 -> 15        -0.17653
      10 -> 22         0.13745
      11 -> 23         0.64219

 Excited State  44:      Singlet-B1    14.5265 eV   85.35 nm  f=0.0660  <S**2>=0.000
       9 -> 17         0.10761
      10 -> 23        -0.44408
      13 -> 25         0.52419

 Excited State  45:      Singlet-A2    14.5808 eV   85.03 nm  f=0.0000  <S**2>=0.000
       8 -> 15         0.70359

 Excited State  46:      Singlet-B1    14.6011 eV   84.91 nm  f=0.0193  <S**2>=0.000
      10 -> 23         0.54180
      13 -> 25         0.43209

 Excited State  47:      Singlet-B2    14.6792 eV   84.46 nm  f=0.1147  <S**2>=0.000
       9 -> 15         0.66510
      11 -> 23         0.15543
      13 -> 26         0.13913

 Excited State  48:      Singlet-A1    14.7038 eV   84.32 nm  f=0.0238  <S**2>=0.000
       7 -> 15         0.61974
       8 -> 17         0.11947
       9 -> 16         0.28102

 Excited State  49:      Singlet-B2    14.9798 eV   82.77 nm  f=0.0683  <S**2>=0.000
       7 -> 16         0.67497
      12 -> 24         0.16691

 Excited State  50:      Singlet-A2    14.9997 eV   82.66 nm  f=0.0000  <S**2>=0.000
       7 -> 17         0.70486

 Excited State  51:      Singlet-B1    15.0246 eV   82.52 nm  f=0.0716  <S**2>=0.000
       8 -> 16        -0.14188
       9 -> 17         0.68106

 Excited State  52:      Singlet-A1    15.0989 eV   82.11 nm  f=0.0973  <S**2>=0.000
       7 -> 15        -0.24429
       9 -> 16         0.60863
       9 -> 18         0.10905
      13 -> 27        -0.11768

 Excited State  53:      Singlet-B1    15.1148 eV   82.03 nm  f=0.0384  <S**2>=0.000
       8 -> 16         0.67122
       8 -> 18         0.13357
       9 -> 17         0.12716

 Excited State  54:      Singlet-B2    15.4028 eV   80.49 nm  f=0.1220  <S**2>=0.000
       9 -> 15        -0.11197
      12 -> 24         0.21205
      13 -> 26         0.65893

 Excited State  55:      Singlet-A1    15.4228 eV   80.39 nm  f=0.0095  <S**2>=0.000
       8 -> 17         0.58124
      11 -> 24         0.31642

 Excited State  56:      Singlet-B2    15.5476 eV   79.75 nm  f=0.0554  <S**2>=0.000
       7 -> 16        -0.10197
       7 -> 18        -0.16686
      10 -> 22         0.10120
      12 -> 24         0.53134
      12 -> 25         0.33342
      13 -> 26        -0.16412

 Excited State  57:      Singlet-A2    15.6510 eV   79.22 nm  f=0.0000  <S**2>=0.000
      10 -> 24         0.65250
      13 -> 28         0.26546

 Excited State  58:      Singlet-A1    15.6745 eV   79.10 nm  f=0.0521  <S**2>=0.000
       8 -> 17        -0.24697
       9 -> 16         0.10091
      11 -> 24         0.61827

 Excited State  59:      Singlet-A2    15.7632 eV   78.65 nm  f=0.0000  <S**2>=0.000
      10 -> 24        -0.25948
      13 -> 28         0.65369

 Excited State  60:      Singlet-A1    15.8442 eV   78.25 nm  f=0.0330  <S**2>=0.000
       9 -> 18         0.13697
      11 -> 25        -0.11626
      13 -> 27         0.66021

 Excited State  61:      Singlet-B2    15.9934 eV   77.52 nm  f=0.0675  <S**2>=0.000
       7 -> 18         0.24297
      12 -> 24        -0.21861
      12 -> 25         0.60234

 Excited State  62:      Singlet-B1    16.0370 eV   77.31 nm  f=0.0006  <S**2>=0.000
       8 -> 18        -0.10092
      13 -> 29         0.68910

 Excited State  63:      Singlet-A1    16.3230 eV   75.96 nm  f=0.0288  <S**2>=0.000
      11 -> 25         0.67724
      13 -> 30        -0.13567

 Excited State  64:      Singlet-A2    16.3499 eV   75.83 nm  f=0.0000  <S**2>=0.000
      10 -> 25         0.70218

 Excited State  65:      Singlet-A1    16.4751 eV   75.26 nm  f=0.0406  <S**2>=0.000
       7 -> 19        -0.19968
       9 -> 18         0.65016

 Excited State  66:      Singlet-B2    16.5127 eV   75.08 nm  f=0.0338  <S**2>=0.000
       7 -> 18         0.59512
       7 -> 20         0.11214
       9 -> 19        -0.24368
      11 -> 28        -0.10880
      12 -> 24         0.12830
      12 -> 25        -0.10947

 Excited State  67:      Singlet-B1    16.6536 eV   74.45 nm  f=0.1132  <S**2>=0.000
       8 -> 18         0.63173
       9 -> 22        -0.13777
      12 -> 26         0.21905

 Excited State  68:      Singlet-B1    16.8279 eV   73.68 nm  f=0.0338  <S**2>=0.000
       8 -> 18        -0.18950
      12 -> 26         0.67022

 Excited State  69:      Singlet-A1    16.9388 eV   73.20 nm  f=0.0016  <S**2>=0.000
       6 -> 14         0.12008
       7 -> 19         0.26678
       8 -> 22        -0.14660
      13 -> 30         0.60131

 Excited State  70:      Singlet-A2    16.9499 eV   73.15 nm  f=0.0000  <S**2>=0.000
       8 -> 19         0.70032

 Excited State  71:      Singlet-B2    17.0666 eV   72.65 nm  f=0.0017  <S**2>=0.000
       7 -> 18         0.10339
       7 -> 20         0.30623
       9 -> 19         0.58872
       9 -> 23        -0.10046
      11 -> 28        -0.10289

 Excited State  72:      Singlet-A2    17.1565 eV   72.27 nm  f=0.0000  <S**2>=0.000
      12 -> 27         0.70024

 Excited State  73:      Singlet-A2    17.1742 eV   72.19 nm  f=0.0000  <S**2>=0.000
       9 -> 21        -0.27863
      11 -> 26         0.64459

 Excited State  74:      Singlet-A1    17.1872 eV   72.14 nm  f=0.0057  <S**2>=0.000
       7 -> 19         0.33314
       9 -> 20        -0.20549
      10 -> 26        -0.33858
      12 -> 28         0.43710
      13 -> 30        -0.10917

 Excited State  75:      Singlet-B1    17.2027 eV   72.07 nm  f=0.0008  <S**2>=0.000
       7 -> 21         0.63142
       8 -> 20         0.24731
       9 -> 22        -0.19805

 Excited State  76:      Singlet-A2    17.2033 eV   72.07 nm  f=0.0000  <S**2>=0.000
       9 -> 21         0.64286
      11 -> 26         0.27846

 Excited State  77:      Singlet-A1    17.2123 eV   72.03 nm  f=0.0001  <S**2>=0.000
       9 -> 20         0.52964
      10 -> 26         0.12738
      12 -> 28         0.43465

 Excited State  78:      Singlet-B1    17.2195 eV   72.00 nm  f=0.0041  <S**2>=0.000
       7 -> 21        -0.30119
       8 -> 20         0.60219
       9 -> 22        -0.20630

 Excited State  79:      Singlet-B2    17.2447 eV   71.90 nm  f=0.0916  <S**2>=0.000
       7 -> 20         0.35870
       8 -> 21         0.56624
       9 -> 19        -0.15302
      12 -> 29         0.12407

 Excited State  80:      Singlet-A2    17.2838 eV   71.73 nm  f=0.0000  <S**2>=0.000
       7 -> 22         0.69962

 Excited State  81:      Singlet-B2    17.2870 eV   71.72 nm  f=0.0123  <S**2>=0.000
       7 -> 20         0.48077
       8 -> 21        -0.37593
       9 -> 19        -0.14396
      10 -> 27         0.10664
      11 -> 28         0.25455

 Excited State  82:      Singlet-A1    17.2978 eV   71.68 nm  f=0.0250  <S**2>=0.000
       8 -> 22         0.11337
       9 -> 20        -0.35486
      10 -> 26         0.52571
      12 -> 28         0.26528

 Excited State  83:      Singlet-B1    17.3482 eV   71.47 nm  f=0.0653  <S**2>=0.000
       8 -> 18         0.12302
       8 -> 20         0.25410
       9 -> 22         0.60245
      11 -> 27        -0.16984

 Excited State  84:      Singlet-A1    17.3797 eV   71.34 nm  f=0.0566  <S**2>=0.000
       6 -> 14         0.25693
       7 -> 19         0.36616
       9 -> 20         0.18544
      10 -> 26         0.27774
      11 -> 29         0.21078
      12 -> 28        -0.17105
      13 -> 30        -0.23217

 Excited State  85:      Singlet-B2    17.4740 eV   70.95 nm  f=0.0271  <S**2>=0.000
       8 -> 21        -0.12196
      12 -> 29         0.68544

 Excited State  86:      Singlet-A1    17.4770 eV   70.94 nm  f=0.0548  <S**2>=0.000
       6 -> 14         0.20629
       8 -> 22         0.63747
      13 -> 31        -0.12205

 Excited State  87:      Singlet-B1    17.5944 eV   70.47 nm  f=0.0088  <S**2>=0.000
       9 -> 22         0.14314
      11 -> 27         0.68075

 Excited State  88:      Singlet-A1    17.6092 eV   70.41 nm  f=0.0138  <S**2>=0.000
       6 -> 14         0.54256
       7 -> 19        -0.20447
       7 -> 23         0.30578
       8 -> 22        -0.12603
      13 -> 31         0.10592

 Excited State  89:      Singlet-B2    17.6183 eV   70.37 nm  f=0.0638  <S**2>=0.000
      10 -> 27         0.65235
      11 -> 28        -0.25944

 Excited State  90:      Singlet-B1    17.7246 eV   69.95 nm  f=0.0472  <S**2>=0.000
      10 -> 28         0.69489

 Excited State  91:      Singlet-B2    17.8209 eV   69.57 nm  f=0.0078  <S**2>=0.000
       7 -> 20        -0.11915
       7 -> 24        -0.12577
       9 -> 23        -0.35073
      10 -> 27         0.20828
      11 -> 28         0.51669

 Excited State  92:      Singlet-A2    17.9125 eV   69.22 nm  f=0.0000  <S**2>=0.000
      10 -> 29         0.70061

 Excited State  93:      Singlet-A1    17.9768 eV   68.97 nm  f=0.0244  <S**2>=0.000
       6 -> 14        -0.11386
       7 -> 19        -0.10941
      11 -> 29         0.65521
      13 -> 30         0.10196

 Excited State  94:      Singlet-A2    18.0383 eV   68.73 nm  f=0.0000  <S**2>=0.000
       8 -> 23         0.70023

 Excited State  95:      Singlet-B2    18.2401 eV   67.97 nm  f=0.0000  <S**2>=0.000
       6 -> 15        -0.20342
       7 -> 24        -0.20076
       9 -> 23         0.55503
      11 -> 28         0.20122

 Excited State  96:      Singlet-A2    18.2425 eV   67.96 nm  f=0.0000  <S**2>=0.000
      12 -> 30         0.70612

 Excited State  97:      Singlet-A1    18.2651 eV   67.88 nm  f=0.1299  <S**2>=0.000
       7 -> 23        -0.23270
      13 -> 31         0.65028

 Excited State  98:      Singlet-B1    18.3493 eV   67.57 nm  f=0.0111  <S**2>=0.000
      11 -> 30        -0.10495
      13 -> 32         0.69368

 Excited State  99:      Singlet-A1    18.4177 eV   67.32 nm  f=0.0432  <S**2>=0.000
       6 -> 14        -0.16069
       6 -> 16        -0.16246
       7 -> 19         0.15457
       7 -> 23         0.50133
       9 -> 24        -0.31827
      13 -> 31         0.19009

 Excited State 100:      Singlet-B2    18.6162 eV   66.60 nm  f=0.0007  <S**2>=0.000
       6 -> 15         0.63838
       9 -> 23         0.13833
      10 -> 30        -0.17369

 Excited State 101:      Singlet-B1    18.6539 eV   66.47 nm  f=0.0008  <S**2>=0.000
      11 -> 30         0.69197
      13 -> 32         0.10013

 Excited State 102:      Singlet-A2    18.7068 eV   66.28 nm  f=0.0000  <S**2>=0.000
      13 -> 33         0.70679

 Excited State 103:      Singlet-B2    18.7455 eV   66.14 nm  f=0.0115  <S**2>=0.000
       6 -> 15         0.11844
       7 -> 24        -0.21202
      10 -> 30         0.65643

 Excited State 104:      Singlet-B1    18.8979 eV   65.61 nm  f=0.0061  <S**2>=0.000
       6 -> 17         0.63905
       8 -> 24        -0.28247

 Excited State 105:      Singlet-A1    18.9175 eV   65.54 nm  f=0.0281  <S**2>=0.000
       6 -> 16         0.62938
       9 -> 24        -0.25477

 Excited State 106:      Singlet-B1    19.0164 eV   65.20 nm  f=0.0227  <S**2>=0.000
       8 -> 24         0.15662
      13 -> 34         0.68582

 Excited State 107:      Singlet-A2    19.2740 eV   64.33 nm  f=0.0000  <S**2>=0.000
      13 -> 35         0.70603

 Excited State 108:      Singlet-B1    19.2762 eV   64.32 nm  f=0.0023  <S**2>=0.000
       6 -> 17         0.27018
       8 -> 24         0.61830
      13 -> 34        -0.15013

 Excited State 109:      Singlet-B2    19.5124 eV   63.54 nm  f=0.1142  <S**2>=0.000
       7 -> 24         0.50528
       7 -> 25         0.33834
      10 -> 30         0.10712
      10 -> 31         0.18147
      12 -> 32         0.14975

 Excited State 110:      Singlet-A2    19.6629 eV   63.05 nm  f=0.0000  <S**2>=0.000
      12 -> 31         0.70557

 Excited State 111:      Singlet-A1    19.7932 eV   62.64 nm  f=0.0012  <S**2>=0.000
       6 -> 16         0.11794
       7 -> 23         0.10816
       7 -> 28        -0.11388
       9 -> 24         0.29043
       9 -> 25         0.56562
      11 -> 32         0.11091

 Excited State 112:      Singlet-B2    19.8204 eV   62.55 nm  f=0.0694  <S**2>=0.000
      10 -> 31        -0.14375
      12 -> 32         0.67602

 Excited State 113:      Singlet-B2    19.8741 eV   62.38 nm  f=0.0037  <S**2>=0.000
       7 -> 24        -0.18602
       7 -> 25         0.58051
      10 -> 31        -0.30908

 Excited State 114:      Singlet-A1    19.9221 eV   62.23 nm  f=0.0004  <S**2>=0.000
       6 -> 16        -0.11412
       6 -> 18        -0.19708
       7 -> 23        -0.12249
       7 -> 28         0.17243
       9 -> 24        -0.36837
       9 -> 25         0.36888
      11 -> 32        -0.27732

 Excited State 115:      Singlet-B1    19.9303 eV   62.21 nm  f=0.0061  <S**2>=0.000
       8 -> 25         0.68875

 Excited State 116:      Singlet-B1    20.1246 eV   61.61 nm  f=0.0351  <S**2>=0.000
      11 -> 31         0.69333

 Excited State 117:      Singlet-A1    20.2718 eV   61.16 nm  f=0.0044  <S**2>=0.000
       6 -> 18         0.21416
      11 -> 32        -0.26110
      12 -> 33         0.61574

 Excited State 118:      Singlet-B2    20.2758 eV   61.15 nm  f=0.0563  <S**2>=0.000
       7 -> 24        -0.16397
       7 -> 25         0.15523
       8 -> 26        -0.12029
      10 -> 31         0.54551
      11 -> 33        -0.17753
      12 -> 34         0.19784
      13 -> 36         0.15398

 Excited State 119:      Singlet-A2    20.3083 eV   61.05 nm  f=0.0000  <S**2>=0.000
      10 -> 32         0.70331

 Excited State 120:      Singlet-A1    20.3328 eV   60.98 nm  f=0.1182  <S**2>=0.000
       7 -> 28         0.19603
       9 -> 24        -0.16033
      11 -> 32         0.55763
      12 -> 33         0.24990
      12 -> 35        -0.13395

 Excited State 121:      Singlet-A1    20.3852 eV   60.82 nm  f=0.0206  <S**2>=0.000
       6 -> 18         0.60640
       8 -> 27         0.12131
       9 -> 25         0.15448
      12 -> 33        -0.21382

 Excited State 122:      Singlet-B2    20.5053 eV   60.46 nm  f=0.0386  <S**2>=0.000
      11 -> 33         0.26934
      12 -> 34         0.63315

 Excited State 123:      Singlet-B2    20.6444 eV   60.06 nm  f=0.0278  <S**2>=0.000
       8 -> 26        -0.20346
      10 -> 31         0.12169
      11 -> 33         0.61033
      12 -> 34        -0.19225

 Excited State 124:      Singlet-B1    20.6997 eV   59.90 nm  f=0.0133  <S**2>=0.000
       7 -> 26         0.45027
      10 -> 33         0.54171

 Excited State 125:      Singlet-A2    20.7490 eV   59.75 nm  f=0.0000  <S**2>=0.000
       9 -> 26         0.70539

 Excited State 126:      Singlet-B2    20.7566 eV   59.73 nm  f=0.0136  <S**2>=0.000
       6 -> 19         0.39060
       7 -> 29        -0.11763
       8 -> 26         0.49626
      10 -> 31         0.10155
      11 -> 33         0.11406
      13 -> 36         0.16424

 Excited State 127:      Singlet-A1    20.7865 eV   59.65 nm  f=0.0285  <S**2>=0.000
       7 -> 28         0.13372
      12 -> 35         0.67335

 Excited State 128:      Singlet-B1    20.8116 eV   59.57 nm  f=0.1083  <S**2>=0.000
       6 -> 22         0.10447
       7 -> 26         0.51873
       9 -> 27        -0.16089
      10 -> 33        -0.41105
      10 -> 35        -0.10515

 Excited State 129:      Singlet-A1    20.9223 eV   59.26 nm  f=0.0127  <S**2>=0.000
       7 -> 28         0.20509
      11 -> 34         0.66510

 Excited State 130:      Singlet-A2    20.9263 eV   59.25 nm  f=0.0000  <S**2>=0.000
       6 -> 21        -0.27224
      10 -> 34         0.65113

 Excited State 131:      Singlet-B2    21.0006 eV   59.04 nm  f=0.1067  <S**2>=0.000

 The electronic state is 1-A1.
 Alpha  occ. eigenvalues --  -24.30979 -24.30977 -10.07350  -1.15263  -1.09403
 Alpha  occ. eigenvalues --   -0.64256  -0.50405  -0.50342  -0.50308  -0.37636
 Alpha  occ. eigenvalues --   -0.37324  -0.35941  -0.30529
 Alpha virt. eigenvalues --   -0.00513   0.02706   0.04253   0.04660   0.09482
 Alpha virt. eigenvalues --    0.11769   0.12756   0.12810   0.12977   0.15691
 Alpha virt. eigenvalues --    0.19470   0.22322   0.25829   0.27103   0.27233

 Mulliken charges:
               1
     1  F   -0.368548
     2  C    1.137808
     3  F   -0.368548
     4  H   -0.200356
     5  H   -0.200356
 Sum of Mulliken charges =  -0.00000

 Dipole moment (field-independent basis, Debye):
    X=              0.0000    Y=             -0.0000    Z=              1.8458  Tot=              1.8458
 Quadrupole moment (field-independent basis, Debye-Ang):
   XX=            -15.6699   YY=            -19.2765   ZZ=            -15.7142
   XY=             -0.0000   XZ=             -0.0000   YZ=             -0.0000

 Normal termination of Gaussian 16 at Mon Mar 21 20:22:24 2022.
