 Gaussian 16, Revision C.01,
 Gaussian 16:  EM64L-G16RevC.01  3-Jul-2019

 ----------------------------------------------------------------------
 #P TD(Nstates=10000) pw91pw91/Gen SCF(maxcycles=100) Int(Grid=ultrafin
 e)
 ----------------------------------------------------------------------

 ---------------------
 xGDB7_00001_tier4.com
 ---------------------
 Symbolic Z-matrix:
 Charge =  0 Multiplicity = 1

                         Standard orientation:
 ---------------------------------------------------------------------
 Center     Atomic      Atomic             Coordinates (Angstroms)
 Number     Number       Type             X           Y           Z
 ---------------------------------------------------------------------
      1          6           0       -1.131573   -0.504386    0.000000
      2          6           0        0.000000    0.472223    0.000000
      3          6           0        1.284136    0.150792    0.000000
      4          1           0       -1.767446   -0.362776    0.877699
      5          1           0       -0.770122   -1.533458    0.000000
      6          1           0       -1.767446   -0.362776   -0.877699
      7          1           0       -0.276551    1.523465    0.000000
      8          1           0        1.608435   -0.884555    0.000000
      9          1           0        2.057749    0.908327    0.000000
 ---------------------------------------------------------------------

 SCF Done:  E(RPW91-PW91) =  -117.763569790     A.U. after   14 cycles

 Excitation energies and oscillator strengths:

 Excited State   1:      Singlet-A"     6.5548 eV  189.15 nm  f=0.0053  <S**2>=0.000
      12 -> 14         0.70688
 This state for optimization and/or second-order correction.
 Total Energy, E(TD-HF/TD-DFT) =  -117.522686446
 Copying the excited state density for this state as the 1-particle RhoCI density.

 Excited State   2:      Singlet-A"     7.3143 eV  169.51 nm  f=0.0282  <S**2>=0.000
      12 -> 15         0.68406
      12 -> 16        -0.17741

 Excited State   3:      Singlet-A"     7.3391 eV  168.94 nm  f=0.0065  <S**2>=0.000
      12 -> 15         0.17780
      12 -> 16         0.68302

 Excited State   4:      Singlet-A'     7.4327 eV  166.81 nm  f=0.3652  <S**2>=0.000
       9 -> 13        -0.11718
      12 -> 13         0.68119

 Excited State   5:      Singlet-A"     7.8300 eV  158.34 nm  f=0.0000  <S**2>=0.000
      11 -> 13         0.70254

 Excited State   6:      Singlet-A"     8.4373 eV  146.95 nm  f=0.0010  <S**2>=0.000
      10 -> 13         0.68622
      12 -> 17        -0.15560

 Excited State   7:      Singlet-A"     8.5217 eV  145.49 nm  f=0.0007  <S**2>=0.000
      10 -> 13         0.15250
      12 -> 17         0.68850

 Excited State   8:      Singlet-A'     8.6066 eV  144.06 nm  f=0.0071  <S**2>=0.000
      11 -> 14         0.64532
      12 -> 18        -0.28439

 Excited State   9:      Singlet-A'     8.6876 eV  142.71 nm  f=0.0398  <S**2>=0.000
      11 -> 14         0.28263
      12 -> 18         0.64186

 Excited State  10:      Singlet-A"     9.0400 eV  137.15 nm  f=0.0152  <S**2>=0.000
      12 -> 19         0.70288

 Excited State  11:      Singlet-A'     9.2939 eV  133.40 nm  f=0.0626  <S**2>=0.000
      10 -> 14         0.68810
      11 -> 16         0.10646

 Excited State  12:      Singlet-A'     9.3345 eV  132.82 nm  f=0.0203  <S**2>=0.000
      10 -> 14        -0.11624
      11 -> 15         0.67220
      11 -> 16         0.17061

 Excited State  13:      Singlet-A"     9.4615 eV  131.04 nm  f=0.0130  <S**2>=0.000
      12 -> 20         0.70155

 Excited State  14:      Singlet-A'     9.4640 eV  131.01 nm  f=0.1521  <S**2>=0.000
      11 -> 15        -0.18064
      11 -> 16         0.66737

 Excited State  15:      Singlet-A"     9.7941 eV  126.59 nm  f=0.0000  <S**2>=0.000
       8 -> 13         0.69472
      12 -> 22         0.10530

 Excited State  16:      Singlet-A'     9.8999 eV  125.24 nm  f=0.0478  <S**2>=0.000
       9 -> 13        -0.26358
      12 -> 21         0.63329

 Excited State  17:      Singlet-A'     9.9412 eV  124.72 nm  f=0.0313  <S**2>=0.000
       9 -> 13         0.62355
      12 -> 13         0.13014
      12 -> 21         0.26139

 Excited State  18:      Singlet-A"    10.0313 eV  123.60 nm  f=0.0252  <S**2>=0.000
       8 -> 13        -0.10267
      12 -> 22         0.68832

 Excited State  19:      Singlet-A'    10.0407 eV  123.48 nm  f=0.0019  <S**2>=0.000
      10 -> 15         0.45547
      10 -> 16         0.52749

 Excited State  20:      Singlet-A'    10.0544 eV  123.31 nm  f=0.0673  <S**2>=0.000
      10 -> 15         0.52163
      10 -> 16        -0.45444

 Excited State  21:      Singlet-A"    10.2483 eV  120.98 nm  f=0.0008  <S**2>=0.000
      12 -> 23         0.70140

 Excited State  22:      Singlet-A"    10.4527 eV  118.61 nm  f=0.0833  <S**2>=0.000
       9 -> 14         0.68945

 Excited State  23:      Singlet-A'    10.6045 eV  116.92 nm  f=0.0013  <S**2>=0.000
       8 -> 14         0.62281
      11 -> 17         0.29552
      12 -> 24        -0.12327

 Excited State  24:      Singlet-A"    10.6343 eV  116.59 nm  f=0.0064  <S**2>=0.000
      11 -> 18         0.70107

 Excited State  25:      Singlet-A'    10.6610 eV  116.30 nm  f=0.0690  <S**2>=0.000
       8 -> 14        -0.31070
      11 -> 17         0.60342
      12 -> 24        -0.10138

 Excited State  26:      Singlet-A'    10.9261 eV  113.48 nm  f=0.0138  <S**2>=0.000
       8 -> 16         0.10963
      11 -> 17         0.11529
      12 -> 24         0.64071

 Excited State  27:      Singlet-A"    10.9648 eV  113.08 nm  f=0.0002  <S**2>=0.000
       7 -> 13         0.67899
      12 -> 25        -0.16579

 Excited State  28:      Singlet-A'    11.0794 eV  111.91 nm  f=0.0511  <S**2>=0.000
      10 -> 17         0.22035
      11 -> 19         0.65493

 Excited State  29:      Singlet-A"    11.1135 eV  111.56 nm  f=0.0000  <S**2>=0.000
       9 -> 15        -0.21873
       9 -> 16         0.66727

 Excited State  30:      Singlet-A"    11.1375 eV  111.32 nm  f=0.0133  <S**2>=0.000
       9 -> 15         0.66371
       9 -> 16         0.21113

 Excited State  31:      Singlet-A"    11.2364 eV  110.34 nm  f=0.0669  <S**2>=0.000
       7 -> 13         0.13681
      10 -> 18         0.17885
      12 -> 25         0.65734

 Excited State  32:      Singlet-A'    11.2520 eV  110.19 nm  f=0.0417  <S**2>=0.000
       8 -> 15         0.42980
       8 -> 16        -0.14872
      10 -> 17         0.51083
      11 -> 19        -0.15064

 Excited State  33:      Singlet-A'    11.3819 eV  108.93 nm  f=0.0343  <S**2>=0.000
       8 -> 16         0.58042
      11 -> 20        -0.37152

 Excited State  34:      Singlet-A"    11.3924 eV  108.83 nm  f=0.0634  <S**2>=0.000
      10 -> 18         0.66557
      12 -> 25        -0.13950

 Excited State  35:      Singlet-A'    11.3966 eV  108.79 nm  f=0.0880  <S**2>=0.000
       8 -> 15         0.53577
      10 -> 17        -0.36325
      11 -> 19         0.13219
      11 -> 20         0.13201
      12 -> 26         0.10630

 Excited State  36:      Singlet-A'    11.5111 eV  107.71 nm  f=0.0382  <S**2>=0.000
       8 -> 16         0.32435
      10 -> 17         0.16484
      11 -> 20         0.57004

 Excited State  37:      Singlet-A'    11.7271 eV  105.72 nm  f=0.0332  <S**2>=0.000
       7 -> 14         0.60869
      10 -> 19        -0.34144

 Excited State  38:      Singlet-A"    11.7894 eV  105.17 nm  f=0.0308  <S**2>=0.000
      11 -> 21         0.69701

 Excited State  39:      Singlet-A'    11.8391 eV  104.72 nm  f=0.0147  <S**2>=0.000
       7 -> 14         0.30738
      10 -> 19         0.57683
      11 -> 23         0.11693

 Excited State  40:      Singlet-A'    12.0033 eV  103.29 nm  f=0.1061  <S**2>=0.000
      10 -> 20         0.10434
      11 -> 22         0.23105
      12 -> 26         0.63292

 Excited State  41:      Singlet-A"    12.1350 eV  102.17 nm  f=0.0134  <S**2>=0.000
      12 -> 27         0.69745

 Excited State  42:      Singlet-A'    12.1730 eV  101.85 nm  f=0.0908  <S**2>=0.000
      11 -> 22         0.65204
      12 -> 26        -0.21051

 Excited State  43:      Singlet-A'    12.1910 eV  101.70 nm  f=0.0148  <S**2>=0.000
       9 -> 18        -0.17745
      10 -> 20         0.67044

 Excited State  44:      Singlet-A"    12.3303 eV  100.55 nm  f=0.0101  <S**2>=0.000
       9 -> 17         0.70218

 Excited State  45:      Singlet-A'    12.3550 eV  100.35 nm  f=0.0081  <S**2>=0.000
       7 -> 15        -0.30948
       7 -> 16         0.21476
      11 -> 23         0.57697

 Excited State  46:      Singlet-A"    12.4786 eV   99.36 nm  f=0.0021  <S**2>=0.000
      10 -> 21        -0.36594
      12 -> 28         0.58375

 Excited State  47:      Singlet-A'    12.4917 eV   99.25 nm  f=0.0187  <S**2>=0.000
       7 -> 15         0.32996
       7 -> 16         0.59615
       9 -> 18         0.12036

 Excited State  48:      Singlet-A"    12.5230 eV   99.01 nm  f=0.0024  <S**2>=0.000
       9 -> 19         0.18361
      10 -> 21         0.56857
      12 -> 28         0.35337

 Excited State  49:      Singlet-A'    12.5788 eV   98.57 nm  f=0.1944  <S**2>=0.000
       7 -> 15         0.32710
       7 -> 16        -0.20919
       8 -> 17         0.47993
       9 -> 18        -0.21569
      10 -> 22         0.11351
      11 -> 23         0.16138

 Excited State  50:      Singlet-A"    12.6132 eV   98.30 nm  f=0.0001  <S**2>=0.000
       8 -> 18         0.67098
      11 -> 24         0.16838

 Excited State  51:      Singlet-A"    12.6357 eV   98.12 nm  f=0.0004  <S**2>=0.000
       8 -> 18        -0.17306
      11 -> 24         0.67625

 Excited State  52:      Singlet-A'    12.7135 eV   97.52 nm  f=0.0992  <S**2>=0.000
       7 -> 15         0.38727
       7 -> 16        -0.11105
       8 -> 17        -0.33370
      10 -> 22        -0.32718
      11 -> 23         0.25148

 Excited State  53:      Singlet-A'    12.7292 eV   97.40 nm  f=0.0472  <S**2>=0.000
       8 -> 17        -0.31430
       9 -> 18        -0.23508
      10 -> 22         0.52579
      12 -> 29        -0.11406

 Excited State  54:      Singlet-A'    12.9429 eV   95.79 nm  f=0.0437  <S**2>=0.000
       8 -> 19         0.46431
       9 -> 18         0.28350
      10 -> 22         0.14341
      10 -> 23        -0.37846

 Excited State  55:      Singlet-A"    12.9617 eV   95.65 nm  f=0.0488  <S**2>=0.000
       6 -> 13         0.19002
       9 -> 19         0.63109
       9 -> 20        -0.12258
      10 -> 21        -0.13766

 Excited State  56:      Singlet-A'    13.0350 eV   95.12 nm  f=0.0682  <S**2>=0.000
       8 -> 19         0.17343
       9 -> 18         0.25605
      10 -> 23         0.52460
      11 -> 25         0.23577
      12 -> 29         0.19611

 Excited State  57:      Singlet-A'    13.1096 eV   94.57 nm  f=0.0149  <S**2>=0.000
       7 -> 17        -0.16174
       8 -> 19         0.43243
       8 -> 20         0.25327
       9 -> 18        -0.22782
      10 -> 22        -0.19140
      10 -> 23         0.13191
      12 -> 29        -0.26036

 Excited State  58:      Singlet-A"    13.2344 eV   93.68 nm  f=0.0021  <S**2>=0.000
       6 -> 13         0.29904
       9 -> 20         0.60642
      10 -> 24         0.17603

 Excited State  59:      Singlet-A'    13.2445 eV   93.61 nm  f=0.0387  <S**2>=0.000
       8 -> 19        -0.13327
      10 -> 23        -0.13258
      11 -> 25         0.63349
      11 -> 27         0.10771
      12 -> 29        -0.13636

 Excited State  60:      Singlet-A"    13.3076 eV   93.17 nm  f=0.0002  <S**2>=0.000
       6 -> 13         0.17499
       9 -> 20        -0.27319
      10 -> 24         0.61526

 Excited State  61:      Singlet-A'    13.3421 eV   92.93 nm  f=0.0424  <S**2>=0.000
       6 -> 15         0.11330
       8 -> 20         0.15893
       9 -> 18        -0.23414
      10 -> 23        -0.10555
      11 -> 25         0.10368
      12 -> 29         0.53373

 Excited State  62:      Singlet-A"    13.4642 eV   92.08 nm  f=0.0183  <S**2>=0.000
      10 -> 24        -0.16038
      12 -> 30         0.66904

 Excited State  63:      Singlet-A'    13.5482 eV   91.51 nm  f=0.0045  <S**2>=0.000
       7 -> 17         0.33063
       8 -> 20         0.55225
       9 -> 18         0.11354
      10 -> 25         0.14926

 Excited State  64:      Singlet-A"    13.5794 eV   91.30 nm  f=0.0696  <S**2>=0.000
       6 -> 13         0.45058
       7 -> 18         0.37110
       9 -> 19        -0.12116
       9 -> 20        -0.16254
      10 -> 24        -0.21471
      12 -> 30        -0.17432

 Excited State  65:      Singlet-A'    13.7089 eV   90.44 nm  f=0.0198  <S**2>=0.000
       6 -> 14        -0.16045
       7 -> 17        -0.33008
       9 -> 21         0.38139
      12 -> 31         0.43153

 Excited State  66:      Singlet-A"    13.7469 eV   90.19 nm  f=0.0001  <S**2>=0.000
       8 -> 21         0.65387
       9 -> 22        -0.25779

 Excited State  67:      Singlet-A'    13.7697 eV   90.04 nm  f=0.0015  <S**2>=0.000
       6 -> 14         0.55406
       7 -> 17         0.21353
       8 -> 22         0.10293
       9 -> 21         0.28255
      11 -> 27        -0.10573
      12 -> 31         0.11500

 Excited State  68:      Singlet-A'    13.7831 eV   89.95 nm  f=0.0069  <S**2>=0.000
       7 -> 17         0.21857
       8 -> 20        -0.11008
       9 -> 21        -0.32738
      10 -> 25        -0.15440
      12 -> 31         0.51280

 Excited State  69:      Singlet-A"    13.8058 eV   89.81 nm  f=0.0030  <S**2>=0.000
       6 -> 13        -0.11224
       7 -> 18         0.19002
       8 -> 21         0.20949
       9 -> 22         0.60630
      11 -> 26        -0.17284

 Excited State  70:      Singlet-A"    13.8898 eV   89.26 nm  f=0.1387  <S**2>=0.000
       6 -> 13        -0.20262
       7 -> 18         0.52078
       8 -> 21        -0.13984
       9 -> 19         0.11256
       9 -> 22        -0.18977
       9 -> 23         0.25213

 Excited State  71:      Singlet-A'    13.9212 eV   89.06 nm  f=0.0096  <S**2>=0.000
       6 -> 14         0.20429
       8 -> 22        -0.26444
       9 -> 21        -0.15684
      10 -> 25         0.54969

 Excited State  72:      Singlet-A"    13.9725 eV   88.73 nm  f=0.0362  <S**2>=0.000
       6 -> 13        -0.12418
       9 -> 22         0.11577
      11 -> 26         0.66577

 Excited State  73:      Singlet-A'    14.0513 eV   88.24 nm  f=0.0064  <S**2>=0.000
       6 -> 14        -0.15666
       7 -> 17         0.18071
       7 -> 19        -0.28683
       8 -> 20        -0.12546
       8 -> 22         0.39204
       9 -> 18        -0.10522
       9 -> 21         0.14028
      10 -> 25         0.26418
      11 -> 27         0.17132
      11 -> 28         0.11515

 Excited State  74:      Singlet-A"    14.1233 eV   87.79 nm  f=0.0783  <S**2>=0.000
       6 -> 13         0.10518
       7 -> 18        -0.14591
       9 -> 23         0.61876
      12 -> 32         0.22944

 Excited State  75:      Singlet-A'    14.1354 eV   87.71 nm  f=0.1024  <S**2>=0.000
       6 -> 14         0.21453
       6 -> 16         0.20933
       7 -> 17        -0.25594
       8 -> 20         0.11031
       8 -> 22         0.35451
       8 -> 23         0.10543
       9 -> 21        -0.25698
      11 -> 27         0.27541

 Excited State  76:      Singlet-A"    14.2548 eV   86.98 nm  f=0.0263  <S**2>=0.000
       9 -> 23        -0.18766
      12 -> 32         0.65842

 Excited State  77:      Singlet-A'    14.3099 eV   86.64 nm  f=0.0292  <S**2>=0.000
       7 -> 19         0.20118
       8 -> 23         0.61891
       9 -> 24         0.11444
      11 -> 28         0.14662

 Excited State  78:      Singlet-A'    14.3471 eV   86.42 nm  f=0.0055  <S**2>=0.000
       6 -> 16        -0.27086
       7 -> 19         0.46379
       8 -> 23        -0.22590
      10 -> 25         0.12857
      10 -> 27        -0.10838
      11 -> 27         0.28555

 Excited State  79:      Singlet-A'    14.4799 eV   85.63 nm  f=0.0457  <S**2>=0.000
       7 -> 20        -0.17480
       8 -> 22         0.11825
       9 -> 24         0.59606
      11 -> 27        -0.24641

 Excited State  80:      Singlet-A'    14.5479 eV   85.23 nm  f=0.1516  <S**2>=0.000
       6 -> 15         0.51291
       7 -> 20         0.22591
       8 -> 22        -0.17104
       9 -> 24         0.16835
      10 -> 27        -0.15448
      11 -> 27         0.22789

 Excited State  81:      Singlet-A'    14.5591 eV   85.16 nm  f=0.2120  <S**2>=0.000
       6 -> 15        -0.27799
       6 -> 16         0.18512
       7 -> 19        -0.20292
       7 -> 20        -0.14815
       8 -> 22        -0.20106
       9 -> 24         0.20553
      10 -> 27        -0.12446
      10 -> 28         0.15456
      11 -> 27         0.26692
      11 -> 28         0.29924

 Excited State  82:      Singlet-A"    14.5629 eV   85.14 nm  f=0.0090  <S**2>=0.000
      12 -> 33         0.69468

 Excited State  83:      Singlet-A"    14.5925 eV   84.96 nm  f=0.0129  <S**2>=0.000
      10 -> 26         0.69218

 Excited State  84:      Singlet-A"    14.6337 eV   84.73 nm  f=0.0133  <S**2>=0.000
       8 -> 24         0.69463

 Excited State  85:      Singlet-A'    14.6490 eV   84.64 nm  f=0.1639  <S**2>=0.000
       6 -> 15        -0.12799
       6 -> 16        -0.20224
       7 -> 20         0.54687
       8 -> 23        -0.12372
       9 -> 24         0.12226
      11 -> 28         0.23556

 Excited State  86:      Singlet-A"    14.7915 eV   83.82 nm  f=0.0163  <S**2>=0.000
      12 -> 34         0.69615

 Excited State  87:      Singlet-A'    14.8389 eV   83.55 nm  f=0.0689  <S**2>=0.000
       6 -> 15        -0.11006
       9 -> 24         0.10966
      10 -> 27         0.47035
      11 -> 27         0.20383
      11 -> 28        -0.29337
      12 -> 35         0.22939

 Excited State  88:      Singlet-A"    14.8754 eV   83.35 nm  f=0.0092  <S**2>=0.000
      11 -> 29         0.69661

 Excited State  89:      Singlet-A'    14.9166 eV   83.12 nm  f=0.0038  <S**2>=0.000
       6 -> 15        -0.20005
       6 -> 16         0.32993
       7 -> 20         0.20347
       7 -> 22        -0.11506
       8 -> 25         0.21644
      10 -> 25         0.10861
      10 -> 27        -0.19543
      10 -> 28        -0.18271
      11 -> 28        -0.20544
      12 -> 35        -0.19503

 Excited State  90:      Singlet-A"    14.9394 eV   82.99 nm  f=0.0064  <S**2>=0.000
       7 -> 21         0.59859
       9 -> 25         0.34654

 Excited State  91:      Singlet-A'    14.9861 eV   82.73 nm  f=0.0784  <S**2>=0.000
       6 -> 15         0.12546
       6 -> 16         0.27955
       7 -> 19         0.15334
       7 -> 22         0.13714
       8 -> 25         0.13723
      10 -> 27         0.35088
      10 -> 28         0.10528
      11 -> 28         0.29893
      11 -> 30         0.10111

 Excited State  92:      Singlet-A'    15.0286 eV   82.50 nm  f=0.0213  <S**2>=0.000
       6 -> 16         0.14111
       8 -> 25         0.15933
      10 -> 27        -0.18725
      12 -> 35         0.61035

 Excited State  93:      Singlet-A"    15.0886 eV   82.17 nm  f=0.0172  <S**2>=0.000
       7 -> 21         0.20437
       9 -> 25        -0.26708
      12 -> 36         0.61027

 Excited State  94:      Singlet-A'    15.1919 eV   81.61 nm  f=0.0138  <S**2>=0.000
       6 -> 16        -0.11006
       7 -> 22         0.48488
       8 -> 25         0.30155
      10 -> 28        -0.33950

 Excited State  95:      Singlet-A"    15.2206 eV   81.46 nm  f=0.0966  <S**2>=0.000
       7 -> 21        -0.23855
       9 -> 25         0.50072
      10 -> 29        -0.12856
      12 -> 36         0.33645

 Excited State  96:      Singlet-A'    15.2627 eV   81.23 nm  f=0.0143  <S**2>=0.000
       6 -> 16        -0.13944
       7 -> 22        -0.27732
       7 -> 23        -0.14843
       8 -> 25         0.53013
      10 -> 28         0.14629
      11 -> 30        -0.12108

 Excited State  97:      Singlet-A'    15.4731 eV   80.13 nm  f=0.0382  <S**2>=0.000
       7 -> 22        -0.25429
       7 -> 23         0.41673
      10 -> 28        -0.30782
      10 -> 30        -0.10898
      11 -> 28         0.16428
      11 -> 30        -0.20422

 Excited State  98:      Singlet-A'    15.5089 eV   79.94 nm  f=0.0190  <S**2>=0.000
       7 -> 22        -0.13944
       7 -> 23         0.18381
      11 -> 30         0.63589

 Excited State  99:      Singlet-A"    15.5710 eV   79.63 nm  f=0.0094  <S**2>=0.000
      10 -> 29         0.68542

 Excited State 100:      Singlet-A'    15.6663 eV   79.14 nm  f=0.1483  <S**2>=0.000
       7 -> 22         0.16760
       7 -> 23         0.38518
       9 -> 26         0.40289
      10 -> 28         0.28559

 Excited State 101:      Singlet-A"    15.7336 eV   78.80 nm  f=0.0383  <S**2>=0.000
       6 -> 18        -0.26805
       7 -> 24        -0.15412
       8 -> 26         0.11955
      11 -> 31         0.61565

 Excited State 102:      Singlet-A'    15.7678 eV   78.63 nm  f=0.0808  <S**2>=0.000
       6 -> 17         0.64292
       9 -> 26         0.13319
      12 -> 38        -0.15859

 Excited State 103:      Singlet-A"    15.7921 eV   78.51 nm  f=0.0026  <S**2>=0.000
       6 -> 18        -0.46986
       7 -> 24         0.50961

 Excited State 104:      Singlet-A"    15.8306 eV   78.32 nm  f=0.0132  <S**2>=0.000
       6 -> 18         0.40517
       7 -> 24         0.39971
       8 -> 26         0.31221
      11 -> 31         0.20822
      12 -> 37         0.14599

 Excited State 105:      Singlet-A'    15.8362 eV   78.29 nm  f=0.1986  <S**2>=0.000
       6 -> 17        -0.11967
       7 -> 23        -0.23035
       8 -> 27        -0.12657
       9 -> 26         0.54126
      10 -> 28        -0.20484
      12 -> 38         0.11549

 Excited State 106:      Singlet-A"    15.8555 eV   78.20 nm  f=0.0027  <S**2>=0.000
       8 -> 26        -0.13641
      12 -> 37         0.58971
      12 -> 39         0.33907

 Excited State 107:      Singlet-A"    15.8931 eV   78.01 nm  f=0.0051  <S**2>=0.000
       8 -> 26         0.21824
       9 -> 27         0.49651
      12 -> 37        -0.23130
      12 -> 39         0.37179

 Excited State 108:      Singlet-A'    15.9257 eV   77.85 nm  f=0.0001  <S**2>=0.000
       6 -> 17         0.14015
      11 -> 32         0.10293
      12 -> 38         0.65281

 Excited State 109:      Singlet-A"    15.9628 eV   77.67 nm  f=0.0066  <S**2>=0.000
       7 -> 24         0.15555
       9 -> 27        -0.40522
       9 -> 28         0.10016
      12 -> 37        -0.22246
      12 -> 39         0.47060

 Excited State 110:      Singlet-A"    16.0560 eV   77.22 nm  f=0.2247  <S**2>=0.000
       5 -> 13        -0.11402
       6 -> 18        -0.16011
       7 -> 24        -0.11730
       8 -> 26         0.52681
       9 -> 27        -0.23151
      11 -> 31        -0.19979
      12 -> 37         0.11851

 The electronic state is 1-A'.
 Alpha  occ. eigenvalues --   -9.91304  -9.90699  -9.89807  -0.71071  -0.61589
 Alpha  occ. eigenvalues --   -0.49502  -0.42082  -0.37829  -0.37172  -0.33014
 Alpha  occ. eigenvalues --   -0.30521  -0.23218
 Alpha virt. eigenvalues --   -0.02396   0.00765   0.03541   0.03629   0.07915
 Alpha virt. eigenvalues --    0.08413   0.09814   0.11454   0.12660   0.13400
 Alpha virt. eigenvalues --    0.14443   0.15892   0.17789   0.20597   0.21233

 Mulliken charges:
               1
     1  C    0.615819
     2  C   -0.421590
     3  C    0.000911
     4  H    0.010656
     5  H    0.029685
     6  H    0.010656
     7  H   -0.194646
     8  H   -0.037748
     9  H   -0.013745
 Sum of Mulliken charges =  -0.00000

 Dipole moment (field-independent basis, Debye):
    X=             -0.4149    Y=             -0.0488    Z=              0.0000  Tot=              0.4177
 Quadrupole moment (field-independent basis, Debye-Ang):
   XX=            -19.4871   YY=            -19.3790   ZZ=            -21.7308
   XY=             -0.1867   XZ=             -0.0000   YZ=             -0.0000

 Normal termination of Gaussian 16 at Mon Mar 21 20:23:38 2022.
