 Gaussian 16, Revision C.01,
 Gaussian 16:  EM64L-G16RevC.01  3-Jul-2019

 ----------------------------------------------------------------------
 #P TD(Nstates=10000) pw91pw91/Gen SCF(maxcycles=100) Int(Grid=ultrafin
 e)
 ----------------------------------------------------------------------

 ---------------------
 xGDB7_00001_tier4.com
 ---------------------
 Symbolic Z-matrix:
 Charge =  0 Multiplicity = 1

                         Standard orientation:
 ---------------------------------------------------------------------
 Center     Atomic      Atomic             Coordinates (Angstroms)
 Number     Number       Type             X           Y           Z
 ---------------------------------------------------------------------
      1          6           0        0.000000    1.163894   -0.193136
      2          8           0       -0.000000   -0.000000    0.585449
      3          6           0       -0.000000   -1.163894   -0.193136
      4          1           0        0.000000    2.015478    0.485827
      5          1           0       -0.890390    1.219204   -0.834404
      6          1           0        0.890390    1.219204   -0.834404
      7          1           0       -0.000000   -2.015478    0.485827
      8          1           0        0.890390   -1.219204   -0.834404
      9          1           0       -0.890390   -1.219204   -0.834404
 ---------------------------------------------------------------------

 SCF Done:  E(RPW91-PW91) =  -154.854470932     A.U. after   12 cycles

 Excitation energies and oscillator strengths:

 Excited State   1:      Singlet-B1     5.9580 eV  208.10 nm  f=0.0215  <S**2>=0.000
      13 -> 14         0.70648
 This state for optimization and/or second-order correction.
 Total Energy, E(TD-HF/TD-DFT) =  -154.635519144
 Copying the excited state density for this state as the 1-particle RhoCI density.

 Excited State   2:      Singlet-A2     6.7585 eV  183.45 nm  f=0.0000  <S**2>=0.000
      13 -> 15         0.70677

 Excited State   3:      Singlet-B1     7.2019 eV  172.15 nm  f=0.0215  <S**2>=0.000
      13 -> 16         0.70217

 Excited State   4:      Singlet-A1     7.5626 eV  163.94 nm  f=0.0102  <S**2>=0.000
      12 -> 14         0.39108
      13 -> 17         0.58835

 Excited State   5:      Singlet-B1     7.6086 eV  162.95 nm  f=0.0151  <S**2>=0.000
      13 -> 18         0.70210

 Excited State   6:      Singlet-A1     7.7363 eV  160.26 nm  f=0.0493  <S**2>=0.000
      12 -> 14         0.58308
      13 -> 17        -0.38292

 Excited State   7:      Singlet-A2     8.2317 eV  150.62 nm  f=0.0000  <S**2>=0.000
      13 -> 19         0.70679

 Excited State   8:      Singlet-B2     8.4571 eV  146.60 nm  f=0.0048  <S**2>=0.000
      12 -> 15         0.70336

 Excited State   9:      Singlet-B1     8.8173 eV  140.61 nm  f=0.0023  <S**2>=0.000
      13 -> 21         0.70586

 Excited State  10:      Singlet-A1     8.8287 eV  140.43 nm  f=0.0330  <S**2>=0.000
      12 -> 16         0.65379
      13 -> 20         0.25796

 Excited State  11:      Singlet-A1     9.0323 eV  137.27 nm  f=0.0546  <S**2>=0.000
      12 -> 16        -0.25720
      13 -> 20         0.64007

 Excited State  12:      Singlet-B2     9.0650 eV  136.77 nm  f=0.0934  <S**2>=0.000
      13 -> 22         0.69872

 Excited State  13:      Singlet-B2     9.2278 eV  134.36 nm  f=0.0497  <S**2>=0.000
      11 -> 14         0.70442

 Excited State  14:      Singlet-B1     9.2392 eV  134.19 nm  f=0.0459  <S**2>=0.000
      12 -> 17         0.70517

 Excited State  15:      Singlet-A1     9.3609 eV  132.45 nm  f=0.0112  <S**2>=0.000
      12 -> 18         0.69773

 Excited State  16:      Singlet-A2     9.6508 eV  128.47 nm  f=0.0000  <S**2>=0.000
      10 -> 14         0.70124

 Excited State  17:      Singlet-B1     9.7658 eV  126.96 nm  f=0.0011  <S**2>=0.000
      13 -> 23         0.70644

 Excited State  18:      Singlet-A2     9.8857 eV  125.42 nm  f=0.0000  <S**2>=0.000
      13 -> 24         0.69867

 Excited State  19:      Singlet-B2     9.9445 eV  124.68 nm  f=0.0614  <S**2>=0.000
      12 -> 19         0.69745

 Excited State  20:      Singlet-A1    10.0863 eV  122.92 nm  f=0.0282  <S**2>=0.000
      11 -> 15         0.70221

 Excited State  21:      Singlet-B2    10.1556 eV  122.08 nm  f=0.0168  <S**2>=0.000
      13 -> 25         0.69396

 Excited State  22:      Singlet-B2    10.4239 eV  118.94 nm  f=0.0110  <S**2>=0.000
      11 -> 16         0.69627

 Excited State  23:      Singlet-B1    10.4374 eV  118.79 nm  f=0.0001  <S**2>=0.000
      10 -> 15         0.30700
      12 -> 20         0.63532

 Excited State  24:      Singlet-B1    10.4990 eV  118.09 nm  f=0.0700  <S**2>=0.000
      10 -> 15         0.63327
      12 -> 20        -0.30408

 Excited State  25:      Singlet-A1    10.5873 eV  117.11 nm  f=0.0387  <S**2>=0.000
      12 -> 21         0.69918

 Excited State  26:      Singlet-A2    10.6550 eV  116.36 nm  f=0.0000  <S**2>=0.000
      12 -> 22         0.69780

 Excited State  27:      Singlet-A2    10.7530 eV  115.30 nm  f=0.0000  <S**2>=0.000
      10 -> 16        -0.40589
      11 -> 17         0.56917

 Excited State  28:      Singlet-A2    10.8111 eV  114.68 nm  f=0.0000  <S**2>=0.000
      10 -> 16         0.52529
      11 -> 17         0.40597
      13 -> 26         0.24019

 Excited State  29:      Singlet-A2    10.8705 eV  114.06 nm  f=0.0000  <S**2>=0.000
      10 -> 16        -0.22878
      13 -> 26         0.65829

 Excited State  30:      Singlet-B2    10.9298 eV  113.44 nm  f=0.1320  <S**2>=0.000
      10 -> 17         0.11426
      11 -> 18         0.68873

 Excited State  31:      Singlet-A1    11.0824 eV  111.87 nm  f=0.0056  <S**2>=0.000
      12 -> 23         0.22669
      13 -> 27         0.66210

 Excited State  32:      Singlet-A2    11.2982 eV  109.74 nm  f=0.0000  <S**2>=0.000
      10 -> 18         0.69385

 Excited State  33:      Singlet-B2    11.4024 eV  108.73 nm  f=0.0029  <S**2>=0.000
       7 -> 14         0.14360
      10 -> 17         0.65695
      12 -> 24         0.15198

 Excited State  34:      Singlet-B2    11.5698 eV  107.16 nm  f=0.0338  <S**2>=0.000
      10 -> 17        -0.11900
      12 -> 24         0.68360

 Excited State  35:      Singlet-A1    11.6053 eV  106.83 nm  f=0.0016  <S**2>=0.000
       8 -> 14         0.54096
      11 -> 19        -0.43388
      12 -> 23         0.10076

 Excited State  36:      Singlet-A1    11.6296 eV  106.61 nm  f=0.0225  <S**2>=0.000
       8 -> 14         0.25850
      11 -> 19         0.42822
      12 -> 23         0.46528
      13 -> 27        -0.12231

 Excited State  37:      Singlet-B1    11.6392 eV  106.52 nm  f=0.0993  <S**2>=0.000
       9 -> 14         0.69959

 Excited State  38:      Singlet-A2    11.7694 eV  105.34 nm  f=0.0000  <S**2>=0.000
      11 -> 20         0.16304
      12 -> 25         0.67966

 Excited State  39:      Singlet-A1    11.8927 eV  104.25 nm  f=0.0928  <S**2>=0.000
       8 -> 14        -0.36561
      10 -> 22         0.10716
      11 -> 19        -0.31055
      12 -> 23         0.43870
      13 -> 27        -0.14992

 Excited State  40:      Singlet-A2    11.9087 eV  104.11 nm  f=0.0000  <S**2>=0.000
      13 -> 28         0.70420

 Excited State  41:      Singlet-B1    11.9324 eV  103.91 nm  f=0.0064  <S**2>=0.000
      10 -> 19         0.70024

 Excited State  42:      Singlet-A2    12.0336 eV  103.03 nm  f=0.0000  <S**2>=0.000
      10 -> 21         0.16282
      11 -> 20         0.66914
      12 -> 25        -0.13729

 Excited State  43:      Singlet-B2    12.0949 eV  102.51 nm  f=0.0049  <S**2>=0.000
       7 -> 14         0.64988
      10 -> 17        -0.12008
      10 -> 20        -0.14316
      11 -> 21         0.13484

 Excited State  44:      Singlet-B2    12.1622 eV  101.94 nm  f=0.0058  <S**2>=0.000
       7 -> 14        -0.15510
      10 -> 20        -0.12346
      11 -> 21         0.66623

 Excited State  45:      Singlet-B1    12.2117 eV  101.53 nm  f=0.0038  <S**2>=0.000
      11 -> 22         0.69162
      13 -> 29        -0.11589

 Excited State  46:      Singlet-A2    12.3978 eV  100.00 nm  f=0.0000  <S**2>=0.000
       9 -> 15         0.70414

 Excited State  47:      Singlet-B2    12.4924 eV   99.25 nm  f=0.0459  <S**2>=0.000
       8 -> 15         0.57210
      10 -> 20         0.40018

 Excited State  48:      Singlet-B1    12.5144 eV   99.07 nm  f=0.0100  <S**2>=0.000
       9 -> 16         0.14179
      11 -> 22         0.11382
      13 -> 29         0.66765

 Excited State  49:      Singlet-B2    12.5730 eV   98.61 nm  f=0.0017  <S**2>=0.000
       7 -> 16        -0.10327
       8 -> 15        -0.39085
      10 -> 20         0.53330
      11 -> 21         0.14335

 Excited State  50:      Singlet-A2    12.6123 eV   98.30 nm  f=0.0000  <S**2>=0.000
      10 -> 21         0.67571
      11 -> 20        -0.13403

 Excited State  51:      Singlet-B1    12.6331 eV   98.14 nm  f=0.0011  <S**2>=0.000
       9 -> 16        -0.14812
      12 -> 27         0.69003

 Excited State  52:      Singlet-B2    12.6436 eV   98.06 nm  f=0.0506  <S**2>=0.000
      12 -> 26         0.68649

 Excited State  53:      Singlet-A1    12.7527 eV   97.22 nm  f=0.0029  <S**2>=0.000
       7 -> 15         0.47576
       9 -> 17        -0.11331
      10 -> 22         0.49940

 Excited State  54:      Singlet-B1    12.8013 eV   96.85 nm  f=0.0003  <S**2>=0.000
       9 -> 16         0.66146
       9 -> 18        -0.11210
      12 -> 27         0.13342
      13 -> 29        -0.15064

 Excited State  55:      Singlet-A1    12.9005 eV   96.11 nm  f=0.0662  <S**2>=0.000
       7 -> 15         0.43450
       8 -> 16         0.30664
       9 -> 17         0.17077
      10 -> 22        -0.30809
      11 -> 24         0.25607

 Excited State  56:      Singlet-A1    12.9322 eV   95.87 nm  f=0.0118  <S**2>=0.000
       7 -> 15        -0.18842
       8 -> 16         0.59450
       9 -> 17        -0.24285
      10 -> 22         0.17323

 Excited State  57:      Singlet-B1    13.0446 eV   95.05 nm  f=0.0264  <S**2>=0.000
       9 -> 18        -0.15410
      10 -> 24         0.11259
      13 -> 30         0.66193

 Excited State  58:      Singlet-B2    13.1363 eV   94.38 nm  f=0.0757  <S**2>=0.000
       7 -> 16        -0.12743
       8 -> 19        -0.11404
      11 -> 23         0.66875

 Excited State  59:      Singlet-A1    13.1614 eV   94.20 nm  f=0.0199  <S**2>=0.000
       8 -> 16        -0.10743
       8 -> 18         0.33010
       9 -> 17        -0.12207
      11 -> 24         0.58406

 Excited State  60:      Singlet-B1    13.2260 eV   93.74 nm  f=0.0024  <S**2>=0.000
       8 -> 17         0.67633
       9 -> 18         0.16223

 Excited State  61:      Singlet-B1    13.2409 eV   93.64 nm  f=0.0029  <S**2>=0.000
       8 -> 17        -0.18216
       9 -> 18         0.60976
      10 -> 24         0.16595
      11 -> 25        -0.23726

 Excited State  62:      Singlet-B2    13.2853 eV   93.32 nm  f=0.1534  <S**2>=0.000
       7 -> 16         0.64044
       7 -> 18        -0.20200
      11 -> 23         0.11665
      12 -> 28         0.14633

 Excited State  63:      Singlet-A1    13.2939 eV   93.26 nm  f=0.0196  <S**2>=0.000
       8 -> 18         0.45624
       9 -> 17         0.49272
      11 -> 24        -0.13490

 Excited State  64:      Singlet-B1    13.3741 eV   92.70 nm  f=0.0176  <S**2>=0.000
       9 -> 18         0.11681
      10 -> 24         0.34028
      11 -> 25         0.59745

 Excited State  65:      Singlet-A2    13.3774 eV   92.68 nm  f=0.0000  <S**2>=0.000
      13 -> 31         0.69848

 Excited State  66:      Singlet-A2    13.4398 eV   92.25 nm  f=0.0000  <S**2>=0.000
      10 -> 23         0.70342

 Excited State  67:      Singlet-B1    13.5512 eV   91.49 nm  f=0.0133  <S**2>=0.000
      10 -> 24        -0.11355
      13 -> 32         0.69281

 Excited State  68:      Singlet-A1    13.5627 eV   91.42 nm  f=0.0389  <S**2>=0.000
      10 -> 25        -0.19256
      13 -> 33         0.66298

 Excited State  69:      Singlet-A2    13.5663 eV   91.39 nm  f=0.0000  <S**2>=0.000
       7 -> 17         0.70357

 Excited State  70:      Singlet-B2    13.6453 eV   90.86 nm  f=0.0022  <S**2>=0.000
       7 -> 18         0.53423
       8 -> 19         0.10480
      12 -> 28         0.43724

 Excited State  71:      Singlet-B1    13.7448 eV   90.20 nm  f=0.0033  <S**2>=0.000
      13 -> 34         0.69935

 Excited State  72:      Singlet-A1    13.8345 eV   89.62 nm  f=0.0001  <S**2>=0.000
       7 -> 15         0.11386
       7 -> 19         0.23624
       8 -> 18         0.32537
       9 -> 17        -0.28639
      10 -> 22        -0.21465
      10 -> 25         0.21065
      11 -> 24        -0.18601
      11 -> 26         0.23880

 Excited State  73:      Singlet-B1    13.8518 eV   89.51 nm  f=0.1961  <S**2>=0.000
       8 -> 20         0.19177
       9 -> 18        -0.17748
       9 -> 21        -0.18582
      10 -> 24         0.52243
      10 -> 26         0.10288
      11 -> 25        -0.22263
      13 -> 30        -0.14377
      13 -> 32         0.10328

 Excited State  74:      Singlet-A2    13.8690 eV   89.40 nm  f=0.0000  <S**2>=0.000
       9 -> 19         0.70510

 Excited State  75:      Singlet-A1    13.9534 eV   88.86 nm  f=0.0604  <S**2>=0.000
       7 -> 19        -0.12047
       8 -> 18        -0.11087
       9 -> 17         0.12638
       9 -> 20        -0.16311
      10 -> 25         0.58588
      12 -> 29         0.12208
      13 -> 33         0.16426

 Excited State  76:      Singlet-B2    13.9545 eV   88.85 nm  f=0.3393  <S**2>=0.000
       7 -> 16        -0.16436
       7 -> 18        -0.32804
       8 -> 19        -0.25208
      10 -> 27        -0.10769
      11 -> 23        -0.10169
      12 -> 28         0.46931

 Excited State  77:      Singlet-B2    14.1371 eV   87.70 nm  f=0.0000  <S**2>=0.000
       7 -> 18        -0.18251
       8 -> 19         0.61203
       9 -> 22        -0.19009

 Excited State  78:      Singlet-A1    14.1641 eV   87.53 nm  f=0.0242  <S**2>=0.000
       7 -> 19        -0.22964
      11 -> 26         0.54452
      12 -> 29         0.34720

 Excited State  79:      Singlet-A1    14.1904 eV   87.37 nm  f=0.0033  <S**2>=0.000
       7 -> 19         0.12100
       9 -> 20        -0.15847
      11 -> 26        -0.31176
      12 -> 29         0.55811

 Excited State  80:      Singlet-A2    14.2069 eV   87.27 nm  f=0.0000  <S**2>=0.000
      11 -> 27         0.70359

 Excited State  81:      Singlet-B1    14.4147 eV   86.01 nm  f=0.0010  <S**2>=0.000
       8 -> 20         0.49480
       9 -> 21         0.50354

 Excited State  82:      Singlet-A1    14.4343 eV   85.90 nm  f=0.0321  <S**2>=0.000
       7 -> 19         0.40831
       8 -> 21         0.27963
       9 -> 17         0.10096
       9 -> 20        -0.33382
      11 -> 26         0.17137
      12 -> 30         0.13981
      13 -> 35        -0.16238

 Excited State  83:      Singlet-A1    14.5003 eV   85.50 nm  f=0.0006  <S**2>=0.000
       7 -> 19         0.34634
       8 -> 21        -0.26786
       9 -> 20         0.36811
      12 -> 30        -0.17623
      13 -> 35        -0.31057

 Excited State  84:      Singlet-B1    14.5185 eV   85.40 nm  f=0.0352  <S**2>=0.000
       8 -> 20        -0.30059
       9 -> 21         0.26934
      10 -> 26         0.52189
      13 -> 36         0.23465

 Excited State  85:      Singlet-B1    14.5603 eV   85.15 nm  f=0.0044  <S**2>=0.000
      10 -> 26        -0.24730
      13 -> 36         0.65764

 Excited State  86:      Singlet-A1    14.6280 eV   84.76 nm  f=0.0489  <S**2>=0.000
       8 -> 21         0.46174
       9 -> 20         0.26780
      11 -> 28        -0.19487
      12 -> 30        -0.31412
      13 -> 35         0.22181

 Excited State  87:      Singlet-A2    14.6561 eV   84.60 nm  f=0.0000  <S**2>=0.000
       8 -> 22         0.70259

 Excited State  88:      Singlet-B2    14.6688 eV   84.52 nm  f=0.0872  <S**2>=0.000
       7 -> 21         0.20262
       9 -> 22         0.25432
      10 -> 27         0.60910

 Excited State  89:      Singlet-A1    14.6996 eV   84.35 nm  f=0.0033  <S**2>=0.000
       7 -> 19         0.18237
       9 -> 20         0.21172
      12 -> 29         0.13944
      12 -> 30         0.41195
      12 -> 32        -0.15909
      13 -> 35         0.40940

 Excited State  90:      Singlet-A2    14.7543 eV   84.03 nm  f=0.0000  <S**2>=0.000
       7 -> 20         0.70285

 Excited State  91:      Singlet-A1    14.7793 eV   83.89 nm  f=0.0628  <S**2>=0.000
       8 -> 21         0.15436
       9 -> 20         0.14391
      11 -> 28        -0.13194
      12 -> 30         0.37553
      13 -> 35        -0.25821
      13 -> 38         0.42684

 Excited State  92:      Singlet-B2    14.7969 eV   83.79 nm  f=0.1201  <S**2>=0.000
       7 -> 21         0.37711
       9 -> 22         0.45639
      10 -> 27        -0.30289
      13 -> 37        -0.14526

 Excited State  93:      Singlet-B1    14.8315 eV   83.60 nm  f=0.1779  <S**2>=0.000
       7 -> 22         0.37143
       8 -> 20         0.28523
       9 -> 21        -0.30282
      10 -> 24        -0.12482
      10 -> 26         0.35019

 Excited State  94:      Singlet-B2    14.8680 eV   83.39 nm  f=0.0247  <S**2>=0.000
       7 -> 21         0.42104
       9 -> 22        -0.35275
      13 -> 37        -0.39588

 Excited State  95:      Singlet-A1    14.9492 eV   82.94 nm  f=0.0368  <S**2>=0.000
       6 -> 14        -0.11160
       8 -> 21        -0.12107
       9 -> 20        -0.15297
      10 -> 25        -0.10189
      11 -> 28         0.20343
      12 -> 30        -0.14337
      12 -> 32        -0.18048
      13 -> 35         0.18055
      13 -> 38         0.53011

 Excited State  96:      Singlet-B2    14.9568 eV   82.89 nm  f=0.1268  <S**2>=0.000
       7 -> 21         0.27235
      11 -> 29        -0.10696
      12 -> 31         0.44374
      13 -> 37         0.44053

 Excited State  97:      Singlet-B1    15.1021 eV   82.10 nm  f=0.2522  <S**2>=0.000
       7 -> 22         0.53983
       8 -> 20        -0.14440
       9 -> 21         0.14249
      10 -> 26        -0.12569
      12 -> 33         0.33605

 Excited State  98:      Singlet-A2    15.2039 eV   81.55 nm  f=0.0000  <S**2>=0.000
      13 -> 39         0.70442

 Excited State  99:      Singlet-B2    15.2392 eV   81.36 nm  f=0.0646  <S**2>=0.000
       7 -> 21        -0.20447
       9 -> 22         0.13398
      11 -> 29         0.15281
      12 -> 31         0.50249
      13 -> 37        -0.27117
      13 -> 40         0.16862

 Excited State 100:      Singlet-B1    15.2767 eV   81.16 nm  f=0.1738  <S**2>=0.000
       7 -> 22        -0.21232
       8 -> 20         0.10026
       9 -> 21        -0.10291
       9 -> 23        -0.18758
      12 -> 33         0.59627

 Excited State 101:      Singlet-A1    15.3391 eV   80.83 nm  f=0.0376  <S**2>=0.000
       6 -> 14        -0.15852
       8 -> 23         0.19711
      11 -> 28         0.11663
      12 -> 32         0.59891
      13 -> 35         0.11713

 Excited State 102:      Singlet-B1    15.4100 eV   80.46 nm  f=0.0720  <S**2>=0.000
       9 -> 23         0.66421
      10 -> 28        -0.10841
      12 -> 33         0.12238

 Excited State 103:      Singlet-A1    15.4114 eV   80.45 nm  f=0.1100  <S**2>=0.000
       8 -> 21        -0.11156
       8 -> 23         0.46277
      11 -> 28        -0.36946
      12 -> 34         0.32460

 Excited State 104:      Singlet-A1    15.4306 eV   80.35 nm  f=0.0024  <S**2>=0.000
       6 -> 14         0.21614
       8 -> 23        -0.23002
      11 -> 28         0.17163
      12 -> 32         0.11134
      12 -> 34         0.59245

 Excited State 105:      Singlet-B2    15.5064 eV   79.96 nm  f=0.0082  <S**2>=0.000
       9 -> 25         0.13301
      12 -> 31        -0.10893
      13 -> 37         0.10808
      13 -> 40         0.66979

 Excited State 106:      Singlet-A2    15.5376 eV   79.80 nm  f=0.0000  <S**2>=0.000
       8 -> 25         0.19695
       9 -> 24         0.65386
      13 -> 41        -0.15406

 Excited State 107:      Singlet-B1    15.5995 eV   79.48 nm  f=0.0024  <S**2>=0.000
       9 -> 23         0.11613
      10 -> 28         0.69446

 Excited State 108:      Singlet-B2    15.6070 eV   79.44 nm  f=0.0318  <S**2>=0.000
       7 -> 23        -0.12022
       8 -> 24         0.67696

 Excited State 109:      Singlet-A2    15.7097 eV   78.92 nm  f=0.0000  <S**2>=0.000
       8 -> 25         0.27313
      13 -> 41         0.64739

 Excited State 110:      Singlet-A1    15.7731 eV   78.60 nm  f=0.1168  <S**2>=0.000
       6 -> 14         0.52774
       7 -> 24        -0.25746
      11 -> 28        -0.16040
      12 -> 32         0.12634
      12 -> 34        -0.16925

 Excited State 111:      Singlet-B2    15.8023 eV   78.46 nm  f=0.0030  <S**2>=0.000
       7 -> 23         0.36569
       9 -> 25         0.44902
      11 -> 29        -0.35129

 Excited State 112:      Singlet-B2    15.8537 eV   78.21 nm  f=0.1356  <S**2>=0.000
       7 -> 23         0.53787
      11 -> 29         0.37745
      11 -> 30        -0.14093

 Excited State 113:      Singlet-B2    15.8742 eV   78.10 nm  f=0.1290  <S**2>=0.000
       6 -> 15         0.10162
       7 -> 23        -0.22838
       9 -> 25         0.49901
      11 -> 29         0.36423

 Excited State 114:      Singlet-A2    15.8864 eV   78.04 nm  f=0.0000  <S**2>=0.000
       8 -> 25         0.58586
       9 -> 24        -0.20208
      10 -> 29         0.19923
      13 -> 41        -0.22131

 Excited State 115:      Singlet-A1    15.9156 eV   77.90 nm  f=0.2210  <S**2>=0.000
       6 -> 14         0.11299
       7 -> 24        -0.29610
       7 -> 26         0.12846
       8 -> 21         0.15808
       8 -> 23         0.34825
       9 -> 27         0.15069
      11 -> 28         0.37811
      12 -> 32        -0.10793

 Excited State 116:      Singlet-A2    16.0487 eV   77.25 nm  f=0.0000  <S**2>=0.000
       8 -> 25        -0.15982
       9 -> 26         0.13419
      10 -> 29         0.66530

 Excited State 117:      Singlet-A1    16.0934 eV   77.04 nm  f=0.0000  <S**2>=0.000
       6 -> 14         0.26926
       7 -> 24         0.53495
       7 -> 26         0.12931
       8 -> 23         0.14582
      12 -> 36         0.19556

 Excited State 118:      Singlet-B1    16.1376 eV   76.83 nm  f=0.0063  <S**2>=0.000
       7 -> 25         0.62309
      12 -> 35         0.31895

 Excited State 119:      Singlet-B2    16.2724 eV   76.19 nm  f=0.0520  <S**2>=0.000
       6 -> 15         0.11864
      11 -> 30         0.64950
      13 -> 42         0.17949

 Excited State 120:      Singlet-A1    16.2942 eV   76.09 nm  f=0.0154  <S**2>=0.000
       6 -> 14        -0.10524
       7 -> 24        -0.12843
      12 -> 36         0.66485

 Excited State 121:      Singlet-B1    16.3569 eV   75.80 nm  f=0.0890  <S**2>=0.000
       7 -> 25        -0.24709
       8 -> 27        -0.19974
      12 -> 35         0.56930
      12 -> 38        -0.20468

 Excited State 122:      Singlet-B2    16.3933 eV   75.63 nm  f=0.1211  <S**2>=0.000
       6 -> 15        -0.29910
      11 -> 30        -0.11057
      13 -> 42         0.62276

 The electronic state is 1-A1.
 Alpha  occ. eigenvalues --  -18.78622  -9.95104  -9.95104  -0.94831  -0.65670
 Alpha  occ. eigenvalues --   -0.57098  -0.44048  -0.42831  -0.42553  -0.35415
 Alpha  occ. eigenvalues --   -0.33826  -0.28061  -0.21885
 Alpha virt. eigenvalues --   -0.00216   0.02822   0.03969   0.05698   0.05844
 Alpha virt. eigenvalues --    0.08281   0.10074   0.10351   0.10944   0.13917
 Alpha virt. eigenvalues --    0.14191   0.14999   0.17955   0.18292   0.21646

 Mulliken charges:
               1
     1  C    0.629268
     2  O   -0.786678
     3  C    0.629268
     4  H   -0.220155
     5  H   -0.007887
     6  H   -0.007887
     7  H   -0.220155
     8  H   -0.007887
     9  H   -0.007887
 Sum of Mulliken charges =  -0.00000

 Dipole moment (field-independent basis, Debye):
    X=              0.0000    Y=             -0.0000    Z=             -1.2139  Tot=              1.2139
 Quadrupole moment (field-independent basis, Debye-Ang):
   XX=            -20.5487   YY=            -17.7984   ZZ=            -21.6240
   XY=             -0.0000   XZ=              0.0000   YZ=             -0.0000

 Normal termination of Gaussian 16 at Mon Mar 21 20:12:25 2022.
