 Gaussian 16, Revision C.01,
 Gaussian 16:  EM64L-G16RevC.01  3-Jul-2019

 ----------------------------------------------------------------------
 #P TD(Nstates=10000) pw91pw91/Gen SCF(maxcycles=100) Int(Grid=ultrafin
 e)
 ----------------------------------------------------------------------

 ---------------------
 xGDB7_00001_tier4.com
 ---------------------
 Symbolic Z-matrix:
 Charge =  0 Multiplicity = 1

                         Standard orientation:
 ---------------------------------------------------------------------
 Center     Atomic      Atomic             Coordinates (Angstroms)
 Number     Number       Type             X           Y           Z
 ---------------------------------------------------------------------
      1          6           0        0.000000    1.267731   -0.259082
      2          6           0       -0.000000   -0.000000    0.585552
      3          6           0       -0.000000   -1.267731   -0.259082
      4          1           0        0.000000    2.164308    0.363087
      5          1           0       -0.881453    1.307675   -0.903652
      6          1           0        0.881453    1.307675   -0.903652
      7          1           0       -0.874532    0.000000    1.242055
      8          1           0        0.874532   -0.000000    1.242055
      9          1           0       -0.881453   -1.307675   -0.903652
     10          1           0       -0.000000   -2.164308    0.363087
     11          1           0        0.881453   -1.307675   -0.903652
 ---------------------------------------------------------------------

 SCF Done:  E(RPW91-PW91) =  -118.992406523     A.U. after   12 cycles

 Excitation energies and oscillator strengths:

 Excited State   1:      Singlet-B1     7.8723 eV  157.49 nm  f=0.0026  <S**2>=0.000
      13 -> 14         0.70652
 This state for optimization and/or second-order correction.
 Total Energy, E(TD-HF/TD-DFT) =  -118.703104985
 Copying the excited state density for this state as the 1-particle RhoCI density.

 Excited State   2:      Singlet-B2     8.2260 eV  150.72 nm  f=0.0409  <S**2>=0.000
      11 -> 14         0.70601

 Excited State   3:      Singlet-A1     8.2281 eV  150.68 nm  f=0.0051  <S**2>=0.000
      12 -> 14         0.70376

 Excited State   4:      Singlet-A2     8.6478 eV  143.37 nm  f=0.0000  <S**2>=0.000
      13 -> 15         0.70561

 Excited State   5:      Singlet-B1     8.8958 eV  139.37 nm  f=0.0608  <S**2>=0.000
      13 -> 16         0.70362

 Excited State   6:      Singlet-B2     8.9702 eV  138.22 nm  f=0.0200  <S**2>=0.000
      12 -> 15         0.70598

 Excited State   7:      Singlet-A1     9.0851 eV  136.47 nm  f=0.0030  <S**2>=0.000
      11 -> 15         0.70146

 Excited State   8:      Singlet-A1     9.1716 eV  135.18 nm  f=0.0509  <S**2>=0.000
      12 -> 16         0.66072
      13 -> 17        -0.24828

 Excited State   9:      Singlet-B2     9.2062 eV  134.67 nm  f=0.0093  <S**2>=0.000
      11 -> 16         0.70501

 Excited State  10:      Singlet-A2     9.2459 eV  134.10 nm  f=0.0000  <S**2>=0.000
      10 -> 14         0.70502

 Excited State  11:      Singlet-A1     9.5495 eV  129.83 nm  f=0.1761  <S**2>=0.000
      12 -> 16         0.24094
      13 -> 17         0.65395

 Excited State  12:      Singlet-A2     9.7057 eV  127.74 nm  f=0.0000  <S**2>=0.000
      11 -> 17         0.70624

 Excited State  13:      Singlet-B1     9.7127 eV  127.65 nm  f=0.0654  <S**2>=0.000
      12 -> 17         0.68280
      13 -> 18         0.13683

 Excited State  14:      Singlet-B2     9.7997 eV  126.52 nm  f=0.0118  <S**2>=0.000
       9 -> 14         0.69991

 Excited State  15:      Singlet-B1     9.8239 eV  126.21 nm  f=0.0046  <S**2>=0.000
      12 -> 17        -0.12957
      13 -> 18         0.69144

 Excited State  16:      Singlet-B1    10.0762 eV  123.05 nm  f=0.0767  <S**2>=0.000
      10 -> 15         0.69716

 Excited State  17:      Singlet-A1    10.1895 eV  121.68 nm  f=0.0006  <S**2>=0.000
      12 -> 18         0.69973

 Excited State  18:      Singlet-A2    10.2112 eV  121.42 nm  f=0.0000  <S**2>=0.000
      10 -> 16         0.70410

 Excited State  19:      Singlet-B2    10.2751 eV  120.67 nm  f=0.1498  <S**2>=0.000
      11 -> 18         0.69156

 Excited State  20:      Singlet-A1    10.4776 eV  118.33 nm  f=0.0042  <S**2>=0.000
       8 -> 14        -0.14370
       9 -> 15         0.23499
      12 -> 20        -0.10570
      13 -> 19         0.63368

 Excited State  21:      Singlet-A2    10.6088 eV  116.87 nm  f=0.0000  <S**2>=0.000
      11 -> 19         0.16025
      13 -> 21         0.68595

 Excited State  22:      Singlet-A1    10.6130 eV  116.82 nm  f=0.0634  <S**2>=0.000
       9 -> 15         0.65517
      13 -> 19        -0.23443

 Excited State  23:      Singlet-B1    10.6455 eV  116.47 nm  f=0.0000  <S**2>=0.000
      12 -> 19        -0.46774
      13 -> 20         0.52586

 Excited State  24:      Singlet-B1    10.6572 eV  116.34 nm  f=0.0079  <S**2>=0.000
      12 -> 19         0.52620
      13 -> 20         0.46281

 Excited State  25:      Singlet-A2    10.6793 eV  116.10 nm  f=0.0000  <S**2>=0.000
      11 -> 19         0.68618
      13 -> 21        -0.15675

 Excited State  26:      Singlet-B2    10.7208 eV  115.65 nm  f=0.0048  <S**2>=0.000
       9 -> 16         0.58163
      10 -> 17        -0.39541

 Excited State  27:      Singlet-A1    10.7806 eV  115.01 nm  f=0.0426  <S**2>=0.000
       8 -> 14         0.67175
      11 -> 21         0.14115
      13 -> 19         0.10879

 Excited State  28:      Singlet-B2    10.7998 eV  114.80 nm  f=0.0015  <S**2>=0.000
       9 -> 16         0.33370
      10 -> 17         0.50811
      12 -> 21        -0.30405
      13 -> 22         0.17398

 Excited State  29:      Singlet-B2    10.9407 eV  113.32 nm  f=0.0073  <S**2>=0.000
       9 -> 16         0.14542
      10 -> 17         0.12759
      11 -> 20         0.21701
      12 -> 21         0.54436
      13 -> 22         0.33214

 Excited State  30:      Singlet-B2    10.9890 eV  112.83 nm  f=0.0602  <S**2>=0.000
      11 -> 20         0.64843
      12 -> 21        -0.13561
      13 -> 22        -0.22683

 Excited State  31:      Singlet-A1    11.0472 eV  112.23 nm  f=0.0036  <S**2>=0.000
      11 -> 21        -0.13211
      12 -> 20         0.67547
      13 -> 19         0.10106

 Excited State  32:      Singlet-A1    11.0924 eV  111.77 nm  f=0.0537  <S**2>=0.000
       8 -> 14        -0.12596
      11 -> 21         0.66590
      12 -> 20         0.13397

 Excited State  33:      Singlet-B2    11.2070 eV  110.63 nm  f=0.2005  <S**2>=0.000
       8 -> 15         0.11624
       9 -> 16        -0.14184
      10 -> 17        -0.21588
      10 -> 19        -0.10175
      11 -> 20         0.14015
      12 -> 21        -0.27325
      13 -> 22         0.52657
      13 -> 23        -0.12745

 Excited State  34:      Singlet-A2    11.2121 eV  110.58 nm  f=0.0000  <S**2>=0.000
       9 -> 17         0.48064
      10 -> 18         0.50948

 Excited State  35:      Singlet-A2    11.2349 eV  110.36 nm  f=0.0000  <S**2>=0.000
       9 -> 17         0.47576
      10 -> 18        -0.38860
      12 -> 22         0.34521

 Excited State  36:      Singlet-B1    11.3121 eV  109.60 nm  f=0.1091  <S**2>=0.000
       7 -> 14         0.68580

 Excited State  37:      Singlet-A2    11.3817 eV  108.93 nm  f=0.0000  <S**2>=0.000
       9 -> 17        -0.19618
      10 -> 18         0.26306
      12 -> 22         0.59725
      12 -> 23        -0.15715

 Excited State  38:      Singlet-B1    11.3899 eV  108.85 nm  f=0.0101  <S**2>=0.000
      11 -> 22         0.69662

 Excited State  39:      Singlet-B2    11.4775 eV  108.02 nm  f=0.0186  <S**2>=0.000
       8 -> 15         0.18369
      13 -> 23         0.66183

 Excited State  40:      Singlet-B2    11.6056 eV  106.83 nm  f=0.1362  <S**2>=0.000
       8 -> 15         0.63080
       9 -> 18         0.21680
      13 -> 23        -0.17006

 Excited State  41:      Singlet-B1    11.6235 eV  106.67 nm  f=0.0131  <S**2>=0.000
      13 -> 24         0.69678

 Excited State  42:      Singlet-A2    11.7162 eV  105.82 nm  f=0.0000  <S**2>=0.000
      12 -> 23         0.64320
      13 -> 25        -0.24636

 Excited State  43:      Singlet-A1    11.7307 eV  105.69 nm  f=0.0249  <S**2>=0.000
       8 -> 16         0.69394

 Excited State  44:      Singlet-B1    11.7413 eV  105.60 nm  f=0.0167  <S**2>=0.000
      11 -> 23         0.70221

 Excited State  45:      Singlet-B2    11.7564 eV  105.46 nm  f=0.0486  <S**2>=0.000
       8 -> 15        -0.10803
       9 -> 18         0.55653
      10 -> 19        -0.40472

 Excited State  46:      Singlet-B2    11.8537 eV  104.60 nm  f=0.0118  <S**2>=0.000
       8 -> 15        -0.16760
       9 -> 18         0.33205
       9 -> 20        -0.14218
      10 -> 19         0.53107
      11 -> 24        -0.13595

 Excited State  47:      Singlet-A2    11.8645 eV  104.50 nm  f=0.0000  <S**2>=0.000
      10 -> 20         0.14786
      12 -> 23         0.20957
      13 -> 25         0.64831

 Excited State  48:      Singlet-A2    11.9692 eV  103.59 nm  f=0.0000  <S**2>=0.000
      10 -> 20         0.68273
      13 -> 25        -0.11323

 Excited State  49:      Singlet-A1    11.9906 eV  103.40 nm  f=0.0072  <S**2>=0.000
      11 -> 25        -0.22696
      12 -> 24         0.65111

 Excited State  50:      Singlet-B1    12.0165 eV  103.18 nm  f=0.0367  <S**2>=0.000
      10 -> 21         0.69200

 Excited State  51:      Singlet-A2    12.0421 eV  102.96 nm  f=0.0000  <S**2>=0.000
       7 -> 15         0.69483

 Excited State  52:      Singlet-B2    12.0866 eV  102.58 nm  f=0.0066  <S**2>=0.000
       9 -> 18         0.10533
      11 -> 24         0.66501
      12 -> 25        -0.13794

 Excited State  53:      Singlet-B2    12.2058 eV  101.58 nm  f=0.0710  <S**2>=0.000
      11 -> 24         0.13861
      12 -> 25         0.67731

 Excited State  54:      Singlet-A2    12.2147 eV  101.50 nm  f=0.0000  <S**2>=0.000
       9 -> 19         0.69500

 Excited State  55:      Singlet-B1    12.2258 eV  101.41 nm  f=0.0017  <S**2>=0.000
       7 -> 16        -0.36870
       8 -> 17         0.59937

 Excited State  56:      Singlet-B1    12.2552 eV  101.17 nm  f=0.0000  <S**2>=0.000
       7 -> 16         0.59274
       8 -> 17         0.35786
      10 -> 21        -0.11455

 Excited State  57:      Singlet-A1    12.2997 eV  100.80 nm  f=0.0000  <S**2>=0.000
       8 -> 18         0.14300
       9 -> 21         0.15641
      10 -> 22        -0.13182
      11 -> 25         0.61834
      12 -> 24         0.15987
      13 -> 26         0.15045

 Excited State  58:      Singlet-A1    12.4560 eV   99.54 nm  f=0.0015  <S**2>=0.000
       7 -> 17         0.14517
       9 -> 21        -0.40874
      10 -> 22        -0.31383
      13 -> 26         0.45052

 Excited State  59:      Singlet-A1    12.5121 eV   99.09 nm  f=0.0415  <S**2>=0.000
       9 -> 21         0.22856
      10 -> 22         0.41112
      10 -> 23        -0.22762
      13 -> 26         0.44120

 Excited State  60:      Singlet-A2    12.5511 eV   98.78 nm  f=0.0000  <S**2>=0.000
      13 -> 27         0.68871

 Excited State  61:      Singlet-B2    12.5933 eV   98.45 nm  f=0.0028  <S**2>=0.000
       9 -> 20         0.65327
      11 -> 28         0.14652
      12 -> 27        -0.16772

 Excited State  62:      Singlet-A1    12.6138 eV   98.29 nm  f=0.0284  <S**2>=0.000
       7 -> 17         0.32767
       8 -> 18        -0.35865
       9 -> 21         0.39410
      10 -> 22        -0.30005

 Excited State  63:      Singlet-B1    12.6966 eV   97.65 nm  f=0.0038  <S**2>=0.000
      12 -> 26         0.62323
      13 -> 28        -0.33165

 Excited State  64:      Singlet-A1    12.7685 eV   97.10 nm  f=0.0004  <S**2>=0.000
       7 -> 17         0.40211
       8 -> 18         0.48354
      10 -> 23        -0.22726
      11 -> 27        -0.10776
      12 -> 28         0.10871
      13 -> 29         0.11037

 Excited State  65:      Singlet-A2    12.7907 eV   96.93 nm  f=0.0000  <S**2>=0.000
      11 -> 26         0.69626

 Excited State  66:      Singlet-B1    12.8574 eV   96.43 nm  f=0.0270  <S**2>=0.000
       7 -> 18         0.13961
       9 -> 22        -0.20517
       9 -> 23        -0.10589
      12 -> 26         0.28427
      12 -> 29        -0.18943
      13 -> 28         0.53680

 Excited State  67:      Singlet-A1    12.9023 eV   96.09 nm  f=0.0045  <S**2>=0.000
      10 -> 23        -0.12511
      11 -> 27         0.65979
      13 -> 29        -0.12083

 Excited State  68:      Singlet-B2    12.9053 eV   96.07 nm  f=0.0551  <S**2>=0.000
      11 -> 28         0.24127
      12 -> 27         0.64308

 Excited State  69:      Singlet-A1    12.9462 eV   95.77 nm  f=0.0194  <S**2>=0.000
       7 -> 17         0.23783
       8 -> 18         0.11885
      10 -> 22         0.11953
      10 -> 23         0.53990
      13 -> 29        -0.29820

 Excited State  70:      Singlet-B1    12.9471 eV   95.76 nm  f=0.0302  <S**2>=0.000
       7 -> 18         0.12097
       9 -> 22         0.65686
      13 -> 28         0.10572

 Excited State  71:      Singlet-A2    12.9915 eV   95.43 nm  f=0.0000  <S**2>=0.000
      10 -> 24         0.70533

 Excited State  72:      Singlet-A1    13.0942 eV   94.69 nm  f=0.0360  <S**2>=0.000
       8 -> 20        -0.10551
      11 -> 27        -0.13096
      12 -> 28         0.60652
      13 -> 29        -0.26277

 Excited State  73:      Singlet-B1    13.1877 eV   94.02 nm  f=0.0006  <S**2>=0.000
       7 -> 18        -0.45614
       8 -> 19         0.49135
      10 -> 25        -0.21083

 Excited State  74:      Singlet-B1    13.2144 eV   93.83 nm  f=0.0034  <S**2>=0.000
       7 -> 18         0.18810
       8 -> 19         0.40697
      10 -> 25         0.54001

 Excited State  75:      Singlet-A1    13.2312 eV   93.71 nm  f=0.0750  <S**2>=0.000
       8 -> 20         0.19241
       9 -> 25        -0.13323
      10 -> 23         0.19588
      11 -> 27         0.10174
      12 -> 28         0.31960
      13 -> 26         0.11606
      13 -> 29         0.49565

 Excited State  76:      Singlet-B1    13.2413 eV   93.63 nm  f=0.0065  <S**2>=0.000
       7 -> 18         0.22580
       9 -> 23         0.58245
      10 -> 25        -0.22028
      12 -> 29        -0.22058

 Excited State  77:      Singlet-A2    13.2497 eV   93.57 nm  f=0.0000  <S**2>=0.000
      11 -> 29         0.70313

 Excited State  78:      Singlet-B2    13.2581 eV   93.52 nm  f=0.0558  <S**2>=0.000
       8 -> 21         0.13873
       9 -> 20        -0.13015
       9 -> 24        -0.12292
      11 -> 28         0.60568
      11 -> 31        -0.11444
      12 -> 27        -0.15882
      12 -> 30        -0.14977

 Excited State  79:      Singlet-B1    13.3046 eV   93.19 nm  f=0.0244  <S**2>=0.000
       7 -> 18         0.31261
       8 -> 19         0.15967
      10 -> 25        -0.18406
      12 -> 29         0.57414

 Excited State  80:      Singlet-A1    13.4617 eV   92.10 nm  f=0.0313  <S**2>=0.000
       7 -> 17         0.17735
       7 -> 19        -0.12539
       8 -> 18        -0.14019
       8 -> 20         0.53518
       9 -> 21        -0.13783
       9 -> 25         0.16391
      10 -> 22         0.10723
      10 -> 23        -0.11133
      11 -> 30        -0.14251
      13 -> 26        -0.11033

 Excited State  81:      Singlet-B2    13.5541 eV   91.47 nm  f=0.0447  <S**2>=0.000
       8 -> 21        -0.36220
       9 -> 24         0.56519
      11 -> 28         0.11033
      12 -> 30        -0.10922

 Excited State  82:      Singlet-B2    13.6505 eV   90.83 nm  f=0.0495  <S**2>=0.000
       8 -> 21         0.52411
       9 -> 24         0.35677
      10 -> 26         0.27623

 Excited State  83:      Singlet-B1    13.6698 eV   90.70 nm  f=0.1212  <S**2>=0.000
       7 -> 18         0.17178
       7 -> 20         0.19885
       8 -> 19         0.14835
       9 -> 23        -0.28346
      10 -> 25        -0.19215
      10 -> 27         0.43008
      12 -> 29        -0.22202
      13 -> 28        -0.16464

 Excited State  84:      Singlet-A1    13.7695 eV   90.04 nm  f=0.0021  <S**2>=0.000
       7 -> 19         0.33621
       9 -> 25         0.59458

 Excited State  85:      Singlet-A2    13.7837 eV   89.95 nm  f=0.0000  <S**2>=0.000
      13 -> 30         0.69947

 Excited State  86:      Singlet-A1    13.8840 eV   89.30 nm  f=0.1415  <S**2>=0.000
       6 -> 14        -0.21128
       7 -> 17        -0.12990
       7 -> 19         0.45253
       8 -> 20         0.28666
       9 -> 21         0.11079
       9 -> 25        -0.18502
      10 -> 22        -0.16630
      11 -> 30        -0.11171

 Excited State  87:      Singlet-A2    13.8954 eV   89.23 nm  f=0.0000  <S**2>=0.000
       8 -> 22         0.69659

 Excited State  88:      Singlet-B2    13.9166 eV   89.09 nm  f=0.0874  <S**2>=0.000
       8 -> 21        -0.20846
       9 -> 24        -0.12508
      10 -> 26         0.62609

 Excited State  89:      Singlet-A2    13.9957 eV   88.59 nm  f=0.0000  <S**2>=0.000
       7 -> 21         0.69919

 Excited State  90:      Singlet-B1    14.0098 eV   88.50 nm  f=0.0095  <S**2>=0.000
       7 -> 20         0.60120
      10 -> 27        -0.35155

 Excited State  91:      Singlet-A1    14.0168 eV   88.45 nm  f=0.0211  <S**2>=0.000
       6 -> 16        -0.17534
       7 -> 17         0.23282
       7 -> 19         0.32570
       8 -> 18        -0.17816
       8 -> 20        -0.20473
       9 -> 21        -0.17433
       9 -> 25        -0.21394
       9 -> 27         0.11851
      10 -> 22         0.15449
      11 -> 25         0.14140
      11 -> 30        -0.13566
      12 -> 24         0.12190
      13 -> 26        -0.12069

 Excited State  92:      Singlet-A2    14.1393 eV   87.69 nm  f=0.0000  <S**2>=0.000
       8 -> 23         0.20232
       9 -> 26        -0.24931
      10 -> 28         0.62291

 Excited State  93:      Singlet-B2    14.1722 eV   87.48 nm  f=0.0470  <S**2>=0.000
       7 -> 22        -0.14409
       7 -> 23        -0.10214
      10 -> 29        -0.13713
      11 -> 31        -0.22805
      12 -> 30         0.60885

 Excited State  94:      Singlet-B1    14.2133 eV   87.23 nm  f=0.0562  <S**2>=0.000
      13 -> 31         0.69862

 Excited State  95:      Singlet-A1    14.2602 eV   86.94 nm  f=0.0893  <S**2>=0.000
       6 -> 14         0.25767
       7 -> 19         0.11442
       8 -> 24         0.25143
       9 -> 25        -0.10395
       9 -> 27        -0.16554
      11 -> 30         0.53855

 Excited State  96:      Singlet-A2    14.2846 eV   86.80 nm  f=0.0000  <S**2>=0.000
       8 -> 23         0.56452
       9 -> 26         0.42178

 Excited State  97:      Singlet-A1    14.3521 eV   86.39 nm  f=0.0996  <S**2>=0.000
       6 -> 14         0.56417
       8 -> 24        -0.15075
       9 -> 27         0.28350
      11 -> 30        -0.13447

 Excited State  98:      Singlet-B2    14.3790 eV   86.23 nm  f=0.0674  <S**2>=0.000
      10 -> 29         0.62815
      11 -> 31        -0.24588

 Excited State  99:      Singlet-B1    14.3842 eV   86.19 nm  f=0.6318  <S**2>=0.000
       7 -> 18        -0.17301
       7 -> 20         0.29512
       7 -> 24        -0.14304
       8 -> 19        -0.13224
       9 -> 23         0.19643
      10 -> 25         0.13745
      10 -> 27         0.39905
      12 -> 29         0.12232
      12 -> 36        -0.11054
      13 -> 28         0.17238

 Excited State 100:      Singlet-A2    14.4219 eV   85.97 nm  f=0.0000  <S**2>=0.000
       8 -> 23        -0.35368
       9 -> 26         0.49187
       9 -> 29        -0.17482
      10 -> 28         0.27993

 Excited State 101:      Singlet-A1    14.4859 eV   85.59 nm  f=0.0002  <S**2>=0.000
       6 -> 14        -0.12445
       8 -> 24         0.42750
       9 -> 27         0.47292
      12 -> 31         0.24240

 Excited State 102:      Singlet-B2    14.5190 eV   85.39 nm  f=0.0608  <S**2>=0.000
       7 -> 22         0.61400
       8 -> 25        -0.23133
       9 -> 28         0.10362
      10 -> 29        -0.13666
      11 -> 31        -0.14147

 Excited State 103:      Singlet-B2    14.6308 eV   84.74 nm  f=0.0011  <S**2>=0.000
       7 -> 23         0.12428
       8 -> 25         0.19478
       9 -> 28         0.66214

 Excited State 104:      Singlet-A1    14.6502 eV   84.63 nm  f=0.0508  <S**2>=0.000
       8 -> 24        -0.30199
      12 -> 31         0.61203

 Excited State 105:      Singlet-B2    14.8200 eV   83.66 nm  f=0.0038  <S**2>=0.000
       6 -> 15         0.20962
       7 -> 22         0.13919
       7 -> 23        -0.42393
       8 -> 25         0.42831
      11 -> 31         0.18956

 Excited State 106:      Singlet-A2    14.8414 eV   83.54 nm  f=0.0000  <S**2>=0.000
       7 -> 25         0.10805
       9 -> 29         0.67349

 Excited State 107:      Singlet-B2    14.9263 eV   83.06 nm  f=0.0013  <S**2>=0.000
       6 -> 15         0.29387
       7 -> 22         0.10263
       7 -> 23         0.46674
       8 -> 25         0.33555
       9 -> 28        -0.16665
      10 -> 29        -0.13002

 Excited State 108:      Singlet-B2    14.9895 eV   82.71 nm  f=0.4921  <S**2>=0.000
       6 -> 15         0.37485
       7 -> 23         0.10762
       8 -> 25        -0.28114
       9 -> 28         0.12136
      10 -> 29         0.11837
      11 -> 31         0.42258
      12 -> 30         0.11223
      13 -> 34        -0.12009

 Excited State 109:      Singlet-B1    15.0242 eV   82.52 nm  f=0.0343  <S**2>=0.000
       7 -> 24         0.65673
      10 -> 30         0.21219

 Excited State 110:      Singlet-A1    15.0626 eV   82.31 nm  f=0.4000  <S**2>=0.000
       6 -> 14         0.16829
       7 -> 26         0.12685
       8 -> 24         0.33235
       9 -> 27        -0.32106
      11 -> 30        -0.30003
      12 -> 31         0.16381
      12 -> 32         0.14794
      12 -> 35        -0.10647
      13 -> 36        -0.10827

 Excited State 111:      Singlet-B1    15.1805 eV   81.67 nm  f=0.0107  <S**2>=0.000
       7 -> 24        -0.19409
      10 -> 30         0.66770

 Excited State 112:      Singlet-B2    15.2106 eV   81.51 nm  f=0.0112  <S**2>=0.000
       6 -> 15         0.42327
       7 -> 22        -0.13097
       7 -> 23        -0.13579
       8 -> 27        -0.22786
      11 -> 31        -0.24253
      12 -> 30        -0.13464
      12 -> 33         0.11234
      13 -> 34         0.31167

 Excited State 113:      Singlet-A2    15.2648 eV   81.22 nm  f=0.0000  <S**2>=0.000
       7 -> 25         0.67583
      13 -> 33         0.13457

 Excited State 114:      Singlet-B1    15.3187 eV   80.94 nm  f=0.0584  <S**2>=0.000
       8 -> 26         0.66649
      13 -> 32        -0.16999

 Excited State 115:      Singlet-B2    15.3872 eV   80.58 nm  f=0.0072  <S**2>=0.000
       8 -> 27         0.63663
      13 -> 34         0.27287

 Excited State 116:      Singlet-A1    15.3938 eV   80.54 nm  f=0.0038  <S**2>=0.000
       6 -> 16         0.62471
      11 -> 33         0.10946
      12 -> 32         0.18993
      12 -> 35         0.13511

 Excited State 117:      Singlet-B1    15.4876 eV   80.05 nm  f=0.0196  <S**2>=0.000
       8 -> 26         0.15093
      13 -> 32         0.66370

 The electronic state is 1-A1.
 Alpha  occ. eigenvalues --   -9.90413  -9.89594  -9.89591  -0.70500  -0.60978
 Alpha  occ. eigenvalues --   -0.52075  -0.41105  -0.39233  -0.35613  -0.33733
 Alpha  occ. eigenvalues --   -0.29965  -0.29753  -0.28641
 Alpha virt. eigenvalues --    0.00015   0.02994   0.03676   0.05561   0.07284
 Alpha virt. eigenvalues --    0.09177   0.10201   0.10225   0.11763   0.13054
 Alpha virt. eigenvalues --    0.13940   0.14766   0.16875   0.17208   0.17942

 Mulliken charges:
               1
     1  C    0.403297
     2  C   -0.558747
     3  C    0.403297
     4  H   -0.044342
     5  H   -0.003588
     6  H   -0.003588
     7  H   -0.072406
     8  H   -0.072406
     9  H   -0.003588
    10  H   -0.044342
    11  H   -0.003588
 Sum of Mulliken charges =  -0.00000

 Dipole moment (field-independent basis, Debye):
    X=             -0.0000    Y=             -0.0000    Z=              0.0936  Tot=              0.0936
 Quadrupole moment (field-independent basis, Debye-Ang):
   XX=            -21.6681   YY=            -22.5152   ZZ=            -22.1590
   XY=             -0.0000   XZ=              0.0000   YZ=             -0.0000

 Normal termination of Gaussian 16 at Mon Mar 21 04:17:38 2022.
