 Gaussian 16, Revision C.01,
 Gaussian 16:  EM64L-G16RevC.01  3-Jul-2019

 ----------------------------------------------------------------------
 #P TD(Nstates=10000) pw91pw91/Gen SCF(maxcycles=100) Int(Grid=ultrafin
 e)
 ----------------------------------------------------------------------

 ---------------------
 xGDB7_00001_tier4.com
 ---------------------
 Symbolic Z-matrix:
 Charge =  0 Multiplicity = 1

                         Standard orientation:
 ---------------------------------------------------------------------
 Center     Atomic      Atomic             Coordinates (Angstroms)
 Number     Number       Type             X           Y           Z
 ---------------------------------------------------------------------
      1          7           0       -0.000002   -0.000000   -0.110463
      2          1           0       -0.147185    0.930214    0.257758
      3          1           0       -0.731998   -0.592574    0.257757
      4          1           0        0.879196   -0.337638    0.257728
 ---------------------------------------------------------------------

 SCF Done:  E(RPW91-PW91) =  -56.4961847592     A.U. after   10 cycles

 Excitation energies and oscillator strengths:

 Excited State   1:      Singlet-A      6.3460 eV  195.38 nm  f=0.0746  <S**2>=0.000
       5 ->  6         0.70652
 This state for optimization and/or second-order correction.
 Total Energy, E(TD-HF/TD-DFT) =  -56.2629753814
 Copying the excited state density for this state as the 1-particle RhoCI density.

 Excited State   2:      Singlet-A      8.4606 eV  146.54 nm  f=0.0154  <S**2>=0.000
       5 ->  7         0.70435

 Excited State   3:      Singlet-A      8.4607 eV  146.54 nm  f=0.0154  <S**2>=0.000
       5 ->  8         0.70435

 Excited State   4:      Singlet-A     10.0819 eV  122.98 nm  f=0.0002  <S**2>=0.000
       5 ->  9         0.70641

 Excited State   5:      Singlet-A     10.0820 eV  122.98 nm  f=0.0002  <S**2>=0.000
       5 -> 10         0.70641

 Excited State   6:      Singlet-A     11.0603 eV  112.10 nm  f=0.0463  <S**2>=0.000
       3 ->  7        -0.10339
       4 ->  8        -0.10339
       5 -> 11         0.66901
       5 -> 14         0.16311

 Excited State   7:      Singlet-A     11.6362 eV  106.55 nm  f=0.0350  <S**2>=0.000
       4 ->  6         0.63765
       5 -> 13        -0.30243

 Excited State   8:      Singlet-A     11.6363 eV  106.55 nm  f=0.0349  <S**2>=0.000
       3 ->  6         0.63760
       5 -> 12        -0.30252

 Excited State   9:      Singlet-A     11.9077 eV  104.12 nm  f=0.2124  <S**2>=0.000
       3 ->  6         0.29441
       5 -> 12         0.62803

 Excited State  10:      Singlet-A     11.9077 eV  104.12 nm  f=0.2123  <S**2>=0.000
       4 ->  6         0.29432
       5 -> 13         0.62807

 Excited State  11:      Singlet-A     12.0888 eV  102.56 nm  f=0.1753  <S**2>=0.000
       3 ->  7         0.12075
       4 ->  8         0.12075
       5 -> 11        -0.12365
       5 -> 14         0.67019

 Excited State  12:      Singlet-A     13.5869 eV   91.25 nm  f=0.0000  <S**2>=0.000
       3 ->  7         0.14858
       3 ->  8        -0.47729
       4 ->  7         0.47750
       4 ->  8         0.14863

 Excited State  13:      Singlet-A     13.7748 eV   90.01 nm  f=0.0772  <S**2>=0.000
       3 ->  7        -0.38689
       3 ->  8        -0.30455
       4 ->  7        -0.30446
       4 ->  8         0.38693

 Excited State  14:      Singlet-A     13.7748 eV   90.01 nm  f=0.0772  <S**2>=0.000
       3 ->  7        -0.30453
       3 ->  8         0.38701
       4 ->  7         0.38681
       4 ->  8         0.30448

 Excited State  15:      Singlet-A     15.1305 eV   81.94 nm  f=0.0000  <S**2>=0.000
       3 ->  7         0.28453
       4 ->  8         0.28452
       5 -> 11         0.11883
       5 -> 15         0.52496

 Excited State  16:      Singlet-A     15.2813 eV   81.13 nm  f=0.0000  <S**2>=0.000
       3 ->  9         0.13107
       4 -> 10        -0.13108
       5 -> 16         0.68235

 Excited State  17:      Singlet-A     15.3298 eV   80.88 nm  f=0.0000  <S**2>=0.000
       3 ->  9        -0.48240
       4 -> 10         0.48245
       5 -> 16         0.18542

 Excited State  18:      Singlet-A     15.4040 eV   80.49 nm  f=0.0627  <S**2>=0.000
       3 ->  7        -0.29222
       3 -> 10        -0.16445
       4 ->  8        -0.29222
       4 ->  9        -0.16450
       5 -> 11        -0.10505
       5 -> 15         0.46270

 Excited State  19:      Singlet-A     15.4999 eV   79.99 nm  f=0.0070  <S**2>=0.000
       3 ->  7        -0.14331
       3 -> 10         0.46516
       4 ->  8        -0.14329
       4 ->  9         0.46530

 Excited State  20:      Singlet-A     15.6594 eV   79.18 nm  f=0.0389  <S**2>=0.000
       3 -> 10        -0.29374
       4 ->  9         0.29365
       4 -> 11         0.51917
       5 -> 17        -0.21307

 Excited State  21:      Singlet-A     15.6595 eV   79.18 nm  f=0.0389  <S**2>=0.000
       3 ->  9        -0.29372
       3 -> 11         0.51914
       4 -> 10        -0.29369
       5 -> 18         0.21311

 Excited State  22:      Singlet-A     15.8958 eV   78.00 nm  f=0.1731  <S**2>=0.000
       3 -> 10         0.25562
       4 ->  9        -0.25554
       4 -> 11         0.46290
       5 -> 17         0.37083

 Excited State  23:      Singlet-A     15.8959 eV   78.00 nm  f=0.1731  <S**2>=0.000
       3 ->  9         0.25558
       3 -> 11         0.46295
       4 -> 10         0.25555
       5 -> 18        -0.37080

 Excited State  24:      Singlet-A     16.2644 eV   76.23 nm  f=0.1318  <S**2>=0.000
       3 -> 10        -0.26324
       4 ->  9         0.26316
       4 -> 14         0.17491
       5 -> 17         0.53500

 Excited State  25:      Singlet-A     16.2645 eV   76.23 nm  f=0.1318  <S**2>=0.000
       3 ->  9         0.26321
       3 -> 14        -0.17489
       4 -> 10         0.26318
       5 -> 18         0.53500

 Excited State  26:      Singlet-A     16.9964 eV   72.95 nm  f=0.0022  <S**2>=0.000
       3 -> 12         0.45539
       3 -> 13         0.14637
       4 -> 12         0.15268
       4 -> 13        -0.45489
       4 -> 14        -0.19787

 Excited State  27:      Singlet-A     16.9964 eV   72.95 nm  f=0.0022  <S**2>=0.000
       3 -> 12        -0.14853
       3 -> 13         0.44388
       3 -> 14        -0.19786
       4 -> 12         0.46613
       4 -> 13         0.15056

 Excited State  28:      Singlet-A     16.9984 eV   72.94 nm  f=0.0000  <S**2>=0.000
       3 -> 13         0.50893
       4 -> 12        -0.48672

 Excited State  29:      Singlet-A     17.2427 eV   71.91 nm  f=0.1084  <S**2>=0.000
       3 -> 12         0.12229
       4 -> 13        -0.12225
       4 -> 14         0.64352
       5 -> 20        -0.10543

 Excited State  30:      Singlet-A     17.2427 eV   71.91 nm  f=0.1083  <S**2>=0.000
       3 -> 13         0.12234
       3 -> 14         0.64352
       4 -> 12         0.12223
       5 -> 19        -0.10543

 Excited State  31:      Singlet-A     17.4171 eV   71.19 nm  f=0.2737  <S**2>=0.000
       3 -> 12         0.48690
       4 -> 13         0.48686
       5 -> 21         0.10761

 Excited State  32:      Singlet-A     18.6294 eV   66.55 nm  f=0.0913  <S**2>=0.000
       5 -> 19         0.67945
       5 -> 20        -0.10557

 Excited State  33:      Singlet-A     18.6294 eV   66.55 nm  f=0.0913  <S**2>=0.000
       5 -> 19         0.10557
       5 -> 20         0.67945

 Excited State  34:      Singlet-A     20.5636 eV   60.29 nm  f=0.0000  <S**2>=0.000
       3 -> 15         0.24390
       4 -> 16         0.66217

 Excited State  35:      Singlet-A     20.5636 eV   60.29 nm  f=0.0000  <S**2>=0.000
       3 -> 16         0.66199
       4 -> 15        -0.24437

 Excited State  36:      Singlet-A     20.6233 eV   60.12 nm  f=0.0463  <S**2>=0.000
       3 -> 16         0.24577
       4 -> 15         0.65189

 Excited State  37:      Singlet-A     20.6233 eV   60.12 nm  f=0.0463  <S**2>=0.000
       3 -> 15         0.65207
       4 -> 16        -0.24529

 Excited State  38:      Singlet-A     20.8489 eV   59.47 nm  f=0.1873  <S**2>=0.000
       2 ->  6         0.27918
       3 -> 18        -0.19598
       4 -> 17         0.19611
       5 -> 21         0.57517

 Excited State  39:      Singlet-A     20.8910 eV   59.35 nm  f=0.0470  <S**2>=0.000
       3 -> 17         0.16453
       4 -> 18        -0.16455
       5 -> 22         0.66276

 Excited State  40:      Singlet-A     20.8910 eV   59.35 nm  f=0.0470  <S**2>=0.000
       3 -> 18        -0.16461
       4 -> 17        -0.16447
       5 -> 23         0.66276

 Excited State  41:      Singlet-A     21.2374 eV   58.38 nm  f=0.0000  <S**2>=0.000
       3 -> 17         0.48417
       3 -> 18        -0.12471
       4 -> 17         0.12472
       4 -> 18         0.48419

 Excited State  42:      Singlet-A     21.4000 eV   57.94 nm  f=0.0854  <S**2>=0.000
       2 ->  6         0.55474
       3 -> 18        -0.13862
       3 -> 19         0.10087
       4 -> 17         0.13864
       4 -> 20         0.10088
       5 -> 21        -0.34203

 Excited State  43:      Singlet-A     21.8240 eV   56.81 nm  f=0.2177  <S**2>=0.000
       3 -> 17         0.43721
       4 -> 18        -0.43718
       5 -> 22        -0.19011

 Excited State  44:      Singlet-A     21.8240 eV   56.81 nm  f=0.2177  <S**2>=0.000
       3 -> 18         0.43720
       4 -> 17         0.43719
       5 -> 23         0.19012

 Excited State  45:      Singlet-A     23.5149 eV   52.73 nm  f=0.0449  <S**2>=0.000
       2 ->  7         0.66540
       3 -> 20        -0.12884
       4 -> 19        -0.12888

 Excited State  46:      Singlet-A     23.5149 eV   52.73 nm  f=0.0449  <S**2>=0.000
       2 ->  8         0.66540
       3 -> 19        -0.12885
       4 -> 20         0.12888

 Excited State  47:      Singlet-A     23.5650 eV   52.61 nm  f=0.1421  <S**2>=0.000
       2 ->  6         0.26616
       2 -> 11         0.11023
       2 -> 15         0.10829
       3 -> 18         0.37114
       3 -> 22         0.13178
       4 -> 17        -0.37114
       4 -> 23         0.13176
       5 -> 21         0.13208
       5 -> 27         0.10015

 Excited State  48:      Singlet-A     23.8313 eV   52.03 nm  f=0.0000  <S**2>=0.000
       3 -> 20        -0.49770
       4 -> 19         0.49779

 Excited State  49:      Singlet-A     24.0715 eV   51.51 nm  f=0.0290  <S**2>=0.000
       2 ->  7         0.18246
       3 -> 19        -0.19612
       3 -> 20         0.41147
       4 -> 19         0.41137
       4 -> 20         0.19613

 Excited State  50:      Singlet-A     24.0715 eV   51.51 nm  f=0.0290  <S**2>=0.000
       2 ->  8        -0.18246
       3 -> 19        -0.41138
       3 -> 20        -0.19614
       4 -> 19        -0.19611
       4 -> 20         0.41145

 Excited State  51:      Singlet-A     24.3933 eV   50.83 nm  f=0.0671  <S**2>=0.000
       2 ->  6        -0.12837
       3 -> 19         0.46943
       4 -> 20         0.46937

 Excited State  52:      Singlet-A     25.1115 eV   49.37 nm  f=0.0028  <S**2>=0.000
       2 ->  9         0.70318

 Excited State  53:      Singlet-A     25.1116 eV   49.37 nm  f=0.0028  <S**2>=0.000
       2 -> 10         0.70318

 Excited State  54:      Singlet-A     25.4829 eV   48.65 nm  f=0.0206  <S**2>=0.000
       2 -> 11         0.67441
       3 -> 22        -0.12250
       4 -> 23        -0.12250

 Excited State  55:      Singlet-A     25.7709 eV   48.11 nm  f=0.0002  <S**2>=0.000
       3 -> 22        -0.16033
       4 -> 21         0.66611
       4 -> 23         0.16035

 Excited State  56:      Singlet-A     25.7709 eV   48.11 nm  f=0.0002  <S**2>=0.000
       3 -> 21         0.66611
       3 -> 23        -0.16032
       4 -> 22        -0.16035

 Excited State  57:      Singlet-A     26.1074 eV   47.49 nm  f=0.0000  <S**2>=0.000
       3 -> 23        -0.49937
       4 -> 22         0.49938

 Excited State  58:      Singlet-A     26.4365 eV   46.90 nm  f=0.0006  <S**2>=0.000
       2 -> 14        -0.34500
       5 -> 24         0.61393

 Excited State  59:      Singlet-A     26.6532 eV   46.52 nm  f=0.0165  <S**2>=0.000
       2 -> 12         0.69220

 Excited State  60:      Singlet-A     26.6532 eV   46.52 nm  f=0.0165  <S**2>=0.000
       2 -> 13         0.69220

 Excited State  61:      Singlet-A     26.7125 eV   46.41 nm  f=0.2493  <S**2>=0.000
       2 -> 14         0.35851
       2 -> 15        -0.10143
       3 -> 22         0.38008
       4 -> 23         0.38010
       5 -> 24         0.15759

 Excited State  62:      Singlet-A     27.1818 eV   45.61 nm  f=0.4077  <S**2>=0.000
       2 -> 13         0.13536
       3 -> 22        -0.42171
       3 -> 23        -0.11563
       4 -> 21        -0.20529
       4 -> 22        -0.11562
       4 -> 23         0.42169

 Excited State  63:      Singlet-A     27.1819 eV   45.61 nm  f=0.4077  <S**2>=0.000
       2 -> 12        -0.13535
       3 -> 21         0.20529
       3 -> 22        -0.11563
       3 -> 23         0.42172
       4 -> 22         0.42169
       4 -> 23         0.11562

 Excited State  64:      Singlet-A     27.3329 eV   45.36 nm  f=0.1309  <S**2>=0.000
       2 -> 11        -0.11970
       2 -> 14         0.48870
       3 -> 22        -0.25667
       4 -> 23        -0.25666
       5 -> 24         0.29811

 Excited State  65:      Singlet-A     30.1613 eV   41.11 nm  f=0.0000  <S**2>=0.000
       2 -> 16         0.70708

 Excited State  66:      Singlet-A     30.7752 eV   40.29 nm  f=0.0385  <S**2>=0.000
       2 -> 15         0.66616
       5 -> 27        -0.17255

 Excited State  67:      Singlet-A     30.8410 eV   40.20 nm  f=0.0030  <S**2>=0.000
       2 -> 17         0.15518
       5 -> 25         0.68114

 Excited State  68:      Singlet-A     30.8410 eV   40.20 nm  f=0.0030  <S**2>=0.000
       2 -> 18         0.15518
       5 -> 26         0.68114

 Excited State  69:      Singlet-A     31.3011 eV   39.61 nm  f=0.0010  <S**2>=0.000
       2 -> 17         0.64526
       4 -> 24         0.19711
       5 -> 25        -0.17667

 Excited State  70:      Singlet-A     31.3011 eV   39.61 nm  f=0.0010  <S**2>=0.000
       2 -> 18         0.64526
       3 -> 24        -0.19710
       5 -> 26        -0.17667

 Excited State  71:      Singlet-A     32.7088 eV   37.91 nm  f=0.1268  <S**2>=0.000
       2 -> 17        -0.20972
       2 -> 20        -0.19748
       4 -> 24         0.62699

 Excited State  72:      Singlet-A     32.7088 eV   37.91 nm  f=0.1268  <S**2>=0.000
       2 -> 18         0.20971
       2 -> 19        -0.19749
       3 -> 24         0.62699

 Excited State  73:      Singlet-A     33.6635 eV   36.83 nm  f=0.0016  <S**2>=0.000
       2 -> 19        -0.12016
       2 -> 20         0.66438
       4 -> 24         0.16897

 Excited State  74:      Singlet-A     33.6635 eV   36.83 nm  f=0.0016  <S**2>=0.000
       2 -> 19         0.66437
       2 -> 20         0.12016
       3 -> 24         0.16899

 Excited State  75:      Singlet-A     34.8331 eV   35.59 nm  f=0.0184  <S**2>=0.000
       2 -> 21        -0.10866
       3 -> 26        -0.25984
       4 -> 25         0.25984
       5 -> 27         0.57070

 Excited State  76:      Singlet-A     35.6228 eV   34.80 nm  f=0.0247  <S**2>=0.000
       2 -> 21         0.69518

 Excited State  77:      Singlet-A     36.0566 eV   34.39 nm  f=0.0145  <S**2>=0.000
       2 -> 22         0.70147

 Excited State  78:      Singlet-A     36.0566 eV   34.39 nm  f=0.0145  <S**2>=0.000
       2 -> 23         0.70147

 Excited State  79:      Singlet-A     36.1013 eV   34.34 nm  f=0.0000  <S**2>=0.000
       3 -> 25         0.48439
       3 -> 26        -0.12370
       4 -> 25         0.12371
       4 -> 26         0.48440

 Excited State  80:      Singlet-A     36.7562 eV   33.73 nm  f=0.0405  <S**2>=0.000
       3 -> 25         0.46892
       3 -> 26         0.10133
       4 -> 25         0.10134
       4 -> 26        -0.46890
       5 -> 29        -0.11837

 Excited State  81:      Singlet-A     36.7562 eV   33.73 nm  f=0.0405  <S**2>=0.000
       3 -> 25        -0.10134
       3 -> 26         0.46891
       4 -> 25         0.46891
       4 -> 26         0.10133
       5 -> 28         0.11837

 Excited State  82:      Singlet-A     38.5678 eV   32.15 nm  f=0.0133  <S**2>=0.000
       4 -> 27         0.69247
       5 -> 28        -0.13711

 Excited State  83:      Singlet-A     38.5679 eV   32.15 nm  f=0.0133  <S**2>=0.000
       3 -> 27         0.69247
       5 -> 29        -0.13713

 Excited State  84:      Singlet-A     38.9093 eV   31.86 nm  f=0.0126  <S**2>=0.000
       2 -> 24         0.34086
       3 -> 26         0.34277
       3 -> 29         0.11216
       4 -> 25        -0.34276
       4 -> 28         0.11217
       5 -> 27         0.27438

 Excited State  85:      Singlet-A     38.9863 eV   31.80 nm  f=0.0546  <S**2>=0.000
       4 -> 27         0.14065
       5 -> 28         0.67805

 Excited State  86:      Singlet-A     38.9863 eV   31.80 nm  f=0.0546  <S**2>=0.000
       3 -> 27         0.14067
       5 -> 29         0.67805

 Excited State  87:      Singlet-A     42.5676 eV   29.13 nm  f=0.0024  <S**2>=0.000
       2 -> 24         0.41174
       3 -> 29        -0.19287
       4 -> 28        -0.19289
       5 -> 30         0.48391

 Excited State  88:      Singlet-A     42.9287 eV   28.88 nm  f=0.0904  <S**2>=0.000
       2 -> 24        -0.38816
       3 -> 26         0.10386
       3 -> 29         0.15526
       4 -> 25        -0.10386
       4 -> 28         0.15528
       5 -> 30         0.51165

 Excited State  89:      Singlet-A     43.9992 eV   28.18 nm  f=0.0000  <S**2>=0.000
       3 -> 28        -0.49418
       4 -> 29         0.49419

 Excited State  90:      Singlet-A     44.4554 eV   27.89 nm  f=0.0280  <S**2>=0.000
       3 -> 28         0.42225
       3 -> 29        -0.25856
       4 -> 28         0.25855
       4 -> 29         0.42223

 Excited State  91:      Singlet-A     44.4554 eV   27.89 nm  f=0.0280  <S**2>=0.000
       3 -> 28         0.25855
       3 -> 29         0.42225
       4 -> 28        -0.42223
       4 -> 29         0.25856

 Excited State  92:      Singlet-A     46.2442 eV   26.81 nm  f=0.0468  <S**2>=0.000
       2 -> 25         0.70356

 Excited State  93:      Singlet-A     46.2442 eV   26.81 nm  f=0.0468  <S**2>=0.000
       2 -> 26         0.70356

 Excited State  94:      Singlet-A     47.5823 eV   26.06 nm  f=0.0174  <S**2>=0.000
       2 -> 24         0.22725
       2 -> 27         0.22654
       2 -> 30        -0.11785
       3 -> 26        -0.12043
       3 -> 29         0.38328
       4 -> 25         0.12043
       4 -> 28         0.38329
       5 -> 27        -0.16295

 Excited State  95:      Singlet-A     48.1052 eV   25.77 nm  f=0.0001  <S**2>=0.000
       4 -> 30         0.70246

 Excited State  96:      Singlet-A     48.1053 eV   25.77 nm  f=0.0001  <S**2>=0.000
       3 -> 30         0.70246

 Excited State  97:      Singlet-A     48.6222 eV   25.50 nm  f=0.1399  <S**2>=0.000
       2 -> 27         0.66843
       3 -> 29        -0.12277
       4 -> 28        -0.12277

 Excited State  98:      Singlet-A     50.9363 eV   24.34 nm  f=0.0000  <S**2>=0.000
       5 -> 31         0.70706

 Excited State  99:      Singlet-A     51.6239 eV   24.02 nm  f=0.0476  <S**2>=0.000
       5 -> 32         0.69501

 Excited State 100:      Singlet-A     51.6240 eV   24.02 nm  f=0.0476  <S**2>=0.000
       5 -> 33         0.69501

 Excited State 101:      Singlet-A     54.0646 eV   22.93 nm  f=0.0410  <S**2>=0.000
       2 -> 28         0.69426

 Excited State 102:      Singlet-A     54.0646 eV   22.93 nm  f=0.0410  <S**2>=0.000
       2 -> 29         0.69425

 Excited State 103:      Singlet-A     56.5504 eV   21.92 nm  f=0.0134  <S**2>=0.000
       3 -> 32        -0.16761
       4 -> 33        -0.16758
       5 -> 34         0.65828

 Excited State 104:      Singlet-A     56.6387 eV   21.89 nm  f=0.0208  <S**2>=0.000
       4 -> 31         0.68498

 Excited State 105:      Singlet-A     56.6388 eV   21.89 nm  f=0.0208  <S**2>=0.000
       3 -> 31         0.68498

 Excited State 106:      Singlet-A     56.6565 eV   21.88 nm  f=0.0000  <S**2>=0.000
       3 -> 33        -0.49806
       4 -> 32         0.49854

 Excited State 107:      Singlet-A     57.0617 eV   21.73 nm  f=0.0964  <S**2>=0.000
       3 -> 32        -0.14903
       3 -> 33         0.46054
       4 -> 31        -0.12193
       4 -> 32         0.46033
       4 -> 33         0.14901

 Excited State 108:      Singlet-A     57.0617 eV   21.73 nm  f=0.0964  <S**2>=0.000
       3 -> 31        -0.12196
       3 -> 32        -0.46042
       3 -> 33        -0.14906
       4 -> 32        -0.14898
       4 -> 33         0.46044

 Excited State 109:      Singlet-A     57.5782 eV   21.53 nm  f=0.2534  <S**2>=0.000
       2 -> 30        -0.26341
       3 -> 32         0.42390
       4 -> 33         0.42389
       5 -> 34         0.23740

 Excited State 110:      Singlet-A     58.8891 eV   21.05 nm  f=0.0384  <S**2>=0.000
       3 -> 34        -0.10624
       5 -> 35         0.69109

 Excited State 111:      Singlet-A     58.8893 eV   21.05 nm  f=0.0384  <S**2>=0.000
       4 -> 34        -0.10624
       5 -> 36         0.69109

 Excited State 112:      Singlet-A     59.2793 eV   20.92 nm  f=0.1199  <S**2>=0.000
       2 -> 30         0.63260
       3 -> 32         0.19064
       4 -> 33         0.19063

 Excited State 113:      Singlet-A     61.5929 eV   20.13 nm  f=0.0214  <S**2>=0.000
       4 -> 34         0.69255

 Excited State 114:      Singlet-A     61.5930 eV   20.13 nm  f=0.0214  <S**2>=0.000
       3 -> 34         0.69255

 Excited State 115:      Singlet-A     62.9020 eV   19.71 nm  f=0.0067  <S**2>=0.000
       3 -> 35        -0.17142
       4 -> 36         0.17142
       5 -> 37         0.65865

 Excited State 116:      Singlet-A     62.9021 eV   19.71 nm  f=0.0067  <S**2>=0.000
       3 -> 36         0.17141
       4 -> 35         0.17144
       5 -> 38         0.65864

 Excited State 117:      Singlet-A     64.2859 eV   19.29 nm  f=0.0001  <S**2>=0.000
       3 -> 36        -0.47747
       4 -> 35         0.50850

 Excited State 118:      Singlet-A     64.2886 eV   19.29 nm  f=0.0729  <S**2>=0.000
       3 -> 35        -0.45247
       3 -> 36        -0.10037
       4 -> 36         0.45355
       5 -> 37        -0.21676

 Excited State 119:      Singlet-A     64.2886 eV   19.29 nm  f=0.0728  <S**2>=0.000
       3 -> 36         0.46864
       4 -> 35         0.43688
       5 -> 38        -0.21665

 Excited State 120:      Singlet-A     64.3727 eV   19.26 nm  f=0.0012  <S**2>=0.000
       3 -> 35         0.49070
       4 -> 36         0.49098

 Excited State 121:      Singlet-A     65.9985 eV   18.79 nm  f=0.0000  <S**2>=0.000

 The electronic state is 1-A.
 Alpha  occ. eigenvalues --  -13.99064  -0.77024  -0.41842  -0.41842  -0.22442
 Alpha virt. eigenvalues --    0.00109   0.08078   0.08078   0.14614   0.14614
 Alpha virt. eigenvalues --    0.15891   0.20621   0.20621   0.20730   0.33421
 Alpha virt. eigenvalues --    0.33860   0.36193   0.36193   0.45859   0.45859

 Mulliken charges:
               1
     1  N    0.122968
     2  H   -0.040989
     3  H   -0.040991
     4  H   -0.040988
 Sum of Mulliken charges =  -0.00000

 Dipole moment (field-independent basis, Debye):
    X=              0.0000    Y=             -0.0000    Z=              1.4699  Tot=              1.4699
 Quadrupole moment (field-independent basis, Debye-Ang):
   XX=             -6.4298   YY=             -6.4298   ZZ=             -9.3054
   XY=              0.0000   XZ=             -0.0001   YZ=              0.0000

 Normal termination of Gaussian 16 at Mon Mar 21 20:11:01 2022.
