 Gaussian 16, Revision C.01,
 Gaussian 16:  EM64L-G16RevC.01  3-Jul-2019

 ----------------------------------------------------------------------
 #P TD(Nstates=10000) pw91pw91/Gen SCF(maxcycles=100) Int(Grid=ultrafin
 e)
 ----------------------------------------------------------------------

 ---------------------
 xGDB7_00001_tier4.com
 ---------------------
 Symbolic Z-matrix:
 Charge =  0 Multiplicity = 1

                         Standard orientation:
 ---------------------------------------------------------------------
 Center     Atomic      Atomic             Coordinates (Angstroms)
 Number     Number       Type             X           Y           Z
 ---------------------------------------------------------------------
      1          6           0        0.000000    0.000000    0.660866
      2          6           0        0.000000    0.000000   -0.660866
      3          1           0        0.000000    0.922586    1.229258
      4          1           0       -0.000000   -0.922586    1.229258
      5          1           0        0.000000    0.922586   -1.229258
      6          1           0       -0.000000   -0.922586   -1.229258
 ---------------------------------------------------------------------

 SCF Done:  E(RPW91-PW91) =  -78.4895864890     A.U. after   10 cycles

 Excitation energies and oscillator strengths:

 Excited State   1:      Singlet-B3U    7.2766 eV  170.39 nm  f=0.0567  <S**2>=0.000
       8 -> 10         0.70700
 This state for optimization and/or second-order correction.
 Total Energy, E(TD-HF/TD-DFT) =  -78.2221768382
 Copying the excited state density for this state as the 1-particle RhoCI density.

 Excited State   2:      Singlet-B1G    7.7664 eV  159.64 nm  f=0.0000  <S**2>=0.000
       7 ->  9         0.70373

 Excited State   3:      Singlet-B2G    7.8987 eV  156.97 nm  f=0.0000  <S**2>=0.000
       8 -> 11         0.70641

 Excited State   4:      Singlet-B1U    7.9049 eV  156.84 nm  f=0.3305  <S**2>=0.000
       8 ->  9         0.69472
       8 -> 20        -0.11048
       8 <-  9        -0.10383

 Excited State   5:      Singlet-B1G    8.6430 eV  143.45 nm  f=0.0000  <S**2>=0.000
       8 -> 12         0.70383

 Excited State   6:      Singlet-B3G    9.0088 eV  137.63 nm  f=0.0000  <S**2>=0.000
       7 -> 10         0.70655

 Excited State   7:      Singlet-B2G    9.4918 eV  130.62 nm  f=0.0000  <S**2>=0.000
       6 ->  9         0.70504

 Excited State   8:      Singlet-B2U    9.6447 eV  128.55 nm  f=0.0840  <S**2>=0.000
       7 -> 11         0.70561

 Excited State   9:      Singlet-B3U    9.8320 eV  126.10 nm  f=0.0424  <S**2>=0.000
       8 -> 13         0.70079

 Excited State  10:      Singlet-AU    10.1922 eV  121.65 nm  f=0.0000  <S**2>=0.000
       8 -> 14         0.70424

 Excited State  11:      Singlet-B1U   10.5900 eV  117.08 nm  f=0.1524  <S**2>=0.000
       6 -> 11        -0.12839
       7 -> 12         0.69043

 Excited State  12:      Singlet-AU    10.7547 eV  115.28 nm  f=0.0000  <S**2>=0.000
       5 ->  9         0.70405

 Excited State  13:      Singlet-AG    10.8061 eV  114.74 nm  f=0.0000  <S**2>=0.000
       6 -> 10         0.67794
       8 -> 16         0.18743

 Excited State  14:      Singlet-B3U   10.8826 eV  113.93 nm  f=0.1785  <S**2>=0.000
       4 ->  9         0.10867
       8 -> 15         0.69305

 Excited State  15:      Singlet-AG    11.2949 eV  109.77 nm  f=0.0000  <S**2>=0.000
       6 -> 10        -0.15225
       7 -> 14        -0.24369
       8 -> 16         0.63523

 Excited State  16:      Singlet-B2U   11.3332 eV  109.40 nm  f=0.0696  <S**2>=0.000
       6 -> 12        -0.13918
       8 -> 17         0.68429

 Excited State  17:      Singlet-B1U   11.4159 eV  108.61 nm  f=0.2579  <S**2>=0.000
       6 -> 11         0.69322
       7 -> 12         0.12121

 Excited State  18:      Singlet-B2G   11.5204 eV  107.62 nm  f=0.0000  <S**2>=0.000
       8 -> 18         0.70501

 Excited State  19:      Singlet-B3G   11.6293 eV  106.61 nm  f=0.0000  <S**2>=0.000
       7 -> 13         0.69948

 Excited State  20:      Singlet-B1G   11.9133 eV  104.07 nm  f=0.0000  <S**2>=0.000
       8 -> 19         0.70699

 Excited State  21:      Singlet-B2U   12.0336 eV  103.03 nm  f=0.0394  <S**2>=0.000
       5 -> 10         0.63306
       6 -> 12        -0.31174

 Excited State  22:      Singlet-AG    12.2477 eV  101.23 nm  f=0.0000  <S**2>=0.000
       5 -> 12         0.21622
       7 -> 14         0.63183
       8 -> 16         0.17483

 Excited State  23:      Singlet-B2U   12.2833 eV  100.94 nm  f=0.2209  <S**2>=0.000
       5 -> 10         0.28681
       6 -> 12         0.60115
       7 -> 18         0.18110
       8 -> 17         0.12795

 Excited State  24:      Singlet-B3G   12.4719 eV   99.41 nm  f=0.0000  <S**2>=0.000
       5 -> 11        -0.13404
       7 -> 15         0.68635

 Excited State  25:      Singlet-B3G   12.6266 eV   98.19 nm  f=0.0000  <S**2>=0.000
       5 -> 11         0.69305
       7 -> 15         0.13051

 Excited State  26:      Singlet-AU    12.6592 eV   97.94 nm  f=0.0000  <S**2>=0.000
       7 -> 16         0.70708

 Excited State  27:      Singlet-B2G   12.9869 eV   95.47 nm  f=0.0000  <S**2>=0.000
       7 -> 17         0.68566
       8 -> 21        -0.16653

 Excited State  28:      Singlet-AG    13.3085 eV   93.16 nm  f=0.0000  <S**2>=0.000
       5 -> 12         0.11892
       6 -> 13         0.69570

 Excited State  29:      Singlet-B2G   13.4733 eV   92.02 nm  f=0.0000  <S**2>=0.000
       7 -> 17         0.16153
       8 -> 21         0.68326

 Excited State  30:      Singlet-B3G   13.4887 eV   91.92 nm  f=0.0000  <S**2>=0.000
       8 -> 22         0.69948

 Excited State  31:      Singlet-B1U   13.5002 eV   91.84 nm  f=0.0185  <S**2>=0.000
       4 -> 10         0.13221
       5 -> 14        -0.12271
       7 -> 19        -0.14351
       8 -> 20         0.65850

 Excited State  32:      Singlet-B2U   13.5759 eV   91.33 nm  f=0.3344  <S**2>=0.000
       5 -> 13         0.23107
       6 -> 12        -0.10467
       7 -> 18         0.64148

 Excited State  33:      Singlet-B3G   13.6567 eV   90.79 nm  f=0.0000  <S**2>=0.000
       6 -> 14         0.70259

 Excited State  34:      Singlet-AG    13.7815 eV   89.96 nm  f=0.0000  <S**2>=0.000
       4 -> 11        -0.10979
       5 -> 12         0.55192
       6 -> 15        -0.39165
       7 -> 14        -0.10986

 Excited State  35:      Singlet-B3U   14.0100 eV   88.50 nm  f=0.0586  <S**2>=0.000
       4 ->  9         0.62303
       5 -> 17        -0.11152
       6 -> 16         0.24440
       7 -> 22        -0.14129

 Excited State  36:      Singlet-B1U   14.0664 eV   88.14 nm  f=0.3436  <S**2>=0.000
       4 -> 10         0.18396
       7 -> 19         0.65530

 Excited State  37:      Singlet-B3U   14.5526 eV   85.20 nm  f=0.0893  <S**2>=0.000
       4 ->  9        -0.18965
       6 -> 16         0.65451
       7 -> 22         0.13709

 Excited State  38:      Singlet-AG    14.6334 eV   84.73 nm  f=0.0000  <S**2>=0.000
       4 -> 11        -0.34060
       5 -> 12         0.25980
       6 -> 15         0.53286

 Excited State  39:      Singlet-B1G   14.6720 eV   84.50 nm  f=0.0000  <S**2>=0.000
       6 -> 17         0.69882
       7 -> 20        -0.10720

 Excited State  40:      Singlet-B1U   14.7007 eV   84.34 nm  f=0.0012  <S**2>=0.000
       4 -> 10         0.56632
       5 -> 14         0.32017
       6 -> 18         0.24871

 Excited State  41:      Singlet-B1G   14.7666 eV   83.96 nm  f=0.0000  <S**2>=0.000
       6 -> 17         0.10710
       7 -> 20         0.69852

 Excited State  42:      Singlet-B2U   14.8701 eV   83.38 nm  f=0.3396  <S**2>=0.000
       5 -> 13         0.62078
       6 -> 19        -0.26018
       7 -> 18        -0.15709

 Excited State  43:      Singlet-B3U   14.9729 eV   82.81 nm  f=0.0301  <S**2>=0.000
       8 -> 23         0.69986

 Excited State  44:      Singlet-B1U   15.0578 eV   82.34 nm  f=0.0319  <S**2>=0.000
       5 -> 14        -0.37225
       6 -> 18         0.59598

 Excited State  45:      Singlet-B2U   15.1175 eV   82.01 nm  f=0.0034  <S**2>=0.000
       7 -> 21         0.70111

 Excited State  46:      Singlet-B3U   15.2801 eV   81.14 nm  f=0.1651  <S**2>=0.000
       4 ->  9         0.12111
       5 -> 17        -0.19514
       7 -> 22         0.66027

 Excited State  47:      Singlet-B2U   15.4209 eV   80.40 nm  f=0.0014  <S**2>=0.000
       5 -> 15         0.67122
       6 -> 19        -0.21316

 Excited State  48:      Singlet-B1G   15.4255 eV   80.38 nm  f=0.0000  <S**2>=0.000
       8 -> 24         0.70635

 Excited State  49:      Singlet-B1U   15.5388 eV   79.79 nm  f=0.0109  <S**2>=0.000
       4 -> 10        -0.33203
       5 -> 14         0.47380
       6 -> 18         0.27004
       6 -> 21         0.13387
       7 -> 19         0.11398
       8 -> 20         0.17132

 Excited State  50:      Singlet-B1G   15.6863 eV   79.04 nm  f=0.0000  <S**2>=0.000
       5 -> 16         0.70689

 Excited State  51:      Singlet-AG    15.6942 eV   79.00 nm  f=0.0000  <S**2>=0.000
       4 -> 11         0.58435
       5 -> 12         0.19908
       6 -> 15         0.20869
       7 -> 14        -0.10337
       7 -> 30        -0.10457
       8 -> 25         0.11052

 Excited State  52:      Singlet-B2U   15.7557 eV   78.69 nm  f=0.2364  <S**2>=0.000
       5 -> 13         0.19955
       5 -> 15         0.20454
       6 -> 19         0.60676
       7 -> 18        -0.12240

 Excited State  53:      Singlet-AG    15.9009 eV   77.97 nm  f=0.0000  <S**2>=0.000
       4 -> 11        -0.10702
       5 -> 19        -0.12923
       8 -> 25         0.68210

 Excited State  54:      Singlet-B2G   15.9890 eV   77.54 nm  f=0.0000  <S**2>=0.000
       8 -> 26         0.70331

 Excited State  55:      Singlet-AU    15.9935 eV   77.52 nm  f=0.0000  <S**2>=0.000
       8 -> 27         0.70690

 Excited State  56:      Singlet-B3G   15.9988 eV   77.50 nm  f=0.0000  <S**2>=0.000
       4 -> 12         0.68659
       5 -> 18         0.13204

 Excited State  57:      Singlet-B3U   16.2377 eV   76.36 nm  f=0.3475  <S**2>=0.000
       4 ->  9         0.13574
       5 -> 17         0.63917
       7 -> 22         0.13495
       8 -> 28        -0.19603

 Excited State  58:      Singlet-B3G   16.3550 eV   75.81 nm  f=0.0000  <S**2>=0.000
       5 -> 18         0.62965
       7 -> 23        -0.30727

 Excited State  59:      Singlet-B2G   16.5020 eV   75.13 nm  f=0.0000  <S**2>=0.000
       6 -> 20         0.70640

 Excited State  60:      Singlet-B3G   16.8687 eV   73.50 nm  f=0.0000  <S**2>=0.000
       4 -> 12        -0.13626
       5 -> 18         0.27890
       7 -> 23         0.62469

 Excited State  61:      Singlet-AU    16.8917 eV   73.40 nm  f=0.0000  <S**2>=0.000
       6 -> 22         0.70650

 Excited State  62:      Singlet-AG    16.9595 eV   73.11 nm  f=0.0000  <S**2>=0.000
       5 -> 19         0.67772
       7 -> 27        -0.12379
       8 -> 25         0.11765

 Excited State  63:      Singlet-B1U   16.9984 eV   72.94 nm  f=0.0926  <S**2>=0.000
       4 -> 13        -0.25888
       6 -> 21         0.56894
       7 -> 24         0.30698

 Excited State  64:      Singlet-B1U   17.2328 eV   71.95 nm  f=0.1460  <S**2>=0.000
       4 -> 13         0.65407
       6 -> 21         0.21851
       7 -> 24         0.11811

 Excited State  65:      Singlet-B3U   17.4586 eV   71.02 nm  f=0.2346  <S**2>=0.000
       5 -> 17         0.13875
       8 -> 28         0.66241
       8 -> 32         0.11973

 Excited State  66:      Singlet-B2U   17.5812 eV   70.52 nm  f=0.0152  <S**2>=0.000
       4 -> 14         0.64036
       7 -> 26        -0.27798

 Excited State  67:      Singlet-B1U   17.6141 eV   70.39 nm  f=0.2433  <S**2>=0.000
       4 -> 15        -0.20719
       6 -> 21        -0.28761
       7 -> 24         0.58004
       7 -> 29         0.13620

 Excited State  68:      Singlet-AU    17.6415 eV   70.28 nm  f=0.0000  <S**2>=0.000
       5 -> 20        -0.11052
       7 -> 25         0.69776

 Excited State  69:      Singlet-B1G   17.7720 eV   69.76 nm  f=0.0000  <S**2>=0.000
       8 -> 29         0.70649

 Excited State  70:      Singlet-AU    17.7786 eV   69.74 nm  f=0.0000  <S**2>=0.000
       5 -> 20         0.69668
       7 -> 25         0.10859

 Excited State  71:      Singlet-AG    17.8073 eV   69.63 nm  f=0.0000  <S**2>=0.000
       5 -> 19         0.10675
       7 -> 27         0.68553

 Excited State  72:      Singlet-B2U   17.8277 eV   69.55 nm  f=0.1274  <S**2>=0.000
       4 -> 14         0.28250
       7 -> 26         0.64048

 Excited State  73:      Singlet-AU    17.9698 eV   69.00 nm  f=0.0000  <S**2>=0.000
       8 -> 30         0.70400

 Excited State  74:      Singlet-B2G   18.0606 eV   68.65 nm  f=0.0000  <S**2>=0.000
       5 -> 22        -0.31884
       8 -> 31         0.62541

 Excited State  75:      Singlet-B2G   18.1236 eV   68.41 nm  f=0.0000  <S**2>=0.000
       3 ->  9        -0.34628
       4 -> 16         0.20289
       5 -> 22         0.50052
       8 -> 31         0.28863

 Excited State  76:      Singlet-B3G   18.1374 eV   68.36 nm  f=0.0000  <S**2>=0.000
       5 -> 21         0.70360

 Excited State  77:      Singlet-B1U   18.1428 eV   68.34 nm  f=0.2100  <S**2>=0.000
       4 -> 15         0.66813
       7 -> 24         0.17253

 Excited State  78:      Singlet-B2U   18.2487 eV   67.94 nm  f=0.0450  <S**2>=0.000
       6 -> 24         0.16768
       8 -> 33         0.67614

 Excited State  79:      Singlet-B2G   18.2900 eV   67.79 nm  f=0.0000  <S**2>=0.000
       3 ->  9        -0.10316
       4 -> 16         0.63713
       5 -> 22        -0.25044
       8 -> 31        -0.14166

 Excited State  80:      Singlet-B3U   18.3232 eV   67.67 nm  f=0.1178  <S**2>=0.000
       8 -> 32         0.68772

 Excited State  81:      Singlet-B2G   18.4934 eV   67.04 nm  f=0.0000  <S**2>=0.000
       3 ->  9         0.55563
       4 -> 16         0.22497
       5 -> 22         0.28501
       8 -> 35         0.20901

 Excited State  82:      Singlet-AG    18.5115 eV   66.98 nm  f=0.0000  <S**2>=0.000
       3 -> 10         0.12849
       4 -> 18        -0.24616
       6 -> 23         0.64433

 Excited State  83:      Singlet-AU    18.5804 eV   66.73 nm  f=0.0000  <S**2>=0.000
       4 -> 17         0.70290

 Excited State  84:      Singlet-B1U   18.9192 eV   65.53 nm  f=0.0160  <S**2>=0.000
       8 -> 34         0.70216

 Excited State  85:      Singlet-B3G   18.9263 eV   65.51 nm  f=0.0000  <S**2>=0.000
       7 -> 28         0.70390

 Excited State  86:      Singlet-AG    18.9947 eV   65.27 nm  f=0.0000  <S**2>=0.000
       3 -> 10         0.40867
       4 -> 18         0.55919
       6 -> 23         0.12715

 Excited State  87:      Singlet-B2U   19.1177 eV   64.85 nm  f=0.0441  <S**2>=0.000
       5 -> 23         0.11614
       6 -> 24         0.63103
       7 -> 31         0.25048
       8 -> 33        -0.11021

 Excited State  88:      Singlet-AG    19.3288 eV   64.14 nm  f=0.0000  <S**2>=0.000
       3 -> 10         0.51814
       4 -> 18        -0.31321
       6 -> 23        -0.18752
       7 -> 30        -0.29358

 Excited State  89:      Singlet-B3G   19.3724 eV   64.00 nm  f=0.0000  <S**2>=0.000
       4 -> 19         0.50304
       6 -> 27        -0.48794

 Excited State  90:      Singlet-B3G   19.5116 eV   63.54 nm  f=0.0000  <S**2>=0.000
       4 -> 19         0.45616
       6 -> 27         0.50493
       7 -> 32        -0.15300

 Excited State  91:      Singlet-B1U   19.5210 eV   63.51 nm  f=0.0577  <S**2>=0.000
       3 -> 11         0.18531
       6 -> 26         0.67070

 Excited State  92:      Singlet-B3U   19.5912 eV   63.29 nm  f=0.2744  <S**2>=0.000
       4 -> 20        -0.12756
       6 -> 25         0.68097

 Excited State  93:      Singlet-B2U   19.7261 eV   62.85 nm  f=0.0467  <S**2>=0.000
       5 -> 23         0.62627
       7 -> 31        -0.31545

 Excited State  94:      Singlet-B1U   19.7916 eV   62.64 nm  f=0.1137  <S**2>=0.000
       3 -> 11         0.55922
       6 -> 26        -0.19410
       7 -> 29        -0.36181

 Excited State  95:      Singlet-B2G   19.9607 eV   62.11 nm  f=0.0000  <S**2>=0.000
       7 -> 33         0.67954
       8 -> 35        -0.19440

 Excited State  96:      Singlet-AG    20.0377 eV   61.88 nm  f=0.0000  <S**2>=0.000
       3 -> 10         0.16350
       4 -> 18        -0.10533
       5 -> 24        -0.42594
       6 -> 23        -0.10757
       7 -> 30         0.50199

 Excited State  97:      Singlet-B1U   20.0519 eV   61.83 nm  f=0.0384  <S**2>=0.000
       3 -> 11         0.36508
       6 -> 31         0.10488
       6 -> 35         0.10126
       7 -> 29         0.56239

 Excited State  98:      Singlet-B3G   20.1160 eV   61.63 nm  f=0.0000  <S**2>=0.000
       4 -> 19         0.14671
       7 -> 32         0.67735

 Excited State  99:      Singlet-B2G   20.3204 eV   61.01 nm  f=0.0000  <S**2>=0.000
       3 ->  9        -0.19151
       7 -> 33         0.18685
       8 -> 35         0.63184
       8 -> 36         0.11003

 Excited State 100:      Singlet-B2U   20.5249 eV   60.41 nm  f=0.3839  <S**2>=0.000
       3 -> 12        -0.41131
       5 -> 23         0.25542
       6 -> 24        -0.12763
       6 -> 29        -0.18744
       7 -> 31         0.42053
       7 -> 35         0.11972

 Excited State 101:      Singlet-AG    20.5452 eV   60.35 nm  f=0.0000  <S**2>=0.000
       4 -> 21         0.50438
       5 -> 24         0.37933
       6 -> 28         0.12356
       7 -> 30         0.22289

 Excited State 102:      Singlet-B3U   20.5518 eV   60.33 nm  f=0.0000  <S**2>=0.000
       4 -> 20         0.68879
       6 -> 25         0.10680

 Excited State 103:      Singlet-B1G   20.6216 eV   60.12 nm  f=0.0000  <S**2>=0.000
       4 -> 22         0.17096
       5 -> 25         0.38297
       7 -> 34         0.56911

 Excited State 104:      Singlet-B1G   20.6533 eV   60.03 nm  f=0.0000  <S**2>=0.000
       5 -> 25         0.59011
       7 -> 34        -0.38778

 Excited State 105:      Singlet-AG    20.6843 eV   59.94 nm  f=0.0000  <S**2>=0.000
       4 -> 21        -0.18625
       6 -> 28         0.68077

 Excited State 106:      Singlet-B3G   20.7699 eV   59.69 nm  f=0.0000  <S**2>=0.000
       5 -> 26         0.69993

 Excited State 107:      Singlet-B1U   20.7769 eV   59.67 nm  f=0.0681  <S**2>=0.000
       5 -> 27         0.69982

 Excited State 108:      Singlet-B1G   20.7971 eV   59.62 nm  f=0.0000  <S**2>=0.000
       4 -> 22         0.68494
       7 -> 34        -0.15860

 Excited State 109:      Singlet-B2U   20.9507 eV   59.18 nm  f=0.0151  <S**2>=0.000
       3 -> 12         0.51478
       5 -> 32         0.11074
       6 -> 24        -0.11319
       6 -> 29        -0.35713
       7 -> 31         0.23824

 Excited State 110:      Singlet-AG    21.1943 eV   58.50 nm  f=0.0000  <S**2>=0.000
       4 -> 21         0.41116
       4 -> 26        -0.10788
       5 -> 24        -0.31751
       6 -> 28         0.12096
       6 -> 32        -0.35041
       7 -> 30        -0.20725

 Excited State 111:      Singlet-B3G   21.4554 eV   57.79 nm  f=0.0000  <S**2>=0.000
       6 -> 30         0.70192

 Excited State 112:      Singlet-B2U   21.5602 eV   57.51 nm  f=0.0529  <S**2>=0.000
       3 -> 12         0.16513
       5 -> 28        -0.19427
       5 -> 32         0.14615
       6 -> 29         0.46114
       7 -> 31         0.14387
       7 -> 35         0.40460

 Excited State 113:      Singlet-B1G   21.7239 eV   57.07 nm  f=0.0000  <S**2>=0.000
       6 -> 33         0.70690

 Excited State 114:      Singlet-AG    21.7688 eV   56.95 nm  f=0.0000  <S**2>=0.000
       3 -> 13         0.68911
       6 -> 32         0.12844

 Excited State 115:      Singlet-B1U   21.8166 eV   56.83 nm  f=0.1925  <S**2>=0.000
       4 -> 23        -0.28698
       6 -> 31         0.62585
       6 -> 35        -0.11789

 Excited State 116:      Singlet-B2U   21.8626 eV   56.71 nm  f=0.1051  <S**2>=0.000
       5 -> 28         0.26065
       5 -> 32        -0.16433
       6 -> 29        -0.25891
       7 -> 31        -0.12463
       7 -> 35         0.54835

 Excited State 117:      Singlet-B2G   22.0196 eV   56.31 nm  f=0.0000  <S**2>=0.000
       8 -> 36         0.69396

 Excited State 118:      Singlet-B2U   22.0314 eV   56.28 nm  f=0.0593  <S**2>=0.000
       5 -> 28         0.61714
       5 -> 32         0.19899
       6 -> 29         0.18235
       7 -> 31         0.12662

 Excited State 119:      Singlet-B3G   22.0550 eV   56.22 nm  f=0.0000  <S**2>=0.000
       3 -> 14        -0.36080
       8 -> 37         0.60131

 Excited State 120:      Singlet-AG    22.0833 eV   56.14 nm  f=0.0000  <S**2>=0.000
       3 -> 15        -0.16472
       4 -> 21         0.15650
       4 -> 26        -0.18385
       5 -> 24        -0.17482
       6 -> 32         0.56763
       7 -> 30        -0.13970
       8 -> 40         0.10352

 Excited State 121:      Singlet-B3G   22.2288 eV   55.78 nm  f=0.0000  <S**2>=0.000
       3 -> 14         0.58754
       5 -> 31         0.19949
       8 -> 37         0.32993

 Excited State 122:      Singlet-B2G   22.3566 eV   55.46 nm  f=0.0000  <S**2>=0.000
       6 -> 34         0.70608

 Excited State 123:      Singlet-B1U   22.5707 eV   54.93 nm  f=0.0034  <S**2>=0.000
       3 -> 18        -0.11027
       4 -> 23         0.53966
       5 -> 30         0.38090
       6 -> 31         0.17642
       6 -> 35        -0.12296

 Excited State 124:      Singlet-AG    22.7340 eV   54.54 nm  f=0.0000  <S**2>=0.000
       5 -> 29         0.69038

 Excited State 125:      Singlet-AG    22.8286 eV   54.31 nm  f=0.0000  <S**2>=0.000
       3 -> 15         0.67871
       6 -> 32         0.11241

 Excited State 126:      Singlet-B3G   22.8707 eV   54.21 nm  f=0.0000  <S**2>=0.000
       4 -> 24         0.65823
       5 -> 31         0.23079

 Excited State 127:      Singlet-B3U   22.9286 eV   54.07 nm  f=0.0678  <S**2>=0.000
       3 -> 16         0.51669
       5 -> 33         0.48142

 Excited State 128:      Singlet-AU    22.9361 eV   54.06 nm  f=0.0000  <S**2>=0.000
       8 -> 38         0.70477

 Excited State 129:      Singlet-B1U   23.0677 eV   53.75 nm  f=0.0873  <S**2>=0.000
       3 -> 18         0.21511
       4 -> 23        -0.22884
       5 -> 30         0.53179
       6 -> 35         0.30923

 Excited State 130:      Singlet-B1G   23.1940 eV   53.46 nm  f=0.0000  <S**2>=0.000
       3 -> 17         0.70629

 Excited State 131:      Singlet-B3U   23.2048 eV   53.43 nm  f=0.0009  <S**2>=0.000
       3 -> 16        -0.46490
       5 -> 33         0.49183
       7 -> 37         0.16307

 Excited State 132:      Singlet-B2U   23.3171 eV   53.17 nm  f=0.0086  <S**2>=0.000
       4 -> 27         0.69423
       7 -> 36         0.11304

 Excited State 133:      Singlet-B3G   23.3954 eV   53.00 nm  f=0.0000  <S**2>=0.000
       3 -> 14        -0.11370
       4 -> 24        -0.21908
       4 -> 29        -0.12470
       5 -> 31         0.61519
       7 -> 39        -0.10730
       8 -> 37        -0.13226

 Excited State 134:      Singlet-B2G   23.4195 eV   52.94 nm  f=0.0000  <S**2>=0.000
       4 -> 25         0.69567

 Excited State 135:      Singlet-B1U   23.5040 eV   52.75 nm  f=0.0287  <S**2>=0.000
       3 -> 18         0.65218

 The electronic state is 1-AG.
 Alpha  occ. eigenvalues --   -9.91046  -9.90982  -0.68717  -0.51909  -0.42409
 Alpha  occ. eigenvalues --   -0.37716  -0.31347  -0.25071
 Alpha virt. eigenvalues --   -0.03575   0.01479   0.03746   0.06480   0.10835
 Alpha virt. eigenvalues --    0.12364   0.14298   0.15232   0.16175   0.17175
 Alpha virt. eigenvalues --    0.18744   0.22914   0.23983   0.24343   0.29804

 Mulliken charges:
               1
     1  C    0.182948
     2  C    0.182948
     3  H   -0.091474
     4  H   -0.091474
     5  H   -0.091474
     6  H   -0.091474
 Sum of Mulliken charges =   0.00000

 Dipole moment (field-independent basis, Debye):
    X=              0.0000    Y=              0.0000    Z=              0.0000  Tot=              0.0000
 Quadrupole moment (field-independent basis, Debye-Ang):
   XX=            -15.3077   YY=            -12.5438   ZZ=            -12.5449
   XY=              0.0000   XZ=             -0.0000   YZ=             -0.0000

 Normal termination of Gaussian 16 at Mon Mar 21 04:16:17 2022.
