 Gaussian 16, Revision C.01,
 Gaussian 16:  EM64L-G16RevC.01  3-Jul-2019

 ----------------------------------------------------------------------
 #P TD(Nstates=10000) pw91pw91/Gen SCF(maxcycles=100) Int(Grid=ultrafin
 e)
 ----------------------------------------------------------------------

 ---------------------
 xGDB7_00001_tier4.com
 ---------------------
 Symbolic Z-matrix:
 Charge =  0 Multiplicity = 1

                         Standard orientation:
 ---------------------------------------------------------------------
 Center     Atomic      Atomic             Coordinates (Angstroms)
 Number     Number       Type             X           Y           Z
 ---------------------------------------------------------------------
      1          6           0        0.000000    0.000000    0.761397
      2          6           0       -0.000000   -0.000000   -0.761397
      3          1           0        0.000000    1.017110    1.157248
      4          1           0        0.880843   -0.508555    1.157248
      5          1           0       -0.880843   -0.508555    1.157248
      6          1           0        0.880843    0.508555   -1.157248
      7          1           0       -0.880843    0.508555   -1.157248
      8          1           0       -0.000000   -1.017110   -1.157248
 ---------------------------------------------------------------------

 SCF Done:  E(RPW91-PW91) =  -79.7245962932     A.U. after    9 cycles

 Excitation energies and oscillator strengths:

 Excited State   1:      Singlet-EG     8.3419 eV  148.63 nm  f=0.0000  <S**2>=0.000
       9 -> 10         0.70661
 This state for optimization and/or second-order correction.
 Total Energy, E(TD-HF/TD-DFT) =  -79.4180369320
 Copying the excited state density for this state as the 1-particle RhoCI density.

 Excited State   2:      Singlet-EG     8.3419 eV  148.63 nm  f=0.0000  <S**2>=0.000
       8 -> 10         0.70661

 Excited State   3:      Singlet-A1G    9.1792 eV  135.07 nm  f=0.0000  <S**2>=0.000
       7 -> 10         0.70253

 Excited State   4:      Singlet-EU     9.2334 eV  134.28 nm  f=0.0553  <S**2>=0.000
       9 -> 11         0.70459

 Excited State   5:      Singlet-EU     9.2334 eV  134.28 nm  f=0.0553  <S**2>=0.000
       8 -> 11         0.70459

 Excited State   6:      Singlet-A2U   10.0136 eV  123.82 nm  f=0.1244  <S**2>=0.000
       7 -> 11         0.69100
       8 -> 12         0.10178
       9 -> 13         0.10178

 Excited State   7:      Singlet-EG    10.1796 eV  121.80 nm  f=0.0000  <S**2>=0.000
       8 -> 13        -0.49999
       9 -> 12         0.50000

 Excited State   8:      Singlet-EG    10.2599 eV  120.84 nm  f=0.0335  <S**2>=0.000
       8 -> 12        -0.49392
       9 -> 13         0.49393

 Excited State   9:      Singlet-EG    10.2599 eV  120.84 nm  f=0.0335  <S**2>=0.000
       8 -> 13         0.49393
       9 -> 12         0.49392

 Excited State  10:      Singlet-EG    10.6010 eV  116.96 nm  f=0.2942  <S**2>=0.000
       7 -> 11        -0.14228
       8 -> 12         0.48266
       9 -> 13         0.48265

 Excited State  11:      Singlet-EU    10.7534 eV  115.30 nm  f=0.0000  <S**2>=0.000
       8 -> 14        -0.49996
       9 -> 15         0.50002

 Excited State  12:      Singlet-EU    10.7954 eV  114.85 nm  f=0.0966  <S**2>=0.000
       6 -> 10         0.68020
       7 -> 12         0.16531

 Excited State  13:      Singlet-EU    10.7954 eV  114.85 nm  f=0.0966  <S**2>=0.000
       5 -> 10         0.68020
       7 -> 13         0.16533

 Excited State  14:      Singlet-EU    10.9271 eV  113.46 nm  f=0.0000  <S**2>=0.000
       8 -> 15         0.48511
       9 -> 14         0.48492

 Excited State  15:      Singlet-EU    10.9335 eV  113.40 nm  f=0.0000  <S**2>=0.000
       8 -> 15        -0.49701
       9 -> 14         0.49720

 Excited State  16:      Singlet-EU    10.9335 eV  113.40 nm  f=0.0000  <S**2>=0.000
       8 -> 14         0.49713
       9 -> 15         0.49708

 Excited State  17:      Singlet-EU    11.0780 eV  111.92 nm  f=0.0884  <S**2>=0.000
       6 -> 10        -0.15434
       7 -> 12         0.68187

 Excited State  18:      Singlet-EU    11.0780 eV  111.92 nm  f=0.0884  <S**2>=0.000
       5 -> 10        -0.15436
       7 -> 13         0.68187

 Excited State  19:      Singlet-EG    11.5400 eV  107.44 nm  f=0.0000  <S**2>=0.000
       7 -> 14         0.69833

 Excited State  20:      Singlet-EG    11.5400 eV  107.44 nm  f=0.0000  <S**2>=0.000
       7 -> 15         0.69832

 Excited State  21:      Singlet-EG    11.6101 eV  106.79 nm  f=0.0000  <S**2>=0.000
       5 -> 11         0.69689

 Excited State  22:      Singlet-EG    11.6101 eV  106.79 nm  f=0.0000  <S**2>=0.000
       6 -> 11         0.69689

 Excited State  23:      Singlet-EG    11.8085 eV  105.00 nm  f=0.0000  <S**2>=0.000
       8 -> 16         0.70127

 Excited State  24:      Singlet-EG    11.8085 eV  105.00 nm  f=0.0000  <S**2>=0.000
       9 -> 16         0.70128

 Excited State  25:      Singlet-EU    12.0158 eV  103.18 nm  f=0.0000  <S**2>=0.000
       8 -> 17        -0.49995
       9 -> 18         0.49999

 Excited State  26:      Singlet-EU    12.0923 eV  102.53 nm  f=0.0000  <S**2>=0.000
       8 -> 17         0.49552
       9 -> 18         0.49547

 Excited State  27:      Singlet-EU    12.0923 eV  102.53 nm  f=0.0000  <S**2>=0.000
       8 -> 18        -0.49548
       9 -> 17         0.49551

 Excited State  28:      Singlet-EU    12.2291 eV  101.38 nm  f=0.0000  <S**2>=0.000
       5 -> 13        -0.21002
       6 -> 12        -0.21002
       7 -> 16         0.11621
       8 -> 18         0.44399
       9 -> 17         0.44396

 Excited State  29:      Singlet-EU    12.5819 eV   98.54 nm  f=0.0000  <S**2>=0.000
       5 -> 12         0.49998
       6 -> 13        -0.49997

 Excited State  30:      Singlet-EU    12.6719 eV   97.84 nm  f=0.0000  <S**2>=0.000
       5 -> 12         0.49286
       6 -> 13         0.49288
       7 -> 17         0.10370

 Excited State  31:      Singlet-EU    12.6719 eV   97.84 nm  f=0.0000  <S**2>=0.000
       5 -> 13        -0.49285
       6 -> 12         0.49289
       7 -> 18        -0.10368

 Excited State  32:      Singlet-EG    12.6836 eV   97.75 nm  f=0.0000  <S**2>=0.000
       8 -> 20        -0.49923
       9 -> 21         0.49924

 Excited State  33:      Singlet-A1G   12.6945 eV   97.67 nm  f=0.0000  <S**2>=0.000
       5 -> 13         0.23049
       6 -> 12         0.23046
       7 -> 16         0.62396

 Excited State  34:      Singlet-EU    12.7490 eV   97.25 nm  f=0.0048  <S**2>=0.000
       8 -> 19         0.61828
       8 -> 21        -0.23812
       9 -> 20         0.23813

 Excited State  35:      Singlet-EU    12.7490 eV   97.25 nm  f=0.0047  <S**2>=0.000
       8 -> 20         0.23813
       9 -> 19         0.61827
       9 -> 21         0.23813

 Excited State  36:      Singlet-EG    12.8257 eV   96.67 nm  f=0.0000  <S**2>=0.000
       7 -> 18         0.69888

 Excited State  37:      Singlet-EG    12.8257 eV   96.67 nm  f=0.0000  <S**2>=0.000
       7 -> 17         0.69888

 Excited State  38:      Singlet-EG    12.9154 eV   96.00 nm  f=0.0256  <S**2>=0.000
       5 -> 15         0.23850
       6 -> 14         0.23852
       7 -> 20         0.16431
       8 -> 20         0.37763
       9 -> 19        -0.25880
       9 -> 21         0.37763

 Excited State  39:      Singlet-EG    12.9154 eV   96.00 nm  f=0.0256  <S**2>=0.000
       5 -> 14         0.23854
       6 -> 15        -0.23851
       7 -> 21         0.16430
       8 -> 19        -0.25880
       8 -> 21        -0.37761
       9 -> 20         0.37765

 Excited State  40:      Singlet-EG    13.0664 eV   94.89 nm  f=0.0814  <S**2>=0.000
       5 -> 14         0.12382
       6 -> 15         0.12384
       7 -> 19         0.24321
       8 -> 21         0.44454
       9 -> 20         0.44451

 Excited State  41:      Singlet-EG    13.1790 eV   94.08 nm  f=0.0000  <S**2>=0.000
       5 -> 15        -0.49916
       6 -> 14         0.49917

 Excited State  42:      Singlet-EG    13.3025 eV   93.20 nm  f=0.0757  <S**2>=0.000
       5 -> 14         0.45596
       6 -> 15         0.45597
       7 -> 19         0.13837
       8 -> 21        -0.15496
       9 -> 20        -0.15497

 Excited State  43:      Singlet-EU    13.4309 eV   92.31 nm  f=0.1218  <S**2>=0.000
       5 -> 14        -0.32240
       6 -> 15         0.32239
       7 -> 21         0.51753

 Excited State  44:      Singlet-EU    13.4309 eV   92.31 nm  f=0.1218  <S**2>=0.000
       5 -> 15        -0.32241
       6 -> 14        -0.32239
       7 -> 20         0.51753

 Excited State  45:      Singlet-EU    13.7734 eV   90.02 nm  f=0.1693  <S**2>=0.000
       5 -> 15         0.23431
       5 -> 16         0.25244
       5 -> 18         0.10218
       6 -> 14         0.23429
       6 -> 17         0.10218
       7 -> 20         0.42307
       8 -> 20        -0.15238
       8 -> 22         0.14027
       9 -> 19         0.14739
       9 -> 21        -0.15238
       9 -> 23         0.14026

 Excited State  46:      Singlet-EU    13.7734 eV   90.02 nm  f=0.1693  <S**2>=0.000
       5 -> 14         0.23430
       5 -> 17         0.10219
       6 -> 15        -0.23430
       6 -> 16         0.25243
       6 -> 18        -0.10219
       7 -> 21         0.42307
       8 -> 19         0.14739
       8 -> 21         0.15238
       8 -> 23        -0.14026
       9 -> 20        -0.15238
       9 -> 22         0.14026

 Excited State  47:      Singlet-A2U   13.8753 eV   89.36 nm  f=0.0499  <S**2>=0.000
       4 -> 10        -0.10727
       5 -> 14        -0.10902
       5 -> 17         0.10027
       6 -> 15        -0.10902
       6 -> 18         0.10027
       7 -> 19         0.51965
       8 -> 23        -0.27998
       9 -> 22        -0.27997

 Excited State  48:      Singlet-EU    14.0111 eV   88.49 nm  f=0.0000  <S**2>=0.000
       4 -> 11         0.18753
       5 -> 13         0.35552
       6 -> 12         0.35548
       7 -> 16        -0.28779
       8 -> 18         0.19178
       9 -> 17         0.19178

 Excited State  49:      Singlet-EG    14.1770 eV   87.45 nm  f=0.0000  <S**2>=0.000
       8 -> 22        -0.49984
       9 -> 23         0.49997

 Excited State  50:      Singlet-EU    14.1873 eV   87.39 nm  f=0.0194  <S**2>=0.000
       6 -> 16         0.43918
       8 -> 23         0.39054
       9 -> 22        -0.39055

 Excited State  51:      Singlet-EU    14.1873 eV   87.39 nm  f=0.0194  <S**2>=0.000
       5 -> 16         0.43919
       8 -> 22        -0.39060
       9 -> 23        -0.39048

 Excited State  52:      Singlet-EU    14.3393 eV   86.46 nm  f=0.1236  <S**2>=0.000
       5 -> 17        -0.32505
       6 -> 16         0.38734
       6 -> 18         0.32505
       8 -> 23        -0.22934
       9 -> 22         0.22933

 Excited State  53:      Singlet-EU    14.3393 eV   86.46 nm  f=0.1236  <S**2>=0.000
       5 -> 16         0.38733
       5 -> 18        -0.32501
       6 -> 17        -0.32509
       8 -> 22         0.22938
       9 -> 23         0.22931

 Excited State  54:      Singlet-EG    14.4284 eV   85.93 nm  f=0.0000  <S**2>=0.000
       5 -> 18         0.49997
       6 -> 17        -0.49991

 Excited State  55:      Singlet-EG    14.5844 eV   85.01 nm  f=0.7631  <S**2>=0.000
       4 -> 10        -0.19671
       5 -> 17         0.16530
       6 -> 18         0.16532
       7 -> 19         0.25923
       7 -> 24        -0.12020
       8 -> 23         0.38494
       9 -> 22         0.38494

 Excited State  56:      Singlet-EG    14.6565 eV   84.59 nm  f=0.2247  <S**2>=0.000
       5 -> 15        -0.10667
       5 -> 16         0.26213
       5 -> 18         0.34545
       6 -> 14        -0.10667
       6 -> 17         0.34546
       7 -> 20        -0.10605
       7 -> 22        -0.29925
       8 -> 22         0.12585
       9 -> 23         0.12581

 Excited State  57:      Singlet-EG    14.6565 eV   84.59 nm  f=0.2247  <S**2>=0.000
       5 -> 14        -0.10665
       5 -> 17         0.34562
       6 -> 15         0.10669
       6 -> 16         0.26214
       6 -> 18        -0.34529
       7 -> 21        -0.10605
       7 -> 23        -0.29925
       8 -> 23        -0.12585
       9 -> 22         0.12582

 Excited State  58:      Singlet-EG    14.6718 eV   84.51 nm  f=0.0193  <S**2>=0.000
       4 -> 10         0.30536
       5 -> 17         0.43010
       6 -> 18         0.43036
       7 -> 19        -0.10537

 Excited State  59:      Singlet-EU    15.0701 eV   82.27 nm  f=0.0000  <S**2>=0.000
       5 -> 21        -0.49998
       6 -> 20         0.49999

 Excited State  60:      Singlet-EU    15.1297 eV   81.95 nm  f=0.3188  <S**2>=0.000
       5 -> 16         0.11522
       5 -> 18         0.10790
       6 -> 17         0.10790
       7 -> 22         0.62526

 Excited State  61:      Singlet-EU    15.1297 eV   81.95 nm  f=0.3188  <S**2>=0.000
       5 -> 17         0.10789
       6 -> 16         0.11522
       6 -> 18        -0.10792
       7 -> 23         0.62525

 Excited State  62:      Singlet-EG    15.1457 eV   81.86 nm  f=0.0000  <S**2>=0.000
       5 -> 19         0.63210
       5 -> 21         0.22191
       6 -> 20         0.22190

 Excited State  63:      Singlet-EG    15.1457 eV   81.86 nm  f=0.0000  <S**2>=0.000
       5 -> 20         0.22191
       6 -> 19         0.63209
       6 -> 21        -0.22193

 Excited State  64:      Singlet-EU    15.3782 eV   80.62 nm  f=0.0000  <S**2>=0.000
       5 -> 20         0.48756
       6 -> 21         0.48773

 Excited State  65:      Singlet-EU    15.4034 eV   80.49 nm  f=0.0000  <S**2>=0.000
       5 -> 19        -0.29377
       5 -> 21         0.42946
       6 -> 20         0.42945
       9 -> 25        -0.15018

 Excited State  66:      Singlet-EU    15.4035 eV   80.49 nm  f=0.0000  <S**2>=0.000
       5 -> 20         0.42955
       6 -> 19        -0.29379
       6 -> 21        -0.42935
       8 -> 25        -0.15018

 Excited State  67:      Singlet-A2U   15.4339 eV   80.33 nm  f=0.0003  <S**2>=0.000
       4 -> 10         0.57576
       5 -> 17        -0.12788
       6 -> 18        -0.12785
       7 -> 19         0.17627
       7 -> 24        -0.23595

 Excited State  68:      Singlet-EU    15.5044 eV   79.97 nm  f=0.0701  <S**2>=0.000
       9 -> 24         0.69901

 Excited State  69:      Singlet-EU    15.5044 eV   79.97 nm  f=0.0701  <S**2>=0.000
       8 -> 24         0.69901

 Excited State  70:      Singlet-EG    15.9945 eV   77.52 nm  f=0.0000  <S**2>=0.000
       9 -> 25         0.68073

 Excited State  71:      Singlet-EG    15.9945 eV   77.52 nm  f=0.0000  <S**2>=0.000
       8 -> 25         0.68073

 Excited State  72:      Singlet-A1G   16.1235 eV   76.90 nm  f=0.0000  <S**2>=0.000
       4 -> 11         0.64086
       7 -> 25         0.21829

 Excited State  73:      Singlet-EU    16.3138 eV   76.00 nm  f=0.0290  <S**2>=0.000
       9 -> 26         0.70467

 Excited State  74:      Singlet-EU    16.3138 eV   76.00 nm  f=0.0290  <S**2>=0.000
       8 -> 26         0.70467

 Excited State  75:      Singlet-EU    16.5804 eV   74.78 nm  f=0.0000  <S**2>=0.000
       5 -> 23         0.50027
       6 -> 22        -0.49970

 Excited State  76:      Singlet-EU    16.5988 eV   74.69 nm  f=0.0000  <S**2>=0.000
       5 -> 23         0.49626
       6 -> 22         0.49684

 Excited State  77:      Singlet-EU    16.5988 eV   74.69 nm  f=0.0000  <S**2>=0.000
       5 -> 22        -0.49653
       6 -> 23         0.49657

 Excited State  78:      Singlet-A2U   16.6293 eV   74.56 nm  f=0.3323  <S**2>=0.000
       4 -> 10         0.10535
       7 -> 19         0.13342
       7 -> 24         0.62216
       7 -> 33        -0.18375

 Excited State  79:      Singlet-EU    16.7064 eV   74.21 nm  f=0.0000  <S**2>=0.000
       4 -> 11        -0.10356
       5 -> 22         0.40603
       6 -> 23         0.40600
       7 -> 25         0.32860
       8 -> 28         0.14552
       9 -> 27         0.14549

 Excited State  80:      Singlet-A1G   16.8660 eV   73.51 nm  f=0.0000  <S**2>=0.000
       4 -> 11        -0.10236
       5 -> 22        -0.26959
       6 -> 23        -0.26957
       7 -> 25         0.53740
       8 -> 28         0.12117
       9 -> 27         0.12116

 Excited State  81:      Singlet-EG    17.0257 eV   72.82 nm  f=0.0000  <S**2>=0.000
       4 -> 12         0.69303
       6 -> 24        -0.10542

 Excited State  82:      Singlet-EG    17.0257 eV   72.82 nm  f=0.0000  <S**2>=0.000
       4 -> 13         0.69303
       5 -> 24        -0.10541

 Excited State  83:      Singlet-A1U   17.0685 eV   72.64 nm  f=0.0000  <S**2>=0.000
       7 -> 26         0.70701

 Excited State  84:      Singlet-EU    17.1213 eV   72.42 nm  f=0.0000  <S**2>=0.000
       8 -> 27        -0.49997
       9 -> 28         0.50000

 Excited State  85:      Singlet-EG    17.2189 eV   72.00 nm  f=0.0000  <S**2>=0.000
       8 -> 30         0.49993
       9 -> 29        -0.49993

 Excited State  86:      Singlet-EU    17.2988 eV   71.67 nm  f=0.0050  <S**2>=0.000
       4 -> 15        -0.13197
       8 -> 29         0.28225
       8 -> 31         0.56506
       9 -> 30        -0.28226

 Excited State  87:      Singlet-EU    17.2988 eV   71.67 nm  f=0.0050  <S**2>=0.000
       4 -> 14        -0.13197
       8 -> 30        -0.28228
       9 -> 29        -0.28228
       9 -> 31         0.56503

 Excited State  88:      Singlet-EU    17.4506 eV   71.05 nm  f=0.0000  <S**2>=0.000
       8 -> 28         0.43948
       8 -> 32        -0.27290
       9 -> 27        -0.43945

 Excited State  89:      Singlet-EU    17.4506 eV   71.05 nm  f=0.0000  <S**2>=0.000
       8 -> 27         0.43947
       9 -> 28         0.43945
       9 -> 32         0.27292

 Excited State  90:      Singlet-EU    17.5110 eV   70.80 nm  f=0.0845  <S**2>=0.000
       6 -> 25        -0.13341
       7 -> 29         0.17991
       8 -> 29        -0.36902
       8 -> 31         0.39520
       9 -> 30         0.36902

 Excited State  91:      Singlet-EU    17.5110 eV   70.80 nm  f=0.0846  <S**2>=0.000
       5 -> 25        -0.13340
       7 -> 30         0.17992
       8 -> 30         0.36900
       9 -> 29         0.36900
       9 -> 31         0.39524

 Excited State  92:      Singlet-EU    17.5428 eV   70.68 nm  f=0.0000  <S**2>=0.000
       3 -> 10        -0.13526
       4 -> 11         0.12608
       5 -> 30        -0.11384
       6 -> 29        -0.11383
       7 -> 25        -0.17523
       8 -> 28         0.42809
       9 -> 27         0.42815

 Excited State  93:      Singlet-EU    17.6267 eV   70.34 nm  f=0.0001  <S**2>=0.000
       4 -> 14         0.68307

 Excited State  94:      Singlet-EU    17.6267 eV   70.34 nm  f=0.0001  <S**2>=0.000
       4 -> 15         0.68307

 Excited State  95:      Singlet-EG    17.7431 eV   69.88 nm  f=0.0000  <S**2>=0.000
       7 -> 27        -0.27219
       8 -> 27        -0.14364
       9 -> 28        -0.14363
       9 -> 32         0.61163

 Excited State  96:      Singlet-EG    17.7431 eV   69.88 nm  f=0.0000  <S**2>=0.000
       7 -> 28        -0.27222
       8 -> 28         0.14363
       8 -> 32         0.61162
       9 -> 27        -0.14361

 Excited State  97:      Singlet-EG    17.8220 eV   69.57 nm  f=0.2446  <S**2>=0.000
       7 -> 31         0.11200
       8 -> 29         0.46853
       9 -> 30         0.46853

 Excited State  98:      Singlet-EG    17.9198 eV   69.19 nm  f=0.0000  <S**2>=0.000
       6 -> 24         0.57683
       7 -> 28         0.35249
       8 -> 32         0.10324

 Excited State  99:      Singlet-EG    17.9198 eV   69.19 nm  f=0.0000  <S**2>=0.000
       5 -> 24         0.57659
       7 -> 27         0.35286
       9 -> 32         0.10332

 Excited State 100:      Singlet-EG    17.9546 eV   69.05 nm  f=0.0000  <S**2>=0.000
       5 -> 24        -0.37845
       7 -> 27         0.53695
       9 -> 32         0.18505

 Excited State 101:      Singlet-EG    17.9546 eV   69.05 nm  f=0.0000  <S**2>=0.000
       6 -> 24        -0.37807
       7 -> 28         0.53717
       8 -> 32         0.18514

 Excited State 102:      Singlet-EU    18.1116 eV   68.46 nm  f=0.0138  <S**2>=0.000
       6 -> 25         0.12778
       7 -> 29         0.49715
       8 -> 33        -0.46786

 Excited State 103:      Singlet-EU    18.1116 eV   68.46 nm  f=0.0138  <S**2>=0.000
       5 -> 25         0.12772
       7 -> 30         0.49712
       9 -> 33        -0.46792

 Excited State 104:      Singlet-A2U   18.1944 eV   68.14 nm  f=0.0431  <S**2>=0.000
       7 -> 31         0.68547

 Excited State 105:      Singlet-EU    18.3004 eV   67.75 nm  f=0.0012  <S**2>=0.000
       4 -> 18        -0.11809
       6 -> 25         0.41639
       7 -> 29         0.29385
       8 -> 33         0.45822

 Excited State 106:      Singlet-EU    18.3004 eV   67.75 nm  f=0.0012  <S**2>=0.000
       4 -> 17        -0.11810
       5 -> 25         0.41638
       7 -> 30         0.29392
       9 -> 33         0.45817

 Excited State 107:      Singlet-EU    18.3668 eV   67.50 nm  f=0.0000  <S**2>=0.000
       8 -> 34         0.49997
       9 -> 35        -0.49979

 Excited State 108:      Singlet-EU    18.3941 eV   67.40 nm  f=0.0000  <S**2>=0.000
       8 -> 35         0.50064
       9 -> 34        -0.49741

 Excited State 109:      Singlet-EU    18.3941 eV   67.40 nm  f=0.0000  <S**2>=0.000
       8 -> 34         0.49894
       9 -> 35         0.49912

 Excited State 110:      Singlet-EU    18.3959 eV   67.40 nm  f=0.0000  <S**2>=0.000
       3 -> 10         0.28474
       7 -> 32         0.28521
       8 -> 35         0.40693
       9 -> 34         0.41086

 Excited State 111:      Singlet-A1G   18.5156 eV   66.96 nm  f=0.0000  <S**2>=0.000
       3 -> 10        -0.17888
       7 -> 32         0.64301
       8 -> 35        -0.16096
       9 -> 34        -0.16104

 Excited State 112:      Singlet-EU    18.5221 eV   66.94 nm  f=0.1817  <S**2>=0.000
       5 -> 27        -0.14519
       6 -> 25         0.52114
       6 -> 28         0.14520
       7 -> 29        -0.29860
       8 -> 33        -0.23961

 Excited State 113:      Singlet-EU    18.5221 eV   66.94 nm  f=0.1816  <S**2>=0.000
       5 -> 25         0.52116
       5 -> 28        -0.14520
       6 -> 27        -0.14518
       7 -> 30        -0.29858
       9 -> 33        -0.23959

 Excited State 114:      Singlet-A2U   18.5865 eV   66.71 nm  f=0.1270  <S**2>=0.000
       4 -> 16         0.70439

 Excited State 115:      Singlet-EG    18.7407 eV   66.16 nm  f=0.0000  <S**2>=0.000
       6 -> 26         0.69488
       8 -> 36        -0.10016

 Excited State 116:      Singlet-EG    18.7407 eV   66.16 nm  f=0.0000  <S**2>=0.000
       5 -> 26         0.69489
       9 -> 36        -0.10009

 Excited State 117:      Singlet-A1G   18.7917 eV   65.98 nm  f=0.0000  <S**2>=0.000
       3 -> 10         0.57266
       4 -> 19        -0.17869
       5 -> 30        -0.11215
       6 -> 29        -0.11215
       8 -> 35        -0.19866
       9 -> 34        -0.19865

 The electronic state is 1-A1G.
 Alpha  occ. eigenvalues --   -9.89807  -9.89806  -0.67849  -0.54912  -0.38953
 Alpha  occ. eigenvalues --   -0.38953  -0.32970  -0.30130  -0.30130
 Alpha virt. eigenvalues --    0.00226   0.03421   0.07283   0.07283   0.09372
 Alpha virt. eigenvalues --    0.09372   0.13169   0.14059   0.14059   0.16372
 Alpha virt. eigenvalues --    0.16438   0.16438   0.21983   0.21983   0.26326

 Mulliken charges:
               1
     1  C    0.099264
     2  C    0.099264
     3  H   -0.033088
     4  H   -0.033088
     5  H   -0.033088
     6  H   -0.033088
     7  H   -0.033088
     8  H   -0.033088
 Sum of Mulliken charges =   0.00000

 Dipole moment (field-independent basis, Debye):
    X=              0.0000    Y=             -0.0000    Z=              0.0000  Tot=              0.0000
 Quadrupole moment (field-independent basis, Debye-Ang):
   XX=            -15.0354   YY=            -15.0354   ZZ=            -15.7659
   XY=             -0.0000   XZ=              0.0000   YZ=             -0.0000

 Normal termination of Gaussian 16 at Mon Mar 21 20:11:24 2022.
