 Gaussian 16, Revision C.01,
 Gaussian 16:  EM64L-G16RevC.01  3-Jul-2019

 ----------------------------------------------------------------------
 #P TD(Nstates=10000) pw91pw91/Gen SCF(maxcycles=100) Int(Grid=ultrafin
 e)
 ----------------------------------------------------------------------

 ---------------------
 xGDB7_00001_tier4.com
 ---------------------
 Symbolic Z-matrix:
 Charge =  0 Multiplicity = 1

                         Standard orientation:
 ---------------------------------------------------------------------
 Center     Atomic      Atomic             Coordinates (Angstroms)
 Number     Number       Type             X           Y           Z
 ---------------------------------------------------------------------
      1          6           0        0.000000    0.729549   -0.367364
      2          6           0       -0.000000   -0.729549   -0.367364
      3          8           0       -0.000000   -0.000000    0.845033
      4          1           0       -0.918945    1.264243   -0.587975
      5          1           0        0.918945    1.264243   -0.587975
      6          1           0        0.918945   -1.264243   -0.587975
      7          1           0       -0.918945   -1.264243   -0.587975
 ---------------------------------------------------------------------

 SCF Done:  E(RPW91-PW91) =  -153.628026787     A.U. after   12 cycles

 Excitation energies and oscillator strengths:

 Excited State   1:      Singlet-B1     6.5422 eV  189.51 nm  f=0.0223  <S**2>=0.000
      12 -> 13         0.70542
 This state for optimization and/or second-order correction.
 Total Energy, E(TD-HF/TD-DFT) =  -153.387605295
 Copying the excited state density for this state as the 1-particle RhoCI density.

 Excited State   2:      Singlet-A2     7.0714 eV  175.33 nm  f=0.0000  <S**2>=0.000
      12 -> 14         0.70662

 Excited State   3:      Singlet-B1     7.2978 eV  169.89 nm  f=0.0120  <S**2>=0.000
      12 -> 15         0.70470

 Excited State   4:      Singlet-A1     7.5917 eV  163.32 nm  f=0.0387  <S**2>=0.000
      12 -> 16         0.70383

 Excited State   5:      Singlet-A2     7.9130 eV  156.68 nm  f=0.0000  <S**2>=0.000
      12 -> 17         0.70642

 Excited State   6:      Singlet-A1     7.9903 eV  155.17 nm  f=0.0014  <S**2>=0.000
      11 -> 13         0.70050

 Excited State   7:      Singlet-B2     8.5887 eV  144.36 nm  f=0.0408  <S**2>=0.000
      11 -> 14         0.69309
      11 -> 17         0.13344

 Excited State   8:      Singlet-A1     8.6988 eV  142.53 nm  f=0.0541  <S**2>=0.000
      11 -> 15         0.69642

 Excited State   9:      Singlet-B1     8.7703 eV  141.37 nm  f=0.0126  <S**2>=0.000
      11 -> 16        -0.14637
      12 -> 18         0.69089

 Excited State  10:      Singlet-B1     8.9793 eV  138.08 nm  f=0.0055  <S**2>=0.000
      11 -> 16         0.69101
      12 -> 18         0.14516

 Excited State  11:      Singlet-B2     9.4816 eV  130.76 nm  f=0.0467  <S**2>=0.000
      12 -> 19         0.70375

 Excited State  12:      Singlet-A2     9.6069 eV  129.06 nm  f=0.0000  <S**2>=0.000
      10 -> 13         0.70473

 Excited State  13:      Singlet-A2     9.8321 eV  126.10 nm  f=0.0000  <S**2>=0.000
      12 -> 20         0.70560

 Excited State  14:      Singlet-B1     9.9201 eV  124.98 nm  f=0.0012  <S**2>=0.000
      12 -> 21         0.70578

 Excited State  15:      Singlet-B2     9.9410 eV  124.72 nm  f=0.1038  <S**2>=0.000
       9 -> 15        -0.15513
      11 -> 14        -0.11274
      11 -> 17         0.64155
      11 -> 20         0.17226

 Excited State  16:      Singlet-A1    10.1564 eV  122.08 nm  f=0.0052  <S**2>=0.000
      11 -> 18         0.69220
      12 -> 22         0.12641

 Excited State  17:      Singlet-B2    10.1818 eV  121.77 nm  f=0.0082  <S**2>=0.000
       9 -> 13         0.69691

 Excited State  18:      Singlet-B1    10.2043 eV  121.50 nm  f=0.0735  <S**2>=0.000
      10 -> 14         0.70462

 Excited State  19:      Singlet-A2    10.2292 eV  121.21 nm  f=0.0000  <S**2>=0.000
      10 -> 15         0.70499

 Excited State  20:      Singlet-A1    10.4865 eV  118.23 nm  f=0.0001  <S**2>=0.000
       9 -> 17         0.18287
      11 -> 18        -0.11847
      11 -> 21         0.12643
      12 -> 22         0.65008

 Excited State  21:      Singlet-B2    10.7503 eV  115.33 nm  f=0.1133  <S**2>=0.000
      10 -> 16         0.68437
      11 -> 20        -0.11617

 Excited State  22:      Singlet-A2    10.7691 eV  115.13 nm  f=0.0000  <S**2>=0.000
      11 -> 19         0.12431
      12 -> 23         0.69108

 Excited State  23:      Singlet-A1    10.7886 eV  114.92 nm  f=0.0159  <S**2>=0.000
       9 -> 14         0.69572

 Excited State  24:      Singlet-A2    10.8753 eV  114.01 nm  f=0.0000  <S**2>=0.000
      11 -> 19         0.69544
      12 -> 23        -0.12184

 Excited State  25:      Singlet-B1    10.9389 eV  113.34 nm  f=0.0041  <S**2>=0.000
      10 -> 17         0.70423

 Excited State  26:      Singlet-B2    11.0189 eV  112.52 nm  f=0.0700  <S**2>=0.000
       9 -> 15         0.66056
      11 -> 20         0.21639

 Excited State  27:      Singlet-A1    11.0690 eV  112.01 nm  f=0.0047  <S**2>=0.000
      12 -> 24         0.69619

 Excited State  28:      Singlet-A2    11.1657 eV  111.04 nm  f=0.0000  <S**2>=0.000
       9 -> 16         0.70464

 Excited State  29:      Singlet-A1    11.4651 eV  108.14 nm  f=0.0025  <S**2>=0.000
       9 -> 17        -0.23351
      10 -> 19         0.10334
      11 -> 21         0.64262

 Excited State  30:      Singlet-B2    11.5511 eV  107.34 nm  f=0.0723  <S**2>=0.000
       9 -> 15        -0.16906
      11 -> 17        -0.18048
      11 -> 20         0.62670
      11 -> 23        -0.10895

 Excited State  31:      Singlet-B1    11.5753 eV  107.11 nm  f=0.0003  <S**2>=0.000
      11 -> 22         0.70156

 Excited State  32:      Singlet-B1    11.7941 eV  105.12 nm  f=0.0053  <S**2>=0.000
      12 -> 25         0.69032

 Excited State  33:      Singlet-A2    11.8985 eV  104.20 nm  f=0.0000  <S**2>=0.000
      10 -> 18         0.70166

 Excited State  34:      Singlet-B2    12.1894 eV  101.71 nm  f=0.0157  <S**2>=0.000
      11 -> 23         0.69008

 Excited State  35:      Singlet-A1    12.2041 eV  101.59 nm  f=0.0027  <S**2>=0.000
       8 -> 13         0.59740
       9 -> 17         0.31264

 Excited State  36:      Singlet-B2    12.4260 eV   99.78 nm  f=0.0065  <S**2>=0.000
       9 -> 18         0.69896

 Excited State  37:      Singlet-A1    12.4517 eV   99.57 nm  f=0.0035  <S**2>=0.000
       8 -> 13        -0.25879
       8 -> 15        -0.21880
       9 -> 17         0.40557
      10 -> 19         0.39055
      11 -> 21         0.11120
      11 -> 27         0.12280
      12 -> 22        -0.10947

 Excited State  38:      Singlet-B1    12.4927 eV   99.24 nm  f=0.0174  <S**2>=0.000
      11 -> 24         0.69099

 Excited State  39:      Singlet-B2    12.6674 eV   97.88 nm  f=0.0264  <S**2>=0.000
      12 -> 26         0.69346

 Excited State  40:      Singlet-B2    12.8349 eV   96.60 nm  f=0.1561  <S**2>=0.000
       8 -> 14         0.69472

 Excited State  41:      Singlet-B1    12.8784 eV   96.27 nm  f=0.0001  <S**2>=0.000
       7 -> 13        -0.24151
      10 -> 20        -0.29080
      12 -> 27         0.58478

 Excited State  42:      Singlet-B1    12.9013 eV   96.10 nm  f=0.0000  <S**2>=0.000
      10 -> 20         0.64209
      12 -> 27         0.26690

 Excited State  43:      Singlet-A2    12.9231 eV   95.94 nm  f=0.0000  <S**2>=0.000
      10 -> 21         0.70642

 Excited State  44:      Singlet-A1    12.9244 eV   95.93 nm  f=0.0107  <S**2>=0.000
       7 -> 16        -0.19319
       8 -> 13         0.21632
       8 -> 15         0.18758
       9 -> 17        -0.17139
       9 -> 20         0.10696
      10 -> 19         0.51017
      11 -> 21        -0.13605
      11 -> 25        -0.15221
      12 -> 22         0.10336

 Excited State  45:      Singlet-B1    12.9926 eV   95.43 nm  f=0.0382  <S**2>=0.000
       7 -> 13         0.60773
       8 -> 16        -0.15999
       9 -> 19         0.24133
      12 -> 27         0.19431

 Excited State  46:      Singlet-A1    13.0793 eV   94.79 nm  f=0.0847  <S**2>=0.000
       8 -> 15         0.58711
       9 -> 17         0.17692
       9 -> 20         0.14154
      11 -> 25         0.17974
      11 -> 27         0.15445
      12 -> 29        -0.16119

 Excited State  47:      Singlet-B1    13.1109 eV   94.57 nm  f=0.0234  <S**2>=0.000
       7 -> 13        -0.15680
       8 -> 16         0.23317
       9 -> 19         0.63856

 Excited State  48:      Singlet-B2    13.2525 eV   93.56 nm  f=0.0313  <S**2>=0.000
      10 -> 22         0.69035

 Excited State  49:      Singlet-B1    13.2806 eV   93.36 nm  f=0.1088  <S**2>=0.000
       7 -> 13         0.15765
       8 -> 16         0.62763
       9 -> 19        -0.15757
      10 -> 23         0.16303
      12 -> 27         0.14211

 Excited State  50:      Singlet-A1    13.2852 eV   93.33 nm  f=0.1187  <S**2>=0.000
       8 -> 15        -0.14799
      10 -> 19         0.12620
      11 -> 25         0.64328
      12 -> 29         0.11763

 Excited State  51:      Singlet-A2    13.4649 eV   92.08 nm  f=0.0000  <S**2>=0.000
       7 -> 14        -0.34127
      12 -> 28         0.61222

 Excited State  52:      Singlet-A2    13.5538 eV   91.48 nm  f=0.0000  <S**2>=0.000
       7 -> 14         0.61355
       9 -> 22        -0.11373
      12 -> 28         0.32576

 Excited State  53:      Singlet-B2    13.5597 eV   91.44 nm  f=0.0244  <S**2>=0.000
       8 -> 17        -0.14106
       9 -> 21         0.68898

 Excited State  54:      Singlet-A1    13.5645 eV   91.40 nm  f=0.0011  <S**2>=0.000
       7 -> 16         0.19884
       9 -> 20         0.61050
      12 -> 29         0.26129

 Excited State  55:      Singlet-B1    13.6489 eV   90.84 nm  f=0.0000  <S**2>=0.000
       7 -> 15         0.66597
      10 -> 23         0.22411

 Excited State  56:      Singlet-A1    13.7418 eV   90.22 nm  f=0.1544  <S**2>=0.000
       8 -> 15         0.11365
       9 -> 20        -0.20259
      11 -> 27         0.23993
      12 -> 29         0.59471

 Excited State  57:      Singlet-B2    13.7656 eV   90.07 nm  f=0.0059  <S**2>=0.000
       8 -> 17         0.66178
       9 -> 21         0.14569
      10 -> 24        -0.14567

 Excited State  58:      Singlet-A2    13.8180 eV   89.73 nm  f=0.0000  <S**2>=0.000
       9 -> 22         0.68703
      12 -> 28         0.12313

 Excited State  59:      Singlet-A2    14.0469 eV   88.26 nm  f=0.0000  <S**2>=0.000
      11 -> 26         0.70085

 Excited State  60:      Singlet-B1    14.1298 eV   87.75 nm  f=0.2298  <S**2>=0.000
       7 -> 15        -0.18033
       7 -> 18         0.14199
      10 -> 23         0.48238
      12 -> 30         0.42513

 Excited State  61:      Singlet-B1    14.2432 eV   87.05 nm  f=0.1009  <S**2>=0.000
       7 -> 18        -0.13939
      10 -> 23        -0.36527
      12 -> 30         0.56170

 Excited State  62:      Singlet-A2    14.2510 eV   87.00 nm  f=0.0000  <S**2>=0.000
      12 -> 31         0.70175

 Excited State  63:      Singlet-A2    14.2808 eV   86.82 nm  f=0.0000  <S**2>=0.000
       7 -> 17         0.69349

 Excited State  64:      Singlet-A1    14.2942 eV   86.74 nm  f=0.0268  <S**2>=0.000
       7 -> 16         0.46767
       8 -> 18         0.33624
       9 -> 23        -0.31210
      10 -> 19         0.10251
      11 -> 27         0.16385

 Excited State  65:      Singlet-B2    14.3282 eV   86.53 nm  f=0.2300  <S**2>=0.000
       8 -> 17         0.13825
       9 -> 25         0.16328
      10 -> 24         0.65321

 Excited State  66:      Singlet-A1    14.4234 eV   85.96 nm  f=0.0154  <S**2>=0.000
       8 -> 18         0.22785
       9 -> 23         0.57556
      11 -> 27         0.29713
      12 -> 32        -0.11401

 Excited State  67:      Singlet-A1    14.5323 eV   85.32 nm  f=0.0131  <S**2>=0.000
       7 -> 16        -0.38824
       8 -> 18         0.47986
       8 -> 21         0.10618
       9 -> 20         0.11976
       9 -> 23        -0.17584
      10 -> 19        -0.12316

 Excited State  68:      Singlet-A2    14.6378 eV   84.70 nm  f=0.0000  <S**2>=0.000
       9 -> 24         0.68304
      10 -> 25         0.16026

 Excited State  69:      Singlet-A1    14.7394 eV   84.12 nm  f=0.0224  <S**2>=0.000
       8 -> 18         0.24501
       8 -> 21        -0.10500
       9 -> 23         0.15519
      11 -> 27        -0.27356
      12 -> 32         0.53964

 Excited State  70:      Singlet-A2    14.8427 eV   83.53 nm  f=0.0000  <S**2>=0.000
       9 -> 24        -0.15725
      10 -> 25         0.67240

 Excited State  71:      Singlet-A1    14.9279 eV   83.06 nm  f=0.1604  <S**2>=0.000
       8 -> 18        -0.18141
       8 -> 21         0.17614
       9 -> 17        -0.12492
       9 -> 28        -0.11519
      10 -> 26        -0.13688
      11 -> 27         0.37816
      12 -> 29        -0.12190
      12 -> 32         0.41828

 Excited State  72:      Singlet-B2    15.0312 eV   82.48 nm  f=0.0451  <S**2>=0.000
      11 -> 28         0.69068

 Excited State  73:      Singlet-B1    15.0328 eV   82.48 nm  f=0.0092  <S**2>=0.000
      11 -> 29         0.69729

 Excited State  74:      Singlet-A2    15.1478 eV   81.85 nm  f=0.0000  <S**2>=0.000
       8 -> 19         0.70111

 Excited State  75:      Singlet-B1    15.2443 eV   81.33 nm  f=0.0019  <S**2>=0.000
       7 -> 18         0.42470
      12 -> 33         0.56153

 Excited State  76:      Singlet-B2    15.4525 eV   80.24 nm  f=0.0363  <S**2>=0.000
       9 -> 25        -0.48145
      11 -> 31         0.11693
      12 -> 34         0.48617

 Excited State  77:      Singlet-B1    15.5492 eV   79.74 nm  f=0.4225  <S**2>=0.000
       7 -> 18         0.48749
       8 -> 22         0.14445
       9 -> 26         0.12374
      10 -> 23        -0.13867
      12 -> 33        -0.39734

 Excited State  78:      Singlet-B2    15.5560 eV   79.70 nm  f=0.0002  <S**2>=0.000
       8 -> 20         0.69137

 Excited State  79:      Singlet-B2    15.6172 eV   79.39 nm  f=0.2312  <S**2>=0.000
       9 -> 25         0.37595
      11 -> 31        -0.30673
      12 -> 34         0.47751

 Excited State  80:      Singlet-A1    15.6842 eV   79.05 nm  f=0.0097  <S**2>=0.000
       8 -> 21        -0.15275
      11 -> 30         0.68267

 Excited State  81:      Singlet-A1    15.7018 eV   78.96 nm  f=0.0369  <S**2>=0.000
       8 -> 21         0.43151
      10 -> 26         0.53569
      11 -> 30         0.10120

 Excited State  82:      Singlet-B2    15.8005 eV   78.47 nm  f=0.1022  <S**2>=0.000
       6 -> 13         0.43976
       9 -> 25         0.13861
      11 -> 31         0.49443
      12 -> 34         0.10217

 Excited State  83:      Singlet-A2    15.8131 eV   78.41 nm  f=0.0000  <S**2>=0.000
      10 -> 27         0.69491

 Excited State  84:      Singlet-B2    15.8503 eV   78.22 nm  f=0.0601  <S**2>=0.000
       6 -> 13        -0.40659
       7 -> 19         0.50214
       9 -> 25         0.13425
      11 -> 31         0.17962

 Excited State  85:      Singlet-B1    15.8808 eV   78.07 nm  f=0.0303  <S**2>=0.000
       8 -> 22         0.67969

 Excited State  86:      Singlet-A1    15.9145 eV   77.91 nm  f=0.1968  <S**2>=0.000
       6 -> 14        -0.17820
       8 -> 21         0.44188
       9 -> 28         0.13402
      10 -> 26        -0.40759
      11 -> 27        -0.12335
      11 -> 30         0.10546
      11 -> 33         0.10741

 Excited State  87:      Singlet-A2    16.0707 eV   77.15 nm  f=0.0000  <S**2>=0.000
      12 -> 35         0.69646

 Excited State  88:      Singlet-B2    16.1724 eV   76.66 nm  f=0.0046  <S**2>=0.000
       6 -> 13         0.25400
       6 -> 15         0.12396
       7 -> 19         0.41477
       8 -> 23         0.23329
       9 -> 25        -0.10419
       9 -> 27        -0.32323
      11 -> 31        -0.22114

 Excited State  89:      Singlet-B1    16.2130 eV   76.47 nm  f=0.0005  <S**2>=0.000
       9 -> 26         0.26402
      11 -> 32         0.64241

 Excited State  90:      Singlet-A2    16.2661 eV   76.22 nm  f=0.0000  <S**2>=0.000
       7 -> 20         0.70500

 Excited State  91:      Singlet-B1    16.2962 eV   76.08 nm  f=0.0159  <S**2>=0.000
       7 -> 21         0.54156
       9 -> 26        -0.40928
      11 -> 32         0.16362

 Excited State  92:      Singlet-B1    16.3759 eV   75.71 nm  f=0.1139  <S**2>=0.000
       7 -> 21         0.44633
       8 -> 24        -0.17799
       9 -> 26         0.46539
      11 -> 32        -0.14858

 Excited State  93:      Singlet-B2    16.4235 eV   75.49 nm  f=0.0277  <S**2>=0.000
       6 -> 15         0.18464
       8 -> 23         0.42330
       9 -> 27         0.51681

 Excited State  94:      Singlet-A1    16.4664 eV   75.30 nm  f=0.0107  <S**2>=0.000
       5 -> 13         0.30376
       6 -> 14         0.56544
       7 -> 22         0.15432
      11 -> 33         0.22131

 Excited State  95:      Singlet-A2    16.5381 eV   74.97 nm  f=0.0000  <S**2>=0.000
      12 -> 37         0.70439

 Excited State  96:      Singlet-B2    16.5462 eV   74.93 nm  f=0.0003  <S**2>=0.000
       6 -> 15         0.52959
       8 -> 23        -0.32364
      10 -> 29         0.32428

 Excited State  97:      Singlet-B1    16.5936 eV   74.72 nm  f=0.0057  <S**2>=0.000
      10 -> 28         0.65174
      12 -> 36        -0.22979

 Excited State  98:      Singlet-B1    16.6055 eV   74.66 nm  f=0.0005  <S**2>=0.000
       8 -> 24         0.10609
      10 -> 28         0.22770
      12 -> 36         0.64561

 Excited State  99:      Singlet-A1    16.6218 eV   74.59 nm  f=0.0115  <S**2>=0.000
       5 -> 13        -0.33370
       7 -> 22         0.61266

 Excited State 100:      Singlet-B2    16.6797 eV   74.33 nm  f=0.0080  <S**2>=0.000
       6 -> 15        -0.37053
       7 -> 19         0.10892
       8 -> 23        -0.16834
       9 -> 27         0.17336
      10 -> 29         0.39152
      12 -> 38        -0.30307

 Excited State 101:      Singlet-A1    16.7077 eV   74.21 nm  f=0.0929  <S**2>=0.000
       5 -> 13        -0.32695
       6 -> 17        -0.10782
       7 -> 22        -0.18638
      11 -> 33         0.58060

 Excited State 102:      Singlet-B2    16.8166 eV   73.73 nm  f=0.0038  <S**2>=0.000
       5 -> 14         0.23095
       6 -> 13         0.11949
       7 -> 19         0.11627
       8 -> 23        -0.23346
       9 -> 27         0.21257
      11 -> 35        -0.14905
      12 -> 38         0.50633

 Excited State 103:      Singlet-B1    16.8337 eV   73.65 nm  f=0.1299  <S**2>=0.000
       8 -> 24         0.65016
       9 -> 26         0.12621
      12 -> 36        -0.10656

 Excited State 104:      Singlet-A2    16.8556 eV   73.56 nm  f=0.0000  <S**2>=0.000
       6 -> 16         0.68715
      10 -> 30         0.10100
      11 -> 34        -0.11652

 Excited State 105:      Singlet-B2    16.8684 eV   73.50 nm  f=0.0913  <S**2>=0.000
       5 -> 14        -0.18508
       6 -> 15        -0.11038
       8 -> 23         0.19817
       9 -> 27        -0.11650
      10 -> 29         0.44661
      11 -> 35         0.11777
      12 -> 38         0.36847

 Excited State 106:      Singlet-A2    16.9315 eV   73.23 nm  f=0.0000  <S**2>=0.000
       6 -> 16         0.11173
      11 -> 34         0.69228

 Excited State 107:      Singlet-B1    16.9921 eV   72.97 nm  f=0.0008  <S**2>=0.000
      12 -> 39         0.70238

 Excited State 108:      Singlet-A1    17.0547 eV   72.70 nm  f=0.0080  <S**2>=0.000
       5 -> 13         0.39260
       6 -> 14        -0.31809
       7 -> 22         0.17209
       7 -> 24        -0.15384
       9 -> 28        -0.12662
       9 -> 31         0.14870
      11 -> 33         0.27843

 Excited State 109:      Singlet-A2    17.1764 eV   72.18 nm  f=0.0000  <S**2>=0.000
       7 -> 23         0.51072
       9 -> 29        -0.23930
      10 -> 30        -0.41957

 Excited State 110:      Singlet-A1    17.1877 eV   72.14 nm  f=0.0222  <S**2>=0.000
       5 -> 15        -0.14298
       6 -> 17         0.39344
       7 -> 24        -0.15206
       8 -> 25         0.29909
       9 -> 28         0.45210

 Excited State 111:      Singlet-A2    17.2814 eV   71.74 nm  f=0.0000  <S**2>=0.000
       9 -> 29         0.60963
      10 -> 30        -0.35106

 Excited State 112:      Singlet-B1    17.3202 eV   71.58 nm  f=0.0158  <S**2>=0.000
       5 -> 16        -0.15870
      10 -> 31         0.67937

 Excited State 113:      Singlet-B2    17.3523 eV   71.45 nm  f=0.0079  <S**2>=0.000
       5 -> 14         0.54270
       5 -> 17         0.11000
      11 -> 35         0.39455

 Excited State 114:      Singlet-A1    17.4154 eV   71.19 nm  f=0.0016  <S**2>=0.000
       5 -> 15         0.45798
       7 -> 24         0.27431
       8 -> 25         0.44502

 Excited State 115:      Singlet-A2    17.4848 eV   70.91 nm  f=0.0000  <S**2>=0.000
       7 -> 23         0.46505
       9 -> 29         0.25708
      10 -> 30         0.42333

 Excited State 116:      Singlet-A1    17.5705 eV   70.56 nm  f=0.0138  <S**2>=0.000
       5 -> 15        -0.32354
       6 -> 17        -0.13905
       7 -> 24         0.51704
       8 -> 27        -0.11857
       9 -> 28         0.16550
       9 -> 31         0.12517

 Excited State 117:      Singlet-B2    17.7339 eV   69.91 nm  f=0.0025  <S**2>=0.000
       5 -> 14         0.16531
       5 -> 17         0.10009
       9 -> 30         0.46267
      11 -> 35        -0.43731

 Excited State 118:      Singlet-A1    17.7340 eV   69.91 nm  f=0.2682  <S**2>=0.000
       5 -> 15        -0.31582
       8 -> 25         0.35612
       8 -> 27         0.14885
       9 -> 28        -0.25122
      11 -> 36         0.31151
      11 -> 39         0.13652
      12 -> 44        -0.15100

 Excited State 119:      Singlet-B1    17.7653 eV   69.79 nm  f=0.0134  <S**2>=0.000
       5 -> 16         0.66913
       7 -> 25        -0.11402
      10 -> 31         0.13823

 Excited State 120:      Singlet-B2    17.9398 eV   69.11 nm  f=0.0003  <S**2>=0.000
       5 -> 17        -0.12720
       6 -> 18        -0.18331
       9 -> 30         0.21678
      10 -> 32         0.16767
      11 -> 35         0.13327
      11 -> 37         0.57492

 Excited State 121:      Singlet-A1    17.9661 eV   69.01 nm  f=0.0468  <S**2>=0.000
       6 -> 17         0.15866
       8 -> 25        -0.12542
       9 -> 31         0.47312
      11 -> 36         0.43829

 Excited State 122:      Singlet-B2    17.9699 eV   69.00 nm  f=0.0002  <S**2>=0.000
       5 -> 17         0.16630
       6 -> 18         0.21907
       9 -> 30        -0.37822
      10 -> 32        -0.23372
      11 -> 35        -0.16680
      11 -> 37         0.40490
      12 -> 41        -0.11911

 Excited State 123:      Singlet-A1    18.0077 eV   68.85 nm  f=0.0288  <S**2>=0.000
       6 -> 17         0.42946
       6 -> 20         0.12763
       7 -> 24         0.23800
       9 -> 28        -0.26397
       9 -> 31        -0.12121
      10 -> 34        -0.10185
      11 -> 36        -0.13279

 The electronic state is 1-A1.
 Alpha  occ. eigenvalues --  -18.79858  -9.96496  -9.96482  -0.99802  -0.60579
 Alpha  occ. eigenvalues --   -0.57479  -0.46949  -0.44297  -0.36806  -0.34541
 Alpha  occ. eigenvalues --   -0.28634  -0.23441
 Alpha virt. eigenvalues --    0.00438   0.02512   0.02760   0.04167   0.05125
 Alpha virt. eigenvalues --    0.08756   0.11257   0.12777   0.12963   0.13795
 Alpha virt. eigenvalues --    0.15943   0.16913   0.19366   0.22954   0.23256

 Mulliken charges:
               1
     1  C    0.634822
     2  C    0.634822
     3  O   -0.582562
     4  H   -0.171770
     5  H   -0.171770
     6  H   -0.171770
     7  H   -0.171770
 Sum of Mulliken charges =  -0.00000

 Dipole moment (field-independent basis, Debye):
    X=             -0.0000    Y=              0.0000    Z=             -1.8052  Tot=              1.8052
 Quadrupole moment (field-independent basis, Debye-Ang):
   XX=            -17.7197   YY=            -16.7921   ZZ=            -20.9861
   XY=              0.0000   XZ=             -0.0000   YZ=             -0.0000

 Normal termination of Gaussian 16 at Mon Mar 21 20:15:19 2022.
