 Gaussian 16, Revision C.01,
 Gaussian 16:  EM64L-G16RevC.01  3-Jul-2019

 ----------------------------------------------------------------------
 #P TD(Nstates=10000) pw91pw91/Gen SCF(maxcycles=100) Int(Grid=ultrafin
 e)
 ----------------------------------------------------------------------

 ---------------------
 xGDB7_00001_tier4.com
 ---------------------
 Symbolic Z-matrix:
 Charge =  0 Multiplicity = 1

                         Standard orientation:
 ---------------------------------------------------------------------
 Center     Atomic      Atomic             Coordinates (Angstroms)
 Number     Number       Type             X           Y           Z
 ---------------------------------------------------------------------
      1          6           0       -1.122844   -0.452320    0.000000
      2          6           0        0.000000    0.553997    0.000000
      3          9           0        1.225284   -0.098236    0.000000
      4          1           0       -2.083314    0.066805    0.000000
      5          1           0       -1.072796   -1.085651    0.886148
      6          1           0       -1.072796   -1.085651   -0.886148
      7          1           0       -0.030794    1.189278    0.888716
      8          1           0       -0.030794    1.189278   -0.888716
 ---------------------------------------------------------------------

 SCF Done:  E(RPW91-PW91) =  -178.871096922     A.U. after   12 cycles

 Excitation energies and oscillator strengths:

 Excited State   1:      Singlet-A"     7.8125 eV  158.70 nm  f=0.0012  <S**2>=0.000
      13 -> 14         0.70649
 This state for optimization and/or second-order correction.
 Total Energy, E(TD-HF/TD-DFT) =  -178.583994246
 Copying the excited state density for this state as the 1-particle RhoCI density.

 Excited State   2:      Singlet-A'     8.0448 eV  154.12 nm  f=0.0148  <S**2>=0.000
      12 -> 14         0.70464

 Excited State   3:      Singlet-A"     8.6283 eV  143.70 nm  f=0.0182  <S**2>=0.000
      13 -> 15         0.70521

 Excited State   4:      Singlet-A'     8.8351 eV  140.33 nm  f=0.0346  <S**2>=0.000
      12 -> 15         0.70173

 Excited State   5:      Singlet-A"     9.2289 eV  134.34 nm  f=0.0167  <S**2>=0.000
      13 -> 16         0.70107

 Excited State   6:      Singlet-A'     9.3601 eV  132.46 nm  f=0.0153  <S**2>=0.000
      12 -> 16         0.37229
      13 -> 17         0.59237

 Excited State   7:      Singlet-A'     9.4648 eV  131.00 nm  f=0.0907  <S**2>=0.000
      12 -> 16         0.59257
      13 -> 17        -0.37220

 Excited State   8:      Singlet-A"     9.4865 eV  130.70 nm  f=0.0234  <S**2>=0.000
      12 -> 17         0.69780

 Excited State   9:      Singlet-A"     9.5813 eV  129.40 nm  f=0.0148  <S**2>=0.000
      11 -> 14         0.69828

 Excited State  10:      Singlet-A'     9.6973 eV  127.85 nm  f=0.0465  <S**2>=0.000
      10 -> 14         0.69924

 Excited State  11:      Singlet-A"     9.8687 eV  125.63 nm  f=0.0009  <S**2>=0.000
      13 -> 18         0.70221

 Excited State  12:      Singlet-A'    10.1106 eV  122.63 nm  f=0.0318  <S**2>=0.000
      12 -> 18         0.69509

 Excited State  13:      Singlet-A"    10.4108 eV  119.09 nm  f=0.0399  <S**2>=0.000
      11 -> 15         0.68765
      13 -> 20        -0.14579

 Excited State  14:      Singlet-A"    10.5046 eV  118.03 nm  f=0.0301  <S**2>=0.000
      11 -> 15         0.14086
      13 -> 20         0.68637

 Excited State  15:      Singlet-A'    10.5284 eV  117.76 nm  f=0.0804  <S**2>=0.000
      10 -> 15         0.69163

 Excited State  16:      Singlet-A'    10.6095 eV  116.86 nm  f=0.0035  <S**2>=0.000
      12 -> 20         0.29040
      13 -> 19         0.62480

 Excited State  17:      Singlet-A"    10.6353 eV  116.58 nm  f=0.0005  <S**2>=0.000
      12 -> 19         0.70495

 Excited State  18:      Singlet-A'    10.6844 eV  116.04 nm  f=0.0041  <S**2>=0.000
      12 -> 20         0.63868
      13 -> 19        -0.28001

 Excited State  19:      Singlet-A"    10.9043 eV  113.70 nm  f=0.0001  <S**2>=0.000
      11 -> 16         0.69968

 Excited State  20:      Singlet-A"    11.0058 eV  112.65 nm  f=0.0003  <S**2>=0.000
      13 -> 21         0.70073

 Excited State  21:      Singlet-A'    11.0082 eV  112.63 nm  f=0.0325  <S**2>=0.000
       9 -> 14         0.54977
      10 -> 16         0.43091

 Excited State  22:      Singlet-A'    11.0927 eV  111.77 nm  f=0.0530  <S**2>=0.000
       9 -> 14        -0.23591
      10 -> 16         0.26067
      11 -> 17         0.57892
      12 -> 21         0.11423

 Excited State  23:      Singlet-A"    11.1000 eV  111.70 nm  f=0.0315  <S**2>=0.000
      10 -> 17         0.70056

 Excited State  24:      Singlet-A'    11.1281 eV  111.41 nm  f=0.0088  <S**2>=0.000
       9 -> 14        -0.33324
      10 -> 16         0.43076
      11 -> 17        -0.36411
      13 -> 22        -0.20271

 Excited State  25:      Singlet-A'    11.2780 eV  109.93 nm  f=0.0220  <S**2>=0.000
       9 -> 14         0.12570
      10 -> 16        -0.16882
      12 -> 21         0.56767
      13 -> 22        -0.35251

 Excited State  26:      Singlet-A'    11.3657 eV  109.09 nm  f=0.0091  <S**2>=0.000
      12 -> 21         0.38322
      13 -> 22         0.56536

 Excited State  27:      Singlet-A"    11.4581 eV  108.21 nm  f=0.0015  <S**2>=0.000
      12 -> 22         0.70436

 Excited State  28:      Singlet-A"    11.6769 eV  106.18 nm  f=0.0142  <S**2>=0.000
      10 -> 19         0.10309
      11 -> 18         0.68345

 Excited State  29:      Singlet-A"    11.7367 eV  105.64 nm  f=0.0004  <S**2>=0.000
      13 -> 23         0.69934

 Excited State  30:      Singlet-A'    11.8434 eV  104.69 nm  f=0.0123  <S**2>=0.000
       9 -> 15         0.60076
      10 -> 18         0.24589
      12 -> 23         0.23854

 Excited State  31:      Singlet-A'    11.9273 eV  103.95 nm  f=0.0603  <S**2>=0.000
       9 -> 15        -0.26987
      10 -> 18         0.14759
      12 -> 23         0.59587
      13 -> 24        -0.20828

 Excited State  32:      Singlet-A'    12.0613 eV  102.79 nm  f=0.1096  <S**2>=0.000
       7 -> 14        -0.15461
       9 -> 15        -0.15167
      10 -> 18         0.55744
      11 -> 19         0.22793
      11 -> 22        -0.10430
      12 -> 23        -0.20254

 Excited State  33:      Singlet-A"    12.1747 eV  101.84 nm  f=0.0153  <S**2>=0.000
       8 -> 14         0.42308
      11 -> 20        -0.15798
      12 -> 24         0.43042
      13 -> 25        -0.31770

 Excited State  34:      Singlet-A"    12.1945 eV  101.67 nm  f=0.0015  <S**2>=0.000
       8 -> 14         0.21309
      10 -> 19        -0.11463
      11 -> 20         0.65786

 Excited State  35:      Singlet-A"    12.2184 eV  101.47 nm  f=0.0396  <S**2>=0.000
       8 -> 14         0.47845
      10 -> 19         0.12756
      11 -> 20        -0.13029
      12 -> 24        -0.47589

 Excited State  36:      Singlet-A'    12.2292 eV  101.38 nm  f=0.0918  <S**2>=0.000
       7 -> 14         0.22046
       9 -> 16        -0.16420
      10 -> 20         0.10386
      11 -> 19         0.20290
      12 -> 23         0.17471
      13 -> 24         0.56031

 Excited State  37:      Singlet-A'    12.2847 eV  100.93 nm  f=0.0273  <S**2>=0.000
       7 -> 14         0.26491
       9 -> 16         0.12453
      10 -> 20         0.48302
      11 -> 19         0.28697
      12 -> 25         0.17702
      13 -> 24        -0.24181

 Excited State  38:      Singlet-A'    12.3359 eV  100.51 nm  f=0.0353  <S**2>=0.000
       7 -> 14         0.55258
       9 -> 16        -0.14852
      10 -> 18         0.16267
      10 -> 20        -0.23294
      10 -> 21        -0.10959
      11 -> 19        -0.17793
      13 -> 24        -0.10694

 Excited State  39:      Singlet-A"    12.3526 eV  100.37 nm  f=0.0024  <S**2>=0.000
       9 -> 17        -0.11943
      10 -> 19         0.52264
      11 -> 20         0.13183
      12 -> 24         0.19841
      13 -> 25         0.38295

 Excited State  40:      Singlet-A'    12.4100 eV   99.91 nm  f=0.0370  <S**2>=0.000
       7 -> 14         0.13913
       9 -> 16         0.51072
      10 -> 20        -0.34411
      11 -> 19         0.26069

 Excited State  41:      Singlet-A"    12.4305 eV   99.74 nm  f=0.0435  <S**2>=0.000
       8 -> 14        -0.11430
       9 -> 17         0.52114
      10 -> 19         0.33425
      13 -> 25        -0.27832

 Excited State  42:      Singlet-A'    12.5503 eV   98.79 nm  f=0.0856  <S**2>=0.000
       9 -> 15        -0.12091
       9 -> 16         0.34181
      10 -> 20         0.25614
      11 -> 19        -0.33914
      12 -> 25        -0.32889
      13 -> 24         0.14282

 Excited State  43:      Singlet-A"    12.5699 eV   98.64 nm  f=0.1189  <S**2>=0.000
       8 -> 14         0.13511
       9 -> 17         0.44830
      10 -> 19        -0.21607
      11 -> 21         0.21032
      12 -> 24         0.18014
      13 -> 25         0.35677

 Excited State  44:      Singlet-A'    12.7667 eV   97.12 nm  f=0.0082  <S**2>=0.000
       9 -> 16         0.13637
      10 -> 21         0.19040
      10 -> 23        -0.12135
      11 -> 19        -0.24216
      12 -> 25         0.54318
      13 -> 24         0.11281

 Excited State  45:      Singlet-A"    12.8038 eV   96.83 nm  f=0.0281  <S**2>=0.000
      11 -> 21         0.66387
      13 -> 25        -0.11502

 Excited State  46:      Singlet-A'    12.9001 eV   96.11 nm  f=0.0185  <S**2>=0.000
       9 -> 18         0.23629
      10 -> 21         0.60733
      11 -> 22        -0.16913
      12 -> 25        -0.10343

 Excited State  47:      Singlet-A"    12.9776 eV   95.54 nm  f=0.0046  <S**2>=0.000
       8 -> 15         0.69031
      10 -> 22         0.11819

 Excited State  48:      Singlet-A'    13.0978 eV   94.66 nm  f=0.0299  <S**2>=0.000
       7 -> 15        -0.35503
       9 -> 18         0.42165
      11 -> 22         0.40806

 Excited State  49:      Singlet-A"    13.1095 eV   94.58 nm  f=0.0095  <S**2>=0.000
       8 -> 15        -0.10844
      10 -> 22         0.68474

 Excited State  50:      Singlet-A'    13.1540 eV   94.26 nm  f=0.0365  <S**2>=0.000
       7 -> 15         0.55822
       7 -> 16         0.12597
       8 -> 17        -0.10879
       9 -> 18         0.35928
      11 -> 22         0.10509

 Excited State  51:      Singlet-A"    13.1796 eV   94.07 nm  f=0.0158  <S**2>=0.000
      13 -> 26         0.69267

 Excited State  52:      Singlet-A'    13.2991 eV   93.23 nm  f=0.0610  <S**2>=0.000
       8 -> 17        -0.19598
       9 -> 18        -0.27772
      10 -> 18         0.10128
      10 -> 21         0.17044
      11 -> 22         0.40797
      12 -> 26        -0.34498
      13 -> 27         0.14723

 Excited State  53:      Singlet-A'    13.4295 eV   92.32 nm  f=0.0093  <S**2>=0.000
       8 -> 17        -0.20301
       9 -> 18        -0.12300
      11 -> 22         0.15164
      12 -> 26         0.59503
      13 -> 27         0.15694

 Excited State  54:      Singlet-A'    13.4897 eV   91.91 nm  f=0.0117  <S**2>=0.000
       8 -> 17         0.16839
      10 -> 23        -0.18815
      13 -> 27         0.63473

 Excited State  55:      Singlet-A"    13.4919 eV   91.89 nm  f=0.0000  <S**2>=0.000
      10 -> 24        -0.10406
      11 -> 23         0.68844

 Excited State  56:      Singlet-A"    13.5996 eV   91.17 nm  f=0.0035  <S**2>=0.000
       8 -> 16         0.58202
       9 -> 19        -0.11082
      12 -> 27        -0.35833

 Excited State  57:      Singlet-A"    13.6405 eV   90.89 nm  f=0.0000  <S**2>=0.000
       8 -> 16         0.31674
       9 -> 19         0.49737
      12 -> 27         0.37846

 Excited State  58:      Singlet-A"    13.6563 eV   90.79 nm  f=0.0001  <S**2>=0.000
       8 -> 16        -0.18959
       9 -> 19         0.48623
      10 -> 24         0.10047
      12 -> 27        -0.45691

 Excited State  59:      Singlet-A'    13.6573 eV   90.78 nm  f=0.0186  <S**2>=0.000
       7 -> 16         0.12344
       8 -> 17         0.13985
       9 -> 20         0.63127
      10 -> 23        -0.23056

 Excited State  60:      Singlet-A"    13.7318 eV   90.29 nm  f=0.0219  <S**2>=0.000
       7 -> 17         0.69011

 Excited State  61:      Singlet-A'    13.7528 eV   90.15 nm  f=0.0270  <S**2>=0.000
       7 -> 16         0.49664
      10 -> 23         0.41785
      11 -> 24        -0.11271

 Excited State  62:      Singlet-A"    13.9279 eV   89.02 nm  f=0.0018  <S**2>=0.000
      10 -> 24         0.57743
      11 -> 25        -0.37355

 Excited State  63:      Singlet-A'    13.9356 eV   88.97 nm  f=0.1038  <S**2>=0.000
       7 -> 16        -0.27953
       7 -> 18         0.19253
       7 -> 20         0.10542
       8 -> 17         0.30570
       9 -> 21        -0.17235
      10 -> 23         0.33279
      10 -> 25         0.10561
      11 -> 24        -0.23559

 Excited State  64:      Singlet-A'    14.0163 eV   88.46 nm  f=0.0971  <S**2>=0.000
       7 -> 16         0.12009
       7 -> 18         0.18575
       8 -> 17         0.30082
      10 -> 23         0.11259
      10 -> 25        -0.21396
      11 -> 22         0.10590
      11 -> 24         0.48519

 Excited State  65:      Singlet-A"    14.0382 eV   88.32 nm  f=0.0025  <S**2>=0.000
      13 -> 28         0.68821

 Excited State  66:      Singlet-A'    14.0501 eV   88.24 nm  f=0.0788  <S**2>=0.000
       7 -> 16        -0.22910
       7 -> 20         0.10500
       8 -> 17        -0.21745
       9 -> 20         0.17793
       9 -> 21         0.39021
      10 -> 23         0.16771
      11 -> 22        -0.10433
      11 -> 24         0.28637
      13 -> 27         0.11268

 Excited State  67:      Singlet-A"    14.1642 eV   87.53 nm  f=0.0027  <S**2>=0.000
       8 -> 18         0.52517
      10 -> 24         0.20623
      11 -> 25         0.40470

 Excited State  68:      Singlet-A'    14.2048 eV   87.28 nm  f=0.0307  <S**2>=0.000
      10 -> 25         0.64735
      11 -> 24         0.15082

 Excited State  69:      Singlet-A'    14.2331 eV   87.11 nm  f=0.0049  <S**2>=0.000
       9 -> 21         0.16356
      12 -> 28         0.67347

 Excited State  70:      Singlet-A"    14.3272 eV   86.54 nm  f=0.0922  <S**2>=0.000
       8 -> 18         0.44272
       8 -> 20         0.10407
       9 -> 22        -0.17142
      10 -> 24        -0.23173
      11 -> 25        -0.38248
      11 -> 26         0.11319

 Excited State  71:      Singlet-A'    14.4458 eV   85.83 nm  f=0.0187  <S**2>=0.000
       7 -> 18         0.52335
       7 -> 20        -0.13696
       9 -> 21         0.27166
      10 -> 26        -0.11747
      11 -> 24        -0.15213
      12 -> 28        -0.10248
      12 -> 29        -0.17826

 Excited State  72:      Singlet-A"    14.4844 eV   85.60 nm  f=0.0273  <S**2>=0.000
       9 -> 22         0.68321
      11 -> 25        -0.10010

 Excited State  73:      Singlet-A'    14.7220 eV   84.22 nm  f=0.0185  <S**2>=0.000
       6 -> 15         0.10142
       7 -> 18        -0.29329
       7 -> 20         0.11455
       8 -> 17         0.25428
       9 -> 21         0.39669
       9 -> 23        -0.11630
      11 -> 22         0.12852
      12 -> 28        -0.10992

 Excited State  74:      Singlet-A"    14.7471 eV   84.07 nm  f=0.0378  <S**2>=0.000
       7 -> 19        -0.11966
      13 -> 29         0.68423

 Excited State  75:      Singlet-A"    14.8583 eV   83.44 nm  f=0.0035  <S**2>=0.000
       7 -> 19         0.35307
       8 -> 20         0.58786
      11 -> 26        -0.10649

 Excited State  76:      Singlet-A'    14.8971 eV   83.23 nm  f=0.0293  <S**2>=0.000
       7 -> 20         0.18732
       8 -> 19         0.55495
      10 -> 26         0.24638
      12 -> 29        -0.25970

 Excited State  77:      Singlet-A"    14.9129 eV   83.14 nm  f=0.0113  <S**2>=0.000
       7 -> 19         0.47901
       8 -> 20        -0.18585
      11 -> 26         0.46947

 Excited State  78:      Singlet-A'    14.9541 eV   82.91 nm  f=0.0024  <S**2>=0.000
       7 -> 20        -0.35368
       8 -> 19         0.18244
       9 -> 21         0.10825
       9 -> 23         0.44426
      10 -> 26         0.20856
      12 -> 29         0.20712

 Excited State  79:      Singlet-A'    15.0311 eV   82.49 nm  f=0.0108  <S**2>=0.000
       6 -> 14        -0.11270
       7 -> 20         0.36113
       8 -> 19        -0.20339
       9 -> 23         0.41808
       9 -> 25         0.10500
      10 -> 26         0.19174
      12 -> 29        -0.16882
      13 -> 30         0.19021

 Excited State  80:      Singlet-A"    15.0357 eV   82.46 nm  f=0.1265  <S**2>=0.000
       7 -> 19        -0.31045
       8 -> 20         0.21751
       8 -> 21        -0.15878
       9 -> 24        -0.21913
      11 -> 26         0.47310
      13 -> 31        -0.14303

 Excited State  81:      Singlet-A'    15.0964 eV   82.13 nm  f=0.0065  <S**2>=0.000
       7 -> 20         0.19046
       8 -> 19         0.16997
      10 -> 26        -0.27604
      11 -> 27        -0.23426
      12 -> 29         0.36154
      13 -> 30         0.36387

 Excited State  82:      Singlet-A'    15.1792 eV   81.68 nm  f=0.0201  <S**2>=0.000
       7 -> 18        -0.10505
       7 -> 20        -0.16014
       7 -> 21         0.13996
       9 -> 23         0.11482
      10 -> 26        -0.33923
      11 -> 27         0.36539
      12 -> 29        -0.22563
      13 -> 30         0.28224

 Excited State  83:      Singlet-A'    15.2458 eV   81.32 nm  f=0.2042  <S**2>=0.000
       6 -> 14         0.17575
       8 -> 19        -0.11689
       9 -> 23        -0.18560
       9 -> 25        -0.14944
      10 -> 26         0.31387
      11 -> 27         0.22502
      12 -> 29         0.15066
      12 -> 31         0.19665
      13 -> 30         0.35740

 Excited State  84:      Singlet-A"    15.2552 eV   81.27 nm  f=0.0033  <S**2>=0.000
       8 -> 21        -0.24254
       9 -> 24         0.59448
      10 -> 27        -0.23785
      13 -> 31        -0.12517

 Excited State  85:      Singlet-A"    15.2715 eV   81.19 nm  f=0.0235  <S**2>=0.000
       8 -> 21        -0.29411
       9 -> 24         0.11326
      10 -> 27         0.50010
      12 -> 30         0.19399
      13 -> 31         0.31455

 Excited State  86:      Singlet-A"    15.2851 eV   81.11 nm  f=0.0004  <S**2>=0.000
      10 -> 27        -0.36785
      12 -> 30         0.44689
      13 -> 31         0.38425

 Excited State  87:      Singlet-A'    15.3229 eV   80.91 nm  f=0.1370  <S**2>=0.000
       7 -> 20         0.17271
       9 -> 25        -0.22187
      11 -> 27         0.43549
      12 -> 29         0.19499
      12 -> 31        -0.31607
      13 -> 30        -0.21108

 Excited State  88:      Singlet-A"    15.3271 eV   80.89 nm  f=0.0002  <S**2>=0.000
       8 -> 21         0.22467
      10 -> 27         0.18883
      12 -> 30         0.49553
      13 -> 31        -0.39677

 Excited State  89:      Singlet-A'    15.4510 eV   80.24 nm  f=0.0359  <S**2>=0.000
       6 -> 14         0.56278
       7 -> 21         0.15521
       8 -> 22        -0.12905
       9 -> 25         0.34765

 Excited State  90:      Singlet-A'    15.4921 eV   80.03 nm  f=0.0009  <S**2>=0.000
       6 -> 14        -0.11426
       7 -> 21         0.63545
       8 -> 22         0.23221

 Excited State  91:      Singlet-A"    15.5488 eV   79.74 nm  f=0.2812  <S**2>=0.000
       7 -> 19        -0.11332
       7 -> 22         0.11523
       8 -> 20         0.16293
       8 -> 21         0.50054
       9 -> 24         0.23121
      11 -> 26         0.11813
      12 -> 30        -0.10400
      12 -> 34         0.10535
      13 -> 31         0.18714

 Excited State  92:      Singlet-A'    15.5592 eV   79.69 nm  f=0.2515  <S**2>=0.000
       7 -> 20         0.12445
       8 -> 19         0.10557
      10 -> 28        -0.17326
      11 -> 27         0.10962
      12 -> 29         0.10497
      12 -> 31         0.55188
      12 -> 32        -0.10385
      13 -> 30        -0.17078
      13 -> 34         0.10128

 Excited State  93:      Singlet-A'    15.7095 eV   78.92 nm  f=0.1577  <S**2>=0.000
       7 -> 21        -0.15725
       8 -> 22         0.55987
       9 -> 25         0.26415
      10 -> 28         0.21298
      11 -> 27         0.11534

 Excited State  94:      Singlet-A"    15.7211 eV   78.86 nm  f=0.0137  <S**2>=0.000
       7 -> 22         0.52195
      11 -> 28        -0.45536

 Excited State  95:      Singlet-A"    15.7396 eV   78.77 nm  f=0.0042  <S**2>=0.000
       7 -> 22         0.45867
      11 -> 28         0.53247

 Excited State  96:      Singlet-A'    15.8730 eV   78.11 nm  f=0.0848  <S**2>=0.000
       7 -> 23         0.17072
       8 -> 22        -0.17709
      10 -> 28         0.60257
      12 -> 32        -0.11741

 Excited State  97:      Singlet-A'    15.9530 eV   77.72 nm  f=0.1062  <S**2>=0.000
       6 -> 14        -0.28974
       6 -> 15        -0.12707
       7 -> 23        -0.11142
       8 -> 22        -0.22430
       9 -> 23        -0.11947
       9 -> 25         0.40534
      11 -> 27         0.13673
      12 -> 29         0.13336
      12 -> 39        -0.10062

 Excited State  98:      Singlet-A"    16.0595 eV   77.20 nm  f=0.0000  <S**2>=0.000
       8 -> 23         0.53468
      13 -> 32        -0.45902

 Excited State  99:      Singlet-A"    16.1227 eV   76.90 nm  f=0.0104  <S**2>=0.000
       8 -> 23         0.45069
      13 -> 32         0.51552

 Excited State 100:      Singlet-A'    16.2529 eV   76.28 nm  f=0.0550  <S**2>=0.000
       6 -> 15        -0.39252
       7 -> 23         0.19909
      12 -> 32         0.52849
      13 -> 34         0.11982

 Excited State 101:      Singlet-A"    16.3051 eV   76.04 nm  f=0.0010  <S**2>=0.000
      13 -> 33         0.69901

 Excited State 102:      Singlet-A'    16.3296 eV   75.93 nm  f=0.0026  <S**2>=0.000
       6 -> 15         0.14746
       7 -> 23         0.51941
       8 -> 24         0.32300
      13 -> 34        -0.15637
      13 -> 36        -0.15847

 Excited State 103:      Singlet-A'    16.3854 eV   75.67 nm  f=0.0025  <S**2>=0.000
       6 -> 15         0.26367
       8 -> 24        -0.16562
       9 -> 26         0.55326
      12 -> 32         0.19207
      12 -> 33        -0.14838

 Excited State 104:      Singlet-A'    16.4339 eV   75.44 nm  f=0.0245  <S**2>=0.000
       6 -> 15        -0.34853
       8 -> 24         0.32739
       9 -> 26         0.37044
      12 -> 32        -0.17994
      13 -> 34        -0.21133

 Excited State 105:      Singlet-A"    16.4802 eV   75.23 nm  f=0.0042  <S**2>=0.000
       7 -> 24         0.65847
       8 -> 25         0.16241
      11 -> 29        -0.14059

 Excited State 106:      Singlet-A"    16.5057 eV   75.12 nm  f=0.0012  <S**2>=0.000
       7 -> 24         0.13780

 The electronic state is 1-A'.
 Alpha  occ. eigenvalues --  -24.27231  -9.98402  -9.91250  -1.07553  -0.69249
 Alpha  occ. eigenvalues --   -0.56685  -0.45167  -0.44759  -0.40572  -0.35497
 Alpha  occ. eigenvalues --   -0.35258  -0.29500  -0.28799
 Alpha virt. eigenvalues --   -0.00287   0.02668   0.04528   0.05143   0.07293
 Alpha virt. eigenvalues --    0.09480   0.09489   0.11559   0.12550   0.14199
 Alpha virt. eigenvalues --    0.15207   0.16212   0.19522   0.20554   0.22380

 Mulliken charges:
               1
     1  C    0.211279
     2  C    0.488623
     3  F   -0.443984
     4  H    0.005685
     5  H    0.003204
     6  H    0.003204
     7  H   -0.134006
     8  H   -0.134006
 Sum of Mulliken charges =   0.00000

 Dipole moment (field-independent basis, Debye):
    X=             -1.7814    Y=              0.6837    Z=             -0.0000  Tot=              1.9081
 Quadrupole moment (field-independent basis, Debye-Ang):
   XX=            -21.0772   YY=            -18.5389   ZZ=            -18.5286
   XY=              0.2895   XZ=             -0.0000   YZ=             -0.0000

 Normal termination of Gaussian 16 at Mon Mar 21 20:20:07 2022.
