 Gaussian 16, Revision C.01,
 Gaussian 16:  EM64L-G16RevC.01  3-Jul-2019

 ---------------------------------------------------------------------
 #P TD(Nstates=10000) m062x/Gen SCF(maxcycles=100) Int(Grid=ultrafine)
 ---------------------------------------------------------------------

 ---------------------
 xGDB7_00001_tier4.com
 ---------------------
 Symbolic Z-matrix:
 Charge =  0 Multiplicity = 1

                         Standard orientation:
 ---------------------------------------------------------------------
 Center     Atomic      Atomic             Coordinates (Angstroms)
 Number     Number       Type             X           Y           Z
 ---------------------------------------------------------------------
      1          6           0       -1.240791   -0.237624   -0.027525
      2          6           0        0.048946    0.559205    0.053709
      3          7           0        1.202342   -0.317606   -0.116703
      4          1           0       -2.109817    0.415828    0.064703
      5          1           0       -1.292929   -0.976209    0.776809
      6          1           0       -1.300329   -0.769884   -0.977746
      7          1           0        0.066306    1.122818    0.997967
      8          1           0        0.069957    1.296574   -0.752592
      9          1           0        1.236408   -1.003082    0.627159
     10          1           0        2.065080    0.207710   -0.076483
 ---------------------------------------------------------------------

 SCF Done:  E(RM062X) =  -135.004719448     A.U. after   13 cycles

 Excitation energies and oscillator strengths:

 Excited State   1:      Singlet-A      6.4672 eV  191.71 nm  f=0.0099  <S**2>=0.000
      13 -> 14         0.63166
      13 -> 15        -0.22418
      13 -> 16         0.19828
 This state for optimization and/or second-order correction.
 Total Energy, E(TD-HF/TD-DFT) =  -134.767055575
 Copying the excited state density for this state as the 1-particle RhoCI density.

 Excited State   2:      Singlet-A      7.6263 eV  162.57 nm  f=0.0028  <S**2>=0.000
      13 -> 14         0.16276
      13 -> 15         0.57978
      13 -> 16         0.16582
      13 -> 17        -0.24625
      13 -> 18         0.15061

 Excited State   3:      Singlet-A      7.7254 eV  160.49 nm  f=0.0323  <S**2>=0.000
      13 -> 14        -0.24231
      13 -> 15        -0.11838
      13 -> 16         0.63334

 Excited State   4:      Singlet-A      8.5205 eV  145.51 nm  f=0.0701  <S**2>=0.000
      13 -> 15         0.25997
      13 -> 17         0.62928

 Excited State   5:      Singlet-A      8.9790 eV  138.08 nm  f=0.0412  <S**2>=0.000
      13 -> 15        -0.13876
      13 -> 18         0.64136
      13 -> 19         0.12208
      13 -> 22         0.10649

 Excited State   6:      Singlet-A      9.3418 eV  132.72 nm  f=0.0022  <S**2>=0.000
      12 -> 14         0.17162
      13 -> 19         0.55749
      13 -> 20        -0.27865
      13 -> 21        -0.18248

 Excited State   7:      Singlet-A      9.4639 eV  131.01 nm  f=0.0016  <S**2>=0.000
      12 -> 14         0.66437
      13 -> 19        -0.17136

 Excited State   8:      Singlet-A      9.7660 eV  126.96 nm  f=0.0009  <S**2>=0.000
      13 -> 18        -0.10861
      13 -> 19         0.23412
      13 -> 20         0.55238
      13 -> 23         0.14336
      13 -> 24        -0.19152

 Excited State   9:      Singlet-A      9.9626 eV  124.45 nm  f=0.0090  <S**2>=0.000
      11 -> 14         0.62698
      12 -> 15        -0.17776
      13 -> 21         0.19362

 Excited State  10:      Singlet-A     10.0648 eV  123.19 nm  f=0.0375  <S**2>=0.000
      10 -> 14        -0.35998
      10 -> 15        -0.10266
      11 -> 14        -0.13936
      13 -> 19         0.17866
      13 -> 21         0.51363
      13 -> 25        -0.11232

 Excited State  11:      Singlet-A     10.1429 eV  122.24 nm  f=0.0511  <S**2>=0.000
      10 -> 14         0.54627
      10 -> 15         0.17419
      11 -> 14        -0.12352
      12 -> 15         0.12151
      13 -> 19         0.12273
      13 -> 21         0.31210

 Excited State  12:      Singlet-A     10.2777 eV  120.63 nm  f=0.0679  <S**2>=0.000
       9 -> 14        -0.13689
      11 -> 14         0.19587
      12 -> 15         0.62962
      13 -> 23        -0.10310

 Excited State  13:      Singlet-A     10.4881 eV  118.21 nm  f=0.0074  <S**2>=0.000
      13 -> 18         0.14305
      13 -> 20        -0.12207
      13 -> 22        -0.23011
      13 -> 23         0.57235
      13 -> 25        -0.13132

 Excited State  14:      Singlet-A     10.6292 eV  116.64 nm  f=0.0153  <S**2>=0.000
      10 -> 15        -0.11606
      12 -> 16         0.14563
      13 -> 22         0.58349
      13 -> 23         0.17603
      13 -> 25        -0.15390

 Excited State  15:      Singlet-A     10.7264 eV  115.59 nm  f=0.1332  <S**2>=0.000
      11 -> 15        -0.12120
      12 -> 16         0.63642
      13 -> 23        -0.11360
      13 -> 24        -0.10972

 Excited State  16:      Singlet-A     10.8203 eV  114.58 nm  f=0.0910  <S**2>=0.000
      11 -> 15         0.62482
      12 -> 16         0.11467
      13 -> 23        -0.14090
      13 -> 25        -0.12878

 Excited State  17:      Singlet-A     10.9104 eV  113.64 nm  f=0.0062  <S**2>=0.000
      10 -> 15         0.23880
      11 -> 15        -0.12433
      13 -> 20         0.18953
      13 -> 24         0.56257

 Excited State  18:      Singlet-A     10.9898 eV  112.82 nm  f=0.0512  <S**2>=0.000
      10 -> 14        -0.17596
      10 -> 15         0.57973
      13 -> 22         0.14952
      13 -> 24        -0.22877

 Excited State  19:      Singlet-A     11.1718 eV  110.98 nm  f=0.0457  <S**2>=0.000
      11 -> 15         0.17738
      11 -> 16         0.22325
      13 -> 23         0.13847
      13 -> 24         0.13858
      13 -> 25         0.52342
      13 -> 28         0.14180

 Excited State  20:      Singlet-A     11.2616 eV  110.09 nm  f=0.0177  <S**2>=0.000
      11 -> 16         0.61524
      12 -> 17         0.10330
      13 -> 25        -0.22222

 Excited State  21:      Singlet-A     11.3201 eV  109.53 nm  f=0.0149  <S**2>=0.000
      10 -> 16        -0.14856
      11 -> 17         0.12804
      12 -> 17         0.62272
      12 -> 18         0.15704

 Excited State  22:      Singlet-A     11.4348 eV  108.43 nm  f=0.0309  <S**2>=0.000
      10 -> 16         0.62459
      10 -> 17        -0.12099
      12 -> 18         0.13696

 Excited State  23:      Singlet-A     11.5896 eV  106.98 nm  f=0.0349  <S**2>=0.000
      12 -> 17        -0.15750
      12 -> 18         0.61962
      12 -> 19        -0.13514

 Excited State  24:      Singlet-A     11.7538 eV  105.48 nm  f=0.0375  <S**2>=0.000
       9 -> 14         0.38299
      10 -> 17        -0.26194
      11 -> 16        -0.10899
      11 -> 17        -0.37871
      13 -> 26         0.14176
      13 -> 27        -0.20400

 Excited State  25:      Singlet-A     11.8391 eV  104.72 nm  f=0.1130  <S**2>=0.000
       9 -> 14         0.31699
      10 -> 17        -0.24761
      11 -> 17         0.50010
      11 -> 18         0.10025
      12 -> 18        -0.10354

 Excited State  26:      Singlet-A     11.8903 eV  104.27 nm  f=0.0009  <S**2>=0.000
       9 -> 14         0.12732
      10 -> 17        -0.16572
      11 -> 17        -0.10815
      11 -> 18        -0.11447
      13 -> 26        -0.17563
      13 -> 27         0.57939
      13 -> 30         0.10266

 Excited State  27:      Singlet-A     11.9547 eV  103.71 nm  f=0.0436  <S**2>=0.000
       9 -> 14        -0.30372
      10 -> 17        -0.35503
      11 -> 18         0.15238
      12 -> 19         0.15060
      13 -> 26         0.38019
      13 -> 27         0.11702

 Excited State  28:      Singlet-A     12.0001 eV  103.32 nm  f=0.0726  <S**2>=0.000
       9 -> 14         0.19352
      10 -> 16         0.12533
      10 -> 17         0.34145
      11 -> 18        -0.13224
      12 -> 19         0.17860
      13 -> 25         0.10068
      13 -> 26         0.42252
      13 -> 27         0.17664

 Excited State  29:      Singlet-A     12.0940 eV  102.52 nm  f=0.0121  <S**2>=0.000
       9 -> 14         0.13597
      10 -> 17         0.16159
      11 -> 18         0.56754
      11 -> 19        -0.12135
      13 -> 28         0.16448

 Excited State  30:      Singlet-A     12.1539 eV  102.01 nm  f=0.0059  <S**2>=0.000
       9 -> 15         0.20235
      10 -> 18        -0.28718
      12 -> 19         0.49375
      12 -> 20         0.10813
      12 -> 24         0.12159
      13 -> 26        -0.19596

 Excited State  31:      Singlet-A     12.2262 eV  101.41 nm  f=0.0747  <S**2>=0.000
       9 -> 15        -0.12272
      10 -> 18         0.37999
      11 -> 19         0.12835
      12 -> 19         0.28361
      12 -> 20        -0.32864
      13 -> 26        -0.10369
      13 -> 28        -0.21016

 Excited State  32:      Singlet-A     12.3759 eV  100.18 nm  f=0.0630  <S**2>=0.000
      10 -> 18         0.25535
      11 -> 18        -0.13634
      11 -> 19         0.10783
      13 -> 25        -0.18477
      13 -> 28         0.53956

 Excited State  33:      Singlet-A     12.3856 eV  100.10 nm  f=0.0823  <S**2>=0.000
       9 -> 16         0.19649
      10 -> 18         0.30187
      12 -> 19         0.10069
      12 -> 20         0.46417
      12 -> 21         0.26722
      13 -> 28        -0.10412

 Excited State  34:      Singlet-A     12.4959 eV   99.22 nm  f=0.0333  <S**2>=0.000
       9 -> 15        -0.12316
      10 -> 18        -0.21051
      11 -> 19         0.43949
      12 -> 21         0.37549
      12 -> 22        -0.11532

 Excited State  35:      Singlet-A     12.5981 eV   98.41 nm  f=0.0651  <S**2>=0.000
       9 -> 16        -0.17989
      10 -> 19        -0.12871
      11 -> 18        -0.18135
      11 -> 19        -0.35685
      11 -> 20         0.18963
      12 -> 21         0.40564
      12 -> 22        -0.11811
      13 -> 29        -0.10672

 Excited State  36:      Singlet-A     12.6922 eV   97.69 nm  f=0.0273  <S**2>=0.000
       9 -> 15        -0.16180
      10 -> 19         0.56103
      10 -> 20        -0.12918
      11 -> 20         0.11247
      13 -> 29        -0.20068

 Excited State  37:      Singlet-A     12.7641 eV   97.13 nm  f=0.0340  <S**2>=0.000
       7 -> 14         0.10538
       9 -> 15         0.48182
      10 -> 19         0.13688
      10 -> 20        -0.13033
      10 -> 21         0.11092
      11 -> 20        -0.27413
      12 -> 20        -0.11569
      13 -> 29        -0.13709

 Excited State  38:      Singlet-A     12.8296 eV   96.64 nm  f=0.0510  <S**2>=0.000
       8 -> 14         0.18718
      10 -> 19         0.13785
      10 -> 20        -0.15807
      10 -> 21        -0.11172
      11 -> 19        -0.18586
      11 -> 20        -0.12532
      11 -> 21         0.10162
      12 -> 21         0.11664
      13 -> 29         0.50710

 Excited State  39:      Singlet-A     12.8845 eV   96.23 nm  f=0.0521  <S**2>=0.000
       8 -> 14        -0.11022
       9 -> 15         0.18239
       9 -> 16        -0.10357
      10 -> 21         0.15591
      11 -> 19         0.14558
      11 -> 20         0.43637
      11 -> 21         0.26879
      12 -> 20         0.10824
      13 -> 29         0.14597
      13 -> 31         0.10708

 Excited State  40:      Singlet-A     12.9627 eV   95.65 nm  f=0.1181  <S**2>=0.000
       9 -> 16         0.39765
      10 -> 19        -0.15868
      10 -> 20        -0.35575
      12 -> 20        -0.18293
      12 -> 22         0.22647

 Excited State  41:      Singlet-A     13.0199 eV   95.23 nm  f=0.1005  <S**2>=0.000
       8 -> 14         0.14141
      10 -> 20         0.21850
      10 -> 21         0.26266
      11 -> 20        -0.20644
      11 -> 21         0.43410
      11 -> 22        -0.11357
      12 -> 22         0.13121
      13 -> 29        -0.11585

 Excited State  42:      Singlet-A     13.0696 eV   94.86 nm  f=0.0901  <S**2>=0.000
       8 -> 14         0.58802
      10 -> 19        -0.12637
      11 -> 20         0.16711

 Excited State  43:      Singlet-A     13.0743 eV   94.83 nm  f=0.0995  <S**2>=0.000
       9 -> 16         0.10848
       9 -> 17        -0.16122
      10 -> 21         0.43082
      11 -> 19        -0.12647
      12 -> 22        -0.33136
      13 -> 29         0.17190
      13 -> 31        -0.10395

 Excited State  44:      Singlet-A     13.1439 eV   94.33 nm  f=0.0330  <S**2>=0.000
       9 -> 16        -0.17464
       9 -> 17         0.23227
      10 -> 21         0.23514
      10 -> 22        -0.14022
      11 -> 21        -0.26238
      11 -> 22         0.10774
      12 -> 21         0.10293
      12 -> 22         0.37253
      12 -> 23         0.11570
      13 -> 29         0.10681

 Excited State  45:      Singlet-A     13.1904 eV   94.00 nm  f=0.1029  <S**2>=0.000
       7 -> 14        -0.12035
       9 -> 15         0.22811
       9 -> 16         0.32055
       9 -> 17         0.10696
      10 -> 20         0.37007
      11 -> 20         0.15924
      12 -> 20        -0.16874
      12 -> 21         0.10619
      12 -> 23         0.19459

 Excited State  46:      Singlet-A     13.2944 eV   93.26 nm  f=0.0480  <S**2>=0.000
       9 -> 17         0.20877
       9 -> 18        -0.10746
      10 -> 19        -0.10429
      10 -> 20        -0.16951
      11 -> 21         0.10939
      11 -> 22        -0.16793
      12 -> 20         0.15039
      12 -> 22        -0.11122
      12 -> 23         0.46549
      13 -> 29        -0.10900

 Excited State  47:      Singlet-A     13.4675 eV   92.06 nm  f=0.0064  <S**2>=0.000
      11 -> 22        -0.12555
      12 -> 22        -0.11402
      12 -> 24         0.46477
      12 -> 25         0.15473
      13 -> 30         0.30427

 Excited State  48:      Singlet-A     13.5129 eV   91.75 nm  f=0.0200  <S**2>=0.000
       7 -> 14         0.17127
       9 -> 17        -0.14202
      10 -> 22         0.35429
      11 -> 22         0.36972
      12 -> 22         0.12786
      12 -> 23         0.22822
      13 -> 30         0.12552

 Excited State  49:      Singlet-A     13.6393 eV   90.90 nm  f=0.0439  <S**2>=0.000
       7 -> 14        -0.23447
       9 -> 16        -0.11500
      12 -> 24        -0.24483
      13 -> 30         0.49112
      13 -> 31        -0.14140

 Excited State  50:      Singlet-A     13.6731 eV   90.68 nm  f=0.0569  <S**2>=0.000
       7 -> 14        -0.22361
       9 -> 17        -0.14707
      10 -> 21         0.14073
      10 -> 22         0.23387
      11 -> 21        -0.16652
      11 -> 22        -0.28091
      11 -> 23         0.15543
      13 -> 28         0.10324
      13 -> 31         0.31485

 Excited State  51:      Singlet-A     13.7081 eV   90.45 nm  f=0.0834  <S**2>=0.000
       7 -> 14        -0.25435
       9 -> 17         0.16358
       9 -> 18        -0.14398
      10 -> 24        -0.13499
      11 -> 22         0.27261
      11 -> 23        -0.24339
      12 -> 22        -0.11994
      12 -> 23        -0.17938
      13 -> 31         0.27750

 Excited State  52:      Singlet-A     13.7137 eV   90.41 nm  f=0.0676  <S**2>=0.000
       7 -> 14         0.27446
       8 -> 15         0.14037
       9 -> 16         0.10019
      10 -> 22        -0.24679
      10 -> 24         0.10938
      13 -> 30         0.21126
      13 -> 31         0.37164

 Excited State  53:      Singlet-A     13.8503 eV   89.52 nm  f=0.0763  <S**2>=0.000
       7 -> 14        -0.21639
       8 -> 15         0.32694
       8 -> 16        -0.13781
       9 -> 17        -0.16750
      10 -> 24         0.27863
      11 -> 22         0.13235
      11 -> 23        -0.12298
      12 -> 23         0.15838
      12 -> 24         0.18304
      12 -> 25         0.11173
      13 -> 30        -0.10345

 Excited State  54:      Singlet-A     13.8937 eV   89.24 nm  f=0.0381  <S**2>=0.000
       7 -> 14        -0.11286
       9 -> 17         0.27670
       9 -> 18         0.29442
      10 -> 21         0.10610
      10 -> 22         0.12977
      11 -> 22         0.10381
      11 -> 24         0.33779
      12 -> 25         0.24931

 Excited State  55:      Singlet-A     13.9252 eV   89.04 nm  f=0.0377  <S**2>=0.000
       8 -> 15         0.37002
       9 -> 17         0.24572
       9 -> 18        -0.19364
      10 -> 22         0.17082
      10 -> 23        -0.15947
      11 -> 23         0.24104
      11 -> 24        -0.15347
      11 -> 25        -0.10903
      12 -> 25        -0.10804

 Excited State  56:      Singlet-A     14.0250 eV   88.40 nm  f=0.0293  <S**2>=0.000
       8 -> 15        -0.27208
       9 -> 17         0.19206
       9 -> 19         0.15957
      10 -> 17         0.11072
      10 -> 21         0.10484
      10 -> 22         0.11225
      10 -> 23         0.29637
      10 -> 24         0.33593
      10 -> 25         0.13731
      12 -> 27        -0.10007

 Excited State  57:      Singlet-A     14.0524 eV   88.23 nm  f=0.0562  <S**2>=0.000
       9 -> 18        -0.12792
      11 -> 23         0.18339
      11 -> 24        -0.26391
      12 -> 24        -0.13646
      12 -> 25         0.47488
      12 -> 27        -0.10009

 Excited State  58:      Singlet-A     14.0940 eV   87.97 nm  f=0.0188  <S**2>=0.000
       8 -> 16         0.34917
       9 -> 17        -0.19962
       9 -> 18        -0.25845
       9 -> 19         0.12115
      10 -> 22        -0.10424
      10 -> 23        -0.12227
      10 -> 24         0.15858
      11 -> 24         0.29479

 Excited State  59:      Singlet-A     14.1490 eV   87.63 nm  f=0.0061  <S**2>=0.000
       8 -> 15        -0.19554
       8 -> 16        -0.29355
      10 -> 20        -0.13786
      11 -> 22         0.18211
      11 -> 23         0.35727
      12 -> 24         0.11985
      12 -> 26         0.14228
      12 -> 27        -0.10529
      13 -> 32        -0.15589

 Excited State  60:      Singlet-A     14.2054 eV   87.28 nm  f=0.0480  <S**2>=0.000
       8 -> 15        -0.10089
       8 -> 16         0.33780
       9 -> 18         0.29512
      11 -> 23         0.18454
      11 -> 24        -0.27484
      12 -> 25        -0.15894
      12 -> 27         0.10123
      13 -> 32         0.14289

 Excited State  61:      Singlet-A     14.2713 eV   86.88 nm  f=0.0335  <S**2>=0.000
       8 -> 15         0.13939
       8 -> 16         0.14829
       9 -> 18         0.11675
       9 -> 19         0.20143
      10 -> 23         0.35641
      10 -> 24        -0.27919
      10 -> 27         0.10334
      12 -> 24         0.12333
      12 -> 26         0.18292
      13 -> 32         0.11824

 Excited State  62:      Singlet-A     14.3551 eV   86.37 nm  f=0.0361  <S**2>=0.000
       9 -> 18         0.15374
      10 -> 23        -0.15084
      11 -> 23        -0.16575
      11 -> 25        -0.21616
      12 -> 24        -0.11287
      12 -> 26         0.21556
      12 -> 27        -0.21937
      13 -> 32         0.27143
      13 -> 33        -0.25435

 Excited State  63:      Singlet-A     14.4627 eV   85.73 nm  f=0.0158  <S**2>=0.000
       8 -> 16         0.13570
      10 -> 23        -0.12281
      11 -> 25        -0.13433
      12 -> 26         0.20884
      12 -> 27        -0.24255
      13 -> 31        -0.10475
      13 -> 32        -0.29448
      13 -> 33         0.32115
      13 -> 34         0.24392
      13 -> 41        -0.10152

 Excited State  64:      Singlet-A     14.5037 eV   85.48 nm  f=0.0616  <S**2>=0.000
       8 -> 16        -0.18739
      11 -> 24         0.11790
      13 -> 32         0.43794
      13 -> 33         0.26871
      13 -> 34         0.28266

 Excited State  65:      Singlet-A     14.5457 eV   85.24 nm  f=0.0701  <S**2>=0.000
       8 -> 17         0.13383
       9 -> 19         0.39467
       9 -> 20        -0.15007
      10 -> 22         0.14717
      10 -> 23        -0.20671
      11 -> 25         0.25086
      11 -> 27        -0.10246
      12 -> 27        -0.14993
      13 -> 32         0.11933
      13 -> 33         0.11347
      13 -> 34        -0.13644

 Excited State  66:      Singlet-A     14.6507 eV   84.63 nm  f=0.0747  <S**2>=0.000
       7 -> 15         0.11469
       9 -> 21         0.19779
       9 -> 22        -0.13821
      10 -> 25         0.20802
      10 -> 27        -0.14695
      11 -> 25         0.25937
      12 -> 25         0.12490
      12 -> 26         0.39806
      12 -> 27         0.21408

 Excited State  67:      Singlet-A     14.6887 eV   84.41 nm  f=0.0631  <S**2>=0.000
       7 -> 14        -0.17041
       7 -> 15        -0.22196
       7 -> 16         0.22716
       8 -> 17        -0.18293
       9 -> 19        -0.16578
       9 -> 20        -0.11560
      10 -> 25         0.33988
      11 -> 25         0.16663
      12 -> 25        -0.10563
      12 -> 27        -0.24077

 Excited State  68:      Singlet-A     14.7271 eV   84.19 nm  f=0.0497  <S**2>=0.000
       7 -> 14         0.12628
       7 -> 15         0.36775
       7 -> 16        -0.18648
       9 -> 21         0.11966
      10 -> 24        -0.13684
      10 -> 25         0.26814
      10 -> 27        -0.11821
      11 -> 27        -0.14477
      12 -> 26        -0.23165
      12 -> 27        -0.12984
      13 -> 34         0.10664

 Excited State  69:      Singlet-A     14.7868 eV   83.85 nm  f=0.0421  <S**2>=0.000
       7 -> 15        -0.19150
       7 -> 16         0.10916
       8 -> 17         0.25043
       9 -> 19         0.21440
       9 -> 21         0.20310
      10 -> 25         0.10154
      12 -> 27         0.13426
      13 -> 32        -0.11251
      13 -> 33        -0.18724
      13 -> 34         0.33736
      13 -> 35         0.10823

 Excited State  70:      Singlet-A     14.8207 eV   83.66 nm  f=0.0408  <S**2>=0.000
       8 -> 17         0.37998
       9 -> 19        -0.10755
       9 -> 20        -0.16177
       9 -> 21        -0.16296
      10 -> 25         0.30684
      10 -> 27         0.12249
      11 -> 26         0.15912
      11 -> 27        -0.13004
      12 -> 28        -0.14678

 The electronic state is 1-A.
 Alpha  occ. eigenvalues --  -14.73679 -10.57077 -10.53732  -0.97511  -0.81586
 Alpha  occ. eigenvalues --   -0.67999  -0.56186  -0.53497  -0.49195  -0.43012
 Alpha  occ. eigenvalues --   -0.42595  -0.40610  -0.30389
 Alpha virt. eigenvalues --    0.04376   0.06915   0.08617   0.11349   0.12973
 Alpha virt. eigenvalues --    0.14726   0.15648   0.16486   0.18189   0.19612
 Alpha virt. eigenvalues --    0.19919   0.22348   0.23157   0.23725   0.27023

 Mulliken charges:
               1
     1  C    0.324112
     2  C    0.071307
     3  N   -0.194839
     4  H    0.002535
     5  H   -0.013214
     6  H    0.028095
     7  H   -0.103778
     8  H   -0.133416
     9  H    0.044640
    10  H   -0.025442
 Sum of Mulliken charges =  -0.00000

 Dipole moment (field-independent basis, Debye):
    X=              0.1374    Y=              0.6050    Z=              1.1108  Tot=              1.2723
 Quadrupole moment (field-independent basis, Debye-Ang):
   XX=            -19.5570   YY=            -20.8454   ZZ=            -21.5492
   XY=              0.7312   XZ=              1.5622   YZ=             -1.6887

 Normal termination of Gaussian 16 at Mon Mar 21 04:13:06 2022.
