 Gaussian 16, Revision C.01,
 Gaussian 16:  EM64L-G16RevC.01  3-Jul-2019

 ---------------------------------------------------------------------
 #P TD(Nstates=10000) m062x/Gen SCF(maxcycles=100) Int(Grid=ultrafine)
 ---------------------------------------------------------------------

 ---------------------
 xGDB7_00001_tier4.com
 ---------------------
 Symbolic Z-matrix:
 Charge =  0 Multiplicity = 1

                         Standard orientation:
 ---------------------------------------------------------------------
 Center     Atomic      Atomic             Coordinates (Angstroms)
 Number     Number       Type             X           Y           Z
 ---------------------------------------------------------------------
      1          6           0        0.037922   -0.393776    0.738519
      2          6           0        0.037922   -0.393776   -0.738519
      3          7           0        0.037922    0.865964    0.000000
      4          1           0        0.953211   -0.606479    1.276872
      5          1           0       -0.870248   -0.700655    1.244917
      6          1           0       -0.870248   -0.700655   -1.244917
      7          1           0        0.953211   -0.606479   -1.276872
      8          1           0       -0.886454    1.277834    0.000000
 ---------------------------------------------------------------------

 SCF Done:  E(RM062X) =  -133.765282574     A.U. after   12 cycles

 Excitation energies and oscillator strengths:

 Excited State   1:      Singlet-A'     6.9400 eV  178.65 nm  f=0.0011  <S**2>=0.000
      12 -> 13         0.62587
      12 -> 15         0.31341
 This state for optimization and/or second-order correction.
 Total Energy, E(TD-HF/TD-DFT) =  -133.510241115
 Copying the excited state density for this state as the 1-particle RhoCI density.

 Excited State   2:      Singlet-A'     7.8356 eV  158.23 nm  f=0.0336  <S**2>=0.000
      12 -> 13        -0.31092
      12 -> 15         0.61726

 Excited State   3:      Singlet-A"     7.8452 eV  158.04 nm  f=0.0080  <S**2>=0.000
      12 -> 14         0.69661

 Excited State   4:      Singlet-A'     8.5948 eV  144.25 nm  f=0.0692  <S**2>=0.000
      12 -> 16         0.68171

 Excited State   5:      Singlet-A"     8.8939 eV  139.40 nm  f=0.0442  <S**2>=0.000
      11 -> 18         0.11876
      12 -> 18         0.66594
      12 -> 21         0.10196

 Excited State   6:      Singlet-A'     9.1202 eV  135.94 nm  f=0.0162  <S**2>=0.000
      11 -> 13         0.65114
      11 -> 15         0.20002

 Excited State   7:      Singlet-A"     9.4568 eV  131.11 nm  f=0.0000  <S**2>=0.000
      10 -> 13         0.64220
      10 -> 15         0.26847

 Excited State   8:      Singlet-A'     9.6011 eV  129.14 nm  f=0.0096  <S**2>=0.000
      11 -> 13         0.14372
      11 -> 15        -0.13678
      12 -> 17         0.65996

 Excited State   9:      Singlet-A"     9.8978 eV  125.26 nm  f=0.0470  <S**2>=0.000
       9 -> 13        -0.25304
      10 -> 15         0.14853
      11 -> 14         0.62964

 Excited State  10:      Singlet-A'     9.9803 eV  124.23 nm  f=0.0573  <S**2>=0.000
      11 -> 13        -0.17674
      11 -> 15         0.63887
      12 -> 17         0.17588

 Excited State  11:      Singlet-A"    10.2650 eV  120.78 nm  f=0.0420  <S**2>=0.000
       9 -> 13         0.48098
      10 -> 13         0.18683
      10 -> 15        -0.35062
      11 -> 14         0.29279

 Excited State  12:      Singlet-A"    10.3070 eV  120.29 nm  f=0.0580  <S**2>=0.000
       9 -> 13         0.42119
      10 -> 13        -0.18489
      10 -> 15         0.51090

 Excited State  13:      Singlet-A'    10.3558 eV  119.72 nm  f=0.0267  <S**2>=0.000
      10 -> 14         0.68381
      12 -> 20        -0.12168

 Excited State  14:      Singlet-A"    10.4345 eV  118.82 nm  f=0.0292  <S**2>=0.000
      12 -> 19         0.68195
      12 -> 21         0.11375

 Excited State  15:      Singlet-A'    10.4539 eV  118.60 nm  f=0.0092  <S**2>=0.000
      10 -> 14         0.12373
      12 -> 20         0.65252

 Excited State  16:      Singlet-A'    10.6896 eV  115.99 nm  f=0.0376  <S**2>=0.000
      11 -> 16         0.67541

 Excited State  17:      Singlet-A"    10.9358 eV  113.37 nm  f=0.0174  <S**2>=0.000
       9 -> 15        -0.32134
      10 -> 16         0.54449
      11 -> 18        -0.24602

 Excited State  18:      Singlet-A'    11.0070 eV  112.64 nm  f=0.0806  <S**2>=0.000
       9 -> 14         0.66842

 Excited State  19:      Singlet-A"    11.0992 eV  111.71 nm  f=0.0028  <S**2>=0.000
       9 -> 15        -0.32716
      10 -> 16        -0.19416
      11 -> 18         0.14981
      12 -> 19        -0.13363
      12 -> 21         0.50683
      12 -> 22        -0.15487

 Excited State  20:      Singlet-A"    11.2067 eV  110.63 nm  f=0.0734  <S**2>=0.000
       9 -> 15         0.45881
      10 -> 16         0.32473
      11 -> 18         0.20243
      12 -> 18        -0.11159
      12 -> 21         0.30138
      12 -> 22        -0.11445

 Excited State  21:      Singlet-A"    11.4678 eV  108.11 nm  f=0.1105  <S**2>=0.000
       9 -> 15        -0.19984
       9 -> 16        -0.12448
      10 -> 16         0.17059
      11 -> 18         0.52931
      12 -> 21        -0.15470
      12 -> 22         0.25730

 Excited State  22:      Singlet-A'    11.5771 eV  107.09 nm  f=0.0531  <S**2>=0.000
      10 -> 18         0.47334
      12 -> 23        -0.41345
      12 -> 24        -0.23178

 Excited State  23:      Singlet-A'    11.7108 eV  105.87 nm  f=0.0290  <S**2>=0.000
      10 -> 18        -0.13642
      11 -> 17         0.54262
      12 -> 23        -0.32005
      12 -> 24         0.19831

 Excited State  24:      Singlet-A"    11.7518 eV  105.50 nm  f=0.0016  <S**2>=0.000
      11 -> 18        -0.15818
      12 -> 21         0.27857
      12 -> 22         0.60020

 Excited State  25:      Singlet-A'    11.8974 eV  104.21 nm  f=0.0138  <S**2>=0.000
      10 -> 18        -0.12008
      11 -> 17        -0.39008
      12 -> 23        -0.36329
      12 -> 24         0.39885
      12 -> 25        -0.13843

 Excited State  26:      Singlet-A"    11.9703 eV  103.58 nm  f=0.0693  <S**2>=0.000
       9 -> 16         0.56977
      10 -> 17         0.36128

 Excited State  27:      Singlet-A'    12.0369 eV  103.00 nm  f=0.0066  <S**2>=0.000
       9 -> 14         0.10002
       9 -> 18         0.65292

 Excited State  28:      Singlet-A"    12.1070 eV  102.41 nm  f=0.0531  <S**2>=0.000
       9 -> 16        -0.34645
      10 -> 17         0.58685

 Excited State  29:      Singlet-A'    12.2571 eV  101.15 nm  f=0.0288  <S**2>=0.000
      10 -> 18         0.31663
      11 -> 17         0.13872
      11 -> 20         0.27693
      12 -> 23         0.21633
      12 -> 24         0.33432
      12 -> 25        -0.29297
      12 -> 27         0.12126

 Excited State  30:      Singlet-A'    12.3455 eV  100.43 nm  f=0.0108  <S**2>=0.000
      12 -> 24         0.26200
      12 -> 25         0.58180
      12 -> 27         0.16638

 Excited State  31:      Singlet-A"    12.5048 eV   99.15 nm  f=0.0006  <S**2>=0.000
      11 -> 19         0.68085

 Excited State  32:      Singlet-A"    12.8138 eV   96.76 nm  f=0.0012  <S**2>=0.000
       8 -> 14         0.10770
       9 -> 17         0.64088
      10 -> 20         0.13171

 Excited State  33:      Singlet-A'    12.8706 eV   96.33 nm  f=0.0290  <S**2>=0.000
      10 -> 19         0.65214
      11 -> 20        -0.18017

 Excited State  34:      Singlet-A"    12.8849 eV   96.22 nm  f=0.0005  <S**2>=0.000
       9 -> 17        -0.13784
      10 -> 20         0.65694

 Excited State  35:      Singlet-A'    12.9763 eV   95.55 nm  f=0.0396  <S**2>=0.000
       8 -> 13        -0.10861
       9 -> 19        -0.13481
      10 -> 19         0.17750
      10 -> 21        -0.13172
      11 -> 20         0.48691
      12 -> 25         0.16001
      12 -> 27        -0.27720
      12 -> 28         0.15668

 Excited State  36:      Singlet-A"    13.0173 eV   95.25 nm  f=0.0509  <S**2>=0.000
      12 -> 26         0.66251

 Excited State  37:      Singlet-A'    13.2334 eV   93.69 nm  f=0.0161  <S**2>=0.000
       8 -> 13         0.61381
       8 -> 15         0.19744
       9 -> 19        -0.15873
      12 -> 28         0.11499

 Excited State  38:      Singlet-A"    13.3129 eV   93.13 nm  f=0.0129  <S**2>=0.000
      11 -> 18        -0.10048
      11 -> 21         0.59813
      11 -> 22        -0.28941

 Excited State  39:      Singlet-A'    13.3178 eV   93.10 nm  f=0.1284  <S**2>=0.000
      10 -> 18        -0.20729
      11 -> 20         0.21563
      11 -> 23         0.13390
      11 -> 24         0.15308
      12 -> 27         0.53428

 Excited State  40:      Singlet-A'    13.6310 eV   90.96 nm  f=0.0493  <S**2>=0.000
       8 -> 13        -0.14742
       9 -> 19        -0.38812
      10 -> 21         0.47394
      11 -> 23        -0.16394
      12 -> 28         0.11348

 Excited State  41:      Singlet-A'    13.7004 eV   90.50 nm  f=0.0813  <S**2>=0.000
       8 -> 13        -0.11481
       8 -> 15         0.13099
       9 -> 19         0.15381
      10 -> 18         0.12495
      11 -> 20        -0.12011
      11 -> 23         0.28092
      11 -> 24        -0.18239
      12 -> 28         0.49616

 Excited State  42:      Singlet-A"    13.7429 eV   90.22 nm  f=0.0257  <S**2>=0.000
       8 -> 14         0.34814
       8 -> 18        -0.14664
       9 -> 17        -0.16211
       9 -> 20         0.43995
      11 -> 22        -0.15129
      12 -> 29        -0.24309

 Excited State  43:      Singlet-A"    13.7993 eV   89.85 nm  f=0.0631  <S**2>=0.000
       8 -> 14         0.17281
      11 -> 21         0.28883
      11 -> 22         0.58606

 Excited State  44:      Singlet-A'    13.8251 eV   89.68 nm  f=0.0182  <S**2>=0.000
       8 -> 15        -0.20215
       9 -> 19        -0.18904
      10 -> 21         0.10890
      11 -> 23         0.57132
      12 -> 27        -0.11376
      12 -> 28        -0.17850

 Excited State  45:      Singlet-A'    13.9292 eV   89.01 nm  f=0.0909  <S**2>=0.000
       8 -> 13        -0.14809
       8 -> 15         0.49324
       9 -> 21        -0.12631
      10 -> 21        -0.10358
      11 -> 23         0.10271
      11 -> 24        -0.24402
      12 -> 28        -0.29478

 Excited State  46:      Singlet-A"    13.9936 eV   88.60 nm  f=0.0322  <S**2>=0.000
       8 -> 14         0.30755
      10 -> 23         0.40105
      10 -> 24         0.21247
      12 -> 29         0.38653

 Excited State  47:      Singlet-A"    14.0101 eV   88.50 nm  f=0.0624  <S**2>=0.000
       8 -> 14        -0.27329
       9 -> 20         0.39467
      10 -> 23        -0.27751
      12 -> 29         0.37708

 Excited State  48:      Singlet-A'    14.0854 eV   88.02 nm  f=0.0261  <S**2>=0.000
       7 -> 13        -0.20371
       8 -> 15         0.15878
       9 -> 19        -0.21883
      10 -> 18         0.10420
      10 -> 21        -0.19855
      10 -> 22         0.20722
      11 -> 20        -0.16475
      11 -> 24         0.44687

 Excited State  49:      Singlet-A"    14.1363 eV   87.71 nm  f=0.0051  <S**2>=0.000
       8 -> 14        -0.37049
       9 -> 20         0.25982
      10 -> 23         0.45845
      12 -> 29        -0.22643

 Excited State  50:      Singlet-A'    14.1841 eV   87.41 nm  f=0.0133  <S**2>=0.000
       7 -> 13         0.13596
       8 -> 15         0.22075
       9 -> 19         0.32600
      10 -> 21         0.33129
      10 -> 22         0.35882
      11 -> 24         0.18614

 Excited State  51:      Singlet-A'    14.2890 eV   86.77 nm  f=0.0351  <S**2>=0.000
       9 -> 19        -0.20309
      10 -> 22         0.51863
      11 -> 24        -0.31191
      11 -> 25        -0.12019
      12 -> 27         0.11912

 Excited State  52:      Singlet-A"    14.3411 eV   86.45 nm  f=0.0269  <S**2>=0.000
      10 -> 23        -0.15971
      10 -> 24         0.63787
      12 -> 29        -0.15755

 Excited State  53:      Singlet-A'    14.5769 eV   85.06 nm  f=0.0110  <S**2>=0.000
       7 -> 15         0.12430
       8 -> 15        -0.10394
       9 -> 21        -0.20265
      12 -> 28        -0.11220
      12 -> 30         0.60230

 Excited State  54:      Singlet-A'    14.6049 eV   84.89 nm  f=0.1267  <S**2>=0.000
       7 -> 13        -0.12076
       7 -> 15        -0.10507
       8 -> 15         0.10852
       8 -> 16        -0.17028
       9 -> 21         0.51752
       9 -> 22        -0.15173
      11 -> 25        -0.12405
      12 -> 30         0.26619

 Excited State  55:      Singlet-A'    14.7099 eV   84.29 nm  f=0.2161  <S**2>=0.000
       9 -> 21         0.11105
      11 -> 25         0.62303
      11 -> 27         0.10837
      12 -> 30         0.11343

 Excited State  56:      Singlet-A"    14.7181 eV   84.24 nm  f=0.0002  <S**2>=0.000
       8 -> 18         0.22556
       9 -> 23         0.42155
      10 -> 25         0.46620

 Excited State  57:      Singlet-A"    14.8079 eV   83.73 nm  f=0.0216  <S**2>=0.000
       8 -> 18         0.56547
       9 -> 23        -0.23857
       9 -> 24         0.15644
       9 -> 25         0.10062
      10 -> 24        -0.10051
      12 -> 29        -0.11293

 Excited State  58:      Singlet-A'    14.8495 eV   83.49 nm  f=0.2295  <S**2>=0.000
       7 -> 13         0.53873
       8 -> 16         0.32672
       9 -> 19        -0.10609
       9 -> 21         0.16237

 Excited State  59:      Singlet-A'    14.9819 eV   82.76 nm  f=0.0691  <S**2>=0.000
       7 -> 13        -0.20880
       8 -> 16         0.43277
       8 -> 17         0.17046
       9 -> 22        -0.31321
      10 -> 21         0.12089
      10 -> 26        -0.20720
      11 -> 27        -0.20904

 Excited State  60:      Singlet-A'    15.0102 eV   82.60 nm  f=0.2903  <S**2>=0.000
       7 -> 13        -0.16402
       8 -> 16         0.21568
       9 -> 21         0.21279
       9 -> 22         0.52941
      10 -> 21         0.11038
      10 -> 26         0.10268

 Excited State  61:      Singlet-A"    15.0236 eV   82.53 nm  f=0.0979  <S**2>=0.000
       7 -> 14        -0.17587
       9 -> 23        -0.31702
       9 -> 24        -0.18922
      10 -> 25         0.36195
      11 -> 26         0.38000

 Excited State  62:      Singlet-A"    15.2333 eV   81.39 nm  f=0.0195  <S**2>=0.000
       7 -> 14        -0.14245
       9 -> 23         0.28004
       9 -> 24         0.20148
      10 -> 25        -0.21412
      10 -> 27         0.15755
      11 -> 26         0.42122
      12 -> 31         0.26447

 Excited State  63:      Singlet-A'    15.2446 eV   81.33 nm  f=0.0336  <S**2>=0.000
       7 -> 13        -0.14048
       7 -> 15        -0.17434
       8 -> 16         0.13421
       9 -> 21        -0.15470
      11 -> 20         0.10727
      11 -> 27         0.39654
      11 -> 28        -0.11533
      12 -> 32        -0.39011

 Excited State  64:      Singlet-A"    15.2517 eV   81.29 nm  f=0.3086  <S**2>=0.000
       7 -> 14         0.10453
       9 -> 23        -0.19955
       9 -> 24         0.37075
      10 -> 25         0.17906
      10 -> 27         0.11650
      11 -> 26        -0.22504
      12 -> 31         0.38939
      12 -> 34        -0.11034

 Excited State  65:      Singlet-A"    15.2931 eV   81.07 nm  f=0.0321  <S**2>=0.000
       7 -> 14         0.14749
       8 -> 18        -0.11953
       9 -> 24         0.38986
       9 -> 25         0.11256
      10 -> 25         0.18104
      10 -> 27        -0.26129
      10 -> 28         0.17193
      11 -> 26         0.21056
      12 -> 31        -0.27215

 Excited State  66:      Singlet-A'    15.3565 eV   80.74 nm  f=0.1015  <S**2>=0.000
      10 -> 26        -0.25861
      11 -> 27         0.38791
      12 -> 28        -0.10443
      12 -> 32         0.44305

 Excited State  67:      Singlet-A"    15.4508 eV   80.24 nm  f=0.1060  <S**2>=0.000
       7 -> 14        -0.35054
       7 -> 18         0.12944
       8 -> 18        -0.10032
       9 -> 24         0.15885
       9 -> 25         0.21495
      10 -> 27         0.35294
      11 -> 26        -0.17699
      12 -> 31        -0.28239

 Excited State  68:      Singlet-A"    15.5004 eV   79.99 nm  f=0.0635  <S**2>=0.000
       7 -> 14         0.49285
       9 -> 24        -0.10274
       9 -> 25         0.18585
      10 -> 27         0.34362
      11 -> 26         0.11305
      12 -> 31        -0.13276

 Excited State  69:      Singlet-A'    15.5321 eV   79.82 nm  f=0.1794  <S**2>=0.000
       7 -> 13        -0.10432
       7 -> 15         0.58585
       8 -> 17        -0.16958
       9 -> 22        -0.11457
      11 -> 27         0.14623
      12 -> 32        -0.15410

 Excited State  70:      Singlet-A'    15.6437 eV   79.25 nm  f=0.1247  <S**2>=0.000
       7 -> 16        -0.10954
       8 -> 16         0.16135
       9 -> 22        -0.13615
       9 -> 26         0.11873
      10 -> 26         0.50888
      11 -> 27         0.10598
      11 -> 28         0.15624
      12 -> 32         0.12330
      12 -> 33        -0.26531

 Excited State  71:      Singlet-A"    15.7236 eV   78.85 nm  f=0.0426  <S**2>=0.000
       7 -> 18         0.24361
       9 -> 24        -0.15833
       9 -> 25         0.49483
       9 -> 27         0.12573
      10 -> 27        -0.16295
      11 -> 29         0.21497
      12 -> 31         0.18478

 Excited State  72:      Singlet-A'    15.8556 eV   78.20 nm  f=0.0785  <S**2>=0.000
       7 -> 16         0.18340
       8 -> 17         0.55304
      12 -> 33        -0.30149

 Excited State  73:      Singlet-A"    15.9049 eV   77.95 nm  f=0.0129  <S**2>=0.000
       7 -> 14         0.13734
       7 -> 18         0.31022
       9 -> 25        -0.30047
      10 -> 27         0.20431
      10 -> 28         0.20760
      11 -> 29         0.38315

 Excited State  74:      Singlet-A'    15.9486 eV   77.74 nm  f=0.2174  <S**2>=0.000
       7 -> 15         0.14508
       8 -> 17         0.23130
      10 -> 26         0.24740
      11 -> 28        -0.35057
      12 -> 32         0.10925
      12 -> 33         0.41261

 Excited State  75:      Singlet-A'    16.0120 eV   77.43 nm  f=0.1215  <S**2>=0.000
       8 -> 17         0.15156
      11 -> 27         0.20825
      11 -> 28         0.49261
      11 -> 30         0.15041
      12 -> 33         0.33937

 Excited State  76:      Singlet-A"    16.1912 eV   76.57 nm  f=0.1318  <S**2>=0.000
       7 -> 18        -0.18439
       8 -> 19         0.12674
       9 -> 25         0.11957
       9 -> 27        -0.12901
      10 -> 27         0.16635
      10 -> 28         0.54598
      10 -> 32         0.12364

 Excited State  77:      Singlet-A'    16.3418 eV   75.87 nm  f=0.1959  <S**2>=0.000
       7 -> 15         0.11582
       7 -> 16        -0.21788
       9 -> 26         0.58048
      10 -> 26        -0.12884
      11 -> 30        -0.11466

 Excited State  78:      Singlet-A"    16.3659 eV   75.76 nm  f=0.0635  <S**2>=0.000
       7 -> 18        -0.35019
       8 -> 19        -0.30531
       9 -> 28         0.12327
      11 -> 29         0.41512
      12 -> 34        -0.15475

 Excited State  79:      Singlet-A"    16.4331 eV   75.45 nm  f=0.0095  <S**2>=0.000
       9 -> 27        -0.21177
      12 -> 31         0.12844
      12 -> 34         0.60832
      12 -> 35        -0.12437

 Excited State  80:      Singlet-A'    16.4384 eV   75.42 nm  f=0.1217  <S**2>=0.000
       7 -> 16         0.58542
       8 -> 17        -0.10639
       9 -> 26         0.26253
      12 -> 39        -0.12280

 Excited State  81:      Singlet-A"    16.5322 eV   75.00 nm  f=0.0143  <S**2>=0.000
       6 -> 13        -0.10740
       7 -> 18        -0.24025
       8 -> 19         0.51082
       9 -> 24         0.11990
       9 -> 27         0.25344
      11 -> 29         0.18501

 Excited State  82:      Singlet-A"    16.5377 eV   74.97 nm  f=0.0655  <S**2>=0.000
       8 -> 19        -0.23770
       9 -> 27         0.52630
       9 -> 28        -0.13233
      10 -> 28         0.10680
      11 -> 31         0.11340
      12 -> 34         0.19776
      12 -> 36         0.11011

 Excited State  83:      Singlet-A'    16.5704 eV   74.82 nm  f=0.0072  <S**2>=0.000
       7 -> 16        -0.10496
       8 -> 20         0.32718
      10 -> 29        -0.17770
      11 -> 30         0.38701
      12 -> 33        -0.12133
      12 -> 38         0.22363
      12 -> 39        -0.28232

 Excited State  84:      Singlet-A'    16.6081 eV   74.65 nm  f=0.0046  <S**2>=0.000
       8 -> 20        -0.37002
       9 -> 26         0.15716
      10 -> 29         0.32300
      11 -> 30         0.41619

 Excited State  85:      Singlet-A"    16.8453 eV   73.60 nm  f=0.0007  <S**2>=0.000
       7 -> 18         0.13573
      10 -> 30         0.32221
      12 -> 35         0.28513
      12 -> 36         0.45937

 Excited State  86:      Singlet-A'    16.8985 eV   73.37 nm  f=0.1741  <S**2>=0.000
       8 -> 20         0.39076
      10 -> 29         0.48843
      10 -> 31         0.12167
      12 -> 38        -0.11824

 Excited State  87:      Singlet-A'    16.9287 eV   73.24 nm  f=0.0321  <S**2>=0.000
       8 -> 20         0.11899
      10 -> 29        -0.21662
      11 -> 30         0.31421
      12 -> 38        -0.33504
      12 -> 39         0.37041

 Excited State  88:      Singlet-A"    17.0317 eV   72.80 nm  f=0.0010  <S**2>=0.000
       8 -> 21        -0.11301
      10 -> 30         0.55428
      11 -> 31         0.10254
      12 -> 35        -0.25017
      12 -> 36        -0.21059

 Excited State  89:      Singlet-A"    17.0825 eV   72.58 nm  f=0.0028  <S**2>=0.000
       8 -> 21        -0.10225
      12 -> 34         0.14531
      12 -> 35         0.53398
      12 -> 36        -0.37307

 Excited State  90:      Singlet-A"    17.2561 eV   71.85 nm  f=0.0010  <S**2>=0.000
       6 -> 13        -0.31641
       8 -> 21        -0.25199
       9 -> 27        -0.13707
       9 -> 28        -0.28557
      10 -> 32         0.11143
      11 -> 31         0.37959

 Excited State  91:      Singlet-A'    17.2846 eV   71.73 nm  f=0.0112  <S**2>=0.000
       7 -> 17         0.46897
       8 -> 24         0.13351
       9 -> 29        -0.27914
      12 -> 37        -0.33870
      12 -> 39        -0.13198

 Excited State  92:      Singlet-A'    17.3387 eV   71.51 nm  f=0.1067  <S**2>=0.000
       7 -> 17         0.40478
       9 -> 29         0.34598
      11 -> 32         0.29503

 The electronic state is 1-A'.
 Alpha  occ. eigenvalues --  -14.75776 -10.57940 -10.57898  -1.05818  -0.73973
 Alpha  occ. eigenvalues --   -0.69547  -0.59821  -0.54317  -0.43853  -0.41173
 Alpha  occ. eigenvalues --   -0.39849  -0.31749
 Alpha virt. eigenvalues --    0.04422   0.06345   0.08047   0.11177   0.14404
 Alpha virt. eigenvalues --    0.15315   0.16231   0.18347   0.20813   0.21900
 Alpha virt. eigenvalues --    0.21921   0.23312   0.25181   0.27050   0.28377

 Mulliken charges:
               1
     1  C    0.587695
     2  C    0.587695
     3  N   -0.401509
     4  H   -0.222956
     5  H   -0.157441
     6  H   -0.157441
     7  H   -0.222956
     8  H   -0.013087
 Sum of Mulliken charges =  -0.00000

 Dipole moment (field-independent basis, Debye):
    X=             -1.3155    Y=             -1.0856    Z=              0.0000  Tot=              1.7055
 Quadrupole moment (field-independent basis, Debye-Ang):
   XX=            -17.7817   YY=            -21.3045   ZZ=            -18.6608
   XY=             -2.1358   XZ=              0.0000   YZ=             -0.0000

 Normal termination of Gaussian 16 at Mon Mar 21 20:14:02 2022.
