 Gaussian 16, Revision C.01,
 Gaussian 16:  EM64L-G16RevC.01  3-Jul-2019

 ---------------------------------------------------------------------
 #P TD(Nstates=10000) m062x/Gen SCF(maxcycles=100) Int(Grid=ultrafine)
 ---------------------------------------------------------------------

 ---------------------
 xGDB7_00001_tier4.com
 ---------------------
 Symbolic Z-matrix:
 Charge =  0 Multiplicity = 1

                         Standard orientation:
 ---------------------------------------------------------------------
 Center     Atomic      Atomic             Coordinates (Angstroms)
 Number     Number       Type             X           Y           Z
 ---------------------------------------------------------------------
      1          6           0        0.000000    0.000000    0.597322
      2          6           0        0.000000    0.000000   -0.597322
      3          1           0        0.000000    0.000000    1.661338
      4          1           0        0.000000    0.000000   -1.661338
 ---------------------------------------------------------------------

 SCF Done:  E(RM062X) =  -77.2357233648     A.U. after   11 cycles

 Excitation energies and oscillator strengths:

 Excited state symmetry could not be determined.
 Excited State   1:      Singlet-?Sym    6.1953 eV  200.13 nm  f=0.0000  <S**2>=0.000
       6 -> 11        -0.49233
       7 -> 10         0.49233
 This state for optimization and/or second-order correction.
 Total Energy, E(TD-HF/TD-DFT) =  -77.0080508886
 Copying the excited state density for this state as the 1-particle RhoCI density.

 Excited state symmetry could not be determined.
 Excited State   2:      Singlet-?Sym    7.3718 eV  168.19 nm  f=0.0000  <S**2>=0.000
       6 -> 10        -0.49745
       7 -> 11         0.49745

 Excited state symmetry could not be determined.
 Excited State   3:      Singlet-?Sym    7.3720 eV  168.18 nm  f=0.0000  <S**2>=0.000
       6 -> 11         0.49745
       7 -> 10         0.49745

 Excited state symmetry could not be determined.
 Excited State   4:      Singlet-?Sym    8.3638 eV  148.24 nm  f=0.0897  <S**2>=0.000
       6 ->  8         0.70327

 Excited state symmetry could not be determined.
 Excited State   5:      Singlet-?Sym    8.3638 eV  148.24 nm  f=0.0897  <S**2>=0.000
       7 ->  8         0.70327

 Excited state symmetry could not be determined.
 Excited State   6:      Singlet-?Sym    8.7739 eV  141.31 nm  f=0.0000  <S**2>=0.000
       6 ->  9         0.52866
       7 ->  9        -0.45799

 Excited state symmetry could not be determined.
 Excited State   7:      Singlet-?Sym    8.7739 eV  141.31 nm  f=0.0000  <S**2>=0.000
       6 ->  9         0.45799
       7 ->  9         0.52866

 Excited state symmetry could not be determined.
 Excited State   8:      Singlet-?Sym   10.1446 eV  122.22 nm  f=0.0288  <S**2>=0.000
       6 -> 12         0.64566
       7 -> 12        -0.25801

 Excited state symmetry could not be determined.
 Excited State   9:      Singlet-?Sym   10.1446 eV  122.22 nm  f=0.0288  <S**2>=0.000
       6 -> 12         0.25801
       7 -> 12         0.64566

 Excited state symmetry could not be determined.
 Excited State  10:      Singlet-?Sym   10.4356 eV  118.81 nm  f=0.8673  <S**2>=0.000
       6 -> 10         0.48732
       6 -> 18         0.10444
       7 -> 11         0.48732
       7 -> 19         0.10444

 Excited state symmetry could not be determined.
 Excited State  11:      Singlet-?Sym   11.7628 eV  105.40 nm  f=0.0000  <S**2>=0.000
       5 -> 11        -0.11654
       6 -> 13        -0.37150
       7 -> 13         0.57161

 Excited state symmetry could not be determined.
 Excited State  12:      Singlet-?Sym   11.7628 eV  105.40 nm  f=0.0000  <S**2>=0.000
       5 -> 10        -0.11654
       6 -> 13         0.57161
       7 -> 13         0.37150

 Excited state symmetry could not be determined.
 Excited State  13:      Singlet-?Sym   11.8601 eV  104.54 nm  f=0.0000  <S**2>=0.000
       6 -> 15        -0.49860
       7 -> 14         0.49860

 Excited state symmetry could not be determined.
 Excited State  14:      Singlet-?Sym   12.0019 eV  103.30 nm  f=0.0000  <S**2>=0.000
       6 -> 14         0.49920
       7 -> 15        -0.49920

 Excited state symmetry could not be determined.
 Excited State  15:      Singlet-?Sym   12.0019 eV  103.30 nm  f=0.0000  <S**2>=0.000
       6 -> 15         0.49920
       7 -> 14         0.49920

 Excited state symmetry could not be determined.
 Excited State  16:      Singlet-?Sym   12.5329 eV   98.93 nm  f=0.0000  <S**2>=0.000
       5 -> 10         0.53414
       5 -> 11         0.41753
       6 -> 13         0.11011

 Excited state symmetry could not be determined.
 Excited State  17:      Singlet-?Sym   12.5329 eV   98.93 nm  f=0.0000  <S**2>=0.000
       5 -> 10        -0.41753
       5 -> 11         0.53414
       7 -> 13         0.11011

 Excited state symmetry could not be determined.
 Excited State  18:      Singlet-?Sym   12.7391 eV   97.33 nm  f=0.0000  <S**2>=0.000
       5 -> 12        -0.14808
       6 -> 14         0.47682
       7 -> 15         0.47682

 Excited state symmetry could not be determined.
 Excited State  19:      Singlet-?Sym   13.5185 eV   91.71 nm  f=0.0000  <S**2>=0.000
       6 -> 16         0.48912
       6 -> 17         0.10376
       7 -> 16         0.10377
       7 -> 17        -0.48911

 Excited state symmetry could not be determined.
 Excited State  20:      Singlet-?Sym   13.5185 eV   91.71 nm  f=0.0000  <S**2>=0.000
       6 -> 16        -0.10377
       6 -> 17         0.48911
       7 -> 16         0.48912
       7 -> 17         0.10376

 Excited state symmetry could not be determined.
 Excited State  21:      Singlet-?Sym   13.8305 eV   89.65 nm  f=0.2401  <S**2>=0.000
       4 -> 10        -0.24033
       6 -> 16         0.45250
       7 -> 17         0.45252

 Excited state symmetry could not be determined.
 Excited State  22:      Singlet-?Sym   13.8305 eV   89.65 nm  f=0.2401  <S**2>=0.000
       4 -> 11        -0.24033
       6 -> 17         0.45252
       7 -> 16        -0.45250

 Excited State  23:      Singlet-SGG   14.0502 eV   88.24 nm  f=0.0000  <S**2>=0.000
       5 ->  8         0.69076

 Excited State  24:      Singlet-SGU   14.1949 eV   87.34 nm  f=0.3861  <S**2>=0.000
       4 ->  8        -0.15386
       5 ->  9         0.66118
       6 -> 18        -0.10660
       7 -> 19        -0.10660

 Excited state symmetry could not be determined.
 Excited State  25:      Singlet-?Sym   14.2087 eV   87.26 nm  f=0.0000  <S**2>=0.000
       6 -> 19        -0.48481
       7 -> 18         0.48481

 Excited state symmetry could not be determined.
 Excited State  26:      Singlet-?Sym   14.5097 eV   85.45 nm  f=0.0000  <S**2>=0.000
       6 -> 18         0.49273
       7 -> 19        -0.49273

 Excited state symmetry could not be determined.
 Excited State  27:      Singlet-?Sym   14.5098 eV   85.45 nm  f=0.0000  <S**2>=0.000
       6 -> 19         0.49273
       7 -> 18         0.49273

 Excited state symmetry could not be determined.
 Excited State  28:      Singlet-?Sym   15.7201 eV   78.87 nm  f=0.0057  <S**2>=0.000
       4 ->  8         0.35411
       5 ->  9         0.20423
       6 -> 18         0.39277
       7 -> 19         0.39277

 Excited state symmetry could not be determined.
 Excited State  29:      Singlet-?Sym   15.7786 eV   78.58 nm  f=0.2081  <S**2>=0.000
       4 -> 10         0.54355
       6 -> 16         0.10331
       6 -> 20        -0.33869
       6 -> 22         0.20356
       7 -> 17         0.10331

 Excited state symmetry could not be determined.
 Excited State  30:      Singlet-?Sym   15.7786 eV   78.58 nm  f=0.2081  <S**2>=0.000
       4 -> 11         0.54355
       6 -> 17         0.10331
       7 -> 16        -0.10331
       7 -> 20        -0.33869
       7 -> 22         0.20356

 Excited state symmetry could not be determined.
 Excited State  31:      Singlet-?Sym   16.1198 eV   76.91 nm  f=0.0000  <S**2>=0.000
       6 -> 21         0.68453

 Excited state symmetry could not be determined.
 Excited State  32:      Singlet-?Sym   16.1198 eV   76.91 nm  f=0.0000  <S**2>=0.000
       7 -> 21         0.68453

 Excited state symmetry could not be determined.
 Excited State  33:      Singlet-?Sym   16.2400 eV   76.34 nm  f=0.4903  <S**2>=0.000
       4 -> 10         0.22557
       6 -> 16         0.11166
       6 -> 20         0.58087
       6 -> 22         0.23803
       7 -> 17         0.11166
       7 -> 20         0.13371

 Excited state symmetry could not be determined.
 Excited State  34:      Singlet-?Sym   16.2400 eV   76.34 nm  f=0.4903  <S**2>=0.000
       4 -> 11         0.22557
       6 -> 17         0.11166
       6 -> 20        -0.13371
       7 -> 16        -0.11166
       7 -> 20         0.58087
       7 -> 22         0.23803

 Excited State  35:      Singlet-SGG   16.4157 eV   75.53 nm  f=0.0000  <S**2>=0.000
       4 ->  9         0.25134
       5 -> 12         0.62250
       6 -> 14         0.11974
       7 -> 15         0.11974

 Excited State  36:      Singlet-SGU   16.4874 eV   75.20 nm  f=0.0215  <S**2>=0.000
       4 ->  8         0.57717
       4 -> 12         0.14230
       6 -> 18        -0.24083
       7 -> 19        -0.24083

 Excited State  37:      Singlet-SGG   16.7394 eV   74.07 nm  f=0.0000  <S**2>=0.000
       4 ->  9         0.63523
       5 -> 12        -0.27288

 Excited state symmetry could not be determined.
 Excited State  38:      Singlet-?Sym   17.2266 eV   71.97 nm  f=0.1812  <S**2>=0.000
       4 -> 10        -0.26900
       6 -> 20        -0.10917
       6 -> 22         0.60167
       7 -> 22         0.15166

 Excited state symmetry could not be determined.
 Excited State  39:      Singlet-?Sym   17.2266 eV   71.97 nm  f=0.1812  <S**2>=0.000
       4 -> 11        -0.26900
       6 -> 22        -0.15166
       7 -> 20        -0.10917
       7 -> 22         0.60167

 Excited state symmetry could not be determined.
 Excited State  40:      Singlet-?Sym   17.2277 eV   71.97 nm  f=0.0000  <S**2>=0.000
       6 -> 23        -0.20181
       6 -> 24        -0.45744
       7 -> 23         0.45750
       7 -> 24        -0.20178

 Excited state symmetry could not be determined.
 Excited State  41:      Singlet-?Sym   17.2277 eV   71.97 nm  f=0.0000  <S**2>=0.000
       6 -> 23         0.45750
       6 -> 24        -0.20178
       7 -> 23         0.20181
       7 -> 24         0.45744

 Excited state symmetry could not be determined.
 Excited State  42:      Singlet-?Sym   17.4149 eV   71.19 nm  f=0.2086  <S**2>=0.000
       4 -> 18         0.10559
       5 -> 14         0.54696
       5 -> 15         0.41774

 Excited state symmetry could not be determined.
 Excited State  43:      Singlet-?Sym   17.4149 eV   71.19 nm  f=0.2086  <S**2>=0.000
       4 -> 19         0.10559
       5 -> 14        -0.41774
       5 -> 15         0.54696

 Excited state symmetry could not be determined.
 Excited State  44:      Singlet-?Sym   17.4414 eV   71.09 nm  f=0.0000  <S**2>=0.000
       6 -> 23        -0.46349
       6 -> 24        -0.16177
       7 -> 21         0.10779
       7 -> 23        -0.16175
       7 -> 24         0.46356

 Excited state symmetry could not be determined.
 Excited State  45:      Singlet-?Sym   17.4414 eV   71.09 nm  f=0.0000  <S**2>=0.000
       6 -> 21        -0.10779
       6 -> 23        -0.16175
       6 -> 24         0.46356
       7 -> 23         0.46349
       7 -> 24         0.16177

 Excited State  46:      Singlet-SGU   17.5455 eV   70.66 nm  f=0.6725  <S**2>=0.000
       4 -> 12        -0.42215
       5 ->  9         0.11533
       5 -> 13         0.55225

 Excited state symmetry could not be determined.
 Excited State  47:      Singlet-?Sym   17.8302 eV   69.54 nm  f=0.0000  <S**2>=0.000
       6 -> 27        -0.49888
       7 -> 26         0.49888

 Excited state symmetry could not be determined.
 Excited State  48:      Singlet-?Sym   18.0277 eV   68.77 nm  f=0.0000  <S**2>=0.000
       6 -> 26         0.49962
       7 -> 27        -0.49962

 Excited state symmetry could not be determined.
 Excited State  49:      Singlet-?Sym   18.0278 eV   68.77 nm  f=0.0000  <S**2>=0.000
       6 -> 27         0.49962
       7 -> 26         0.49962

 Excited State  50:      Singlet-SGU   18.2226 eV   68.04 nm  f=0.0124  <S**2>=0.000
       4 -> 12         0.48377
       5 -> 13         0.38599
       6 -> 28        -0.20939
       7 -> 29        -0.20939

 Excited state symmetry could not be determined.
 Excited State  51:      Singlet-?Sym   18.4433 eV   67.22 nm  f=0.0000  <S**2>=0.000
       6 -> 25         0.68101
       7 -> 25         0.14037

 Excited state symmetry could not be determined.
 Excited State  52:      Singlet-?Sym   18.4433 eV   67.22 nm  f=0.0000  <S**2>=0.000
       6 -> 25        -0.14037
       7 -> 25         0.68101

 Excited state symmetry could not be determined.
 Excited State  53:      Singlet-?Sym   18.6048 eV   66.64 nm  f=0.0000  <S**2>=0.000
       4 ->  9        -0.12533
       6 -> 26         0.47948
       7 -> 27         0.47948

 Excited state symmetry could not be determined.
 Excited State  54:      Singlet-?Sym   18.7429 eV   66.15 nm  f=0.0000  <S**2>=0.000
       3 -> 10         0.15907
       4 -> 14         0.49036
       4 -> 15         0.12932
       5 -> 18         0.43333
       5 -> 19         0.11428

 Excited state symmetry could not be determined.
 Excited State  55:      Singlet-?Sym   18.7429 eV   66.15 nm  f=0.0000  <S**2>=0.000
       3 -> 11         0.15907
       4 -> 14        -0.12932
       4 -> 15         0.49036
       5 -> 18        -0.11428
       5 -> 19         0.43333

 Excited state symmetry could not be determined.
 Excited State  56:      Singlet-?Sym   18.7916 eV   65.98 nm  f=0.0000  <S**2>=0.000
       6 -> 28         0.49405
       7 -> 29        -0.49405

 Excited state symmetry could not be determined.
 Excited State  57:      Singlet-?Sym   18.7916 eV   65.98 nm  f=0.0000  <S**2>=0.000
       6 -> 29         0.49405
       7 -> 28         0.49405

 Excited state symmetry could not be determined.
 Excited State  58:      Singlet-?Sym   18.8246 eV   65.86 nm  f=0.0000  <S**2>=0.000
       6 -> 29        -0.49272
       7 -> 28         0.49272

 Excited state symmetry could not be determined.
 Excited State  59:      Singlet-?Sym   19.0422 eV   65.11 nm  f=0.0000  <S**2>=0.000
       5 -> 16         0.70354

 Excited state symmetry could not be determined.
 Excited State  60:      Singlet-?Sym   19.0422 eV   65.11 nm  f=0.0000  <S**2>=0.000
       5 -> 17         0.70354

 Excited state symmetry could not be determined.
 Excited State  61:      Singlet-?Sym   19.2972 eV   64.25 nm  f=0.0284  <S**2>=0.000
       4 -> 12         0.23051
       5 -> 13         0.14546
       6 -> 28         0.43808
       7 -> 29         0.43808

 Excited State  62:      Singlet-SGG   19.8298 eV   62.52 nm  f=0.0000  <S**2>=0.000
       4 -> 13         0.68921

 Excited state symmetry could not be determined.
 Excited State  63:      Singlet-?Sym   20.3484 eV   60.93 nm  f=0.0000  <S**2>=0.000
       3 -> 10         0.49323
       4 -> 14        -0.40385
       5 -> 10         0.11029
       5 -> 18         0.24116

 Excited state symmetry could not be determined.
 Excited State  64:      Singlet-?Sym   20.3484 eV   60.93 nm  f=0.0000  <S**2>=0.000
       3 -> 11         0.49323
       4 -> 15        -0.40385
       5 -> 11         0.11029
       5 -> 19         0.24116

 Excited state symmetry could not be determined.
 Excited State  65:      Singlet-?Sym   20.6496 eV   60.04 nm  f=0.0000  <S**2>=0.000
       3 -> 10        -0.25307
       3 -> 11        -0.36480
       4 -> 14        -0.15692
       4 -> 15        -0.22620
       5 -> 18         0.26766
       5 -> 19         0.38582

 Excited state symmetry could not be determined.
 Excited State  66:      Singlet-?Sym   20.6496 eV   60.04 nm  f=0.0000  <S**2>=0.000
       3 -> 10        -0.36480
       3 -> 11         0.25307
       4 -> 14        -0.22620
       4 -> 15         0.15692
       5 -> 18         0.38582
       5 -> 19        -0.26766

 Excited state symmetry could not be determined.
 Excited State  67:      Singlet-?Sym   21.1215 eV   58.70 nm  f=0.0000  <S**2>=0.000
       4 -> 16         0.67473
       5 -> 24         0.20489

 Excited state symmetry could not be determined.
 Excited State  68:      Singlet-?Sym   21.1215 eV   58.70 nm  f=0.0000  <S**2>=0.000
       4 -> 17         0.67473
       5 -> 23         0.20490

 Excited State  69:      Singlet-SGG   21.3637 eV   58.03 nm  f=0.0000  <S**2>=0.000
       3 ->  8         0.65158
       5 -> 20         0.22908
       5 -> 22         0.10190

 Excited State  70:      Singlet-SGU   21.6454 eV   57.28 nm  f=0.2759  <S**2>=0.000
       3 ->  9        -0.26982
       4 -> 22         0.12777
       5 -> 21         0.62723

 Excited State  71:      Singlet-SGG   21.7931 eV   56.89 nm  f=0.0000  <S**2>=0.000
       3 ->  8        -0.24227
       5 -> 20         0.65369

 Excited State  72:      Singlet-SGU   22.0269 eV   56.29 nm  f=0.0338  <S**2>=0.000
       3 ->  9         0.64012
       5 -> 21         0.27508

 Excited state symmetry could not be determined.
 Excited State  73:      Singlet-?Sym   22.1712 eV   55.92 nm  f=0.0037  <S**2>=0.000
       4 -> 18        -0.12298
       4 -> 19         0.66046
       5 -> 15        -0.12872
       5 -> 27         0.12841

 Excited state symmetry could not be determined.
 Excited State  74:      Singlet-?Sym   22.1712 eV   55.92 nm  f=0.0037  <S**2>=0.000
       4 -> 18         0.66046
       4 -> 19         0.12298
       5 -> 14        -0.12872
       5 -> 26         0.12841

 Excited State  75:      Singlet-SGG   22.9515 eV   54.02 nm  f=0.0000  <S**2>=0.000
       4 -> 21         0.19310
       5 -> 22         0.64030
       6 -> 33        -0.11513
       7 -> 32        -0.11513

 Excited state symmetry could not be determined.
 Excited State  76:      Singlet-?Sym   23.1269 eV   53.61 nm  f=0.0000  <S**2>=0.000
       4 -> 17        -0.20539
       5 -> 23         0.67637

 Excited state symmetry could not be determined.
 Excited State  77:      Singlet-?Sym   23.1269 eV   53.61 nm  f=0.0000  <S**2>=0.000
       4 -> 16        -0.20539
       5 -> 24         0.67637

 Excited State  78:      Singlet-SGG   23.4041 eV   52.98 nm  f=0.0000  <S**2>=0.000
       3 -> 12         0.68833

 Excited state symmetry could not be determined.
 Excited State  79:      Singlet-?Sym   23.8135 eV   52.06 nm  f=0.1171  <S**2>=0.000
       5 -> 26         0.54326
       5 -> 27        -0.42085

 Excited state symmetry could not be determined.
 Excited State  80:      Singlet-?Sym   23.8135 eV   52.06 nm  f=0.1171  <S**2>=0.000
       5 -> 26         0.42085
       5 -> 27         0.54326

 Excited State  81:      Singlet-SGU   23.9199 eV   51.83 nm  f=0.0200  <S**2>=0.000
       4 -> 20         0.68724
       4 -> 22        -0.10721

 Excited State  82:      Singlet-SGG   24.2757 eV   51.07 nm  f=0.0000  <S**2>=0.000
       4 -> 21         0.66564
       5 -> 22        -0.21513

 Excited state symmetry could not be determined.
 Excited State  83:      Singlet-?Sym   24.4362 eV   50.74 nm  f=0.0000  <S**2>=0.000
       5 -> 28         0.48480
       5 -> 29         0.35241
       6 -> 30        -0.28456
       7 -> 30        -0.20685

 Excited state symmetry could not be determined.
 Excited State  84:      Singlet-?Sym   24.4362 eV   50.74 nm  f=0.0000  <S**2>=0.000
       5 -> 28        -0.35241
       5 -> 29         0.48480
       6 -> 30         0.20685
       7 -> 30        -0.28456

 Excited state symmetry could not be determined.
 Excited State  85:      Singlet-?Sym   24.4509 eV   50.71 nm  f=0.0000  <S**2>=0.000
       5 -> 28         0.32301
       5 -> 29         0.14605
       6 -> 30         0.55007
       7 -> 30         0.24872

 Excited state symmetry could not be determined.
 Excited State  86:      Singlet-?Sym   24.4509 eV   50.71 nm  f=0.0000  <S**2>=0.000
       5 -> 28        -0.14605
       5 -> 29         0.32301
       6 -> 30        -0.24872
       7 -> 30         0.55007

 Excited State  87:      Singlet-SGU   24.8066 eV   49.98 nm  f=0.1091  <S**2>=0.000
       3 -> 13        -0.21237
       4 -> 22         0.12305
       5 -> 25         0.65245

 Excited State  88:      Singlet-SGU   24.8692 eV   49.85 nm  f=0.0732  <S**2>=0.000
       3 -> 13         0.49053
       4 -> 22         0.48000
       5 -> 21        -0.12545

 Excited state symmetry could not be determined.
 Excited State  89:      Singlet-?Sym   25.0558 eV   49.48 nm  f=0.0000  <S**2>=0.000
       3 -> 17         0.13914
       4 -> 23         0.69011

 Excited state symmetry could not be determined.
 Excited State  90:      Singlet-?Sym   25.0558 eV   49.48 nm  f=0.0000  <S**2>=0.000
       3 -> 16         0.13914
       4 -> 24         0.69011

 Excited state symmetry could not be determined.
 Excited State  91:      Singlet-?Sym   25.2432 eV   49.12 nm  f=0.0007  <S**2>=0.000
       3 -> 14         0.64329
       3 -> 15         0.24946
       6 -> 31        -0.10029

 Excited state symmetry could not be determined.
 Excited State  92:      Singlet-?Sym   25.2432 eV   49.12 nm  f=0.0007  <S**2>=0.000
       3 -> 14        -0.24946
       3 -> 15         0.64329
       7 -> 31        -0.10029

 Excited State  93:      Singlet-SGU   25.3508 eV   48.91 nm  f=0.0013  <S**2>=0.000
       3 -> 13        -0.43544
       4 -> 22         0.46421
       5 -> 25        -0.22348

 Excited state symmetry could not be determined.
 Excited State  94:      Singlet-?Sym   25.9883 eV   47.71 nm  f=0.0000  <S**2>=0.000
       3 -> 18         0.11214
       4 -> 26         0.69148

 Excited state symmetry could not be determined.
 Excited State  95:      Singlet-?Sym   25.9883 eV   47.71 nm  f=0.0000  <S**2>=0.000
       3 -> 19         0.11214
       4 -> 27         0.69148

 Excited state symmetry could not be determined.
 Excited State  96:      Singlet-?Sym   26.1644 eV   47.39 nm  f=0.0216  <S**2>=0.000
       3 -> 14         0.10086
       4 -> 28        -0.28829
       6 -> 31         0.62610

 Excited state symmetry could not be determined.
 Excited State  97:      Singlet-?Sym   26.1644 eV   47.39 nm  f=0.0216  <S**2>=0.000
       3 -> 15         0.10086
       4 -> 29        -0.28829
       7 -> 31         0.62610

 Excited state symmetry could not be determined.
 Excited State  98:      Singlet-?Sym   26.3307 eV   47.09 nm  f=0.0000  <S**2>=0.000
       6 -> 32         0.49809
       7 -> 33        -0.49809

 Excited state symmetry could not be determined.
 Excited State  99:      Singlet-?Sym   26.4491 eV   46.88 nm  f=0.0000  <S**2>=0.000
       3 -> 16         0.57156
       4 -> 24        -0.12660
       6 -> 33         0.27814
       7 -> 32        -0.27814

 Excited state symmetry could not be determined.
 Excited State 100:      Singlet-?Sym   26.4491 eV   46.88 nm  f=0.0000  <S**2>=0.000
       3 -> 17         0.57159
       4 -> 23        -0.12661
       6 -> 32         0.27811
       7 -> 33         0.27811

 Excited state symmetry could not be determined.
 Excited State 101:      Singlet-?Sym   26.6139 eV   46.59 nm  f=0.0013  <S**2>=0.000
       4 -> 28         0.63812
       6 -> 31         0.29310

 Excited state symmetry could not be determined.
 Excited State 102:      Singlet-?Sym   26.6139 eV   46.59 nm  f=0.0013  <S**2>=0.000
       4 -> 29         0.63812
       7 -> 31         0.29310

 Excited State 103:      Singlet-SGG   26.6720 eV   46.48 nm  f=0.0000  <S**2>=0.000
       4 -> 25         0.69734

 Excited state symmetry could not be determined.
 Excited State 104:      Singlet-?Sym   26.7715 eV   46.31 nm  f=0.0000  <S**2>=0.000
       3 -> 16         0.39141
       6 -> 33        -0.41393
       7 -> 32         0.41393

 Excited state symmetry could not be determined.
 Excited State 105:      Singlet-?Sym   26.7715 eV   46.31 nm  f=0.0000  <S**2>=0.000

 The electronic state is 1-SGG.
 Alpha  occ. eigenvalues --  -10.56191 -10.55899  -0.84021  -0.63926  -0.56399
 Alpha  occ. eigenvalues --   -0.35770  -0.35770
 Alpha virt. eigenvalues --    0.04901   0.06323   0.06809   0.06809   0.13661
 Alpha virt. eigenvalues --    0.19461   0.20026   0.20026   0.27244   0.27244
 Alpha virt. eigenvalues --    0.29849   0.29849   0.34602   0.35176   0.38646

 Mulliken charges:
               1
     1  C    0.149578
     2  C    0.149578
     3  H   -0.149578
     4  H   -0.149578
 Sum of Mulliken charges =  -0.00000

 Dipole moment (field-independent basis, Debye):
    X=             -0.0000    Y=             -0.0000    Z=              0.0000  Tot=              0.0000
 Quadrupole moment (field-independent basis, Debye-Ang):
   XX=            -13.5209   YY=            -13.5209   ZZ=             -7.0955
   XY=             -0.0000   XZ=              0.0000   YZ=              0.0000

 Normal termination of Gaussian 16 at Mon Mar 21 19:59:53 2022.
