 Gaussian 16, Revision C.01,
 Gaussian 16:  EM64L-G16RevC.01  3-Jul-2019

 ---------------------------------------------------------------------
 #P TD(Nstates=10000) m062x/Gen SCF(maxcycles=100) Int(Grid=ultrafine)
 ---------------------------------------------------------------------

 ---------------------
 xGDB7_00001_tier4.com
 ---------------------
 Symbolic Z-matrix:
 Charge =  0 Multiplicity = 1

                         Standard orientation:
 ---------------------------------------------------------------------
 Center     Atomic      Atomic             Coordinates (Angstroms)
 Number     Number       Type             X           Y           Z
 ---------------------------------------------------------------------
      1          6           0        0.046419    0.658432    0.000000
      2          8           0        0.046419   -0.751929    0.000000
      3          1           0       -0.438905    1.073261    0.890797
      4          1           0       -0.438905    1.073261   -0.890797
      5          1           0        1.087855    0.977571    0.000000
      6          1           0       -0.859911   -1.059251    0.000000
 ---------------------------------------------------------------------

 SCF Done:  E(RM062X) =  -115.585672325     A.U. after   12 cycles

 Excitation energies and oscillator strengths:

 Excited State   1:      Singlet-A"     7.1433 eV  173.57 nm  f=0.0017  <S**2>=0.000
       9 -> 10         0.65878
       9 -> 11        -0.20053
       9 -> 14         0.10203
 This state for optimization and/or second-order correction.
 Total Energy, E(TD-HF/TD-DFT) =  -115.323161383
 Copying the excited state density for this state as the 1-particle RhoCI density.

 Excited State   2:      Singlet-A"     8.5332 eV  145.30 nm  f=0.0385  <S**2>=0.000
       9 -> 10         0.21469
       9 -> 11         0.66054

 Excited State   3:      Singlet-A'     8.8751 eV  139.70 nm  f=0.0005  <S**2>=0.000
       8 -> 10         0.67470
       8 -> 11        -0.12419
       8 -> 14         0.10209

 Excited State   4:      Singlet-A"     9.4210 eV  131.60 nm  f=0.0095  <S**2>=0.000
       9 -> 13         0.65485
       9 -> 14        -0.17183
       9 -> 15        -0.12148

 Excited State   5:      Singlet-A'     9.6219 eV  128.86 nm  f=0.0644  <S**2>=0.000
       8 -> 11         0.12511
       9 -> 12         0.68380

 Excited State   6:      Singlet-A'     9.9971 eV  124.02 nm  f=0.0618  <S**2>=0.000
       8 -> 10         0.13313
       8 -> 11         0.66251
       9 -> 12        -0.13274

 Excited State   7:      Singlet-A"    10.0719 eV  123.10 nm  f=0.0066  <S**2>=0.000
       9 -> 13         0.21126
       9 -> 14         0.63678
       9 -> 19         0.10681

 Excited State   8:      Singlet-A"    10.6067 eV  116.89 nm  f=0.0216  <S**2>=0.000
       9 -> 13         0.11211
       9 -> 14        -0.13739
       9 -> 15         0.64004
       9 -> 17        -0.13395

 Excited State   9:      Singlet-A'    10.9910 eV  112.81 nm  f=0.0665  <S**2>=0.000
       8 -> 13         0.61865
       8 -> 14        -0.25971

 Excited State  10:      Singlet-A"    11.0335 eV  112.37 nm  f=0.0311  <S**2>=0.000
       8 -> 12         0.69553

 Excited State  11:      Singlet-A'    11.1826 eV  110.87 nm  f=0.0209  <S**2>=0.000
       9 -> 16         0.67030
       9 -> 18        -0.16377

 Excited State  12:      Singlet-A'    11.4388 eV  108.39 nm  f=0.0573  <S**2>=0.000
       7 -> 10         0.59582
       7 -> 11        -0.16028
       8 -> 13         0.19294
       8 -> 14         0.16336
       8 -> 15         0.14207

 Excited State  13:      Singlet-A"    11.6422 eV  106.50 nm  f=0.0058  <S**2>=0.000
       6 -> 10        -0.30849
       9 -> 17         0.58591
       9 -> 19         0.15306

 Excited State  14:      Singlet-A'    11.8142 eV  104.95 nm  f=0.0171  <S**2>=0.000
       7 -> 10        -0.20852
       8 -> 13         0.21456
       8 -> 14         0.53580
       9 -> 18         0.30782

 Excited State  15:      Singlet-A"    11.8685 eV  104.46 nm  f=0.0296  <S**2>=0.000
       6 -> 10         0.47504
       9 -> 15         0.20006
       9 -> 17         0.33666
       9 -> 19        -0.28445

 Excited State  16:      Singlet-A'    11.9135 eV  104.07 nm  f=0.0171  <S**2>=0.000
       7 -> 10         0.19271
       7 -> 11         0.16490
       8 -> 14        -0.19089
       8 -> 15        -0.26925
       9 -> 16         0.11950
       9 -> 18         0.53042

 Excited State  17:      Singlet-A"    12.2628 eV  101.11 nm  f=0.0044  <S**2>=0.000
       6 -> 10         0.33505
       8 -> 16         0.27120
       9 -> 19         0.46979
       9 -> 20        -0.14782

 Excited State  18:      Singlet-A'    12.4791 eV   99.35 nm  f=0.0150  <S**2>=0.000
       7 -> 11         0.32237
       8 -> 15         0.52819
       8 -> 17        -0.26339
       9 -> 18         0.13188

 Excited State  19:      Singlet-A"    12.4957 eV   99.22 nm  f=0.0477  <S**2>=0.000
       6 -> 10        -0.12897
       8 -> 16         0.62446
       9 -> 19        -0.21449
       9 -> 20         0.10085

 Excited State  20:      Singlet-A'    12.6328 eV   98.15 nm  f=0.1489  <S**2>=0.000
       7 -> 10         0.14014
       7 -> 11         0.55905
       8 -> 14         0.17432
       8 -> 15        -0.17276
       8 -> 17         0.15494
       9 -> 16        -0.10737
       9 -> 18        -0.20412

 Excited State  21:      Singlet-A"    12.6774 eV   97.80 nm  f=0.0622  <S**2>=0.000
       6 -> 10         0.11706
       6 -> 11         0.56318
       6 -> 14        -0.10055
       8 -> 18        -0.13600
       9 -> 19         0.14878
       9 -> 20         0.25848
       9 -> 21         0.12545

 Excited State  22:      Singlet-A"    13.0533 eV   94.98 nm  f=0.0043  <S**2>=0.000
       6 -> 11         0.10909
       7 -> 12         0.29072
       8 -> 18         0.61370

 Excited State  23:      Singlet-A"    13.2903 eV   93.29 nm  f=0.0129  <S**2>=0.000
       6 -> 11        -0.33576
       9 -> 19         0.19703
       9 -> 20         0.52784
       9 -> 21         0.14827
       9 -> 23        -0.10442

 Excited State  24:      Singlet-A'    13.3418 eV   92.93 nm  f=0.0202  <S**2>=0.000
       5 -> 10         0.10021
       6 -> 12         0.17867
       7 -> 13         0.19167
       7 -> 14        -0.11403
       8 -> 15         0.20867
       8 -> 17         0.56809
       9 -> 18         0.12198

 Excited State  25:      Singlet-A"    13.7010 eV   90.49 nm  f=0.0075  <S**2>=0.000
       6 -> 13         0.12953
       7 -> 12         0.59765
       8 -> 18        -0.29222

 Excited State  26:      Singlet-A'    13.7185 eV   90.38 nm  f=0.1129  <S**2>=0.000
       7 -> 13         0.60347
       7 -> 14        -0.14715
       8 -> 15        -0.11596
       8 -> 17        -0.23641

 Excited State  27:      Singlet-A'    13.8514 eV   89.51 nm  f=0.0727  <S**2>=0.000
       5 -> 10         0.58500
       5 -> 11        -0.12812
       6 -> 12        -0.25376
       8 -> 19        -0.10614

 Excited State  28:      Singlet-A"    13.9473 eV   88.89 nm  f=0.0040  <S**2>=0.000
       6 -> 11        -0.12443
       6 -> 13         0.57475
       6 -> 14        -0.28392
       6 -> 19        -0.10607
       7 -> 12        -0.16266

 Excited State  29:      Singlet-A'    14.0988 eV   87.94 nm  f=0.0701  <S**2>=0.000
       5 -> 10         0.12254
       5 -> 11        -0.16364
       7 -> 14         0.18052
       8 -> 19         0.54840
       8 -> 20        -0.20873

 Excited State  30:      Singlet-A"    14.3125 eV   86.63 nm  f=0.0019  <S**2>=0.000
       9 -> 20        -0.25499
       9 -> 21         0.60820

 Excited State  31:      Singlet-A'    14.4088 eV   86.05 nm  f=0.0657  <S**2>=0.000
       5 -> 10         0.13490
       6 -> 12         0.37805
       7 -> 14         0.39807
       7 -> 15         0.30969
       8 -> 19        -0.19790

 Excited State  32:      Singlet-A'    14.5419 eV   85.26 nm  f=0.0520  <S**2>=0.000
       7 -> 13        -0.11016
       7 -> 14        -0.33680
       7 -> 15         0.40241
       8 -> 20        -0.23028
       8 -> 21        -0.10875
       9 -> 22         0.31848

 Excited State  33:      Singlet-A'    14.6037 eV   84.90 nm  f=0.0029  <S**2>=0.000
       5 -> 10         0.13368
       5 -> 13        -0.10182
       6 -> 12         0.44805
       7 -> 13        -0.24118
       7 -> 14        -0.14347
       7 -> 15        -0.22875
       8 -> 17        -0.11295
       8 -> 20         0.18275
       9 -> 22         0.17907
       9 -> 24        -0.10481

 Excited State  34:      Singlet-A"    14.6379 eV   84.70 nm  f=0.0761  <S**2>=0.000
       6 -> 13         0.25879
       6 -> 14         0.36905
       6 -> 15         0.22959
       6 -> 19         0.10807
       7 -> 16         0.15020
       9 -> 21         0.18376
       9 -> 23         0.33584
       9 -> 30         0.11121

 Excited State  35:      Singlet-A'    14.7423 eV   84.10 nm  f=0.0958  <S**2>=0.000
       5 -> 10         0.13739
       5 -> 11         0.43911
       7 -> 15         0.26834
       8 -> 19         0.25947
       8 -> 20         0.30210

 Excited State  36:      Singlet-A"    14.8602 eV   83.43 nm  f=0.0229  <S**2>=0.000
       6 -> 13        -0.12862
       6 -> 14        -0.18713
       6 -> 15         0.19852
       7 -> 16         0.58521
       9 -> 21        -0.10706

 Excited State  37:      Singlet-A'    14.8791 eV   83.33 nm  f=0.2212  <S**2>=0.000
       5 -> 10        -0.15399
       7 -> 14         0.30313
       8 -> 20         0.12716
       9 -> 22         0.55349

 Excited State  38:      Singlet-A'    15.0239 eV   82.52 nm  f=0.0116  <S**2>=0.000
       5 -> 10         0.10454
       5 -> 11         0.45471
       6 -> 16         0.11574
       7 -> 15        -0.18836
       8 -> 20        -0.39006
       9 -> 24        -0.10532

 Excited State  39:      Singlet-A"    15.0622 eV   82.31 nm  f=0.0680  <S**2>=0.000
       6 -> 13        -0.13583
       6 -> 14        -0.39154
       7 -> 16        -0.14726
       9 -> 20         0.11352
       9 -> 23         0.50144

 Excited State  40:      Singlet-A'    15.2693 eV   81.20 nm  f=0.3392  <S**2>=0.000
       5 -> 11         0.10287
       6 -> 18         0.13457
       8 -> 19         0.11099
       9 -> 24         0.64421

 Excited State  41:      Singlet-A"    15.3119 eV   80.97 nm  f=0.1451  <S**2>=0.000
       6 -> 15         0.57342
       7 -> 16        -0.27638
       9 -> 23        -0.20474

 Excited State  42:      Singlet-A'    15.5822 eV   79.57 nm  f=0.1030  <S**2>=0.000
       5 -> 11        -0.10629
       5 -> 13         0.12058
       6 -> 16         0.53123
       7 -> 15         0.12210
       7 -> 17         0.32827
       8 -> 20         0.10692
       8 -> 21         0.10967

 Excited State  43:      Singlet-A"    15.6431 eV   79.26 nm  f=0.0461  <S**2>=0.000
       6 -> 15         0.13704
       7 -> 18         0.63996
       8 -> 22        -0.16220
       8 -> 24        -0.10363

 Excited State  44:      Singlet-A'    15.7955 eV   78.49 nm  f=0.2235  <S**2>=0.000
       6 -> 16        -0.34137
       7 -> 17         0.42611
       7 -> 19        -0.10101
       8 -> 20        -0.15280
       8 -> 21         0.34692

 Excited State  45:      Singlet-A"    15.8310 eV   78.32 nm  f=0.0582  <S**2>=0.000
       6 -> 15         0.10153
       6 -> 17         0.13814
       7 -> 18        -0.10212
       9 -> 25         0.64175

 Excited State  46:      Singlet-A"    15.8730 eV   78.11 nm  f=0.0268  <S**2>=0.000
       5 -> 12         0.66538

 Excited State  47:      Singlet-A'    15.9725 eV   77.62 nm  f=0.0238  <S**2>=0.000
       5 -> 13         0.13450
       5 -> 14        -0.11907
       6 -> 18        -0.21625
       7 -> 17        -0.37307
       8 -> 20        -0.15712
       8 -> 21         0.42010
       8 -> 23        -0.18364

 Excited State  48:      Singlet-A"    16.0392 eV   77.30 nm  f=0.0278  <S**2>=0.000
       5 -> 12        -0.11287
       6 -> 17         0.56245
       7 -> 18        -0.14030
       8 -> 22        -0.21488
       9 -> 25        -0.17743
       9 -> 27         0.13340

 Excited State  49:      Singlet-A'    16.1203 eV   76.91 nm  f=0.0339  <S**2>=0.000
       5 -> 13         0.63151
       6 -> 18         0.11488
       8 -> 21        -0.10134
       8 -> 23         0.14016

 Excited State  50:      Singlet-A'    16.2089 eV   76.49 nm  f=0.0147  <S**2>=0.000
       6 -> 16         0.12439
       6 -> 18         0.54801
       7 -> 17        -0.14075
       7 -> 19        -0.23895
       7 -> 20         0.10520
       8 -> 21         0.16708
       9 -> 24        -0.10454

 Excited State  51:      Singlet-A"    16.3767 eV   75.71 nm  f=0.1133  <S**2>=0.000
       6 -> 17         0.25000
       7 -> 18         0.12474
       8 -> 22         0.62341

 Excited State  52:      Singlet-A'    16.4564 eV   75.34 nm  f=0.0739  <S**2>=0.000
       5 -> 14         0.23724
       6 -> 18        -0.20880
       8 -> 21         0.20823
       8 -> 23         0.53286

 Excited State  53:      Singlet-A"    16.4741 eV   75.26 nm  f=0.0531  <S**2>=0.000
       6 -> 17        -0.16001
       6 -> 19         0.14084
       8 -> 24        -0.10084
       9 -> 19        -0.11612
       9 -> 23        -0.14019
       9 -> 27         0.54501
       9 -> 29        -0.15399
       9 -> 30         0.21320

 Excited State  54:      Singlet-A"    16.6987 eV   74.25 nm  f=0.0002  <S**2>=0.000
       7 -> 18         0.11752
       8 -> 24         0.64802
       9 -> 29        -0.11854
       9 -> 30         0.10580

 Excited State  55:      Singlet-A'    16.7228 eV   74.14 nm  f=0.0130  <S**2>=0.000
       5 -> 13         0.10718
       5 -> 14         0.59655
       7 -> 19         0.10865
       8 -> 23        -0.24793

 Excited State  56:      Singlet-A'    16.8015 eV   73.79 nm  f=0.0191  <S**2>=0.000
       7 -> 19         0.15212
       8 -> 23         0.14973
       9 -> 26         0.63343
       9 -> 28         0.16078

 Excited State  57:      Singlet-A"    16.8373 eV   73.64 nm  f=0.0406  <S**2>=0.000
       6 -> 14        -0.15061
       6 -> 19         0.48775
       6 -> 20        -0.15888
       8 -> 24        -0.11608
       9 -> 27        -0.29124
       9 -> 29        -0.21056

 Excited State  58:      Singlet-A'    16.8636 eV   73.52 nm  f=0.0175  <S**2>=0.000
       5 -> 15        -0.26696
       6 -> 18         0.18053
       7 -> 19         0.51111
       8 -> 21         0.10853
       8 -> 23         0.15492
       8 -> 25         0.11899
       9 -> 26        -0.19162

 Excited State  59:      Singlet-A"    17.1097 eV   72.46 nm  f=0.0016  <S**2>=0.000
       5 -> 16        -0.27328
       6 -> 19         0.28709
       6 -> 20        -0.17303
       9 -> 27         0.16337
       9 -> 29         0.43169
       9 -> 30        -0.21086

 Excited State  60:      Singlet-A'    17.1631 eV   72.24 nm  f=0.0175  <S**2>=0.000
       5 -> 15         0.26651
       5 -> 17        -0.12667
       8 -> 25        -0.28091
       9 -> 26        -0.17293
       9 -> 28         0.51643

 Excited State  61:      Singlet-A'    17.2325 eV   71.95 nm  f=0.0567  <S**2>=0.000
       5 -> 15         0.36202
       7 -> 19         0.14097
       7 -> 20         0.36058
       7 -> 21         0.20095
       8 -> 25         0.33497
       9 -> 28        -0.10016

 Excited State  62:      Singlet-A'    17.3207 eV   71.58 nm  f=0.1730  <S**2>=0.000
       5 -> 15        -0.14590
       7 -> 19        -0.21124
       8 -> 21        -0.13495
       8 -> 25         0.45829
       9 -> 28         0.38971

 Excited State  63:      Singlet-A"    17.3588 eV   71.42 nm  f=0.1428  <S**2>=0.000
       5 -> 16         0.59370
       6 -> 19         0.10076
       9 -> 27         0.11038
       9 -> 29         0.12437
       9 -> 30        -0.23306

 Excited State  64:      Singlet-A"    17.5921 eV   70.48 nm  f=0.0082  <S**2>=0.000
       5 -> 16         0.14723
       9 -> 27        -0.13221
       9 -> 29         0.42340
       9 -> 30         0.47897

 Excited State  65:      Singlet-A'    17.7275 eV   69.94 nm  f=0.1602  <S**2>=0.000
       4 -> 10        -0.12823
       5 -> 15        -0.30195
       5 -> 17         0.23120
       7 -> 20         0.45666
       8 -> 25        -0.20345

 Excited State  66:      Singlet-A"    17.7882 eV   69.70 nm  f=0.0094  <S**2>=0.000
       6 -> 19         0.26823
       6 -> 20         0.56444
       6 -> 21         0.12686
       8 -> 28         0.12163
       9 -> 30        -0.10015
       9 -> 31         0.11889

 Excited State  67:      Singlet-A'    18.0307 eV   68.76 nm  f=0.0177  <S**2>=0.000
       5 -> 15         0.18152
       5 -> 17         0.49097
       8 -> 27         0.37769
       8 -> 30         0.10843

 Excited State  68:      Singlet-A"    18.0931 eV   68.53 nm  f=0.0007  <S**2>=0.000
       5 -> 18         0.63172
       8 -> 26         0.24431
       8 -> 28         0.10639

 Excited State  69:      Singlet-A"    18.2265 eV   68.02 nm  f=0.0086  <S**2>=0.000
       5 -> 18        -0.22381
       7 -> 22        -0.10612
       8 -> 26         0.63231
       9 -> 31        -0.12409

 Excited State  70:      Singlet-A'    18.3075 eV   67.72 nm  f=0.1002  <S**2>=0.000
       5 -> 17        -0.30309
       7 -> 19         0.10137
       7 -> 20         0.23284
       7 -> 21        -0.27629
       8 -> 27         0.44736

 Excited State  71:      Singlet-A'    18.3565 eV   67.54 nm  f=0.0022  <S**2>=0.000
       4 -> 10        -0.12444
       5 -> 15        -0.14611
       5 -> 17        -0.24003
       7 -> 20        -0.16353
       7 -> 21         0.48686
       8 -> 27         0.27698
       9 -> 32         0.10016

 Excited State  72:      Singlet-A"    18.3845 eV   67.44 nm  f=0.0055  <S**2>=0.000
       6 -> 19        -0.10412
       6 -> 21        -0.24732
       8 -> 26         0.11527
       9 -> 31         0.58846
       9 -> 33        -0.12392
       9 -> 34         0.11929

 Excited State  73:      Singlet-A"    18.5056 eV   67.00 nm  f=0.0351  <S**2>=0.000
       5 -> 18        -0.11448
       6 -> 20        -0.10356
       7 -> 22         0.27562
       8 -> 28         0.59313

 Excited State  74:      Singlet-A'    18.6473 eV   66.49 nm  f=0.0370  <S**2>=0.000
       5 -> 19        -0.22932
       7 -> 21        -0.12181
       7 -> 23         0.15371
       8 -> 27         0.14046
       8 -> 29         0.52363
       8 -> 30        -0.22237

 Excited State  75:      Singlet-A"    18.7480 eV   66.13 nm  f=0.0120  <S**2>=0.000
       7 -> 22         0.60893
       7 -> 24        -0.14867
       8 -> 26         0.10138
       8 -> 28        -0.26320

 Excited State  76:      Singlet-A'    18.7840 eV   66.01 nm  f=0.0553  <S**2>=0.000
       5 -> 19        -0.32168
       6 -> 22         0.17338
       7 -> 23        -0.29092
       9 -> 32         0.47395
       9 -> 35        -0.10126

 Excited State  77:      Singlet-A'    18.8779 eV   65.68 nm  f=0.0298  <S**2>=0.000
       4 -> 10         0.29340
       7 -> 21         0.12626
       7 -> 23         0.39676
       8 -> 29        -0.32583
       8 -> 30        -0.24470

 Excited State  78:      Singlet-A"    18.8940 eV   65.62 nm  f=0.0078  <S**2>=0.000
       6 -> 20        -0.21372
       6 -> 21         0.54323
       6 -> 23        -0.17234
       9 -> 31         0.23661
       9 -> 33        -0.18451

 Excited State  79:      Singlet-A'    18.9511 eV   65.42 nm  f=0.0001  <S**2>=0.000
       4 -> 10         0.51246
       5 -> 19         0.29461
       5 -> 20        -0.16306
       7 -> 23        -0.17693
       8 -> 29         0.16734

 Excited State  80:      Singlet-A"    19.1837 eV   64.63 nm  f=0.0600  <S**2>=0.000
       7 -> 24         0.66191
       8 -> 28        -0.11693

 Excited State  81:      Singlet-A'    19.1900 eV   64.61 nm  f=0.0132  <S**2>=0.000
       6 -> 22        -0.22409
       6 -> 24         0.14507
       7 -> 23         0.32801
       8 -> 29         0.12882
       8 -> 30         0.28880
       9 -> 32         0.38263
       9 -> 35         0.14213

 Excited State  82:      Singlet-A'    19.2450 eV   64.42 nm  f=0.0240  <S**2>=0.000
       4 -> 10        -0.22999
       5 -> 19         0.29128
       6 -> 22         0.34039
       6 -> 24        -0.16829
       7 -> 21        -0.20479
       8 -> 30        -0.21866
       9 -> 32         0.22498
       9 -> 35         0.15534

 Excited State  83:      Singlet-A"    19.3296 eV   64.14 nm  f=0.0223  <S**2>=0.000
       6 -> 21         0.16493
       6 -> 23         0.63294
       9 -> 30        -0.13200
       9 -> 33        -0.16663

 Excited State  84:      Singlet-A'    19.3584 eV   64.05 nm  f=0.0134  <S**2>=0.000
       5 -> 19        -0.10625
       6 -> 22         0.47265
       7 -> 21         0.13146
       7 -> 23         0.18993
       8 -> 30         0.33629
       9 -> 32        -0.14758

 Excited State  85:      Singlet-A"    19.3919 eV   63.94 nm  f=0.0120  <S**2>=0.000
       6 -> 21         0.11466
       6 -> 23         0.14688
       9 -> 31         0.20228
       9 -> 33         0.58619
       9 -> 34        -0.19040

 Excited State  86:      Singlet-A'    19.5772 eV   63.33 nm  f=0.0190  <S**2>=0.000
       6 -> 22         0.21008
       6 -> 24         0.63816

 Excited State  87:      Singlet-A'    19.6583 eV   63.07 nm  f=0.1008  <S**2>=0.000
       5 -> 19         0.21344
       5 -> 20         0.52283
       5 -> 21         0.11819
       7 -> 25        -0.23639
       8 -> 31         0.17546

 Excited State  88:      Singlet-A"    19.7299 eV   62.84 nm  f=0.0028  <S**2>=0.000
       6 -> 21         0.14758
       9 -> 33         0.17165
       9 -> 34         0.64707

 Excited State  89:      Singlet-A'    19.8311 eV   62.52 nm  f=0.0075  <S**2>=0.000
       4 -> 11         0.63318
       6 -> 28        -0.12840

 Excited State  90:      Singlet-A'    19.9068 eV   62.28 nm  f=0.0075  <S**2>=0.000
       5 -> 20         0.12085
       7 -> 25         0.51895
       8 -> 31         0.32458
       9 -> 35        -0.16224

 Excited State  91:      Singlet-A'    20.1205 eV   61.62 nm  f=0.0428  <S**2>=0.000
       5 -> 19        -0.14733

 The electronic state is 1-A'.
 Alpha  occ. eigenvalues --  -19.63716 -10.59599  -1.13057  -0.76915  -0.58866
 Alpha  occ. eigenvalues --   -0.51764  -0.50245  -0.40912  -0.35425
 Alpha virt. eigenvalues --    0.03328   0.06396   0.10475   0.10545   0.13307
 Alpha virt. eigenvalues --    0.16538   0.17069   0.18558   0.18693   0.23014
 Alpha virt. eigenvalues --    0.26556   0.29589   0.29901   0.31645   0.32079

 Mulliken charges:
               1
     1  C    0.520565
     2  O   -0.493195
     3  H   -0.044079
     4  H   -0.044079
     5  H   -0.113721
     6  H    0.174510
 Sum of Mulliken charges =  -0.00000

 Dipole moment (field-independent basis, Debye):
    X=             -1.3999    Y=              0.9942    Z=              0.0000  Tot=              1.7170
 Quadrupole moment (field-independent basis, Debye-Ang):
   XX=            -11.8553   YY=            -13.4604   ZZ=            -13.8906
   XY=              2.1269   XZ=              0.0000   YZ=             -0.0000

 Normal termination of Gaussian 16 at Mon Mar 21 19:59:45 2022.
