 Gaussian 16, Revision C.01,
 Gaussian 16:  EM64L-G16RevC.01  3-Jul-2019

 ---------------------------------------------------------------------
 #P TD(Nstates=10000) m062x/Gen SCF(maxcycles=100) Int(Grid=ultrafine)
 ---------------------------------------------------------------------

 ---------------------
 xGDB7_00001_tier4.com
 ---------------------
 Symbolic Z-matrix:
 Charge =  0 Multiplicity = 1

                         Standard orientation:
 ---------------------------------------------------------------------
 Center     Atomic      Atomic             Coordinates (Angstroms)
 Number     Number       Type             X           Y           Z
 ---------------------------------------------------------------------
      1          7           0        1.078471   -0.156900   -0.000001
      2          6           0       -0.161963    0.384944   -0.000002
      3          8           0       -1.189170   -0.245458    0.000001
      4          1           0        1.898427    0.419427    0.000004
      5          1           0        1.178124   -1.157073    0.000005
      6          1           0       -0.140706    1.489948    0.000007
 ---------------------------------------------------------------------

 SCF Done:  E(RM062X) =  -169.706307994     A.U. after   15 cycles

 Excitation energies and oscillator strengths:

 Excited State   1:      Singlet-A      5.4579 eV  227.16 nm  f=0.0007  <S**2>=0.000
      12 -> 14         0.69658
 This state for optimization and/or second-order correction.
 Total Energy, E(TD-HF/TD-DFT) =  -169.505733031
 Copying the excited state density for this state as the 1-particle RhoCI density.

 Excited State   2:      Singlet-A      7.3983 eV  167.58 nm  f=0.0129  <S**2>=0.000
      11 -> 13         0.68460
      11 -> 15         0.11569

 Excited State   3:      Singlet-A      7.5108 eV  165.07 nm  f=0.0405  <S**2>=0.000
      11 -> 14         0.48820
      12 -> 13         0.49538

 Excited State   4:      Singlet-A      8.0626 eV  153.78 nm  f=0.2089  <S**2>=0.000
      11 -> 14         0.43539
      12 -> 13        -0.42698
      12 -> 15         0.31411

 Excited State   5:      Singlet-A      8.3306 eV  148.83 nm  f=0.0026  <S**2>=0.000
      11 -> 15         0.65270
      11 -> 16         0.20492

 Excited State   6:      Singlet-A      8.5870 eV  144.39 nm  f=0.1459  <S**2>=0.000
      11 -> 14        -0.21459
      12 -> 13         0.21962
      12 -> 15         0.62227

 Excited State   7:      Singlet-A      9.1828 eV  135.02 nm  f=0.0076  <S**2>=0.000
      11 -> 15        -0.20975
      11 -> 16         0.64403
      11 -> 18        -0.12110

 Excited State   8:      Singlet-A      9.2432 eV  134.13 nm  f=0.0865  <S**2>=0.000
      12 -> 13        -0.12219
      12 -> 16         0.64356
      12 -> 18         0.21567

 Excited State   9:      Singlet-A      9.7106 eV  127.68 nm  f=0.0070  <S**2>=0.000
      12 -> 17         0.69856

 Excited State  10:      Singlet-A      9.9930 eV  124.07 nm  f=0.0018  <S**2>=0.000
       9 -> 14         0.38936
      11 -> 18         0.47616
      11 -> 19         0.21731
      11 -> 20        -0.20154

 Excited State  11:      Singlet-A     10.0012 eV  123.97 nm  f=0.0001  <S**2>=0.000
       9 -> 14         0.56376
      11 -> 18        -0.26462
      11 -> 19        -0.22393
      11 -> 20         0.19259

 Excited State  12:      Singlet-A     10.1612 eV  122.02 nm  f=0.0052  <S**2>=0.000
      11 -> 17        -0.33905
      12 -> 16        -0.20240
      12 -> 18         0.53863
      12 -> 19         0.18195

 Excited State  13:      Singlet-A     10.2527 eV  120.93 nm  f=0.0078  <S**2>=0.000
      11 -> 17         0.55867
      12 -> 16        -0.11222
      12 -> 18         0.36317
      12 -> 19        -0.16462

 Excited State  14:      Singlet-A     10.4248 eV  118.93 nm  f=0.0034  <S**2>=0.000
      11 -> 18        -0.27476
      11 -> 19         0.59994
      11 -> 22         0.12769

 Excited State  15:      Singlet-A     10.4773 eV  118.34 nm  f=0.0015  <S**2>=0.000
      10 -> 14        -0.12144
      11 -> 17         0.22201
      12 -> 18        -0.11696
      12 -> 19         0.58188
      12 -> 20        -0.24123

 Excited State  16:      Singlet-A     10.7783 eV  115.03 nm  f=0.0233  <S**2>=0.000
      12 -> 19         0.24300
      12 -> 20         0.64647

 Excited State  17:      Singlet-A     10.9682 eV  113.04 nm  f=0.0237  <S**2>=0.000
      11 -> 18         0.26695
      11 -> 20         0.61813
      11 -> 23        -0.11828

 Excited State  18:      Singlet-A     11.4759 eV  108.04 nm  f=0.0864  <S**2>=0.000
       8 -> 13         0.10652
       9 -> 13        -0.20382
      10 -> 14         0.61899
      11 -> 21         0.12012
      12 -> 19         0.10909
      12 -> 23        -0.12320

 Excited State  19:      Singlet-A     11.5782 eV  107.08 nm  f=0.0442  <S**2>=0.000
       8 -> 14         0.15061
      10 -> 13         0.62426
      11 -> 22         0.16025
      12 -> 21        -0.16225

 Excited State  20:      Singlet-A     11.7231 eV  105.76 nm  f=0.0001  <S**2>=0.000
       8 -> 14        -0.23360
      10 -> 13         0.23677
      12 -> 21         0.57830
      12 -> 24        -0.12303
      12 -> 26         0.10491

 Excited State  21:      Singlet-A     11.7518 eV  105.50 nm  f=0.0154  <S**2>=0.000
      11 -> 21         0.22676
      12 -> 22         0.35965
      12 -> 23         0.53274

 Excited State  22:      Singlet-A     11.8407 eV  104.71 nm  f=0.0263  <S**2>=0.000
       8 -> 14        -0.10033
      11 -> 18         0.11068
      11 -> 22         0.43647
      11 -> 23         0.48420

 Excited State  23:      Singlet-A     11.8608 eV  104.53 nm  f=0.0334  <S**2>=0.000
       9 -> 13         0.22072
      11 -> 21         0.56581
      12 -> 22        -0.30099

 Excited State  24:      Singlet-A     12.0252 eV  103.10 nm  f=0.1043  <S**2>=0.000
       9 -> 13         0.61742
      10 -> 14         0.21152
      11 -> 21        -0.19373

 Excited State  25:      Singlet-A     12.0789 eV  102.65 nm  f=0.0001  <S**2>=0.000
       8 -> 14         0.55720
      10 -> 15        -0.18566
      11 -> 22        -0.11392
      11 -> 23         0.19588
      12 -> 21         0.25867

 Excited State  26:      Singlet-A     12.1629 eV  101.94 nm  f=0.0049  <S**2>=0.000
       8 -> 14         0.21001
      10 -> 13        -0.14672
      10 -> 15         0.12204
      11 -> 22         0.44868
      11 -> 23        -0.40586
      12 -> 21         0.11210

 Excited State  27:      Singlet-A     12.2937 eV  100.85 nm  f=0.0444  <S**2>=0.000
      10 -> 14        -0.10434
      11 -> 21         0.17693
      11 -> 24        -0.14846
      12 -> 22         0.49887
      12 -> 23        -0.39646

 Excited State  28:      Singlet-A     12.4780 eV   99.36 nm  f=0.0012  <S**2>=0.000
       8 -> 14         0.15159
      10 -> 15         0.63882
      11 -> 19         0.11888
      11 -> 22        -0.14075

 Excited State  29:      Singlet-A     12.7327 eV   97.37 nm  f=0.0319  <S**2>=0.000
       9 -> 15        -0.37704
       9 -> 16        -0.14109
      11 -> 21         0.11021
      11 -> 24         0.53395

 Excited State  30:      Singlet-A     12.7498 eV   97.24 nm  f=0.0073  <S**2>=0.000
      12 -> 21         0.16820
      12 -> 24         0.66921

 Excited State  31:      Singlet-A     12.7955 eV   96.90 nm  f=0.0874  <S**2>=0.000
       9 -> 15         0.57560
      11 -> 24         0.37119

 Excited State  32:      Singlet-A     13.3495 eV   92.88 nm  f=0.0056  <S**2>=0.000
       8 -> 13         0.52387
       9 -> 16         0.38782
       9 -> 18         0.13413
      12 -> 27         0.10001

 Excited State  33:      Singlet-A     13.3762 eV   92.69 nm  f=0.0461  <S**2>=0.000
      10 -> 16         0.67503

 Excited State  34:      Singlet-A     13.7582 eV   90.12 nm  f=0.0519  <S**2>=0.000
       8 -> 13        -0.41195
       9 -> 16         0.44841
       9 -> 18         0.21676
      10 -> 17         0.17592
      11 -> 24         0.10745

 Excited State  35:      Singlet-A     13.9982 eV   88.57 nm  f=0.0641  <S**2>=0.000
      10 -> 18         0.32493
      10 -> 19         0.16271
      11 -> 25         0.54703
      11 -> 27         0.14401

 Excited State  36:      Singlet-A     14.0510 eV   88.24 nm  f=0.0465  <S**2>=0.000
       8 -> 15         0.27446
       9 -> 18        -0.13904
       9 -> 19        -0.13550
      12 -> 25         0.59205

 Excited State  37:      Singlet-A     14.0587 eV   88.19 nm  f=0.0048  <S**2>=0.000
       9 -> 17         0.64979
      11 -> 25        -0.17452
      12 -> 26         0.11583

 Excited State  38:      Singlet-A     14.1263 eV   87.77 nm  f=0.0783  <S**2>=0.000
       8 -> 15         0.38025
       9 -> 18        -0.23527
       9 -> 19        -0.20364
      10 -> 17         0.37447
      12 -> 25        -0.28467

 Excited State  39:      Singlet-A     14.1838 eV   87.41 nm  f=0.1092  <S**2>=0.000
       9 -> 17        -0.22471
      10 -> 18         0.41240
      10 -> 19         0.16142
      10 -> 20        -0.22878
      11 -> 25        -0.34538
      11 -> 27         0.13816
      12 -> 26         0.12110

 Excited State  40:      Singlet-A     14.2161 eV   87.21 nm  f=0.0665  <S**2>=0.000
       8 -> 13         0.11446
       8 -> 15        -0.32859
       9 -> 16        -0.11040
       9 -> 19         0.11780
      10 -> 17         0.49417
      12 -> 25         0.20363
      12 -> 27        -0.17520

 Excited State  41:      Singlet-A     14.3006 eV   86.70 nm  f=0.0314  <S**2>=0.000
      10 -> 18        -0.22784
      11 -> 27         0.23175
      12 -> 24         0.10459
      12 -> 26         0.59061

 Excited State  42:      Singlet-A     14.3446 eV   86.43 nm  f=0.0028  <S**2>=0.000
       7 -> 14        -0.10582
      10 -> 18        -0.17549
      11 -> 27         0.55679
      11 -> 32        -0.10883
      12 -> 26        -0.28572

 Excited State  43:      Singlet-A     14.4303 eV   85.92 nm  f=0.0937  <S**2>=0.000
       8 -> 15        -0.12668
       9 -> 18        -0.13843
      10 -> 17         0.13300
      10 -> 21         0.10383
      11 -> 26         0.45848
      12 -> 27         0.41465

 Excited State  44:      Singlet-A     14.4622 eV   85.73 nm  f=0.0001  <S**2>=0.000
       7 -> 14         0.58307
       8 -> 14        -0.10068
      10 -> 19         0.32976

 Excited State  45:      Singlet-A     14.5025 eV   85.49 nm  f=0.1741  <S**2>=0.000
       8 -> 15         0.26922
       8 -> 16         0.12973
       9 -> 16        -0.27008
       9 -> 18         0.50885
       9 -> 19         0.10491
      10 -> 17         0.14190
      11 -> 26         0.11806

 Excited State  46:      Singlet-A     14.5766 eV   85.06 nm  f=0.0983  <S**2>=0.000
       8 -> 16         0.11255
       9 -> 19        -0.21311
       9 -> 20         0.17687
      11 -> 26        -0.41620
      12 -> 27         0.42187

 Excited State  47:      Singlet-A     14.5948 eV   84.95 nm  f=0.0029  <S**2>=0.000
       7 -> 14        -0.33521
      10 -> 18        -0.17757
      10 -> 19         0.54721
      11 -> 27        -0.15525

 Excited State  48:      Singlet-A     14.7442 eV   84.09 nm  f=0.0577  <S**2>=0.000
       8 -> 15         0.20227
       9 -> 18        -0.17530
       9 -> 19         0.56470
      11 -> 26        -0.22617
      12 -> 27         0.14038

 Excited State  49:      Singlet-A     14.9703 eV   82.82 nm  f=0.0508  <S**2>=0.000
       6 -> 14         0.10779
      10 -> 18         0.22157
      10 -> 20         0.61190
      10 -> 23        -0.14441
      11 -> 25        -0.10897

 Excited State  50:      Singlet-A     15.1221 eV   81.99 nm  f=0.0122  <S**2>=0.000
       7 -> 13         0.18140
       8 -> 16         0.30990
       9 -> 19         0.10183
       9 -> 20         0.48497
      12 -> 27        -0.10912
      12 -> 28         0.19794

 Excited State  51:      Singlet-A     15.2757 eV   81.16 nm  f=0.0160  <S**2>=0.000
       8 -> 16         0.53492
       9 -> 18        -0.16841
       9 -> 20        -0.34890

 Excited State  52:      Singlet-A     15.4366 eV   80.32 nm  f=0.0927  <S**2>=0.000
       7 -> 13         0.59960
       7 -> 15         0.16388
       9 -> 20        -0.21206

 Excited State  53:      Singlet-A     15.5771 eV   79.59 nm  f=0.0348  <S**2>=0.000
      10 -> 20        -0.11125
      10 -> 22        -0.29762
      10 -> 23        -0.25530
      11 -> 28         0.51718

 Excited State  54:      Singlet-A     15.7309 eV   78.82 nm  f=0.0044  <S**2>=0.000
       8 -> 17         0.55535
       9 -> 21        -0.37097

 Excited State  55:      Singlet-A     15.7737 eV   78.60 nm  f=0.0177  <S**2>=0.000
       8 -> 16        -0.12232
       9 -> 23         0.14170
      10 -> 21         0.24590
      12 -> 28         0.46704
      12 -> 32        -0.32692

 Excited State  56:      Singlet-A     15.8248 eV   78.35 nm  f=0.0114  <S**2>=0.000
      10 -> 22         0.16842
      10 -> 23         0.48553
      11 -> 28         0.35145
      11 -> 29         0.18766
      11 -> 30        -0.11859
      11 -> 32         0.11002

 Excited State  57:      Singlet-A     15.9133 eV   77.91 nm  f=0.0254  <S**2>=0.000
       7 -> 15         0.11250
      10 -> 21         0.56467
      10 -> 24        -0.10962
      11 -> 26        -0.10350
      12 -> 29         0.21022
      12 -> 32         0.20967

 Excited State  58:      Singlet-A     15.9462 eV   77.75 nm  f=0.0113  <S**2>=0.000
       8 -> 18         0.30501
       8 -> 19         0.35248
       9 -> 23         0.36538
      12 -> 29         0.28219

 Excited State  59:      Singlet-A     15.9646 eV   77.66 nm  f=0.0046  <S**2>=0.000
      10 -> 22         0.12550
      10 -> 23        -0.22468
      11 -> 28        -0.10575
      11 -> 29         0.57272
      11 -> 32         0.23094

 Excited State  60:      Singlet-A     16.0177 eV   77.40 nm  f=0.0134  <S**2>=0.000
       8 -> 18        -0.26790
       8 -> 19        -0.14459
       8 -> 20         0.14168
      10 -> 21        -0.10049
      12 -> 29         0.55392
      12 -> 32        -0.18568

 Excited State  61:      Singlet-A     16.1270 eV   76.88 nm  f=0.0015  <S**2>=0.000
       9 -> 21         0.13683
      10 -> 22        -0.34097
      11 -> 27         0.13386
      11 -> 30        -0.10500
      11 -> 32         0.39803
      12 -> 31         0.33616

 Excited State  62:      Singlet-A     16.1580 eV   76.73 nm  f=0.0137  <S**2>=0.000
       6 -> 14        -0.10685
       9 -> 21         0.18579
      10 -> 22         0.27582
      10 -> 23        -0.14025
      11 -> 28         0.15778
      11 -> 30         0.12268
      11 -> 32        -0.16280
      12 -> 31         0.50913

 Excited State  63:      Singlet-A     16.1898 eV   76.58 nm  f=0.0050  <S**2>=0.000
       8 -> 17        -0.11107
       9 -> 21        -0.19280
      10 -> 22         0.33300
      10 -> 23        -0.14316
      11 -> 28         0.15653
      11 -> 29        -0.25061
      11 -> 32         0.39115
      11 -> 33         0.11298

 Excited State  64:      Singlet-A     16.2167 eV   76.45 nm  f=0.0001  <S**2>=0.000
       8 -> 17         0.37178
       9 -> 21         0.46675
       9 -> 24        -0.14205
      10 -> 22         0.11736
      12 -> 31        -0.25822

 Excited State  65:      Singlet-A     16.2198 eV   76.44 nm  f=0.0936  <S**2>=0.000
       8 -> 19        -0.18945
       9 -> 22         0.52678
       9 -> 23         0.23350
      10 -> 21        -0.13857
      12 -> 32         0.20964

 Excited State  66:      Singlet-A     16.3094 eV   76.02 nm  f=0.0094  <S**2>=0.000
       7 -> 15         0.13953
       8 -> 18        -0.20271
       9 -> 22        -0.27617
      10 -> 21        -0.11511
      12 -> 28         0.39782
      12 -> 32         0.37621

 Excited State  67:      Singlet-A     16.4145 eV   75.53 nm  f=0.0401  <S**2>=0.000
       7 -> 13        -0.15991
       7 -> 15         0.55418
       7 -> 16         0.11058
      10 -> 24         0.16313
      11 -> 31        -0.20780
      12 -> 28        -0.10546

 Excited State  68:      Singlet-A     16.4509 eV   75.37 nm  f=0.0228  <S**2>=0.000
       7 -> 13        -0.12438
       7 -> 15         0.21262
       8 -> 18         0.36548
       8 -> 20        -0.10868
       9 -> 23        -0.32292
      10 -> 21        -0.14364
      11 -> 31         0.23973
      12 -> 28         0.10602
      12 -> 29         0.14301

 Excited State  69:      Singlet-A     16.4894 eV   75.19 nm  f=0.1310  <S**2>=0.000
       7 -> 15         0.13297
       8 -> 18        -0.10412
       8 -> 19         0.17646
       9 -> 23         0.19156
      10 -> 24        -0.31473
      11 -> 31         0.48703
      12 -> 32        -0.12700

 Excited State  70:      Singlet-A     16.7424 eV   74.05 nm  f=0.0312  <S**2>=0.000
       8 -> 18        -0.18240
       8 -> 19         0.43907
       9 -> 22         0.31134
       9 -> 23        -0.31214
      12 -> 30        -0.17910

 Excited State  71:      Singlet-A     16.7681 eV   73.94 nm  f=0.0510  <S**2>=0.000
       6 -> 14        -0.19053
       9 -> 24         0.10233
      10 -> 20         0.10530
      10 -> 22        -0.12712
      11 -> 30         0.59584

 Excited State  72:      Singlet-A     16.8252 eV   73.69 nm  f=0.0001  <S**2>=0.000
       6 -> 13         0.13688
       8 -> 18        -0.12187
       8 -> 20        -0.23142
      10 -> 24         0.51491
      11 -> 31         0.31260

 Excited State  73:      Singlet-A     16.8830 eV   73.44 nm  f=0.0330  <S**2>=0.000
       6 -> 14        -0.37635
       7 -> 17         0.11555
       9 -> 24         0.47406
      10 -> 23        -0.11979
      11 -> 30        -0.21091
      12 -> 31        -0.10826

 Excited State  74:      Singlet-A     16.8903 eV   73.41 nm  f=0.0272  <S**2>=0.000
       7 -> 16         0.19290
       8 -> 16         0.10047
       8 -> 18         0.18392
       8 -> 20         0.51742
       8 -> 23        -0.10842
      10 -> 24         0.19460
      11 -> 31         0.13772
      12 -> 30        -0.17969

 Excited State  75:      Singlet-A     16.9374 eV   73.20 nm  f=0.0497  <S**2>=0.000
       8 -> 19         0.14452
       8 -> 20         0.20238
      12 -> 30         0.59975
      12 -> 32        -0.12697

 Excited State  76:      Singlet-A     16.9983 eV   72.94 nm  f=0.1211  <S**2>=0.000
       6 -> 14         0.45442
       8 -> 24        -0.10310
       9 -> 24         0.40237
      11 -> 33        -0.14533

 Excited State  77:      Singlet-A     17.1785 eV   72.17 nm  f=0.0166  <S**2>=0.000
       9 -> 24         0.11897
      10 -> 23         0.10128
      11 -> 29         0.15455
      11 -> 30         0.11757
      11 -> 33         0.61194
      11 -> 34        -0.11365

 Excited State  78:      Singlet-A     17.4261 eV   71.15 nm  f=0.0203  <S**2>=0.000
       6 -> 13         0.56817
       7 -> 16        -0.29185
      12 -> 33        -0.18345

 Excited State  79:      Singlet-A     17.4586 eV   71.02 nm  f=0.0879  <S**2>=0.000
       7 -> 16        -0.36545
       7 -> 18         0.11969
       8 -> 20         0.13608
      10 -> 24         0.10064
      12 -> 33         0.49081

 Excited State  80:      Singlet-A     17.5702 eV   70.56 nm  f=0.0502  <S**2>=0.000
       6 -> 13         0.31815
       7 -> 16         0.30067
       7 -> 18        -0.11270
       8 -> 20        -0.13462
      10 -> 24        -0.10484
      12 -> 33         0.42018
      12 -> 34        -0.16192

 Excited State  81:      Singlet-A     17.5983 eV   70.45 nm  f=0.0001  <S**2>=0.000
       8 -> 21         0.66374
       8 -> 24        -0.13108

 Excited State  82:      Singlet-A     17.7463 eV   69.86 nm  f=0.0835  <S**2>=0.000
       7 -> 18        -0.13855
       7 -> 19        -0.17768
       7 -> 20         0.11923
       8 -> 18         0.13316
       8 -> 22         0.45109
       8 -> 23         0.38434

 Excited State  83:      Singlet-A     18.0033 eV   68.87 nm  f=0.0038  <S**2>=0.000
       6 -> 14        -0.13441
       7 -> 17         0.20076
       8 -> 24        -0.15814
       9 -> 24        -0.13331
      10 -> 25         0.52664
      10 -> 27         0.15395
      11 -> 34        -0.20711

 Excited State  84:      Singlet-A     18.0478 eV   68.70 nm  f=0.0031  <S**2>=0.000
       7 -> 17         0.43236
       7 -> 21         0.15557
       8 -> 24        -0.31398
       9 -> 24        -0.17691
       9 -> 26        -0.11216
      10 -> 25        -0.32089

 Excited State  85:      Singlet-A     18.1045 eV   68.48 nm  f=0.2098  <S**2>=0.000
       7 -> 16         0.15529
       7 -> 18         0.30292
       7 -> 20        -0.24697
       8 -> 22        -0.19249
       8 -> 23         0.42163
       9 -> 25         0.12562
       9 -> 27         0.20274

 Excited State  86:      Singlet-A     18.1301 eV   68.39 nm  f=0.0381  <S**2>=0.000
       7 -> 17         0.11987
      10 -> 25         0.28640
      10 -> 27        -0.24465
      11 -> 34         0.52732

 Excited State  87:      Singlet-A     18.2006 eV   68.12 nm  f=0.0305  <S**2>=0.000
       7 -> 18         0.24683
       7 -> 19         0.16267
       7 -> 20        -0.24228
       8 -> 22         0.44344
       8 -> 23        -0.24233
       9 -> 25         0.11042
      10 -> 26        -0.14165
      12 -> 34         0.13563

 Excited State  88:      Singlet-A     18.2467 eV   67.95 nm  f=0.0452  <S**2>=0.000
       6 -> 15        -0.38244
       7 -> 18        -0.15619
       7 -> 19        -0.10021
       9 -> 25         0.12885
       9 -> 27         0.14845
      10 -> 26        -0.11958
      12 -> 34         0.44783

 Excited State  89:      Singlet-A     18.2855 eV   67.80 nm  f=0.0052  <S**2>=0.000
       8 -> 24         0.19313
      10 -> 27         0.55031
      11 -> 33         0.17233
      11 -> 34         0.25213

 Excited State  90:      Singlet-A     18.3295 eV   67.64 nm  f=0.0057  <S**2>=0.000
       7 -> 19        -0.19508
       8 -> 23        -0.10125
       9 -> 25         0.48277
      10 -> 26         0.38834

 Excited State  91:      Singlet-A     18.3791 eV   67.46 nm  f=0.0104  <S**2>=0.000
       7 -> 17         0.37887
       8 -> 21         0.11964

 The electronic state is 1-A.
 Alpha  occ. eigenvalues --  -19.61504 -14.79505 -10.66587  -1.15755  -1.01512
 Alpha  occ. eigenvalues --   -0.71456  -0.64494  -0.56567  -0.50222  -0.49542
 Alpha  occ. eigenvalues --   -0.35046  -0.34280
 Alpha virt. eigenvalues --    0.03357   0.05350   0.06280   0.09910   0.12451
 Alpha virt. eigenvalues --    0.13020   0.13728   0.16296   0.19251   0.20007
 Alpha virt. eigenvalues --    0.20733   0.22851   0.27730   0.28749   0.29910

 Mulliken charges:
               1
     1  N    0.136462
     2  C    0.643927
     3  O   -0.445809
     4  H   -0.103133
     5  H   -0.072039
     6  H   -0.159408
 Sum of Mulliken charges =  -0.00000

 Dipole moment (field-independent basis, Debye):
    X=              3.9135    Y=              0.9398    Z=              0.0000  Tot=              4.0248
 Quadrupole moment (field-independent basis, Debye-Ang):
   XX=            -18.1684   YY=            -15.4206   ZZ=            -18.9768
   XY=             -1.3085   XZ=              0.0000   YZ=             -0.0000

 1\1\GINC-HEL22\SP\RM062X TD-FC\Gen\C1H3N1O1\SABYASACHI\21-Mar-2022\0\\
 #P TD(Nstates=10000) m062x/Gen SCF(maxcycles=100) Int(Grid=ultrafine)\
 \xGDB7_00001_tier4.com\\0,1\N,0,-1.078471,-0.1569,0.000001\C,0,0.16196
 3,0.384944,0.000002\O,0,1.18917,-0.245458,-0.000001\H,0,-1.898427,0.41
 9427,-0.000004\H,0,-1.178124,-1.157073,-0.000005\H,0,0.140706,1.489948
 ,-0.000007\\Version=EM64L-G16RevC.01\State=1-A\HF=-169.706308\RMSD=4.2
 65e-09\PG=C01 [X(C1H3N1O1)]\\@
 The archive entry for this job was punched.

 Normal termination of Gaussian 16 at Mon Mar 21 20:13:14 2022.
