 Gaussian 16, Revision C.01,
 Gaussian 16:  EM64L-G16RevC.01  3-Jul-2019

 ---------------------------------------------------------------------
 #P TD(Nstates=10000) m062x/Gen SCF(maxcycles=100) Int(Grid=ultrafine)
 ---------------------------------------------------------------------

 ---------------------
 xGDB7_00001_tier4.com
 ---------------------
 Symbolic Z-matrix:
 Charge =  0 Multiplicity = 1

                         Standard orientation:
 ---------------------------------------------------------------------
 Center     Atomic      Atomic             Coordinates (Angstroms)
 Number     Number       Type             X           Y           Z
 ---------------------------------------------------------------------
      1          6           0       -0.026655   -0.220923    1.206915
      2          7           0       -0.026655    0.579675   -0.000000
      3          6           0       -0.026655   -0.220923   -1.206915
      4          1           0        0.028929    0.427196    2.082330
      5          1           0        0.800836   -0.947383    1.258571
      6          1           0       -0.961718   -0.783094    1.269367
      7          1           0        0.770359    1.199905   -0.000000
      8          1           0       -0.961718   -0.783094   -1.269367
      9          1           0        0.800836   -0.947383   -1.258571
     10          1           0        0.028929    0.427196   -2.082330
 ---------------------------------------------------------------------

 SCF Done:  E(RM062X) =  -134.993108202     A.U. after   13 cycles

 Excitation energies and oscillator strengths:

 Excited State   1:      Singlet-A'     6.0669 eV  204.36 nm  f=0.0016  <S**2>=0.000
      13 -> 14         0.65491
      13 -> 16         0.24273
 This state for optimization and/or second-order correction.
 Total Energy, E(TD-HF/TD-DFT) =  -134.770152248
 Copying the excited state density for this state as the 1-particle RhoCI density.

 Excited State   2:      Singlet-A"     7.2170 eV  171.79 nm  f=0.0031  <S**2>=0.000
      13 -> 15         0.69897

 Excited State   3:      Singlet-A'     7.2811 eV  170.28 nm  f=0.0436  <S**2>=0.000
      13 -> 14        -0.24159
      13 -> 16         0.65361

 Excited State   4:      Singlet-A'     8.2345 eV  150.57 nm  f=0.0059  <S**2>=0.000
      13 -> 17        -0.35949
      13 -> 18         0.58232
      13 -> 22        -0.10124

 Excited State   5:      Singlet-A'     8.3620 eV  148.27 nm  f=0.0970  <S**2>=0.000
      13 -> 17         0.56852
      13 -> 18         0.33573
      13 -> 19         0.18898
      13 -> 22        -0.10301

 Excited State   6:      Singlet-A'     8.8517 eV  140.07 nm  f=0.0232  <S**2>=0.000
      13 -> 17        -0.19073
      13 -> 18        -0.10209
      13 -> 19         0.63478
      13 -> 22        -0.17835

 Excited State   7:      Singlet-A"     9.1137 eV  136.04 nm  f=0.0226  <S**2>=0.000
      13 -> 20         0.68627

 Excited State   8:      Singlet-A'     9.4119 eV  131.73 nm  f=0.0071  <S**2>=0.000
      13 -> 18         0.12523
      13 -> 19         0.20058
      13 -> 22         0.65415

 Excited State   9:      Singlet-A"     9.7464 eV  127.21 nm  f=0.0369  <S**2>=0.000
      12 -> 14        -0.25029
      13 -> 21         0.60496
      13 -> 23        -0.21897

 Excited State  10:      Singlet-A"     9.8896 eV  125.37 nm  f=0.0925  <S**2>=0.000
      11 -> 15        -0.13340
      12 -> 14         0.61618
      13 -> 21         0.21206
      13 -> 23        -0.17219

 Excited State  11:      Singlet-A'     9.9490 eV  124.62 nm  f=0.0277  <S**2>=0.000
      11 -> 14         0.65400
      11 -> 16         0.11027
      12 -> 15        -0.17374

 Excited State  12:      Singlet-A"    10.0374 eV  123.52 nm  f=0.0094  <S**2>=0.000
      13 -> 21         0.27152
      13 -> 23         0.63308

 Excited State  13:      Singlet-A'    10.3045 eV  120.32 nm  f=0.0016  <S**2>=0.000
      13 -> 24         0.68367

 Excited State  14:      Singlet-A"    10.4243 eV  118.94 nm  f=0.0023  <S**2>=0.000
      10 -> 14         0.55957
      11 -> 15        -0.23297
      13 -> 25        -0.27211
      13 -> 26        -0.12566

 Excited State  15:      Singlet-A"    10.6150 eV  116.80 nm  f=0.0197  <S**2>=0.000
      10 -> 14         0.27198
      11 -> 15        -0.12669
      13 -> 25         0.60323
      13 -> 26         0.12933

 Excited State  16:      Singlet-A'    10.8689 eV  114.07 nm  f=0.0711  <S**2>=0.000
       8 -> 14         0.12107
      11 -> 14         0.11248
      11 -> 16         0.25183
      12 -> 15         0.60822
      13 -> 27        -0.11289

 Excited State  17:      Singlet-A"    10.9450 eV  113.28 nm  f=0.0238  <S**2>=0.000
      11 -> 15        -0.27683
      13 -> 25        -0.18554
      13 -> 26         0.55614
      13 -> 29        -0.15729

 Excited State  18:      Singlet-A"    11.0102 eV  112.61 nm  f=0.0001  <S**2>=0.000
       9 -> 14         0.12368
      10 -> 14         0.23697
      11 -> 15         0.41955
      12 -> 16         0.37232
      12 -> 18         0.11157
      13 -> 26         0.26222

 Excited State  19:      Singlet-A'    11.1543 eV  111.15 nm  f=0.1662  <S**2>=0.000
      10 -> 15         0.24203
      11 -> 14        -0.13431
      11 -> 16         0.59059
      12 -> 15        -0.19429

 Excited State  20:      Singlet-A"    11.2216 eV  110.49 nm  f=0.0364  <S**2>=0.000
      10 -> 14        -0.11511
      11 -> 15        -0.31846
      12 -> 14        -0.14235
      12 -> 16         0.56783
      13 -> 26        -0.11021

 Excited State  21:      Singlet-A'    11.5904 eV  106.97 nm  f=0.0578  <S**2>=0.000
       8 -> 14        -0.15476
      10 -> 15         0.58572
      11 -> 14         0.11672
      11 -> 16        -0.21531
      11 -> 17        -0.10217
      11 -> 18         0.10585
      13 -> 27        -0.15484

 Excited State  22:      Singlet-A'    11.6484 eV  106.44 nm  f=0.0058  <S**2>=0.000
      10 -> 15         0.10638
      12 -> 15         0.12647
      13 -> 27         0.60631
      13 -> 28        -0.21886

 Excited State  23:      Singlet-A"    11.8484 eV  104.64 nm  f=0.0000  <S**2>=0.000
       9 -> 14        -0.12006
      10 -> 16         0.61960
      11 -> 20        -0.14510
      12 -> 18         0.18379

 Excited State  24:      Singlet-A"    11.9415 eV  103.83 nm  f=0.1401  <S**2>=0.000
       9 -> 14        -0.20826
      10 -> 16        -0.22254
      12 -> 17         0.19128
      12 -> 18         0.54647
      12 -> 19         0.12902

 Excited State  25:      Singlet-A"    11.9770 eV  103.52 nm  f=0.0802  <S**2>=0.000
      10 -> 16         0.10793
      11 -> 21         0.10956
      12 -> 17         0.63885
      12 -> 18        -0.12476

 Excited State  26:      Singlet-A'    11.9994 eV  103.33 nm  f=0.0170  <S**2>=0.000
      11 -> 17         0.56220
      12 -> 21         0.11919
      13 -> 27        -0.17869
      13 -> 28        -0.30249

 Excited State  27:      Singlet-A'    12.1025 eV  102.45 nm  f=0.0452  <S**2>=0.000
      10 -> 15         0.15003
      11 -> 17         0.31360
      11 -> 18        -0.27963
      13 -> 27         0.12441
      13 -> 28         0.47476

 Excited State  28:      Singlet-A"    12.1721 eV  101.86 nm  f=0.1414  <S**2>=0.000
       8 -> 15        -0.11425
       9 -> 14         0.57820
       9 -> 16         0.10587
      11 -> 15        -0.17275
      12 -> 18         0.26223

 Excited State  29:      Singlet-A'    12.2731 eV  101.02 nm  f=0.0814  <S**2>=0.000
       8 -> 14         0.14908
       9 -> 15        -0.16293
      11 -> 17         0.14725
      11 -> 18         0.56677
      12 -> 21         0.11698
      13 -> 28         0.23416

 Excited State  30:      Singlet-A"    12.3576 eV  100.33 nm  f=0.0106  <S**2>=0.000
      10 -> 17         0.16315
      10 -> 19         0.19560
      12 -> 19        -0.18426
      13 -> 26         0.19308
      13 -> 29         0.52141
      13 -> 33         0.15638

 Excited State  31:      Singlet-A'    12.5020 eV   99.17 nm  f=0.0414  <S**2>=0.000
       8 -> 14         0.58432
       8 -> 16         0.14248
      10 -> 15         0.14730
      11 -> 18        -0.11452
      11 -> 19         0.13607
      12 -> 15        -0.10631
      13 -> 28        -0.14783

 Excited State  32:      Singlet-A"    12.5785 eV   98.57 nm  f=0.0045  <S**2>=0.000
       9 -> 14         0.12964
      10 -> 18         0.17768
      12 -> 18        -0.11583
      12 -> 19         0.58583
      12 -> 22        -0.16585
      13 -> 26         0.10253
      13 -> 29         0.13366

 Excited State  33:      Singlet-A'    12.6042 eV   98.37 nm  f=0.0204  <S**2>=0.000
      11 -> 19         0.63496
      11 -> 22        -0.10032
      13 -> 30         0.10905

 Excited State  34:      Singlet-A"    12.6249 eV   98.21 nm  f=0.0707  <S**2>=0.000
      10 -> 17         0.42401
      10 -> 18        -0.38022
      11 -> 20        -0.27026
      11 -> 21         0.11556
      12 -> 19         0.10598

 Excited State  35:      Singlet-A"    12.7511 eV   97.23 nm  f=0.0133  <S**2>=0.000
       8 -> 15         0.14014
       9 -> 14         0.11634
       9 -> 16        -0.10909
      10 -> 17         0.24210
      10 -> 18         0.43019
      11 -> 20        -0.22253
      12 -> 19        -0.13448
      12 -> 22        -0.16116
      13 -> 29        -0.20688

 Excited State  36:      Singlet-A'    12.8415 eV   96.55 nm  f=0.1311  <S**2>=0.000
      11 -> 19        -0.10759
      11 -> 22        -0.11619
      12 -> 20         0.10322
      13 -> 30         0.64219

 Excited State  37:      Singlet-A"    12.8993 eV   96.12 nm  f=0.0843  <S**2>=0.000
       9 -> 14        -0.13362
       9 -> 16         0.33768
      10 -> 17         0.34040
      10 -> 19        -0.18316
      11 -> 20         0.36620
      11 -> 21         0.10359

 Excited State  38:      Singlet-A'    12.9029 eV   96.09 nm  f=0.0452  <S**2>=0.000
       8 -> 14        -0.14210
       8 -> 16         0.23540
       9 -> 15         0.15861
      10 -> 20        -0.14283
      12 -> 20         0.55443

 Excited State  39:      Singlet-A"    13.0183 eV   95.24 nm  f=0.0383  <S**2>=0.000
       9 -> 16         0.18730
      10 -> 17         0.10689
      10 -> 19         0.40996
      11 -> 21        -0.11073
      12 -> 19         0.14897
      12 -> 22         0.41197

 Excited State  40:      Singlet-A'    13.0307 eV   95.15 nm  f=0.0177  <S**2>=0.000
       9 -> 15        -0.34710
      10 -> 20         0.10810
      10 -> 21        -0.11654
      11 -> 22         0.49709
      12 -> 20         0.10205
      12 -> 23        -0.11883

 Excited State  41:      Singlet-A'    13.1934 eV   93.97 nm  f=0.0379  <S**2>=0.000
       8 -> 16         0.12690
       8 -> 18        -0.14464
       9 -> 15        -0.27604
      10 -> 20        -0.27103
      11 -> 18        -0.10962
      12 -> 21         0.33613
      12 -> 23        -0.20644
      13 -> 31         0.15358
      13 -> 32        -0.14445
      13 -> 34         0.15344

 Excited State  42:      Singlet-A'    13.2738 eV   93.41 nm  f=0.0337  <S**2>=0.000
       8 -> 17        -0.12446
       9 -> 15         0.39231
      10 -> 20         0.17840
      11 -> 22         0.21516
      12 -> 21         0.37378
      12 -> 23        -0.17875
      12 -> 25        -0.10078

 Excited State  43:      Singlet-A"    13.2780 eV   93.38 nm  f=0.0131  <S**2>=0.000
       9 -> 16         0.19272
      10 -> 17        -0.10930
      10 -> 18        -0.19595
      10 -> 19         0.39416
      10 -> 22        -0.10810
      11 -> 21         0.24017
      12 -> 22        -0.35472

 Excited State  44:      Singlet-A'    13.3460 eV   92.90 nm  f=0.0686  <S**2>=0.000
       8 -> 17        -0.10076
       9 -> 15        -0.23849
      10 -> 20         0.27186
      11 -> 18        -0.14902
      11 -> 22        -0.18756
      11 -> 24         0.20203
      12 -> 20         0.12583
      12 -> 21         0.32366
      13 -> 31        -0.18569
      13 -> 32         0.16285
      13 -> 34        -0.11320

 Excited State  45:      Singlet-A"    13.3531 eV   92.85 nm  f=0.0049  <S**2>=0.000
       9 -> 16         0.33674
       9 -> 17        -0.22554
      10 -> 17        -0.18565
      10 -> 19        -0.19032
      11 -> 20        -0.32698
      11 -> 21         0.29187
      12 -> 22         0.15737

 Excited State  46:      Singlet-A'    13.4094 eV   92.46 nm  f=0.1094  <S**2>=0.000
       8 -> 16        -0.17500
      10 -> 20         0.22953
      12 -> 20         0.22540
      13 -> 28        -0.10327
      13 -> 30        -0.10623
      13 -> 31         0.37293
      13 -> 34         0.34901

 Excited State  47:      Singlet-A"    13.4298 eV   92.32 nm  f=0.0098  <S**2>=0.000
       9 -> 16        -0.32728
       9 -> 17        -0.19129
       9 -> 18        -0.14260
      11 -> 20         0.22653
      11 -> 21         0.37920
      11 -> 23        -0.23582
      12 -> 22         0.16863

 Excited State  48:      Singlet-A"    13.5663 eV   91.39 nm  f=0.0195  <S**2>=0.000
       8 -> 15         0.57674
      10 -> 18        -0.12108
      10 -> 22         0.24137
      11 -> 23        -0.15465
      12 -> 22        -0.10405

 Excited State  49:      Singlet-A'    13.5780 eV   91.31 nm  f=0.0301  <S**2>=0.000
       7 -> 14        -0.20098
       8 -> 14        -0.13368
       8 -> 16         0.31082
       8 -> 18         0.14722
      11 -> 22         0.17115
      12 -> 20        -0.16734
      12 -> 21         0.10925
      12 -> 23         0.38101
      13 -> 31         0.14612

 Excited State  50:      Singlet-A"    13.6651 eV   90.73 nm  f=0.0157  <S**2>=0.000
       8 -> 15         0.22324
       9 -> 16        -0.13539
       9 -> 18         0.14201
      10 -> 22        -0.33001
      11 -> 20         0.12392
      11 -> 23         0.35431
      12 -> 22         0.15846
      13 -> 29         0.16252
      13 -> 33        -0.22832

 Excited State  51:      Singlet-A'    13.7936 eV   89.89 nm  f=0.0659  <S**2>=0.000
       7 -> 14         0.58594
       7 -> 16         0.10352
       8 -> 16         0.10308
      13 -> 31         0.11033
      13 -> 34        -0.15266

 Excited State  52:      Singlet-A"    13.8042 eV   89.82 nm  f=0.0011  <S**2>=0.000
       8 -> 15         0.12381
      10 -> 24         0.10465
      11 -> 21         0.11331
      11 -> 23         0.17706
      12 -> 24        -0.15669
      13 -> 29        -0.19232
      13 -> 33         0.54524

 Excited State  53:      Singlet-A'    13.8394 eV   89.59 nm  f=0.0115  <S**2>=0.000
      10 -> 20        -0.21781
      13 -> 31         0.29443
      13 -> 32         0.52094

 Excited State  54:      Singlet-A'    13.9450 eV   88.91 nm  f=0.1208  <S**2>=0.000
       7 -> 14        -0.10113
       8 -> 16         0.34399
       8 -> 18        -0.11096
      10 -> 20         0.20244
      10 -> 21        -0.24470
      11 -> 22        -0.11166
      12 -> 21        -0.10842
      12 -> 23        -0.27194
      13 -> 31         0.24178
      13 -> 32         0.15964
      13 -> 34        -0.14944

 Excited State  55:      Singlet-A"    13.9617 eV   88.80 nm  f=0.0083  <S**2>=0.000
       9 -> 17        -0.16645
       9 -> 18         0.40432
      10 -> 22         0.33223
      11 -> 23         0.21910
      11 -> 25        -0.24756
      12 -> 24         0.10536

 Excited State  56:      Singlet-A'    14.0282 eV   88.38 nm  f=0.0623  <S**2>=0.000
       7 -> 14         0.14171
       8 -> 16         0.23757
      13 -> 31        -0.27874
      13 -> 32         0.27136
      13 -> 34         0.45970

 Excited State  57:      Singlet-A"    14.0484 eV   88.26 nm  f=0.0516  <S**2>=0.000
       9 -> 17         0.11055
      12 -> 24         0.61366
      13 -> 33         0.15807

 Excited State  58:      Singlet-A'    14.1151 eV   87.84 nm  f=0.0782  <S**2>=0.000
       8 -> 16        -0.14369
       8 -> 18        -0.18756
       8 -> 19        -0.10730
      10 -> 20        -0.17718
      10 -> 21        -0.33561
      10 -> 23         0.11652
      11 -> 22         0.11029
      12 -> 23         0.19909
      12 -> 25         0.38884

 Excited State  59:      Singlet-A"    14.1948 eV   87.34 nm  f=0.0144  <S**2>=0.000
       9 -> 17         0.55249
       9 -> 18         0.16909
      11 -> 21         0.31045

 Excited State  60:      Singlet-A'    14.2264 eV   87.15 nm  f=0.0464  <S**2>=0.000
       8 -> 18         0.11372
       9 -> 20        -0.10436
      10 -> 20        -0.15622
      10 -> 21        -0.16939
      11 -> 24         0.46858
      12 -> 23        -0.11755
      12 -> 25        -0.22031
      12 -> 26        -0.18693

 Excited State  61:      Singlet-A"    14.3487 eV   86.41 nm  f=0.1470  <S**2>=0.000
       9 -> 18        -0.34764
       9 -> 22         0.15950
      10 -> 22         0.35268
      11 -> 23         0.38527
      11 -> 25         0.18147

 Excited State  62:      Singlet-A"    14.4565 eV   85.76 nm  f=0.0079  <S**2>=0.000
       8 -> 20        -0.10996
       9 -> 18        -0.14406
       9 -> 19         0.45413
       9 -> 22        -0.10360
      10 -> 24        -0.19070
      11 -> 23         0.10149
      11 -> 25        -0.33685
      11 -> 26         0.20764

 Excited State  63:      Singlet-A'    14.4850 eV   85.59 nm  f=0.0571  <S**2>=0.000
       8 -> 17         0.11267
       8 -> 18         0.29773
      10 -> 21        -0.28069
      10 -> 23        -0.24785
      10 -> 25         0.11408
      11 -> 24        -0.25001
      13 -> 36         0.23341
      13 -> 37        -0.17414

 Excited State  64:      Singlet-A'    14.5649 eV   85.13 nm  f=0.1188  <S**2>=0.000
       7 -> 14         0.13163
       7 -> 16        -0.12332
       8 -> 18        -0.14967
      10 -> 21        -0.16573
      10 -> 23         0.36779
      11 -> 24        -0.15901
      12 -> 23         0.16344
      12 -> 25        -0.28347
      13 -> 36         0.21970
      13 -> 37        -0.15949

 Excited State  65:      Singlet-A'    14.6339 eV   84.72 nm  f=0.0587  <S**2>=0.000
       8 -> 17         0.46682
       8 -> 19         0.12315
      10 -> 21        -0.15206
      11 -> 24         0.18143
      12 -> 25        -0.14080
      12 -> 26         0.26004
      13 -> 37         0.16769

 Excited State  66:      Singlet-A"    14.6581 eV   84.58 nm  f=0.2000  <S**2>=0.000
       7 -> 15         0.48792
       9 -> 19         0.26393
      10 -> 24         0.32515
      11 -> 25         0.12598
      13 -> 35         0.12399

 Excited State  67:      Singlet-A'    14.6834 eV   84.44 nm  f=0.0178  <S**2>=0.000
       9 -> 20         0.10541
      10 -> 21         0.24968
      11 -> 22         0.11192
      11 -> 24         0.17288
      12 -> 25         0.15157
      12 -> 26         0.19379
      13 -> 32        -0.12122
      13 -> 36         0.42614
      13 -> 37        -0.19199

 Excited State  68:      Singlet-A"    14.7163 eV   84.25 nm  f=0.0275  <S**2>=0.000
       7 -> 15        -0.14970
       9 -> 17        -0.16104
       9 -> 18         0.24736
       9 -> 19         0.18607
      10 -> 24        -0.16198
      11 -> 25         0.35680
      11 -> 26         0.25517
      13 -> 35         0.25112

 Excited State  69:      Singlet-A'    14.7763 eV   83.91 nm  f=0.0135  <S**2>=0.000
       8 -> 17         0.31770
       8 -> 18         0.23896
       8 -> 19        -0.24700
       9 -> 20         0.10048
      10 -> 23         0.25096
      12 -> 26        -0.28200
      13 -> 37         0.17356

 Excited State  70:      Singlet-A"    14.8153 eV   83.69 nm  f=0.1422  <S**2>=0.000
       7 -> 15         0.12747
       9 -> 18        -0.11373
       9 -> 19        -0.13695
      10 -> 24        -0.26803
      11 -> 23         0.10180
      11 -> 26        -0.27667
      12 -> 24        -0.10200
      13 -> 33         0.11454
      13 -> 35         0.44923

 Excited State  71:      Singlet-A'    14.9019 eV   83.20 nm  f=0.0018  <S**2>=0.000
       7 -> 14        -0.12831
       7 -> 16         0.49575
       8 -> 19         0.21643
       8 -> 22        -0.10209
       9 -> 20        -0.14092
      10 -> 20         0.13065
      10 -> 23         0.20999
      10 -> 25         0.16429

 Excited State  72:      Singlet-A"    14.9044 eV   83.19 nm  f=0.0051  <S**2>=0.000
       7 -> 15         0.38364
      10 -> 24        -0.38246
      11 -> 25         0.15074
      13 -> 35        -0.33384

 Excited State  73:      Singlet-A'    14.9404 eV   82.99 nm  f=0.1935  <S**2>=0.000
       7 -> 16        -0.25090
       8 -> 18         0.23781
       9 -> 20         0.20429
      10 -> 23         0.28011
      10 -> 25         0.15794
      11 -> 22         0.10048
      11 -> 24         0.12697
      12 -> 26         0.31902
      13 -> 36        -0.12135
      13 -> 38        -0.11066

 Excited State  74:      Singlet-A'    15.1057 eV   82.08 nm  f=0.0576  <S**2>=0.000
       7 -> 16        -0.10279
       8 -> 17         0.20915
       8 -> 18        -0.13794
       8 -> 19         0.24167
       9 -> 20         0.29130
       9 -> 23         0.11238
      10 -> 26        -0.10584
      11 -> 27         0.10700
      12 -> 26        -0.28474
      13 -> 36        -0.11881
      13 -> 37        -0.26290
      13 -> 38        -0.14704

 Excited State  75:      Singlet-A'    15.1192 eV   82.00 nm  f=0.0688  <S**2>=0.000
       7 -> 16        -0.11919
       7 -> 19         0.10695
       8 -> 19         0.38400
       9 -> 21        -0.21430
      10 -> 26        -0.15318
      11 -> 27        -0.23760
      13 -> 36         0.21586
      13 -> 37         0.22130

 Excited State  76:      Singlet-A"    15.1245 eV   81.98 nm  f=0.2117  <S**2>=0.000
       7 -> 15         0.19415
       8 -> 20         0.10901
       9 -> 19        -0.24862
       9 -> 22         0.31406
      11 -> 25        -0.21744
      11 -> 26         0.39368
      12 -> 27        -0.11198
      13 -> 35         0.14102

 Excited State  77:      Singlet-A'    15.1744 eV   81.71 nm  f=0.0905  <S**2>=0.000
       7 -> 16        -0.13747
       8 -> 19         0.11378
       9 -> 20        -0.24656
       9 -> 21         0.26536

 The electronic state is 1-A'.
 Alpha  occ. eigenvalues --  -14.74146 -10.56575 -10.56573  -0.99596  -0.78424
 Alpha  occ. eigenvalues --   -0.70523  -0.56206  -0.51461  -0.50329  -0.44966
 Alpha  occ. eigenvalues --   -0.42633  -0.42319  -0.28563
 Alpha virt. eigenvalues --    0.04289   0.06854   0.08945   0.12394   0.12951
 Alpha virt. eigenvalues --    0.15176   0.15271   0.16914   0.17019   0.19233
 Alpha virt. eigenvalues --    0.19969   0.21376   0.23034   0.24424   0.27752

 Mulliken charges:
               1
     1  C    0.623353
     2  N   -0.742173
     3  C    0.623353
     4  H   -0.177186
     5  H    0.020899
     6  H   -0.068560
     7  H   -0.054840
     8  H   -0.068560
     9  H    0.020899
    10  H   -0.177186
 Sum of Mulliken charges =  -0.00000

 Dipole moment (field-independent basis, Debye):
    X=              0.9299    Y=             -0.3792    Z=             -0.0000  Tot=              1.0042
 Quadrupole moment (field-independent basis, Debye-Ang):
   XX=            -20.9805   YY=            -21.5053   ZZ=            -19.8614
   XY=              2.0840   XZ=              0.0000   YZ=             -0.0000

 Normal termination of Gaussian 16 at Mon Mar 21 20:06:57 2022.
