 Gaussian 16, Revision C.01,
 Gaussian 16:  EM64L-G16RevC.01  3-Jul-2019

 ---------------------------------------------------------------------
 #P TD(Nstates=10000) m062x/Gen SCF(maxcycles=100) Int(Grid=ultrafine)
 ---------------------------------------------------------------------

 ---------------------
 xGDB7_00001_tier4.com
 ---------------------
 Symbolic Z-matrix:
 Charge =  0 Multiplicity = 1

                         Standard orientation:
 ---------------------------------------------------------------------
 Center     Atomic      Atomic             Coordinates (Angstroms)
 Number     Number       Type             X           Y           Z
 ---------------------------------------------------------------------
      1          9           0        0.000000    1.098813   -0.289120
      2          6           0       -0.000000   -0.000000    0.499944
      3          9           0       -0.000000   -1.098813   -0.289120
      4          1           0       -0.911346    0.000000    1.102246
      5          1           0        0.911346   -0.000000    1.102246
 ---------------------------------------------------------------------

 SCF Done:  E(RM062X) =  -238.730122334     A.U. after   12 cycles

 Excitation energies and oscillator strengths:

 Excited State   1:      Singlet-B1     9.6837 eV  128.03 nm  f=0.0364  <S**2>=0.000
      13 -> 14         0.69016
      13 -> 18        -0.10116
 This state for optimization and/or second-order correction.
 Total Energy, E(TD-HF/TD-DFT) =  -238.374252829
 Copying the excited state density for this state as the 1-particle RhoCI density.

 Excited State   2:      Singlet-A2    10.3264 eV  120.07 nm  f=0.0000  <S**2>=0.000
      13 -> 15         0.64081
      13 -> 19        -0.21602
      13 -> 23         0.16290

 Excited State   3:      Singlet-B1    11.0057 eV  112.65 nm  f=0.0165  <S**2>=0.000
      13 -> 17         0.63106
      13 -> 18        -0.25833
      13 -> 25        -0.11088

 Excited State   4:      Singlet-A1    11.4264 eV  108.51 nm  f=0.0746  <S**2>=0.000
      13 -> 16         0.69762

 Excited State   5:      Singlet-B2    11.8547 eV  104.59 nm  f=0.0204  <S**2>=0.000
      11 -> 15        -0.21568
      12 -> 14         0.63964
      12 -> 17         0.15886

 Excited State   6:      Singlet-A1    11.9652 eV  103.62 nm  f=0.0042  <S**2>=0.000
      11 -> 14         0.65047
      12 -> 15        -0.22879

 Excited State   7:      Singlet-B1    12.5011 eV   99.18 nm  f=0.0891  <S**2>=0.000
      13 -> 17         0.29290
      13 -> 18         0.60280
      13 -> 25         0.11520

 Excited State   8:      Singlet-A2    12.5278 eV   98.97 nm  f=0.0000  <S**2>=0.000
      10 -> 14         0.61176
      10 -> 17         0.13742
      13 -> 19        -0.25251
      13 -> 23         0.14282

 Excited State   9:      Singlet-A1    12.5721 eV   98.62 nm  f=0.0234  <S**2>=0.000
      11 -> 14         0.23716
      11 -> 17        -0.14403
      12 -> 15         0.56190
      12 -> 19        -0.16299
      12 -> 23         0.18364
      13 -> 22         0.13422

 Excited State  10:      Singlet-B2    12.7393 eV   97.32 nm  f=0.0559  <S**2>=0.000
      11 -> 15         0.49721
      11 -> 19        -0.11886
      11 -> 23         0.13910
      12 -> 14         0.27840
      12 -> 17        -0.31240
      12 -> 25         0.10904

 Excited State  11:      Singlet-B1    12.9832 eV   95.50 nm  f=0.0625  <S**2>=0.000
      10 -> 15         0.52281
      10 -> 19        -0.12893
      13 -> 18        -0.13284
      13 -> 21        -0.39848

 Excited State  12:      Singlet-A2    13.0688 eV   94.87 nm  f=0.0000  <S**2>=0.000
      10 -> 14         0.27644
      10 -> 18        -0.14817
      13 -> 15         0.27058
      13 -> 19         0.50623
      13 -> 23        -0.21782

 Excited State  13:      Singlet-A1    13.1776 eV   94.09 nm  f=0.1449  <S**2>=0.000
      11 -> 17         0.61468
      11 -> 18        -0.22772
      11 -> 25        -0.12929
      12 -> 15         0.16328

 Excited State  14:      Singlet-B2    13.2775 eV   93.38 nm  f=0.0187  <S**2>=0.000
      10 -> 16        -0.17709
      11 -> 15        -0.16073
      12 -> 17        -0.29836
      13 -> 20         0.57220

 Excited State  15:      Singlet-B1    13.3753 eV   92.70 nm  f=0.0526  <S**2>=0.000
      11 -> 16         0.68625

 Excited State  16:      Singlet-A2    13.4379 eV   92.26 nm  f=0.0000  <S**2>=0.000
      12 -> 16         0.68851

 Excited State  17:      Singlet-A2    13.5133 eV   91.75 nm  f=0.0000  <S**2>=0.000
      10 -> 14        -0.13548
      10 -> 17         0.50741
      10 -> 18        -0.13864
      10 -> 25        -0.13702
      13 -> 19        -0.22563
      13 -> 23        -0.31695

 Excited State  18:      Singlet-B2    13.6084 eV   91.11 nm  f=0.0604  <S**2>=0.000
      10 -> 16        -0.13934
      11 -> 15         0.34624
      12 -> 17         0.48166
      13 -> 20         0.32569

 Excited State  19:      Singlet-B1    13.7594 eV   90.11 nm  f=0.0017  <S**2>=0.000
      10 -> 15         0.36361
      10 -> 19        -0.12840
      10 -> 23         0.13149
      13 -> 21         0.56545

 Excited State  20:      Singlet-A1    13.8752 eV   89.36 nm  f=0.0620  <S**2>=0.000
      12 -> 15        -0.11252
      13 -> 22         0.66584

 Excited State  21:      Singlet-B2    14.2428 eV   87.05 nm  f=0.0025  <S**2>=0.000
      11 -> 15        -0.13879
      11 -> 19        -0.22322
      12 -> 17         0.18052
      12 -> 18         0.55779
      12 -> 25         0.17383

 Excited State  22:      Singlet-B2    14.3210 eV   86.57 nm  f=0.0461  <S**2>=0.000
      10 -> 16         0.65926
      13 -> 20         0.22056

 Excited State  23:      Singlet-A2    14.3620 eV   86.33 nm  f=0.0000  <S**2>=0.000
      10 -> 14        -0.13065
      10 -> 17         0.35203
      10 -> 18        -0.13315
      13 -> 19         0.24282
      13 -> 23         0.50395
      13 -> 29        -0.11573

 Excited State  24:      Singlet-A1    14.3755 eV   86.25 nm  f=0.0133  <S**2>=0.000
      11 -> 17         0.20487
      11 -> 18         0.46915
      11 -> 25         0.12334
      12 -> 15        -0.14302
      12 -> 19        -0.38032
      12 -> 23         0.13665

 Excited State  25:      Singlet-B1    14.7473 eV   84.07 nm  f=0.0069  <S**2>=0.000
       7 -> 14        -0.14712
      10 -> 15        -0.13377
      10 -> 19        -0.12780
      10 -> 23         0.16843
      13 -> 18        -0.18601
      13 -> 24        -0.25342
      13 -> 25         0.48832
      13 -> 28        -0.15782

 Excited State  26:      Singlet-A2    15.0541 eV   82.36 nm  f=0.0000  <S**2>=0.000
      10 -> 17         0.24544
      10 -> 18         0.53636
      10 -> 21        -0.19255
      10 -> 25         0.16068
      11 -> 20        -0.15729
      12 -> 22         0.11233
      13 -> 19         0.11172

 Excited State  27:      Singlet-A1    15.0580 eV   82.34 nm  f=0.0092  <S**2>=0.000
       8 -> 14        -0.11890
      11 -> 17         0.16787
      11 -> 18         0.41280
      12 -> 15         0.19361
      12 -> 19         0.43797
      12 -> 23        -0.14447

 Excited State  28:      Singlet-B1    15.1124 eV   82.04 nm  f=0.0350  <S**2>=0.000
       8 -> 16        -0.11568
      11 -> 22        -0.44476
      12 -> 20         0.51851

 Excited State  29:      Singlet-B2    15.1199 eV   82.00 nm  f=0.1283  <S**2>=0.000
       8 -> 15        -0.12496
       9 -> 14        -0.11394
      11 -> 19        -0.42857
      11 -> 23         0.17380
      12 -> 18        -0.13409
      12 -> 21         0.46364

 Excited State  30:      Singlet-A2    15.1506 eV   81.83 nm  f=0.0000  <S**2>=0.000
      10 -> 18        -0.18159
      11 -> 20        -0.43154
      12 -> 22         0.49209

 Excited State  31:      Singlet-B2    15.3878 eV   80.57 nm  f=0.0594  <S**2>=0.000
       8 -> 15        -0.15602
       9 -> 14         0.36666
       9 -> 17         0.10180
      10 -> 22        -0.12926
      11 -> 19         0.19784
      12 -> 18         0.26852
      12 -> 21         0.38793

 Excited State  32:      Singlet-B1    15.4659 eV   80.17 nm  f=0.0060  <S**2>=0.000
       7 -> 14         0.16137
       7 -> 17         0.10969
      10 -> 15         0.16770
      10 -> 19         0.48510
      10 -> 23        -0.10985
      12 -> 20        -0.10708
      13 -> 24        -0.37817

 Excited State  33:      Singlet-B2    15.5725 eV   79.62 nm  f=0.0033  <S**2>=0.000
       9 -> 14         0.54386
       9 -> 18        -0.10284
      11 -> 15        -0.12656
      11 -> 19        -0.28520
      12 -> 18        -0.15843
      12 -> 21        -0.17748

 Excited State  34:      Singlet-A1    15.6142 eV   79.40 nm  f=0.0001  <S**2>=0.000
       9 -> 15         0.18732
      10 -> 20         0.12692
      11 -> 21         0.63985

 Excited State  35:      Singlet-A2    15.6335 eV   79.31 nm  f=0.0000  <S**2>=0.000
      11 -> 20         0.47827
      12 -> 22         0.46787

 Excited State  36:      Singlet-B1    15.7050 eV   78.95 nm  f=0.0007  <S**2>=0.000
      10 -> 19         0.12228
      11 -> 22         0.50987
      12 -> 20         0.41990

 Excited State  37:      Singlet-A2    15.7646 eV   78.65 nm  f=0.0000  <S**2>=0.000
       7 -> 15         0.34701
      10 -> 18         0.20638
      10 -> 21         0.50500
      11 -> 20        -0.17790
      13 -> 29         0.12351

 Excited State  38:      Singlet-B1    15.8090 eV   78.43 nm  f=0.1999  <S**2>=0.000
       7 -> 14         0.64367
       7 -> 18        -0.10553
      10 -> 19        -0.10161
      13 -> 25         0.12197

 Excited State  39:      Singlet-A1    15.8149 eV   78.40 nm  f=0.0441  <S**2>=0.000
       8 -> 14         0.62819
      10 -> 20         0.16132
      12 -> 19         0.19293
      12 -> 23         0.11241

 Excited State  40:      Singlet-A1    16.0331 eV   77.33 nm  f=0.0147  <S**2>=0.000
       8 -> 14        -0.19492
       8 -> 17        -0.21544
       9 -> 15        -0.14583
      10 -> 20         0.29105
      11 -> 25         0.11574
      12 -> 19         0.20285
      12 -> 23         0.42352

 Excited State  41:      Singlet-B2    16.0670 eV   77.17 nm  f=0.0566  <S**2>=0.000
       9 -> 17         0.22898
      11 -> 19         0.27551
      11 -> 23         0.52155
      11 -> 29        -0.11580
      12 -> 25         0.10753

 Excited State  42:      Singlet-B1    16.2166 eV   76.46 nm  f=0.0705  <S**2>=0.000
      10 -> 19         0.28009
      10 -> 23        -0.10208
      13 -> 24         0.50087
      13 -> 25         0.35628

 Excited State  43:      Singlet-B2    16.3511 eV   75.83 nm  f=0.0436  <S**2>=0.000
       8 -> 15        -0.17354
       9 -> 17         0.13955
      10 -> 22         0.57195
      12 -> 18         0.11211
      12 -> 25        -0.14607
      13 -> 26         0.14817

 Excited State  44:      Singlet-A1    16.4000 eV   75.60 nm  f=0.0208  <S**2>=0.000
       9 -> 15         0.33447
       9 -> 19        -0.13910
      10 -> 20         0.50122
      11 -> 21        -0.22412
      12 -> 23        -0.15792

 Excited State  45:      Singlet-B2    16.5003 eV   75.14 nm  f=0.0378  <S**2>=0.000
       8 -> 15         0.55004
       8 -> 19        -0.16544
       8 -> 23         0.13690
      10 -> 22         0.15376
      12 -> 21         0.22063
      13 -> 26         0.19349

 Excited State  46:      Singlet-A2    16.5473 eV   74.93 nm  f=0.0000  <S**2>=0.000
       7 -> 15         0.49752
       7 -> 19        -0.20218
       7 -> 23         0.17727
       9 -> 16        -0.10096
      10 -> 21        -0.37709

 Excited State  47:      Singlet-A1    16.5651 eV   74.85 nm  f=0.0903  <S**2>=0.000
       9 -> 15         0.48742
      10 -> 20        -0.28949
      11 -> 18        -0.10526
      12 -> 19         0.10831
      12 -> 23         0.23220
      13 -> 27        -0.15472

 Excited State  48:      Singlet-B1    16.7535 eV   74.01 nm  f=0.0079  <S**2>=0.000
       7 -> 17         0.27837
      10 -> 19         0.22528
      10 -> 23         0.49624
      13 -> 24         0.12002
      13 -> 25        -0.18172
      13 -> 28        -0.16127

 Excited State  49:      Singlet-B2    16.9191 eV   73.28 nm  f=0.1080  <S**2>=0.000
       9 -> 14        -0.14103
       9 -> 17         0.49141
       9 -> 18        -0.10541
      10 -> 22        -0.17051
      11 -> 23        -0.17380
      12 -> 25         0.14883
      13 -> 26         0.32664

 Excited State  50:      Singlet-B2    16.9747 eV   73.04 nm  f=0.0981  <S**2>=0.000
       8 -> 15        -0.14587
       9 -> 14         0.10807
       9 -> 17        -0.28448
       9 -> 18         0.10700
      11 -> 23         0.17769
      13 -> 26         0.55327

 Excited State  51:      Singlet-A1    17.0182 eV   72.85 nm  f=0.0851  <S**2>=0.000
       8 -> 14        -0.10950
       8 -> 17         0.50952
       8 -> 18        -0.20671
      11 -> 25        -0.20987
      12 -> 23         0.30203

 Excited State  52:      Singlet-A2    17.0994 eV   72.51 nm  f=0.0000  <S**2>=0.000
       9 -> 16         0.67767
      11 -> 20        -0.10019

 Excited State  53:      Singlet-B1    17.1096 eV   72.46 nm  f=0.0259  <S**2>=0.000
       7 -> 17         0.20959
       8 -> 16         0.60102
      10 -> 23        -0.10286
      13 -> 28         0.17901

 Excited State  54:      Singlet-A1    17.1723 eV   72.20 nm  f=0.0069  <S**2>=0.000
       7 -> 16         0.21582
       8 -> 17         0.26320
      11 -> 18        -0.10430
      11 -> 24        -0.21407
      11 -> 25         0.34982
      11 -> 28        -0.11603
      13 -> 27         0.36980

 Excited State  55:      Singlet-B1    17.2663 eV   71.81 nm  f=0.0101  <S**2>=0.000
       7 -> 17         0.39156
       8 -> 16        -0.29766
      10 -> 19        -0.11430
      13 -> 28         0.46943

 Excited State  56:      Singlet-A2    17.3659 eV   71.40 nm  f=0.0000  <S**2>=0.000
      10 -> 21        -0.18610
      10 -> 25        -0.10069
      13 -> 23         0.20045
      13 -> 29         0.60943

 Excited State  57:      Singlet-A1    17.4155 eV   71.19 nm  f=0.0763  <S**2>=0.000
       7 -> 16        -0.26396
       8 -> 17        -0.12364
       9 -> 15         0.11291
      11 -> 24         0.19306
      11 -> 25        -0.17078
      13 -> 27         0.55017

 Excited State  58:      Singlet-B1    17.5505 eV   70.64 nm  f=0.0499  <S**2>=0.000
       7 -> 17        -0.37393
       7 -> 18         0.14358
       8 -> 16         0.10556
      10 -> 23         0.35951
      13 -> 25         0.11982
      13 -> 28         0.39173

 Excited State  59:      Singlet-A1    17.6043 eV   70.43 nm  f=0.0008  <S**2>=0.000
       7 -> 16         0.56654
       8 -> 17        -0.15968
       9 -> 15         0.13806
      11 -> 24         0.16167
      11 -> 25        -0.17296
      13 -> 30         0.14036

 Excited State  60:      Singlet-B2    17.6045 eV   70.43 nm  f=0.0366  <S**2>=0.000
       9 -> 17         0.18944
       9 -> 18         0.24685
       9 -> 21        -0.12666
      10 -> 22        -0.13629
      11 -> 23         0.19710
      12 -> 21        -0.12739
      12 -> 24         0.40006
      12 -> 25        -0.29644
      12 -> 28         0.11126

 Excited State  61:      Singlet-A2    17.8051 eV   69.63 nm  f=0.0000  <S**2>=0.000
       7 -> 15         0.11117
       7 -> 23        -0.12131
      10 -> 18        -0.23015
      10 -> 24        -0.29285
      10 -> 25         0.47486
      10 -> 28        -0.19343
      13 -> 29         0.17965

 Excited State  62:      Singlet-B2    18.0313 eV   68.76 nm  f=0.0146  <S**2>=0.000
       8 -> 15        -0.13760
       8 -> 19        -0.11221
       9 -> 17        -0.13692
       9 -> 18        -0.21319
      11 -> 19         0.10211
      12 -> 24         0.53528
      12 -> 25         0.26666
      12 -> 28        -0.10077

 Excited State  63:      Singlet-A1    18.0488 eV   68.69 nm  f=0.0143  <S**2>=0.000
       8 -> 17         0.13565
       8 -> 18         0.19348
      11 -> 24         0.52195
      11 -> 25         0.27050
      13 -> 30         0.21959

 Excited State  64:      Singlet-A1    18.4180 eV   67.32 nm  f=0.0061  <S**2>=0.000
       8 -> 21        -0.10143
       9 -> 19         0.12001
      11 -> 24        -0.23845
      11 -> 25        -0.10042
      13 -> 30         0.59289

 Excited State  65:      Singlet-B1    18.4920 eV   67.05 nm  f=0.0466  <S**2>=0.000
       7 -> 17         0.22229
       7 -> 18         0.59742
       7 -> 24        -0.10159
       7 -> 25         0.10007
       8 -> 22         0.10131

 Excited State  66:      Singlet-A1    18.4940 eV   67.04 nm  f=0.0508  <S**2>=0.000
       8 -> 17         0.18091
       8 -> 18         0.56472
       8 -> 21        -0.11952
       9 -> 23        -0.10307
      11 -> 24        -0.11697
      11 -> 25        -0.23289

 Excited State  67:      Singlet-B2    18.5124 eV   66.97 nm  f=0.0557  <S**2>=0.000
       8 -> 19        -0.11103
       9 -> 17         0.10698
       9 -> 18         0.52619
       9 -> 21         0.17565
      10 -> 22         0.12649
      11 -> 23        -0.15118
      11 -> 29        -0.21577
      12 -> 25         0.18794

 Excited State  68:      Singlet-A2    18.5829 eV   66.72 nm  f=0.0000  <S**2>=0.000
       7 -> 15         0.19287
       7 -> 19         0.27079
      10 -> 24         0.56639
      10 -> 25         0.17940

 Excited State  69:      Singlet-A2    18.8869 eV   65.65 nm  f=0.0000  <S**2>=0.000
       9 -> 22        -0.37181
      11 -> 26         0.56570

 Excited State  70:      Singlet-B2    18.9096 eV   65.57 nm  f=0.0603  <S**2>=0.000
       8 -> 15         0.18357
       8 -> 19         0.45157
       8 -> 23        -0.21830
       9 -> 21        -0.18942
      12 -> 25         0.31872
      12 -> 28         0.16242

 Excited State  71:      Singlet-B1    18.9195 eV   65.53 nm  f=0.0099  <S**2>=0.000
       6 -> 16        -0.10097
       8 -> 22        -0.30131
       9 -> 20         0.58142
      11 -> 27        -0.15756
      12 -> 26        -0.13890

 Excited State  72:      Singlet-A2    18.9804 eV   65.32 nm  f=0.0000  <S**2>=0.000
       8 -> 20        -0.39261
       9 -> 22         0.46130
      11 -> 26         0.22587
      12 -> 27        -0.21133

 Excited State  73:      Singlet-A1    19.0213 eV   65.18 nm  f=0.0422  <S**2>=0.000
       7 -> 22        -0.13568
       8 -> 21         0.33421
       9 -> 15         0.11271
       9 -> 19         0.44063
      12 -> 29         0.29961
      13 -> 31        -0.12050

 Excited State  74:      Singlet-B1    19.0347 eV   65.14 nm  f=0.0238  <S**2>=0.000
       7 -> 21         0.10144
       8 -> 22         0.23220
       9 -> 20         0.23197
      11 -> 27        -0.17008
      12 -> 26         0.57469

 Excited State  75:      Singlet-B2    19.1225 eV   64.84 nm  f=0.0951  <S**2>=0.000
       6 -> 15        -0.10014
       7 -> 20         0.13327
       8 -> 15         0.11295
       8 -> 19         0.20243
       9 -> 21         0.60359

 Excited State  76:      Singlet-A2    19.1690 eV   64.68 nm  f=0.0000  <S**2>=0.000
       7 -> 15         0.20137
       7 -> 19         0.46059
       7 -> 23        -0.20946
       8 -> 20        -0.14590
      10 -> 24        -0.22734
      10 -> 25        -0.29074

 Excited State  77:      Singlet-A1    19.2056 eV   64.56 nm  f=0.0858  <S**2>=0.000
       7 -> 22         0.20730
       8 -> 18         0.14431
       8 -> 21         0.27211
       9 -> 19        -0.27564
       9 -> 23         0.15551
      11 -> 25         0.10882
      12 -> 23         0.10146
      12 -> 29         0.28463
      13 -> 30         0.20784
      13 -> 31         0.23698

 Excited State  78:      Singlet-B1    19.2956 eV   64.26 nm  f=0.0045  <S**2>=0.000
       7 -> 21         0.42860
       8 -> 22         0.31553
      10 -> 29        -0.16348
      11 -> 27        -0.17651
      12 -> 26        -0.32371
      13 -> 32        -0.13928

 Excited State  79:      Singlet-A2    19.3505 eV   64.07 nm  f=0.0000  <S**2>=0.000
       8 -> 20         0.31362
       9 -> 22         0.31697
      11 -> 26         0.32178
      12 -> 27         0.39601

 Excited State  80:      Singlet-B1    19.3734 eV   64.00 nm  f=0.0807  <S**2>=0.000
       7 -> 18        -0.13013
       7 -> 21        -0.41146
       8 -> 22         0.43377
       9 -> 20         0.20304
      10 -> 29         0.13924
      12 -> 26        -0.17238

 Excited State  81:      Singlet-A1    19.4105 eV   63.87 nm  f=0.0900  <S**2>=0.000
       7 -> 22         0.15622
       8 -> 21        -0.22240
       9 -> 19         0.35000
       9 -> 23         0.10097
      11 -> 28         0.27783
      13 -> 31         0.41430

 Excited State  82:      Singlet-B2    19.4371 eV   63.79 nm  f=0.0218  <S**2>=0.000
       7 -> 20         0.65149
      10 -> 27        -0.16875

 Excited State  83:      Singlet-B1    19.4428 eV   63.77 nm  f=0.0173  <S**2>=0.000
       7 -> 21         0.17853
       9 -> 20         0.20158
      11 -> 27         0.53928
      11 -> 30         0.10169
      13 -> 32         0.26714

 Excited State  84:      Singlet-A2    19.4861 eV   63.63 nm  f=0.0000  <S**2>=0.000
       8 -> 20        -0.45118
       9 -> 22        -0.11559
      12 -> 27         0.49559

 Excited State  85:      Singlet-A1    19.5089 eV   63.55 nm  f=0.0029  <S**2>=0.000
       7 -> 22        -0.18529
       8 -> 21        -0.23848
      10 -> 26         0.14411
      11 -> 25         0.15962
      11 -> 28         0.46282
      12 -> 23         0.10618
      12 -> 29         0.14780
      13 -> 31        -0.27327

 Excited State  86:      Singlet-B2    19.5099 eV   63.55 nm  f=0.0180  <S**2>=0.000
       8 -> 19        -0.34517
      11 -> 29         0.20837
      12 -> 25         0.19850
      12 -> 28         0.50286

 Excited State  87:      Singlet-B1    19.6128 eV   63.22 nm  f=0.0005  <S**2>=0.000
      11 -> 27        -0.28825
      13 -> 32         0.59111
      13 -> 34         0.14576

 The electronic state is 1-A1.
 Alpha  occ. eigenvalues --  -25.27276 -25.27275 -10.72460  -1.38828  -1.32626
 Alpha  occ. eigenvalues --   -0.80808  -0.65185  -0.64831  -0.64332  -0.53531
 Alpha  occ. eigenvalues --   -0.50974  -0.50890  -0.43247
 Alpha virt. eigenvalues --    0.03538   0.08570   0.09403   0.09459   0.14863
 Alpha virt. eigenvalues --    0.15948   0.16043   0.16701   0.18126   0.21867
 Alpha virt. eigenvalues --    0.26185   0.28946   0.30354   0.31851   0.33322

 Mulliken charges:
               1
     1  F   -0.429129
     2  C    1.133085
     3  F   -0.429129
     4  H   -0.137414
     5  H   -0.137414
 Sum of Mulliken charges =  -0.00000

 Dipole moment (field-independent basis, Debye):
    X=              0.0000    Y=             -0.0000    Z=              2.0369  Tot=              2.0369
 Quadrupole moment (field-independent basis, Debye-Ang):
   XX=            -15.3425   YY=            -19.3029   ZZ=            -15.4013
   XY=             -0.0000   XZ=             -0.0000   YZ=             -0.0000

 Normal termination of Gaussian 16 at Mon Mar 21 20:11:00 2022.
