 Gaussian 16, Revision C.01,
 Gaussian 16:  EM64L-G16RevC.01  3-Jul-2019

 ---------------------------------------------------------------------
 #P TD(Nstates=10000) m062x/Gen SCF(maxcycles=100) Int(Grid=ultrafine)
 ---------------------------------------------------------------------

 ---------------------
 xGDB7_00001_tier4.com
 ---------------------
 Symbolic Z-matrix:
 Charge =  0 Multiplicity = 1

                         Standard orientation:
 ---------------------------------------------------------------------
 Center     Atomic      Atomic             Coordinates (Angstroms)
 Number     Number       Type             X           Y           Z
 ---------------------------------------------------------------------
      1          9           0        0.000000    0.000000    0.091801
      2          1           0        0.000000    0.000000   -0.826212
 ---------------------------------------------------------------------

 SCF Done:  E(RM062X) =  -100.337213324     A.U. after   10 cycles

 Excitation energies and oscillator strengths:

 Excited state symmetry could not be determined.
 Excited State   1:      Singlet-?Sym   10.4832 eV  118.27 nm  f=0.0249  <S**2>=0.000
       4 ->  6         0.57808
       4 -> 13         0.10798
       5 ->  6         0.37342
 This state for optimization and/or second-order correction.
 Total Energy, E(TD-HF/TD-DFT) =  -99.9519625444
 Copying the excited state density for this state as the 1-particle RhoCI density.

 Excited state symmetry could not be determined.
 Excited State   2:      Singlet-?Sym   10.4832 eV  118.27 nm  f=0.0249  <S**2>=0.000
       4 ->  6        -0.37342
       5 ->  6         0.57808
       5 -> 13         0.10798

 Excited state symmetry could not be determined.
 Excited State   3:      Singlet-?Sym   14.3335 eV   86.50 nm  f=0.0000  <S**2>=0.000
       4 ->  8        -0.49370
       5 ->  9         0.49370

 Excited State   4:      Singlet-SG    14.3454 eV   86.43 nm  f=0.1321  <S**2>=0.000
       3 ->  6         0.63408
       4 ->  9         0.19570
       5 ->  8         0.19570

 Excited state symmetry could not be determined.
 Excited State   5:      Singlet-?Sym   14.5778 eV   85.05 nm  f=0.0245  <S**2>=0.000
       4 ->  7        -0.38731
       4 -> 10        -0.10185
       5 ->  7         0.56148
       5 -> 10         0.14766

 Excited state symmetry could not be determined.
 Excited State   6:      Singlet-?Sym   14.5778 eV   85.05 nm  f=0.0245  <S**2>=0.000
       4 ->  7         0.56148
       4 -> 10         0.14766
       5 ->  7         0.38731
       5 -> 10         0.10185

 Excited state symmetry could not be determined.
 Excited State   7:      Singlet-?Sym   14.6501 eV   84.63 nm  f=0.0000  <S**2>=0.000
       4 ->  8         0.49415
       5 ->  9         0.49415

 Excited state symmetry could not be determined.
 Excited State   8:      Singlet-?Sym   14.6501 eV   84.63 nm  f=0.0000  <S**2>=0.000
       4 ->  9        -0.49415
       5 ->  8         0.49415

 Excited state symmetry could not be determined.
 Excited State   9:      Singlet-?Sym   16.3461 eV   75.85 nm  f=0.0169  <S**2>=0.000
       3 ->  6        -0.24342
       3 ->  7        -0.21090
       3 -> 10        -0.13459
       4 ->  9         0.42961
       5 ->  8         0.42961

 Excited state symmetry could not be determined.
 Excited State  10:      Singlet-?Sym   16.4744 eV   75.26 nm  f=0.0643  <S**2>=0.000
       4 ->  7        -0.12201
       4 -> 10         0.46625
       5 ->  7         0.12180
       5 -> 10        -0.46546

 Excited state symmetry could not be determined.
 Excited State  11:      Singlet-?Sym   16.4744 eV   75.26 nm  f=0.0643  <S**2>=0.000
       4 ->  7        -0.12180
       4 -> 10         0.46546
       5 ->  7        -0.12201
       5 -> 10         0.46625

 Excited state symmetry could not be determined.
 Excited State  12:      Singlet-?Sym   17.2971 eV   71.68 nm  f=0.0000  <S**2>=0.000
       4 -> 12        -0.49312
       5 -> 11         0.49312

 Excited state symmetry could not be determined.
 Excited State  13:      Singlet-?Sym   17.4374 eV   71.10 nm  f=0.0000  <S**2>=0.000
       4 -> 12         0.49333
       5 -> 11         0.49333

 Excited state symmetry could not be determined.
 Excited State  14:      Singlet-?Sym   17.4374 eV   71.10 nm  f=0.0000  <S**2>=0.000
       4 -> 11        -0.49333
       5 -> 12         0.49333

 Excited state symmetry could not be determined.
 Excited State  15:      Singlet-?Sym   17.7429 eV   69.88 nm  f=0.2072  <S**2>=0.000
       3 ->  7        -0.15564
       3 -> 10        -0.12903
       4 -> 11         0.47275
       5 -> 12         0.47275

 Excited state symmetry could not be determined.
 Excited State  16:      Singlet-?Sym   17.9999 eV   68.88 nm  f=0.0001  <S**2>=0.000
       3 ->  8         0.12883
       3 ->  9         0.68692

 Excited state symmetry could not be determined.
 Excited State  17:      Singlet-?Sym   17.9999 eV   68.88 nm  f=0.0001  <S**2>=0.000
       3 ->  8         0.68692
       3 ->  9        -0.12883

 Excited State  18:      Singlet-SG    18.7197 eV   66.23 nm  f=0.0199  <S**2>=0.000
       3 ->  6        -0.15129
       3 ->  7         0.65236
       4 ->  9         0.12374
       5 ->  8         0.12374

 Excited state symmetry could not be determined.
 Excited State  19:      Singlet-?Sym   19.4407 eV   63.78 nm  f=0.0228  <S**2>=0.000
       4 -> 13        -0.20617
       5 ->  6        -0.10388
       5 -> 10         0.14388
       5 -> 13         0.64781

 Excited state symmetry could not be determined.
 Excited State  20:      Singlet-?Sym   19.4407 eV   63.78 nm  f=0.0228  <S**2>=0.000
       4 ->  6        -0.10388
       4 -> 10         0.14388
       4 -> 13         0.64781
       5 -> 13         0.20617

 Excited state symmetry could not be determined.
 Excited State  21:      Singlet-?Sym   20.9186 eV   59.27 nm  f=0.0697  <S**2>=0.000
       3 -> 11         0.52897
       3 -> 12        -0.45500

 Excited state symmetry could not be determined.
 Excited State  22:      Singlet-?Sym   20.9186 eV   59.27 nm  f=0.0697  <S**2>=0.000
       3 -> 11         0.45500
       3 -> 12         0.52897

 Excited State  23:      Singlet-SG    20.9987 eV   59.04 nm  f=0.1198  <S**2>=0.000
       3 -> 10         0.66996
       3 -> 13         0.13011

 Excited State  24:      Singlet-SG    23.8224 eV   52.05 nm  f=0.0683  <S**2>=0.000
       3 -> 10        -0.10659
       3 -> 13         0.68086

 Excited state symmetry could not be determined.
 Excited State  25:      Singlet-?Sym   25.2959 eV   49.01 nm  f=0.0000  <S**2>=0.000
       4 -> 14        -0.38138
       4 -> 15        -0.32329
       5 -> 14        -0.32329
       5 -> 15         0.38138

 Excited state symmetry could not be determined.
 Excited State  26:      Singlet-?Sym   25.2959 eV   49.01 nm  f=0.0000  <S**2>=0.000
       4 -> 14        -0.32329
       4 -> 15         0.38138
       5 -> 14         0.38138
       5 -> 15         0.32329

 Excited state symmetry could not be determined.
 Excited State  27:      Singlet-?Sym   25.9912 eV   47.70 nm  f=0.3900  <S**2>=0.000
       4 -> 15        -0.46536
       4 -> 16        -0.22004
       5 -> 14         0.46537

 Excited state symmetry could not be determined.
 Excited State  28:      Singlet-?Sym   25.9912 eV   47.70 nm  f=0.3900  <S**2>=0.000
       4 -> 14         0.46537
       5 -> 15         0.46536
       5 -> 16        -0.22004

 Excited state symmetry could not be determined.
 Excited State  29:      Singlet-?Sym   27.6759 eV   44.80 nm  f=0.2119  <S**2>=0.000
       4 -> 15        -0.13538
       4 -> 16         0.58061
       5 -> 14         0.13538
       5 -> 16         0.32648

 Excited state symmetry could not be determined.
 Excited State  30:      Singlet-?Sym   27.6759 eV   44.80 nm  f=0.2119  <S**2>=0.000
       4 -> 14         0.13538
       4 -> 16        -0.32648
       5 -> 15         0.13538
       5 -> 16         0.58061

 Excited state symmetry could not be determined.
 Excited State  31:      Singlet-?Sym   28.6787 eV   43.23 nm  f=0.0000  <S**2>=0.000
       3 -> 14         0.70513

 Excited state symmetry could not be determined.
 Excited State  32:      Singlet-?Sym   28.6787 eV   43.23 nm  f=0.0000  <S**2>=0.000
       3 -> 15         0.70513

 Excited state symmetry could not be determined.
 Excited State  33:      Singlet-?Sym   29.2962 eV   42.32 nm  f=0.0000  <S**2>=0.000
       4 -> 18        -0.49866
       5 -> 17         0.49866

 Excited state symmetry could not be determined.
 Excited State  34:      Singlet-?Sym   29.5034 eV   42.02 nm  f=0.0000  <S**2>=0.000
       4 -> 17        -0.49718
       5 -> 18         0.49718

 Excited state symmetry could not be determined.
 Excited State  35:      Singlet-?Sym   29.5035 eV   42.02 nm  f=0.0000  <S**2>=0.000
       4 -> 18         0.49718
       5 -> 17         0.49718

 Excited state symmetry could not be determined.
 Excited State  36:      Singlet-?Sym   30.1759 eV   41.09 nm  f=0.1425  <S**2>=0.000
       3 -> 16         0.33809
       4 -> 17         0.43342
       5 -> 18         0.43342

 Excited State  37:      Singlet-SG    32.2430 eV   38.45 nm  f=0.5753  <S**2>=0.000
       2 ->  6        -0.29043
       3 -> 16         0.57145
       4 -> 17        -0.19707
       5 -> 18        -0.19707

 Excited State  38:      Singlet-SG    33.0115 eV   37.56 nm  f=0.0555  <S**2>=0.000
       2 ->  6         0.62795
       3 -> 16         0.23246
       4 -> 17        -0.13946
       5 -> 18        -0.13946

 Excited state symmetry could not be determined.
 Excited State  39:      Singlet-?Sym   33.5546 eV   36.95 nm  f=0.2979  <S**2>=0.000
       3 -> 17         0.69472

 Excited state symmetry could not be determined.
 Excited State  40:      Singlet-?Sym   33.5546 eV   36.95 nm  f=0.2979  <S**2>=0.000
       3 -> 18         0.69472

 Excited state symmetry could not be determined.
 Excited State  41:      Singlet-?Sym   36.6574 eV   33.82 nm  f=0.0001  <S**2>=0.000
       2 ->  8        -0.30945
       2 ->  9         0.61569
       2 -> 11         0.10343

 Excited state symmetry could not be determined.
 Excited State  42:      Singlet-?Sym   36.6574 eV   33.82 nm  f=0.0001  <S**2>=0.000
       2 ->  8         0.61569
       2 ->  9         0.30945
       2 -> 12         0.10343

 Excited State  43:      Singlet-SG    36.6582 eV   33.82 nm  f=0.0030  <S**2>=0.000
       2 ->  7         0.68605
       2 -> 10         0.14416

 Excited state symmetry could not be determined.
 Excited State  44:      Singlet-?Sym   37.5911 eV   32.98 nm  f=0.0022  <S**2>=0.000
       4 -> 19        -0.42927
       5 -> 19         0.55293

 Excited state symmetry could not be determined.
 Excited State  45:      Singlet-?Sym   37.5911 eV   32.98 nm  f=0.0022  <S**2>=0.000
       4 -> 19         0.55293
       5 -> 19         0.42927

 Excited State  46:      Singlet-SG    38.4136 eV   32.28 nm  f=0.0096  <S**2>=0.000
       2 ->  7        -0.14033
       2 -> 10         0.68260

 Excited state symmetry could not be determined.
 Excited State  47:      Singlet-?Sym   39.1373 eV   31.68 nm  f=0.0030  <S**2>=0.000
       2 ->  9        -0.11117
       2 -> 11         0.67641
       2 -> 12        -0.15634

 Excited state symmetry could not be determined.
 Excited State  48:      Singlet-?Sym   39.1373 eV   31.68 nm  f=0.0030  <S**2>=0.000
       2 ->  8        -0.11117
       2 -> 11         0.15634
       2 -> 12         0.67641

 Excited State  49:      Singlet-SG    41.4260 eV   29.93 nm  f=0.0068  <S**2>=0.000
       2 -> 13         0.58977
       3 -> 19         0.37057

 Excited State  50:      Singlet-SG    41.9894 eV   29.53 nm  f=0.0041  <S**2>=0.000
       2 -> 13        -0.34817
       3 -> 19         0.56732
       4 -> 21        -0.16193
       5 -> 20        -0.16193

 Excited state symmetry could not be determined.
 Excited State  51:      Singlet-?Sym   43.6763 eV   28.39 nm  f=0.0000  <S**2>=0.000
       4 -> 20        -0.49909
       5 -> 21         0.49909

 Excited state symmetry could not be determined.
 Excited State  52:      Singlet-?Sym   44.0859 eV   28.12 nm  f=0.0000  <S**2>=0.000
       4 -> 20         0.49660
       5 -> 21         0.49660

 Excited state symmetry could not be determined.
 Excited State  53:      Singlet-?Sym   44.0860 eV   28.12 nm  f=0.0000  <S**2>=0.000
       4 -> 21        -0.49660
       5 -> 20         0.49660

 Excited state symmetry could not be determined.
 Excited State  54:      Singlet-?Sym   47.2047 eV   26.27 nm  f=0.0000  <S**2>=0.000
       2 -> 14         0.70324

 Excited state symmetry could not be determined.
 Excited State  55:      Singlet-?Sym   47.2047 eV   26.27 nm  f=0.0000  <S**2>=0.000
       2 -> 15         0.70324

 Excited state symmetry could not be determined.
 Excited State  56:      Singlet-?Sym   47.8698 eV   25.90 nm  f=0.0000  <S**2>=0.000
       3 -> 20         0.47598
       3 -> 21         0.51524

 Excited state symmetry could not be determined.
 Excited State  57:      Singlet-?Sym   47.8698 eV   25.90 nm  f=0.0000  <S**2>=0.000
       3 -> 20         0.51524
       3 -> 21        -0.47598

 Excited State  58:      Singlet-SG    49.3766 eV   25.11 nm  f=0.0011  <S**2>=0.000
       2 -> 16         0.68102

 Excited state symmetry could not be determined.
 Excited State  59:      Singlet-?Sym   49.7087 eV   24.94 nm  f=0.0525  <S**2>=0.000
       5 -> 22         0.69976

 Excited state symmetry could not be determined.
 Excited State  60:      Singlet-?Sym   49.7087 eV   24.94 nm  f=0.0525  <S**2>=0.000
       4 -> 22         0.69976

 Excited State  61:      Singlet-SG    50.9553 eV   24.33 nm  f=0.0912  <S**2>=0.000
       2 -> 16        -0.17422
       3 -> 19        -0.14207
       3 -> 22         0.44844
       4 -> 21        -0.33928
       5 -> 20        -0.33928

 Excited state symmetry could not be determined.
 Excited State  62:      Singlet-?Sym   51.5721 eV   24.04 nm  f=0.0075  <S**2>=0.000
       2 -> 17         0.69088
       2 -> 18        -0.11441

 Excited state symmetry could not be determined.
 Excited State  63:      Singlet-?Sym   51.5721 eV   24.04 nm  f=0.0075  <S**2>=0.000
       2 -> 17         0.11441
       2 -> 18         0.69088

 Excited State  64:      Singlet-SG    57.7655 eV   21.46 nm  f=0.0006  <S**2>=0.000
       2 -> 19        -0.20945
       3 -> 22         0.45477
       4 -> 21         0.23005
       4 -> 23         0.23491
       5 -> 20         0.23005
       5 -> 24         0.23491

 Excited state symmetry could not be determined.
 Excited State  65:      Singlet-?Sym   58.5257 eV   21.18 nm  f=0.0000  <S**2>=0.000
       4 -> 24         0.49972
       5 -> 23         0.49972

 Excited state symmetry could not be determined.
 Excited State  66:      Singlet-?Sym   58.5257 eV   21.18 nm  f=0.0000  <S**2>=0.000
       4 -> 23         0.49972
       5 -> 24        -0.49972

 Excited state symmetry could not be determined.
 Excited State  67:      Singlet-?Sym   58.5791 eV   21.17 nm  f=0.0000  <S**2>=0.000
       4 -> 24        -0.49960
       5 -> 23         0.49960

 Excited state symmetry could not be determined.
 Excited State  68:      Singlet-?Sym   59.4784 eV   20.85 nm  f=0.1305  <S**2>=0.000
       2 -> 19         0.37876
       3 -> 22        -0.13531
       3 -> 25         0.10324
       4 -> 23         0.39621
       5 -> 24         0.39621

 Excited State  69:      Singlet-SG    60.1805 eV   20.60 nm  f=0.0035  <S**2>=0.000
       2 -> 19         0.54732
       3 -> 22         0.21495
       3 -> 25        -0.20971
       4 -> 21         0.13658
       4 -> 23        -0.16894
       5 -> 20         0.13658
       5 -> 24        -0.16894

 Excited state symmetry could not be determined.
 Excited State  70:      Singlet-?Sym   61.2621 eV   20.24 nm  f=0.0361  <S**2>=0.000
       3 -> 24        -0.11535
       5 -> 25         0.69264

 Excited state symmetry could not be determined.
 Excited State  71:      Singlet-?Sym   61.2621 eV   20.24 nm  f=0.0361  <S**2>=0.000
       3 -> 23        -0.11535
       4 -> 25         0.69264

 Excited state symmetry could not be determined.
 Excited State  72:      Singlet-?Sym   62.9028 eV   19.71 nm  f=0.1490  <S**2>=0.000
       3 -> 23         0.68733
       3 -> 24         0.10817
       4 -> 25         0.11398

 Excited state symmetry could not be determined.
 Excited State  73:      Singlet-?Sym   62.9028 eV   19.71 nm  f=0.1490  <S**2>=0.000
       3 -> 23        -0.10817
       3 -> 24         0.68733
       5 -> 25         0.11398

 Excited State  74:      Singlet-SG    66.2520 eV   18.71 nm  f=0.0214  <S**2>=0.000
       2 -> 22         0.14665
       3 -> 22         0.10159
       3 -> 25         0.65232

 Excited state symmetry could not be determined.
 Excited State  75:      Singlet-?Sym   66.4921 eV   18.65 nm  f=0.1504  <S**2>=0.000
       2 -> 20         0.70415

 Excited state symmetry could not be determined.
 Excited State  76:      Singlet-?Sym   66.4921 eV   18.65 nm  f=0.1504  <S**2>=0.000
       2 -> 21         0.70415

 Excited state symmetry could not be determined.
 Excited State  77:      Singlet-?Sym   72.6206 eV   17.07 nm  f=0.0144  <S**2>=0.000
       4 -> 26         0.13183
       5 -> 26         0.69051

 Excited state symmetry could not be determined.
 Excited State  78:      Singlet-?Sym   72.6206 eV   17.07 nm  f=0.0144  <S**2>=0.000
       4 -> 26         0.69051
       5 -> 26        -0.13183

 Excited State  79:      Singlet-SG    73.4021 eV   16.89 nm  f=0.0669  <S**2>=0.000
       2 -> 22         0.65824
       2 -> 25         0.10303
       3 -> 26        -0.14875

 Excited State  80:      Singlet-SG    77.8963 eV   15.92 nm  f=0.0250  <S**2>=0.000
       2 -> 22         0.12727
       3 -> 26         0.68042

 Excited state symmetry could not be determined.
 Excited State  81:      Singlet-?Sym   80.5240 eV   15.40 nm  f=0.0006  <S**2>=0.000
       2 -> 23         0.70010

 Excited state symmetry could not be determined.
 Excited State  82:      Singlet-?Sym   80.5240 eV   15.40 nm  f=0.0006  <S**2>=0.000
       2 -> 24         0.70010

 Excited State  83:      Singlet-SG    85.1160 eV   14.57 nm  f=0.0403  <S**2>=0.000
       2 -> 25         0.68767

 Excited State  84:      Singlet-SG    95.0096 eV   13.05 nm  f=0.0173  <S**2>=0.000
       2 -> 26         0.70529

 Excited state symmetry could not be determined.
 Excited State  85:      Singlet-?Sym   96.1909 eV   12.89 nm  f=0.0000  <S**2>=0.000
       4 -> 27         0.38010
       4 -> 28         0.32480
       5 -> 27        -0.32479
       5 -> 28         0.38010

 Excited state symmetry could not be determined.
 Excited State  86:      Singlet-?Sym   96.1909 eV   12.89 nm  f=0.0000  <S**2>=0.000
       4 -> 27        -0.32479
       4 -> 28         0.38010
       5 -> 27        -0.38010
       5 -> 28        -0.32480

 Excited state symmetry could not be determined.
 Excited State  87:      Singlet-?Sym   99.8135 eV   12.42 nm  f=0.0000  <S**2>=0.000
       3 -> 27         0.68180
       4 -> 29         0.13232
       5 -> 30        -0.13232

 Excited state symmetry could not be determined.
 Excited State  88:      Singlet-?Sym   99.8136 eV   12.42 nm  f=0.0000  <S**2>=0.000
       3 -> 28         0.68181
       4 -> 30        -0.13229
       5 -> 29        -0.13229

 Excited state symmetry could not be determined.
 Excited State  89:      Singlet-?Sym  100.3098 eV   12.36 nm  f=0.2960  <S**2>=0.000
       3 -> 29         0.32740
       3 -> 30        -0.10642
       4 -> 27         0.41353
       4 -> 28         0.13442
       5 -> 27         0.13442
       5 -> 28        -0.41352

 Excited state symmetry could not be determined.
 Excited State  90:      Singlet-?Sym  100.3098 eV   12.36 nm  f=0.2960  <S**2>=0.000
       3 -> 29        -0.10642
       3 -> 30        -0.32740
       4 -> 27        -0.13442
       4 -> 28         0.41352
       5 -> 27         0.41353
       5 -> 28         0.13442

 Excited state symmetry could not be determined.
 Excited State  91:      Singlet-?Sym  100.5208 eV   12.33 nm  f=0.0000  <S**2>=0.000
       4 -> 30        -0.49985
       5 -> 29         0.49985

 Excited state symmetry could not be determined.
 Excited State  92:      Singlet-?Sym  101.1333 eV   12.26 nm  f=0.0000  <S**2>=0.000
       3 -> 28         0.18722
       4 -> 30         0.48206
       5 -> 29         0.48206

 Excited state symmetry could not be determined.
 Excited State  93:      Singlet-?Sym  101.1339 eV   12.26 nm  f=0.0000  <S**2>=0.000
       3 -> 27        -0.18725
       4 -> 29         0.48206
       5 -> 30        -0.48206

 Excited state symmetry could not be determined.
 Excited State  94:      Singlet-?Sym  106.8888 eV   11.60 nm  f=0.5364  <S**2>=0.000
       4 -> 29         0.49348
       5 -> 30         0.49348

 Excited state symmetry could not be determined.
 Excited State  95:      Singlet-?Sym  109.3623 eV   11.34 nm  f=0.6217  <S**2>=0.000
       3 -> 29         0.60972
       4 -> 27        -0.23626
       5 -> 28         0.23626

 Excited state symmetry could not be determined.
 Excited State  96:      Singlet-?Sym  109.3623 eV   11.34 nm  f=0.6217  <S**2>=0.000
       3 -> 30         0.60972
       4 -> 28         0.23626
       5 -> 27         0.23626

 Excited state symmetry could not be determined.
 Excited State  97:      Singlet-?Sym  119.4104 eV   10.38 nm  f=0.0000  <S**2>=0.000
       2 -> 28         0.70708

 Excited state symmetry could not be determined.
 Excited State  98:      Singlet-?Sym  119.4106 eV   10.38 nm  f=0.0000  <S**2>=0.000
       2 -> 27         0.70708

 Excited state symmetry could not be determined.
 Excited State  99:      Singlet-?Sym  124.2812 eV    9.98 nm  f=0.0063  <S**2>=0.000
       2 -> 29         0.61447
       2 -> 30         0.34638

 Excited state symmetry could not be determined.
 Excited State 100:      Singlet-?Sym  124.2812 eV    9.98 nm  f=0.0063  <S**2>=0.000
       2 -> 29        -0.34638
       2 -> 30         0.61447

 Excited state symmetry could not be determined.
 Excited State 101:      Singlet-?Sym  126.4633 eV    9.80 nm  f=0.1064  <S**2>=0.000
       4 -> 31         0.50446
       5 -> 31        -0.48569

 Excited state symmetry could not be determined.
 Excited State 102:      Singlet-?Sym  126.4633 eV    9.80 nm  f=0.1064  <S**2>=0.000
       4 -> 31         0.48569
       5 -> 31         0.50446

 Excited State 103:      Singlet-SG   132.2725 eV    9.37 nm  f=0.2130  <S**2>=0.000
       3 -> 31         0.70081

 Excited State 104:      Singlet-SG   148.2831 eV    8.36 nm  f=0.0003  <S**2>=0.000
       2 -> 31         0.70689

 The electronic state is 1-SG.
 Alpha  occ. eigenvalues --  -25.25150  -1.32273  -0.64312  -0.51693  -0.51693
 Alpha virt. eigenvalues --    0.03197   0.15870   0.16969   0.16969   0.25232
 Alpha virt. eigenvalues --    0.25639   0.25639   0.36592   0.60912   0.60912
 Alpha virt. eigenvalues --    0.67504   0.76166   0.76166   1.09281   1.42104

 Mulliken charges:
               1
     1  F   -0.278963
     2  H    0.278963
 Sum of Mulliken charges =  -0.00000

 Dipole moment (field-independent basis, Debye):
    X=              0.0000    Y=              0.0000    Z=             -1.8573  Tot=              1.8573
 Quadrupole moment (field-independent basis, Debye-Ang):
   XX=             -5.8424   YY=             -5.8424   ZZ=             -3.7418
   XY=              0.0000   XZ=              0.0000   YZ=              0.0000

 Normal termination of Gaussian 16 at Mon Mar 21 19:59:10 2022.
