 Gaussian 16, Revision C.01,
 Gaussian 16:  EM64L-G16RevC.01  3-Jul-2019

 ---------------------------------------------------------------------
 #P TD(Nstates=10000) m062x/Gen SCF(maxcycles=100) Int(Grid=ultrafine)
 ---------------------------------------------------------------------

 ---------------------
 xGDB7_00001_tier4.com
 ---------------------
 Symbolic Z-matrix:
 Charge =  0 Multiplicity = 1

                         Standard orientation:
 ---------------------------------------------------------------------
 Center     Atomic      Atomic             Coordinates (Angstroms)
 Number     Number       Type             X           Y           Z
 ---------------------------------------------------------------------
      1          7           0        1.111035   -0.177046   -0.052467
      2          6           0       -0.122009    0.419593    0.001774
      3          7           0       -1.267607   -0.121443    0.008098
      4          1           0        1.920558    0.367802    0.180104
      5          1           0        1.180700   -1.165617    0.115308
      6          1           0       -0.065701    1.508813    0.004046
      7          1           0       -1.207497   -1.139126    0.000481
 ---------------------------------------------------------------------

 SCF Done:  E(RM062X) =  -149.832378905     A.U. after   15 cycles

 Excitation energies and oscillator strengths:

 Excited State   1:      Singlet-A      6.1480 eV  201.67 nm  f=0.0064  <S**2>=0.000
      11 -> 14         0.62630
      11 -> 15         0.23297
      12 -> 13         0.12987
      12 -> 14        -0.13008
 This state for optimization and/or second-order correction.
 Total Energy, E(TD-HF/TD-DFT) =  -149.606445462
 Copying the excited state density for this state as the 1-particle RhoCI density.

 Excited State   2:      Singlet-A      6.4782 eV  191.39 nm  f=0.0017  <S**2>=0.000
      11 -> 14        -0.12205
      12 -> 13         0.67742

 Excited State   3:      Singlet-A      7.1958 eV  172.30 nm  f=0.1368  <S**2>=0.000
      11 -> 13         0.23503
      11 -> 14         0.12658
      12 -> 14         0.63663

 Excited State   4:      Singlet-A      7.3620 eV  168.41 nm  f=0.0127  <S**2>=0.000
      11 -> 13         0.13284
      12 -> 15         0.64841
      12 -> 16        -0.17626

 Excited State   5:      Singlet-A      7.5917 eV  163.32 nm  f=0.1382  <S**2>=0.000
      11 -> 13         0.57077
      11 -> 15         0.11656
      11 -> 16        -0.28004
      12 -> 14        -0.21482
      12 -> 15        -0.12345

 Excited State   6:      Singlet-A      7.9670 eV  155.62 nm  f=0.0339  <S**2>=0.000
      12 -> 15         0.18582
      12 -> 16         0.65779

 Excited State   7:      Singlet-A      8.2875 eV  149.60 nm  f=0.0865  <S**2>=0.000
      11 -> 13        -0.18380
      11 -> 14        -0.22479
      11 -> 15         0.60615
      11 -> 16        -0.11847
      11 -> 17         0.13573

 Excited State   8:      Singlet-A      8.8990 eV  139.32 nm  f=0.0324  <S**2>=0.000
      11 -> 13         0.22794
      11 -> 14        -0.10297
      11 -> 15         0.18382
      11 -> 16         0.59523
      11 -> 17        -0.12647

 Excited State   9:      Singlet-A      9.0601 eV  136.85 nm  f=0.0087  <S**2>=0.000
      10 -> 15        -0.12668
      12 -> 17         0.66113

 Excited State  10:      Singlet-A      9.4078 eV  131.79 nm  f=0.0041  <S**2>=0.000
      12 -> 18         0.68468

 Excited State  11:      Singlet-A     10.0086 eV  123.88 nm  f=0.0012  <S**2>=0.000
       9 -> 14         0.63709
       9 -> 15         0.23518

 Excited State  12:      Singlet-A     10.2312 eV  121.18 nm  f=0.0060  <S**2>=0.000
      11 -> 16         0.15696
      11 -> 17         0.64068

 Excited State  13:      Singlet-A     10.2833 eV  120.57 nm  f=0.0030  <S**2>=0.000
      12 -> 19         0.60287
      12 -> 20         0.32601

 Excited State  14:      Singlet-A     10.4011 eV  119.20 nm  f=0.0301  <S**2>=0.000
      10 -> 13         0.61838
      12 -> 19        -0.15166
      12 -> 20         0.20322

 Excited State  15:      Singlet-A     10.4456 eV  118.69 nm  f=0.0229  <S**2>=0.000
      10 -> 13        -0.26016
      10 -> 14        -0.13133
      11 -> 18        -0.14247
      12 -> 19        -0.27689
      12 -> 20         0.54406

 Excited State  16:      Singlet-A     10.4891 eV  118.20 nm  f=0.0293  <S**2>=0.000
      11 -> 17         0.10496
      11 -> 18         0.63803
      11 -> 20        -0.12949

 Excited State  17:      Singlet-A     10.8441 eV  114.33 nm  f=0.0656  <S**2>=0.000
       9 -> 13        -0.22586
      10 -> 14         0.56591
      10 -> 15         0.12011
      11 -> 19         0.11260
      12 -> 20         0.12405
      12 -> 21         0.22532

 Excited State  18:      Singlet-A     11.0143 eV  112.57 nm  f=0.1284  <S**2>=0.000
       9 -> 13         0.13378
      10 -> 15        -0.16546
      11 -> 19        -0.10426
      11 -> 20        -0.22729
      12 -> 21         0.57384

 Excited State  19:      Singlet-A     11.0727 eV  111.97 nm  f=0.0189  <S**2>=0.000
      11 -> 19         0.57090
      11 -> 20        -0.16670
      11 -> 21        -0.29632
      11 -> 24         0.14298

 Excited State  20:      Singlet-A     11.2774 eV  109.94 nm  f=0.0150  <S**2>=0.000
       9 -> 13        -0.13526
      10 -> 14        -0.11244
      10 -> 15         0.40114
      11 -> 19        -0.12702
      11 -> 20        -0.32881
      12 -> 22         0.36295

 Excited State  21:      Singlet-A     11.3035 eV  109.69 nm  f=0.0006  <S**2>=0.000
       9 -> 13         0.31466
      10 -> 15         0.33316
      11 -> 18         0.12014
      11 -> 19         0.12256
      11 -> 20         0.39088
      12 -> 21         0.21189
      12 -> 22         0.14207

 Excited State  22:      Singlet-A     11.3507 eV  109.23 nm  f=0.0121  <S**2>=0.000
       9 -> 13         0.26413
      10 -> 14         0.19512
      10 -> 15        -0.29092
      12 -> 17        -0.11885
      12 -> 22         0.48720
      12 -> 23         0.13596

 Excited State  23:      Singlet-A     11.3936 eV  108.82 nm  f=0.0573  <S**2>=0.000
       9 -> 13         0.45205
      10 -> 14         0.22091
      10 -> 15         0.16830
      11 -> 19        -0.14483
      11 -> 20        -0.23889
      12 -> 21        -0.15344
      12 -> 22        -0.25044

 Excited State  24:      Singlet-A     11.6590 eV  106.34 nm  f=0.0126  <S**2>=0.000
      11 -> 19         0.22939
      11 -> 20        -0.22615
      11 -> 21         0.56595
      11 -> 22        -0.15753
      11 -> 26        -0.11781
      12 -> 23         0.11254

 Excited State  25:      Singlet-A     11.7695 eV  105.34 nm  f=0.0644  <S**2>=0.000
      10 -> 15         0.12965
      12 -> 23         0.63433

 Excited State  26:      Singlet-A     11.9252 eV  103.97 nm  f=0.0255  <S**2>=0.000
      10 -> 16         0.65078
      11 -> 22         0.14560

 Excited State  27:      Singlet-A     11.9764 eV  103.52 nm  f=0.0409  <S**2>=0.000
       9 -> 15         0.10398
      10 -> 16        -0.15358
      11 -> 21         0.12104
      11 -> 22         0.62227
      11 -> 23         0.10490
      12 -> 24        -0.10281

 Excited State  28:      Singlet-A     12.1478 eV  102.06 nm  f=0.2088  <S**2>=0.000
       9 -> 14        -0.21652
       9 -> 15         0.61514
      11 -> 22        -0.10613
      12 -> 24         0.13084

 Excited State  29:      Singlet-A     12.4037 eV   99.96 nm  f=0.0836  <S**2>=0.000
      11 -> 22        -0.15549
      11 -> 23         0.48650
      11 -> 25        -0.10290
      12 -> 24        -0.42725

 Excited State  30:      Singlet-A     12.6034 eV   98.37 nm  f=0.0452  <S**2>=0.000
       9 -> 15         0.13508
       9 -> 16         0.54885
      11 -> 23        -0.27501
      12 -> 24        -0.23757

 Excited State  31:      Singlet-A     12.8344 eV   96.60 nm  f=0.0283  <S**2>=0.000
       8 -> 14        -0.15489
      10 -> 17         0.12299
      10 -> 18         0.23459
      12 -> 25         0.50352
      12 -> 26         0.20217
      12 -> 27        -0.20494

 Excited State  32:      Singlet-A     12.8990 eV   96.12 nm  f=0.0930  <S**2>=0.000
       8 -> 13        -0.12875
       8 -> 14         0.28680
       9 -> 16         0.31721
      11 -> 23         0.30261
      12 -> 24         0.38344

 Excited State  33:      Singlet-A     12.9411 eV   95.81 nm  f=0.0389  <S**2>=0.000
       7 -> 14         0.13825
       8 -> 14         0.51046
       8 -> 15         0.20439
       9 -> 16        -0.17438
      10 -> 17         0.10275
      11 -> 23        -0.15318
      12 -> 24        -0.19810
      12 -> 25         0.16260

 Excited State  34:      Singlet-A     13.0678 eV   94.88 nm  f=0.0154  <S**2>=0.000
      10 -> 17         0.62607
      12 -> 26        -0.13349

 Excited State  35:      Singlet-A     13.1913 eV   93.99 nm  f=0.0098  <S**2>=0.000
      11 -> 19        -0.12231
      11 -> 24         0.64995
      12 -> 25        -0.11373

 Excited State  36:      Singlet-A     13.2740 eV   93.40 nm  f=0.0303  <S**2>=0.000
      10 -> 17         0.11667
      10 -> 18         0.44201
      11 -> 24        -0.14454
      12 -> 25        -0.37314
      12 -> 26         0.20605
      12 -> 27        -0.18396

 Excited State  37:      Singlet-A     13.4017 eV   92.51 nm  f=0.0968  <S**2>=0.000
      10 -> 18        -0.29418
      10 -> 21         0.10874
      12 -> 26         0.58454
      12 -> 27         0.10692

 Excited State  38:      Singlet-A     13.8303 eV   89.65 nm  f=0.1190  <S**2>=0.000
      10 -> 18         0.28538
      10 -> 19        -0.14371
      10 -> 20        -0.18680
      12 -> 27         0.50615

 Excited State  39:      Singlet-A     13.9020 eV   89.18 nm  f=0.1278  <S**2>=0.000
       8 -> 13         0.21495
       8 -> 15         0.13975
       9 -> 17         0.47353
       9 -> 18        -0.16583
      10 -> 19         0.14968
      11 -> 25         0.31511

 Excited State  40:      Singlet-A     13.9703 eV   88.75 nm  f=0.0112  <S**2>=0.000
       8 -> 13         0.13677
       9 -> 17        -0.28316
       9 -> 18         0.17375
      11 -> 23         0.11961
      11 -> 25         0.52799
      11 -> 26        -0.15191

 Excited State  41:      Singlet-A     14.0336 eV   88.35 nm  f=0.0043  <S**2>=0.000
       8 -> 13         0.12889
       9 -> 18         0.51619
      10 -> 19         0.34903
      10 -> 20        -0.11558
      11 -> 25        -0.14157
      12 -> 24         0.11546

 Excited State  42:      Singlet-A     14.1052 eV   87.90 nm  f=0.0140  <S**2>=0.000
       7 -> 14        -0.10993
       8 -> 13         0.31351
       9 -> 17        -0.22511
      11 -> 21         0.10188
      11 -> 26         0.53025

 Excited State  43:      Singlet-A     14.1677 eV   87.51 nm  f=0.1369  <S**2>=0.000
       8 -> 13         0.37483
       9 -> 17        -0.20266
       9 -> 18        -0.24047
      10 -> 19         0.25138
      10 -> 20         0.14483
      11 -> 25        -0.18981
      11 -> 26        -0.28036

 Excited State  44:      Singlet-A     14.2144 eV   87.22 nm  f=0.0534  <S**2>=0.000
       7 -> 13         0.10133
       8 -> 13        -0.25105
      10 -> 19         0.35502
      10 -> 20         0.37232
      11 -> 25         0.13735
      11 -> 26         0.19808
      12 -> 27         0.14382

 Excited State  45:      Singlet-A     14.3118 eV   86.63 nm  f=0.0158  <S**2>=0.000
       7 -> 13        -0.22237
       8 -> 13         0.13623
       9 -> 16         0.10954
       9 -> 17         0.12367
       9 -> 18         0.21739
      10 -> 19        -0.27594
      10 -> 20         0.47422

 Excited State  46:      Singlet-A     14.4290 eV   85.93 nm  f=0.0095  <S**2>=0.000
       7 -> 13        -0.16707
       7 -> 14         0.57998
       7 -> 15         0.16922
       8 -> 14        -0.14503
      11 -> 26         0.16336

 Excited State  47:      Singlet-A     14.6267 eV   84.77 nm  f=0.0800  <S**2>=0.000
       7 -> 13         0.53309
       7 -> 14         0.15625
       7 -> 15         0.15855
       7 -> 16         0.10296
       8 -> 13         0.12558
       9 -> 19         0.23203
       9 -> 20         0.17366

 Excited State  48:      Singlet-A     14.7078 eV   84.30 nm  f=0.0427  <S**2>=0.000
       9 -> 19         0.13141
      10 -> 21        -0.36898
      11 -> 27        -0.20855
      12 -> 26         0.10252
      12 -> 28         0.44468
      12 -> 30         0.14918

 Excited State  49:      Singlet-A     14.7645 eV   83.97 nm  f=0.0533  <S**2>=0.000
       7 -> 13        -0.10676
       9 -> 19         0.54277
       9 -> 20        -0.33869
      11 -> 27         0.11568
      12 -> 29        -0.13115

 Excited State  50:      Singlet-A     14.7881 eV   83.84 nm  f=0.0390  <S**2>=0.000
       8 -> 15        -0.14261
      10 -> 21         0.28821
      11 -> 27         0.28763
      12 -> 27        -0.14863
      12 -> 28         0.35452
      12 -> 29        -0.14862
      12 -> 30         0.18774
      12 -> 31        -0.13011

 Excited State  51:      Singlet-A     14.8880 eV   83.28 nm  f=0.0203  <S**2>=0.000
       8 -> 15        -0.21020
       8 -> 16         0.12247
       9 -> 20         0.12130
      10 -> 21        -0.21954
      10 -> 22         0.13645
      10 -> 23        -0.11338
      11 -> 27         0.32703
      12 -> 29         0.35172
      12 -> 30        -0.15176
      12 -> 31         0.13496

 Excited State  52:      Singlet-A     14.9406 eV   82.98 nm  f=0.0132  <S**2>=0.000
       9 -> 20        -0.21002
      10 -> 21         0.23159
      11 -> 27        -0.12349
      12 -> 29         0.41501
      12 -> 30         0.36535
      12 -> 31         0.11448

 Excited State  53:      Singlet-A     14.9708 eV   82.82 nm  f=0.0227  <S**2>=0.000
       7 -> 13        -0.10055
       9 -> 19         0.10622
       9 -> 20         0.31556
      10 -> 21        -0.20049
      10 -> 22        -0.30255
      12 -> 28        -0.21778
      12 -> 29        -0.10217
      12 -> 30         0.36868

 Excited State  54:      Singlet-A     15.0249 eV   82.52 nm  f=0.0649  <S**2>=0.000
       7 -> 13        -0.14690
       8 -> 14        -0.11491
       8 -> 15         0.31985
       8 -> 16        -0.11547
       9 -> 17        -0.14918
       9 -> 19         0.21999
       9 -> 20         0.29451
      10 -> 21         0.25171
      12 -> 28         0.13300
      12 -> 29         0.17410

 Excited State  55:      Singlet-A     15.0827 eV   82.20 nm  f=0.0128  <S**2>=0.000
       7 -> 13         0.12943
       7 -> 15         0.14215
       8 -> 14        -0.16091
       8 -> 15         0.41485
       9 -> 19        -0.11909
       9 -> 20        -0.21674
      10 -> 21        -0.13185
      11 -> 27         0.29352
      12 -> 30         0.10356

 Excited State  56:      Singlet-A     15.3111 eV   80.98 nm  f=0.0290  <S**2>=0.000
      10 -> 20        -0.10287
      10 -> 22         0.37914
      12 -> 27        -0.13464
      12 -> 29        -0.21828
      12 -> 30         0.16952
      12 -> 31         0.38562
      12 -> 32        -0.18645
      12 -> 34         0.14527

 Excited State  57:      Singlet-A     15.3425 eV   80.81 nm  f=0.0475  <S**2>=0.000
       8 -> 15        -0.10016
       9 -> 21         0.16635
      10 -> 22        -0.29132
      10 -> 23        -0.10032
      12 -> 28         0.20741
      12 -> 30        -0.13133
      12 -> 31         0.47637

 Excited State  58:      Singlet-A     15.3936 eV   80.54 nm  f=0.0051  <S**2>=0.000
       9 -> 21         0.62772
      12 -> 31        -0.12024

 Excited State  59:      Singlet-A     15.5336 eV   79.82 nm  f=0.1296  <S**2>=0.000
       7 -> 15         0.15702
       8 -> 16         0.31486
       9 -> 21         0.11765
      11 -> 27        -0.11449
      11 -> 28         0.44635
      11 -> 29        -0.13180
      11 -> 30         0.21211

 Excited State  60:      Singlet-A     15.6211 eV   79.37 nm  f=0.1193  <S**2>=0.000
       8 -> 16        -0.33695
      10 -> 22         0.16946
      11 -> 28         0.13951
      11 -> 29        -0.26292
      11 -> 30         0.13821
      11 -> 31        -0.16901
      12 -> 32         0.35503

 Excited State  61:      Singlet-A     15.6704 eV   79.12 nm  f=0.0695  <S**2>=0.000
       8 -> 16        -0.15212
       9 -> 22        -0.12083
      10 -> 23        -0.13343
      11 -> 28         0.22021
      11 -> 29         0.40541
      11 -> 31         0.38628
      12 -> 32         0.10670

 Excited State  62:      Singlet-A     15.7811 eV   78.56 nm  f=0.0241  <S**2>=0.000
       7 -> 14         0.11038
       7 -> 15        -0.30359
       8 -> 16         0.34319
       9 -> 22        -0.23558
      10 -> 23        -0.21652
      11 -> 28        -0.17044
      11 -> 32        -0.11286
      12 -> 32         0.14888

 Excited State  63:      Singlet-A     15.8229 eV   78.36 nm  f=0.0022  <S**2>=0.000
       7 -> 15        -0.18119
       9 -> 22        -0.12276
      10 -> 23         0.56124
      12 -> 29         0.14067
      12 -> 31         0.11583
      12 -> 32         0.15575

 Excited State  64:      Singlet-A     15.8653 eV   78.15 nm  f=0.0376  <S**2>=0.000
       7 -> 14        -0.12762
       7 -> 15         0.39874
      11 -> 27        -0.10005
      11 -> 28        -0.29824
      11 -> 29         0.15692
      11 -> 30         0.18016
      11 -> 32        -0.14662
      12 -> 32         0.25603

 Excited State  65:      Singlet-A     15.8967 eV   77.99 nm  f=0.0098  <S**2>=0.000
       7 -> 15        -0.15778
       9 -> 22         0.25405
       9 -> 23         0.16057
      11 -> 28        -0.12294
      11 -> 30         0.48394
      11 -> 32        -0.13446
      12 -> 32        -0.16332

 Excited State  66:      Singlet-A     16.0197 eV   77.39 nm  f=0.0228  <S**2>=0.000
       9 -> 22         0.11306
       9 -> 23         0.13463
      11 -> 30         0.10988
      11 -> 31         0.10676
      11 -> 32         0.56641
      12 -> 32         0.12763
      12 -> 34        -0.12547

 Excited State  67:      Singlet-A     16.0880 eV   77.07 nm  f=0.0097  <S**2>=0.000
       7 -> 15        -0.10025
       9 -> 22         0.41875
      10 -> 22         0.12768
      11 -> 30        -0.25128
      11 -> 32        -0.20512
      12 -> 30         0.10030
      12 -> 32         0.16097
      12 -> 34        -0.25645

 Excited State  68:      Singlet-A     16.2537 eV   76.28 nm  f=0.0090  <S**2>=0.000
       7 -> 16         0.35037
       8 -> 17         0.11492
       8 -> 18        -0.11288
       9 -> 22         0.11760
       9 -> 23         0.22123
      11 -> 29         0.18845
      11 -> 30        -0.13983
      11 -> 31        -0.24638
      12 -> 33         0.12085
      12 -> 34         0.25931

 Excited State  69:      Singlet-A     16.2720 eV   76.19 nm  f=0.0642  <S**2>=0.000
       7 -> 16        -0.10232
      10 -> 25        -0.18922
      11 -> 32        -0.11148
      12 -> 33         0.59135

 Excited State  70:      Singlet-A     16.3009 eV   76.06 nm  f=0.0517  <S**2>=0.000
       9 -> 22         0.13858
      10 -> 24        -0.15087
      11 -> 28        -0.16327
      11 -> 29        -0.24692
      11 -> 30        -0.10935
      11 -> 31         0.36664
      12 -> 32         0.11160
      12 -> 34         0.34664
      12 -> 36        -0.10339

 Excited State  71:      Singlet-A     16.3686 eV   75.75 nm  f=0.0005  <S**2>=0.000
       7 -> 16         0.33481
       8 -> 17         0.13107
       9 -> 23         0.16411
      10 -> 24        -0.22540
      11 -> 29        -0.23496
      11 -> 31         0.19743
      11 -> 32        -0.11728
      12 -> 32        -0.16453
      12 -> 34        -0.25420

 Excited State  72:      Singlet-A     16.4762 eV   75.25 nm  f=0.0525  <S**2>=0.000
       7 -> 16        -0.35359
       8 -> 18        -0.12618
       9 -> 22        -0.16554
       9 -> 23         0.50442

 Excited State  73:      Singlet-A     16.5287 eV   75.01 nm  f=0.0084  <S**2>=0.000
       9 -> 22        -0.13962
       9 -> 23         0.16269
      10 -> 24         0.56412
      11 -> 29        -0.11988
      11 -> 31         0.11186
      12 -> 32         0.14291
      12 -> 35        -0.11345

 Excited State  74:      Singlet-A     16.7566 eV   73.99 nm  f=0.0043  <S**2>=0.000
       6 -> 14         0.22308
       7 -> 19        -0.11402
       8 -> 18         0.10348
       8 -> 19         0.12860
       9 -> 24         0.51020
      10 -> 25        -0.22177
      12 -> 33        -0.11982

 Excited State  75:      Singlet-A     16.8000 eV   73.80 nm  f=0.0023  <S**2>=0.000
       6 -> 14         0.14316
       9 -> 24         0.16715
      10 -> 25         0.54496
      10 -> 26         0.12702
      10 -> 27        -0.13890
      12 -> 33         0.21951
      12 -> 35         0.11409

 Excited State  76:      Singlet-A     16.8556 eV   73.56 nm  f=0.0627  <S**2>=0.000
       6 -> 14        -0.15299
       6 -> 15        -0.10760
       7 -> 16        -0.11490
       8 -> 17         0.36476
       8 -> 18        -0.17612
       8 -> 19         0.12220
       9 -> 23        -0.15156
       9 -> 24         0.19567
      10 -> 26         0.15590
      12 -> 35        -0.31611

 Excited State  77:      Singlet-A     16.9238 eV   73.26 nm  f=0.1649  <S**2>=0.000
       6 -> 14         0.38082
       7 -> 16        -0.10281
       8 -> 17         0.35817
       9 -> 24        -0.20432
      10 -> 27        -0.10913
      11 -> 34         0.13561
      12 -> 36         0.12904

 Excited State  78:      Singlet-A     17.0209 eV   72.84 nm  f=0.0486  <S**2>=0.000
       6 -> 14        -0.24480
       8 -> 17         0.26066
       8 -> 18         0.27877
      10 -> 26        -0.22186
      12 -> 35         0.37742
      12 -> 36        -0.14043

 Excited State  79:      Singlet-A     17.1009 eV   72.50 nm  f=0.1007  <S**2>=0.000
       6 -> 13        -0.16926
       7 -> 16         0.12681

 The electronic state is 1-A.
 Alpha  occ. eigenvalues --  -14.78344 -14.72429 -10.62458  -1.04782  -0.94446
 Alpha  occ. eigenvalues --   -0.70244  -0.61781  -0.58666  -0.47905  -0.45327
 Alpha  occ. eigenvalues --   -0.33416  -0.31016
 Alpha virt. eigenvalues --    0.03678   0.06332   0.07079   0.08693   0.13704
 Alpha virt. eigenvalues --    0.15302   0.17792   0.18361   0.20342   0.22059
 Alpha virt. eigenvalues --    0.23493   0.25742   0.28126   0.28832   0.31769

 Mulliken charges:
               1
     1  N    0.029309
     2  C    0.677796
     3  N   -0.224528
     4  H   -0.070061
     5  H   -0.101166
     6  H   -0.286521
     7  H   -0.024830
 Sum of Mulliken charges =   0.00000

 Dipole moment (field-independent basis, Debye):
    X=              3.4133    Y=             -0.7317    Z=              0.5711  Tot=              3.5372
 Quadrupole moment (field-independent basis, Debye-Ang):
   XX=            -20.6204   YY=            -14.6689   ZZ=            -20.7742
   XY=              1.3230   XZ=              1.1568   YZ=             -0.1583

 Normal termination of Gaussian 16 at Mon Mar 21 20:03:19 2022.
