 Gaussian 16, Revision C.01,
 Gaussian 16:  EM64L-G16RevC.01  3-Jul-2019

 ---------------------------------------------------------------------
 #P TD(Nstates=10000) m062x/Gen SCF(maxcycles=100) Int(Grid=ultrafine)
 ---------------------------------------------------------------------

 ---------------------
 xGDB7_00001_tier4.com
 ---------------------
 Symbolic Z-matrix:
 Charge =  0 Multiplicity = 1

                         Standard orientation:
 ---------------------------------------------------------------------
 Center     Atomic      Atomic             Coordinates (Angstroms)
 Number     Number       Type             X           Y           Z
 ---------------------------------------------------------------------
      1          8           0       -1.028621   -0.395177   -0.000000
      2          7           0       -0.000000    0.526228   -0.000000
      3          6           0        1.132746   -0.030907    0.000000
      4          1           0       -1.816572    0.151791   -0.000000
      5          1           0        1.994262    0.623439    0.000000
      6          1           0        1.254802   -1.111965    0.000000
 ---------------------------------------------------------------------

 SCF Done:  E(RM062X) =  -169.620558123     A.U. after   14 cycles

 Excitation energies and oscillator strengths:

 Excited State   1:      Singlet-A"     5.6888 eV  217.95 nm  f=0.0010  <S**2>=0.000
      11 -> 13         0.69905
 This state for optimization and/or second-order correction.
 Total Energy, E(TD-HF/TD-DFT) =  -169.411500042
 Copying the excited state density for this state as the 1-particle RhoCI density.

 Excited State   2:      Singlet-A'     7.1812 eV  172.65 nm  f=0.1827  <S**2>=0.000
      12 -> 13         0.68615

 Excited State   3:      Singlet-A"     7.2713 eV  170.51 nm  f=0.0011  <S**2>=0.000
      12 -> 14         0.67246
      12 -> 15        -0.13981

 Excited State   4:      Singlet-A'     7.8279 eV  158.39 nm  f=0.0250  <S**2>=0.000
      11 -> 14         0.67735
      11 -> 15        -0.12815

 Excited State   5:      Singlet-A"     8.2561 eV  150.17 nm  f=0.0208  <S**2>=0.000
      12 -> 14         0.15437
      12 -> 15         0.65851
      12 -> 17         0.14387

 Excited State   6:      Singlet-A'     8.8755 eV  139.69 nm  f=0.0240  <S**2>=0.000
      11 -> 14         0.13730
      11 -> 15         0.67545

 Excited State   7:      Singlet-A"     8.9817 eV  138.04 nm  f=0.0030  <S**2>=0.000
      12 -> 15        -0.16426
      12 -> 17         0.54937
      12 -> 20        -0.24648
      12 -> 21         0.18900
      12 -> 25        -0.20488

 Excited State   8:      Singlet-A"     9.4155 eV  131.68 nm  f=0.0084  <S**2>=0.000
      10 -> 13         0.39583
      12 -> 16         0.56131

 Excited State   9:      Singlet-A"     9.5840 eV  129.37 nm  f=0.0024  <S**2>=0.000
       8 -> 13         0.12793
      10 -> 13         0.54901
      12 -> 16        -0.40209

 Excited State  10:      Singlet-A'     9.6261 eV  128.80 nm  f=0.1018  <S**2>=0.000
      11 -> 16        -0.26361
      11 -> 17         0.48052
      11 -> 20        -0.20505
      11 -> 21         0.17479
      11 -> 25        -0.19812
      12 -> 18         0.24615

 Excited State  11:      Singlet-A'    10.0553 eV  123.30 nm  f=0.0262  <S**2>=0.000
      11 -> 16         0.40567
      12 -> 18         0.56258

 Excited State  12:      Singlet-A'    10.3472 eV  119.82 nm  f=0.1663  <S**2>=0.000
      11 -> 16         0.47974
      11 -> 17         0.33117
      11 -> 19        -0.11822
      11 -> 20        -0.13979
      12 -> 18        -0.31682

 Excited State  13:      Singlet-A"    10.3854 eV  119.38 nm  f=0.0265  <S**2>=0.000
      11 -> 18         0.68602

 Excited State  14:      Singlet-A"    10.4135 eV  119.06 nm  f=0.0179  <S**2>=0.000
      12 -> 17         0.21622
      12 -> 19         0.48481
      12 -> 20         0.41064

 Excited State  15:      Singlet-A"    10.6007 eV  116.96 nm  f=0.0050  <S**2>=0.000
      12 -> 17        -0.24902
      12 -> 19         0.48076
      12 -> 20        -0.40254

 Excited State  16:      Singlet-A'    11.0089 eV  112.62 nm  f=0.0238  <S**2>=0.000
       9 -> 13         0.11009
      11 -> 17         0.25828
      11 -> 19         0.40124
      11 -> 20         0.47364

 Excited State  17:      Singlet-A"    11.0675 eV  112.03 nm  f=0.0001  <S**2>=0.000
       7 -> 13         0.11501
       8 -> 13         0.52459
      12 -> 17        -0.13435
      12 -> 21         0.37116

 Excited State  18:      Singlet-A'    11.0718 eV  111.98 nm  f=0.0230  <S**2>=0.000
       9 -> 13         0.49222
      11 -> 16        -0.10329
      11 -> 19        -0.40980
      11 -> 20         0.18398

 Excited State  19:      Singlet-A'    11.1530 eV  111.17 nm  f=0.0577  <S**2>=0.000
       9 -> 13         0.43726
      11 -> 17        -0.16227
      11 -> 19         0.35939
      11 -> 20        -0.33824

 Excited State  20:      Singlet-A"    11.3093 eV  109.63 nm  f=0.0136  <S**2>=0.000
       8 -> 13        -0.38378
       9 -> 14        -0.18510
      12 -> 17        -0.10532
      12 -> 20         0.16630
      12 -> 21         0.46246

 Excited State  21:      Singlet-A"    11.5700 eV  107.16 nm  f=0.0055  <S**2>=0.000
       8 -> 13        -0.13678
       9 -> 14         0.60363
       9 -> 15        -0.17043
      12 -> 20         0.14032
      12 -> 21         0.14286

 Excited State  22:      Singlet-A'    11.8173 eV  104.92 nm  f=0.1777  <S**2>=0.000
      10 -> 14         0.62984
      10 -> 15         0.14605
      11 -> 21         0.16801

 Excited State  23:      Singlet-A'    11.9056 eV  104.14 nm  f=0.0620  <S**2>=0.000
      10 -> 14        -0.17645
      11 -> 17        -0.15405
      11 -> 20         0.16286
      11 -> 21         0.59890

 Excited State  24:      Singlet-A'    12.2330 eV  101.35 nm  f=0.0903  <S**2>=0.000
       8 -> 14         0.13213
      10 -> 14        -0.10838
      10 -> 15         0.64755

 Excited State  25:      Singlet-A"    12.5310 eV   98.94 nm  f=0.0072  <S**2>=0.000
       7 -> 13        -0.10541
       9 -> 15        -0.20410
       9 -> 17        -0.31943
       9 -> 20         0.16459
       9 -> 21        -0.12063
       9 -> 25         0.13741
      12 -> 17         0.10695
      12 -> 20        -0.10918
      12 -> 21         0.17869
      12 -> 25         0.42937

 Excited State  26:      Singlet-A'    12.5554 eV   98.75 nm  f=0.0866  <S**2>=0.000
       8 -> 14         0.10276
      12 -> 22         0.67368

 Excited State  27:      Singlet-A"    12.8490 eV   96.49 nm  f=0.0119  <S**2>=0.000
       7 -> 13         0.27290
       9 -> 14        -0.16397
       9 -> 15        -0.29377
      11 -> 22         0.43910
      12 -> 24        -0.28800

 Excited State  28:      Singlet-A'    12.8744 eV   96.30 nm  f=0.1419  <S**2>=0.000
       8 -> 14         0.47046
      10 -> 14         0.12377
      10 -> 16        -0.13281
      10 -> 17        -0.18342
      11 -> 21        -0.13063
      11 -> 25        -0.11804
      12 -> 23         0.34243

 Excited State  29:      Singlet-A"    12.9283 eV   95.90 nm  f=0.0671  <S**2>=0.000
       7 -> 13         0.13393
       9 -> 14         0.17528
       9 -> 15         0.41822
      11 -> 22         0.42643
      12 -> 24         0.20520
      12 -> 25         0.11822

 Excited State  30:      Singlet-A"    13.0374 eV   95.10 nm  f=0.0113  <S**2>=0.000
       7 -> 13        -0.25472
       9 -> 15        -0.28552
      11 -> 22         0.23026
      12 -> 21        -0.13635
      12 -> 24         0.43590
      12 -> 25        -0.24110

 Excited State  31:      Singlet-A'    13.0755 eV   94.82 nm  f=0.0526  <S**2>=0.000
       8 -> 14        -0.37267
       8 -> 15         0.14720
      10 -> 17        -0.19531
      12 -> 22         0.11178
      12 -> 23         0.49640

 Excited State  32:      Singlet-A"    13.1208 eV   94.49 nm  f=0.0404  <S**2>=0.000
       6 -> 13        -0.11146
       7 -> 13         0.52084
       9 -> 15        -0.12197
      11 -> 22        -0.23297
      12 -> 24         0.29708

 Excited State  33:      Singlet-A"    13.2687 eV   93.44 nm  f=0.0052  <S**2>=0.000
       7 -> 13         0.12595
      10 -> 18         0.12661
      11 -> 23         0.66914

 Excited State  34:      Singlet-A'    13.3290 eV   93.02 nm  f=0.0261  <S**2>=0.000
      10 -> 17        -0.24463
      10 -> 19        -0.12970
      11 -> 17        -0.10941
      11 -> 21        -0.14161
      11 -> 24         0.40550
      11 -> 25        -0.36596
      12 -> 23        -0.18134

 Excited State  35:      Singlet-A"    13.5449 eV   91.54 nm  f=0.0161  <S**2>=0.000
       9 -> 15        -0.17766
       9 -> 16        -0.21898
       9 -> 17         0.38224
       9 -> 20        -0.18767
       9 -> 21         0.16953
       9 -> 25        -0.18756
      12 -> 24         0.18659
      12 -> 25         0.32184

 Excited State  36:      Singlet-A'    13.6509 eV   90.82 nm  f=0.0204  <S**2>=0.000
       8 -> 14         0.15986
      10 -> 16         0.11438
      10 -> 17         0.19652
      11 -> 24         0.52496
      11 -> 25         0.26401
      12 -> 23         0.13347

 Excited State  37:      Singlet-A'    13.7579 eV   90.12 nm  f=0.0062  <S**2>=0.000
      10 -> 16        -0.30661
      10 -> 17        -0.34887
      10 -> 19        -0.14346
      11 -> 25         0.38299
      12 -> 23        -0.15487

 Excited State  38:      Singlet-A'    13.8793 eV   89.33 nm  f=0.0089  <S**2>=0.000
       8 -> 14         0.10351
       8 -> 15         0.11068
       9 -> 18        -0.11580
      10 -> 16         0.56438
      10 -> 17        -0.22051
      10 -> 19        -0.15549
      10 -> 21        -0.10272
      11 -> 25         0.12360

 Excited State  39:      Singlet-A"    13.8815 eV   89.32 nm  f=0.0012  <S**2>=0.000
       9 -> 15        -0.10019
       9 -> 16         0.47086
       9 -> 17         0.11324
      12 -> 26         0.48351

 Excited State  40:      Singlet-A"    13.9707 eV   88.75 nm  f=0.0019  <S**2>=0.000
       9 -> 16        -0.44440
       9 -> 17        -0.10522
      12 -> 25        -0.20103
      12 -> 26         0.46412

 Excited State  41:      Singlet-A'    14.1357 eV   87.71 nm  f=0.0225  <S**2>=0.000
       8 -> 14         0.14982
       8 -> 15         0.56580
       9 -> 18         0.16198
      10 -> 17         0.11307
      11 -> 25        -0.13655
      11 -> 26         0.21779

 Excited State  42:      Singlet-A"    14.1749 eV   87.47 nm  f=0.0019  <S**2>=0.000
      10 -> 18         0.66790
      11 -> 23        -0.13485

 Excited State  43:      Singlet-A'    14.3213 eV   86.57 nm  f=0.0238  <S**2>=0.000
       8 -> 15        -0.24752
       9 -> 18         0.54553
      10 -> 19        -0.19620
      10 -> 20        -0.10963
      11 -> 26         0.18311
      12 -> 23         0.10615

 Excited State  44:      Singlet-A'    14.4696 eV   85.69 nm  f=0.0037  <S**2>=0.000
       7 -> 14        -0.11224
       8 -> 15        -0.15395
       9 -> 18        -0.19286
      10 -> 19         0.20797
      11 -> 26         0.55146
      12 -> 27         0.14592

 Excited State  45:      Singlet-A'    14.5695 eV   85.10 nm  f=0.0470  <S**2>=0.000
       8 -> 17        -0.11872
       9 -> 18        -0.10620
      10 -> 19        -0.13581
      10 -> 20        -0.12097
      11 -> 26        -0.13214
      12 -> 27         0.61616

 Excited State  46:      Singlet-A'    14.7776 eV   83.90 nm  f=0.0249  <S**2>=0.000
       7 -> 14         0.12376
       8 -> 17         0.23147
       8 -> 21         0.12722
       9 -> 18         0.17679
      10 -> 19         0.38518
      10 -> 20         0.29912
      11 -> 26        -0.11212
      12 -> 27         0.22630

 Excited State  47:      Singlet-A'    14.8849 eV   83.30 nm  f=0.2315  <S**2>=0.000
      10 -> 17         0.25029
      10 -> 19        -0.34114
      10 -> 20         0.48855
      11 -> 26         0.12174

 Excited State  48:      Singlet-A"    14.9326 eV   83.03 nm  f=0.0328  <S**2>=0.000
       6 -> 13        -0.16954
       9 -> 17         0.32792
       9 -> 19         0.30683
       9 -> 20         0.42521
       9 -> 21        -0.14186
      11 -> 27         0.15805

 Excited State  49:      Singlet-A"    14.9687 eV   82.83 nm  f=0.0018  <S**2>=0.000
       9 -> 20        -0.10536
      11 -> 27         0.66578

 Excited State  50:      Singlet-A'    15.1260 eV   81.97 nm  f=0.0192  <S**2>=0.000
       7 -> 14         0.51377
       8 -> 16        -0.40691
      10 -> 16        -0.10464
      10 -> 20        -0.10960

 Excited State  51:      Singlet-A'    15.1777 eV   81.69 nm  f=0.0774  <S**2>=0.000
       8 -> 17         0.44584
       8 -> 20        -0.19451
       8 -> 21         0.10683
       8 -> 25        -0.11003
       9 -> 18        -0.13441
      10 -> 16        -0.11460
      10 -> 17         0.15006
      10 -> 19        -0.15685
      10 -> 20        -0.25368
      10 -> 21        -0.14494

 Excited State  52:      Singlet-A"    15.2944 eV   81.07 nm  f=0.0060  <S**2>=0.000
       6 -> 13         0.21006
       9 -> 19         0.17225
      12 -> 28         0.57294
      12 -> 29        -0.22533

 Excited State  53:      Singlet-A"    15.3297 eV   80.88 nm  f=0.0007  <S**2>=0.000
       9 -> 17        -0.23816
       9 -> 19         0.57384
       9 -> 20        -0.15704
       9 -> 21         0.18415
      12 -> 28        -0.15745

 Excited State  54:      Singlet-A'    15.3765 eV   80.63 nm  f=0.1664  <S**2>=0.000
       7 -> 14         0.34496
       8 -> 16         0.52319
      10 -> 21        -0.14051

 Excited State  55:      Singlet-A"    15.4820 eV   80.08 nm  f=0.0001  <S**2>=0.000
       6 -> 13        -0.11938
       8 -> 18         0.61538
       9 -> 21         0.13474
      12 -> 29        -0.15151

 Excited State  56:      Singlet-A"    15.5731 eV   79.61 nm  f=0.0070  <S**2>=0.000
       6 -> 13        -0.18107
       8 -> 18        -0.26005
       9 -> 19        -0.10112
       9 -> 20         0.21179
       9 -> 21         0.44656
       9 -> 24         0.11611
      12 -> 29        -0.28705

 Excited State  57:      Singlet-A'    15.6390 eV   79.28 nm  f=0.1146  <S**2>=0.000
       7 -> 14         0.10277
       7 -> 16         0.10450
       8 -> 17         0.25933
      10 -> 17        -0.13201
      10 -> 21         0.49256
      11 -> 28         0.31286

 Excited State  58:      Singlet-A"    15.8451 eV   78.25 nm  f=0.1113  <S**2>=0.000
       6 -> 13         0.35604
       8 -> 18         0.10412
       9 -> 20         0.30740
       9 -> 21         0.24754
      10 -> 22        -0.21087
      12 -> 29         0.32457

 Excited State  59:      Singlet-A'    15.8900 eV   78.03 nm  f=0.0857  <S**2>=0.000
       7 -> 15         0.62091
      11 -> 28        -0.17702

 Excited State  60:      Singlet-A'    16.0018 eV   77.48 nm  f=0.0978  <S**2>=0.000
       7 -> 15         0.16286
      10 -> 21        -0.27672
      11 -> 28         0.50760
      11 -> 29        -0.15080
      12 -> 31         0.23620

 Excited State  61:      Singlet-A"    16.0086 eV   77.45 nm  f=0.0138  <S**2>=0.000
       6 -> 13        -0.33328
       9 -> 21         0.13732
      10 -> 22         0.21310
      12 -> 28         0.29999
      12 -> 29         0.43090

 Excited State  62:      Singlet-A'    16.1643 eV   76.70 nm  f=0.0211  <S**2>=0.000
       7 -> 15         0.13736
       8 -> 17         0.22566
       8 -> 19         0.30449
       8 -> 20         0.42759
      10 -> 21        -0.17103
      12 -> 31        -0.25689

 Excited State  63:      Singlet-A'    16.3602 eV   75.78 nm  f=0.0724  <S**2>=0.000
       7 -> 15        -0.10306
       7 -> 17         0.17527
       8 -> 17         0.16113
       8 -> 19        -0.25390
       8 -> 20         0.30754
      10 -> 21        -0.10324
      11 -> 28        -0.11633
      12 -> 31         0.43594

 Excited State  64:      Singlet-A"    16.3691 eV   75.74 nm  f=0.0459  <S**2>=0.000
       6 -> 13         0.11544
       9 -> 25        -0.12056
      10 -> 22         0.25344
      12 -> 30         0.54087
      12 -> 32        -0.25706

 Excited State  65:      Singlet-A"    16.4107 eV   75.55 nm  f=0.2217  <S**2>=0.000
       6 -> 13         0.24859
       9 -> 20         0.10851
      10 -> 22         0.45582
      10 -> 23         0.17716
      12 -> 28        -0.11942
      12 -> 30        -0.32434
      12 -> 33         0.10707

 Excited State  66:      Singlet-A'    16.4518 eV   75.36 nm  f=0.0648  <S**2>=0.000
       7 -> 17        -0.13284
       8 -> 20         0.10294
      10 -> 25         0.11226
      11 -> 28         0.14968
      11 -> 29         0.59596
      12 -> 31         0.17445

 Excited State  67:      Singlet-A"    16.4744 eV   75.26 nm  f=0.0201  <S**2>=0.000
      10 -> 22         0.12317
      10 -> 23         0.10379
      11 -> 31         0.64573
      12 -> 32        -0.11422

 Excited State  68:      Singlet-A'    16.4864 eV   75.20 nm  f=0.1130  <S**2>=0.000
       8 -> 19         0.49495
      11 -> 28        -0.17699
      11 -> 29        -0.13966
      12 -> 31         0.32351

 Excited State  69:      Singlet-A"    16.6773 eV   74.34 nm  f=0.0017  <S**2>=0.000
       7 -> 18        -0.21955
      10 -> 22        -0.15125
      10 -> 23         0.51855
      10 -> 27         0.10589
      12 -> 30         0.15677
      12 -> 32         0.28067

 Excited State  70:      Singlet-A'    16.7138 eV   74.18 nm  f=0.0779  <S**2>=0.000
       6 -> 14        -0.17683
       7 -> 17         0.29890
       7 -> 19         0.10170
       8 -> 19         0.11177
       8 -> 20        -0.27782
       8 -> 21        -0.26235
      10 -> 21        -0.10473
      10 -> 24         0.15006
      10 -> 25        -0.14936
      11 -> 29         0.20824

 Excited State  71:      Singlet-A"    16.7201 eV   74.15 nm  f=0.0030  <S**2>=0.000
       7 -> 18         0.12177
      10 -> 22         0.20314
      10 -> 23        -0.24673
      11 -> 31         0.10961
      12 -> 30         0.16376
      12 -> 32         0.51661
      12 -> 33         0.16929

 Excited State  72:      Singlet-A'    16.9288 eV   73.24 nm  f=0.0061  <S**2>=0.000
       7 -> 17         0.19920
       8 -> 21         0.14933
      11 -> 30         0.60019
      11 -> 32        -0.19340

 Excited State  73:      Singlet-A'    17.0725 eV   72.62 nm  f=0.0055  <S**2>=0.000
       7 -> 16         0.62322
       9 -> 23        -0.10060
      10 -> 24        -0.13571
      11 -> 32         0.11132

 Excited State  74:      Singlet-A'    17.0918 eV   72.54 nm  f=0.0676  <S**2>=0.000
       7 -> 16        -0.10076
       7 -> 17         0.14013
       8 -> 21         0.30890
       9 -> 22         0.39848
       9 -> 23        -0.33556
      11 -> 32         0.12530
      12 -> 35         0.13035

 Excited State  75:      Singlet-A'    17.1223 eV   72.41 nm  f=0.0926  <S**2>=0.000
       6 -> 14         0.18082
       6 -> 15        -0.11499
       7 -> 16         0.18579
       7 -> 17         0.21013
       7 -> 20         0.11317
       8 -> 21         0.31938
       9 -> 22        -0.23024
       9 -> 23         0.19948
      10 -> 24         0.20431
      11 -> 30        -0.21198
      11 -> 32        -0.14188

 Excited State  76:      Singlet-A'    17.2271 eV   71.97 nm  f=0.0769  <S**2>=0.000
       6 -> 14         0.26514
       9 -> 22        -0.17924
      10 -> 24         0.10218
      10 -> 25        -0.18775
      11 -> 30         0.18502
      11 -> 32         0.46942

 Excited State  77:      Singlet-A"    17.2499 eV   71.88 nm  f=0.1080  <S**2>=0.000
       9 -> 21         0.15206
       9 -> 24        -0.28618
       9 -> 25         0.23493
      12 -> 32        -0.13183
      12 -> 33         0.51569

 Excited State  78:      Singlet-A'    17.3712 eV   71.37 nm  f=0.0055  <S**2>=0.000
       6 -> 14        -0.31245
       7 -> 17         0.21623
       8 -> 21         0.12239
       9 -> 22        -0.14600
      10 -> 25         0.32679
      10 -> 26         0.12202
      11 -> 32         0.35851

 Excited State  79:      Singlet-A"    17.4115 eV   71.21 nm  f=0.0035  <S**2>=0.000
       7 -> 18        -0.16096
       9 -> 20        -0.13992
       9 -> 24         0.41684
       9 -> 25         0.43673
       9 -> 26         0.11454
      12 -> 29         0.10098
      12 -> 32        -0.10205
      12 -> 34        -0.10397

 Excited State  80:      Singlet-A"    17.4635 eV   71.00 nm  f=0.0005  <S**2>=0.000
       7 -> 18         0.60801
       9 -> 25         0.16982
      10 -> 23         0.21754

 Excited State  81:      Singlet-A'    17.4811 eV   70.92 nm  f=0.0521  <S**2>=0.000
       6 -> 14        -0.25039
       6 -> 15        -0.12726
       7 -> 17        -0.18015
       7 -> 20         0.13502
       9 -> 22         0.31841
       9 -> 23         0.28076
      10 -> 24         0.33318
      10 -> 25        -0.11763

 Excited State  82:      Singlet-A'    17.5390 eV   70.69 nm  f=0.0098  <S**2>=0.000
       6 -> 14         0.31964
       6 -> 15        -0.10729
       7 -> 17         0.15881
       8 -> 21        -0.16080
       9 -> 22         0.29422
       9 -> 23         0.28217
      10 -> 24        -0.12856
      10 -> 25         0.24490
      12 -> 35        -0.11792

 Excited State  83:      Singlet-A"    17.5648 eV   70.59 nm  f=0.0055  <S**2>=0.000
      12 -> 34         0.66816

 Excited State  84:      Singlet-A"    17.6008 eV   70.44 nm  f=0.0453  <S**2>=0.000
       6 -> 13        -0.11641
       9 -> 21        -0.18291
       9 -> 24         0.43249
       9 -> 25        -0.25705
      12 -> 30        -0.10270
      12 -> 33         0.37234

 Excited State  85:      Singlet-A'    17.6400 eV   70.29 nm  f=0.0166  <S**2>=0.000
       9 -> 23        -0.18722
      10 -> 24         0.10693
      10 -> 25         0.12928
      11 -> 33         0.61453

 Excited State  86:      Singlet-A'    17.7152 eV   69.99 nm  f=0.0644  <S**2>=0.000
       6 -> 14         0.13247
       9 -> 23        -0.27572
      10 -> 24         0.39826

 The electronic state is 1-A'.
 Alpha  occ. eigenvalues --  -19.68468 -14.82617 -10.59074  -1.21085  -0.96398
 Alpha  occ. eigenvalues --   -0.69597  -0.61850  -0.55388  -0.50632  -0.49468
 Alpha  occ. eigenvalues --   -0.35834  -0.34344
 Alpha virt. eigenvalues --    0.02671   0.03614   0.05759   0.10687   0.12770
 Alpha virt. eigenvalues --    0.12777   0.15615   0.16685   0.18937   0.22997
 Alpha virt. eigenvalues --    0.24159   0.24849   0.26272   0.28595   0.30054

 Mulliken charges:
               1
     1  O   -0.389507
     2  N   -0.072526
     3  C    0.542337
     4  H    0.222712
     5  H   -0.191369
     6  H   -0.111646
 Sum of Mulliken charges =  -0.00000

 Dipole moment (field-independent basis, Debye):
    X=              0.3282    Y=             -0.1196    Z=              0.0000  Tot=              0.3493
 Quadrupole moment (field-independent basis, Debye-Ang):
   XX=            -11.9664   YY=            -19.4780   ZZ=            -19.1971
   XY=             -1.5861   XZ=              0.0000   YZ=              0.0000

 1\1\GINC-HEL25\SP\RM062X TD-FC\Gen\C1H3N1O1\SABYASACHI\21-Mar-2022\0\\
 #P TD(Nstates=10000) m062x/Gen SCF(maxcycles=100) Int(Grid=ultrafine)\
 \xGDB7_00001_tier4.com\\0,1\O,0,-1.028621,-0.395177,0.\N,0,0.,0.526228
 ,0.\C,0,1.132746,-0.030907,0.\H,0,-1.816572,0.151791,0.\H,0,1.994262,0
 .623439,0.\H,0,1.254802,-1.111965,0.\\Version=EM64L-G16RevC.01\State=1
 -A'\HF=-169.6205581\RMSD=4.623e-09\PG=CS [SG(C1H3N1O1)]\\@
 The archive entry for this job was punched.

 Normal termination of Gaussian 16 at Mon Mar 21 20:04:58 2022.
