 Gaussian 16, Revision C.01,
 Gaussian 16:  EM64L-G16RevC.01  3-Jul-2019

 ---------------------------------------------------------------------
 #P TD(Nstates=10000) m062x/Gen SCF(maxcycles=100) Int(Grid=ultrafine)
 ---------------------------------------------------------------------

 ---------------------
 xGDB7_00001_tier4.com
 ---------------------
 Symbolic Z-matrix:
 Charge =  0 Multiplicity = 1

                         Standard orientation:
 ---------------------------------------------------------------------
 Center     Atomic      Atomic             Coordinates (Angstroms)
 Number     Number       Type             X           Y           Z
 ---------------------------------------------------------------------
      1          8           0        0.000000   -0.000000    0.116015
      2          1           0        0.000000    0.761895   -0.464058
      3          1           0       -0.000000   -0.761895   -0.464058
 ---------------------------------------------------------------------

 SCF Done:  E(RM062X) =  -76.3415504494     A.U. after   10 cycles

 Excitation energies and oscillator strengths:

 Excited State   1:      Singlet-B1     7.8564 eV  157.81 nm  f=0.0451  <S**2>=0.000
       5 ->  6         0.69308
 This state for optimization and/or second-order correction.
 Total Energy, E(TD-HF/TD-DFT) =  -76.0528343673
 Copying the excited state density for this state as the 1-particle RhoCI density.

 Excited State   2:      Singlet-A2     9.4515 eV  131.18 nm  f=0.0000  <S**2>=0.000
       5 ->  7         0.66845
       5 -> 10         0.18524
       5 -> 17        -0.12042

 Excited State   3:      Singlet-A1    10.0138 eV  123.81 nm  f=0.0892  <S**2>=0.000
       4 ->  6         0.68387
       5 ->  9         0.11277

 Excited State   4:      Singlet-B1    11.0410 eV  112.29 nm  f=0.0060  <S**2>=0.000
       5 ->  8         0.69351
       5 -> 13         0.12308

 Excited State   5:      Singlet-B2    11.5982 eV  106.90 nm  f=0.0108  <S**2>=0.000
       4 ->  7         0.68627
       4 -> 10         0.11002

 Excited State   6:      Singlet-A1    11.6257 eV  106.65 nm  f=0.0015  <S**2>=0.000
       4 ->  8        -0.17875
       5 ->  9         0.66569

 Excited State   7:      Singlet-A2    12.0755 eV  102.67 nm  f=0.0000  <S**2>=0.000
       5 ->  7        -0.20240
       5 -> 10         0.66655

 Excited State   8:      Singlet-B1    12.9382 eV   95.83 nm  f=0.0189  <S**2>=0.000
       4 ->  9         0.60529
       5 -> 11         0.34240

 Excited State   9:      Singlet-B1    12.9868 eV   95.47 nm  f=0.0274  <S**2>=0.000
       4 ->  9        -0.34656
       5 -> 11         0.60604

 Excited State  10:      Singlet-A1    13.4976 eV   91.86 nm  f=0.0315  <S**2>=0.000
       3 ->  7         0.14564
       4 ->  8         0.65853
       5 ->  9         0.15466

 Excited State  11:      Singlet-B2    13.6497 eV   90.83 nm  f=0.0690  <S**2>=0.000
       3 ->  6         0.66784
       4 -> 10        -0.15834
       5 -> 12        -0.10818

 Excited State  12:      Singlet-B2    14.1751 eV   87.47 nm  f=0.0008  <S**2>=0.000
       4 ->  7         0.10647
       4 -> 10        -0.42208
       5 -> 12         0.55044

 Excited State  13:      Singlet-B1    14.3521 eV   86.39 nm  f=0.0558  <S**2>=0.000
       5 ->  6         0.10165
       5 ->  8        -0.12136
       5 -> 13         0.67888

 Excited State  14:      Singlet-B2    14.7084 eV   84.29 nm  f=0.3549  <S**2>=0.000
       3 ->  6         0.20017
       4 -> 10         0.52030
       5 -> 12         0.42266

 Excited State  15:      Singlet-A1    14.9919 eV   82.70 nm  f=0.0477  <S**2>=0.000
       3 ->  7         0.12268
       4 -> 11         0.67912

 Excited State  16:      Singlet-A1    15.3133 eV   80.97 nm  f=0.0400  <S**2>=0.000
       3 ->  7        -0.27286
       5 ->  9         0.10043
       5 -> 14         0.62596

 Excited State  17:      Singlet-A1    16.0125 eV   77.43 nm  f=0.0005  <S**2>=0.000
       3 ->  7         0.46350
       4 ->  8        -0.14944
       4 -> 11        -0.14499
       4 -> 13         0.43831
       5 -> 14         0.18242

 Excited State  18:      Singlet-A2    16.1295 eV   76.87 nm  f=0.0000  <S**2>=0.000
       4 -> 12         0.70353

 Excited State  19:      Singlet-A2    16.7600 eV   73.98 nm  f=0.0000  <S**2>=0.000
       3 ->  9         0.67368
       3 -> 14        -0.11791
       5 -> 16         0.11359
       5 -> 17        -0.11990

 Excited State  20:      Singlet-B2    16.9467 eV   73.16 nm  f=0.0389  <S**2>=0.000
       3 ->  8         0.69409
       3 -> 13         0.12239

 Excited State  21:      Singlet-A2    17.0981 eV   72.51 nm  f=0.0000  <S**2>=0.000
       3 ->  9        -0.17104
       5 -> 16         0.49612
       5 -> 17        -0.45046

 Excited State  22:      Singlet-B1    17.1246 eV   72.40 nm  f=0.0336  <S**2>=0.000
       4 -> 14         0.29902
       5 -> 15         0.62997

 Excited State  23:      Singlet-A1    17.2710 eV   71.79 nm  f=0.0409  <S**2>=0.000
       3 ->  7        -0.40211
       3 -> 10         0.28644
       4 -> 13         0.45296
       5 -> 14        -0.17797

 Excited State  24:      Singlet-B1    17.3404 eV   71.50 nm  f=0.1879  <S**2>=0.000
       4 -> 14         0.62901
       5 -> 15        -0.29868

 Excited State  25:      Singlet-A2    18.1048 eV   68.48 nm  f=0.0000  <S**2>=0.000
       5 -> 16         0.48569
       5 -> 17         0.50218

 Excited State  26:      Singlet-A1    18.8616 eV   65.73 nm  f=0.3538  <S**2>=0.000
       3 -> 10         0.62712
       4 -> 13        -0.25438
       5 -> 14         0.15141

 Excited State  27:      Singlet-B2    18.9494 eV   65.43 nm  f=0.2072  <S**2>=0.000
       3 -> 11         0.63089
       4 -> 16         0.14899
       4 -> 17        -0.24219

 Excited State  28:      Singlet-A1    19.0605 eV   65.05 nm  f=0.0012  <S**2>=0.000
       4 -> 15         0.69806

 Excited State  29:      Singlet-B2    19.2751 eV   64.32 nm  f=0.0260  <S**2>=0.000
       3 -> 11        -0.26736
       3 -> 13         0.10172
       4 -> 16         0.55492
       4 -> 17        -0.30768

 Excited State  30:      Singlet-B1    19.9426 eV   62.17 nm  f=0.0995  <S**2>=0.000
       3 -> 12         0.69963

 Excited State  31:      Singlet-B2    20.0361 eV   61.88 nm  f=0.0005  <S**2>=0.000
       3 ->  8        -0.10886
       3 -> 13         0.61805
       4 -> 16        -0.25073
       4 -> 17        -0.15617

 Excited State  32:      Singlet-B2    20.3601 eV   60.90 nm  f=0.0292  <S**2>=0.000
       3 -> 11         0.10833
       3 -> 13         0.27153
       4 -> 16         0.31921
       4 -> 17         0.54860

 Excited State  33:      Singlet-A2    20.8436 eV   59.48 nm  f=0.0000  <S**2>=0.000
       3 ->  9         0.11879
       3 -> 14         0.69472

 Excited State  34:      Singlet-A2    21.3307 eV   58.12 nm  f=0.0000  <S**2>=0.000
       5 -> 18         0.69931

 Excited State  35:      Singlet-B1    22.2931 eV   55.62 nm  f=0.2286  <S**2>=0.000
       4 -> 20        -0.11601
       5 -> 19         0.68418

 Excited State  36:      Singlet-B2    22.8039 eV   54.37 nm  f=0.0154  <S**2>=0.000
       3 -> 15         0.69522

 Excited State  37:      Singlet-A1    23.0688 eV   53.75 nm  f=0.0881  <S**2>=0.000
       3 -> 16        -0.25827
       5 -> 20         0.63895

 Excited State  38:      Singlet-B1    23.4221 eV   52.93 nm  f=0.0135  <S**2>=0.000
       5 -> 21         0.69939

 Excited State  39:      Singlet-A1    23.5064 eV   52.74 nm  f=0.0000  <S**2>=0.000
       3 -> 16         0.44237
       4 -> 19         0.53184
       5 -> 20         0.12304

 Excited State  40:      Singlet-B2    23.5082 eV   52.74 nm  f=0.0027  <S**2>=0.000
       4 -> 18         0.55730
       5 -> 22        -0.42698

 Excited State  41:      Singlet-A1    23.7428 eV   52.22 nm  f=0.0201  <S**2>=0.000
       3 -> 16         0.47423
       4 -> 19        -0.44905
       4 -> 21         0.11366
       5 -> 20         0.21165

 Excited State  42:      Singlet-B2    24.5431 eV   50.52 nm  f=0.3437  <S**2>=0.000
       3 -> 19        -0.11947
       4 -> 18         0.40665
       5 -> 22         0.54285

 Excited State  43:      Singlet-A1    24.8045 eV   49.98 nm  f=0.0782  <S**2>=0.000
       2 ->  6        -0.11457
       3 -> 17         0.67875

 Excited State  44:      Singlet-B1    24.9136 eV   49.77 nm  f=0.2534  <S**2>=0.000
       4 -> 20         0.69134
       5 -> 19         0.10839

 Excited State  45:      Singlet-A2    25.5148 eV   48.59 nm  f=0.0000  <S**2>=0.000
       4 -> 22         0.70393

 Excited State  46:      Singlet-A1    26.0132 eV   47.66 nm  f=0.2496  <S**2>=0.000
       2 ->  6        -0.13256
       3 -> 18        -0.19125
       4 -> 21         0.65227

 Excited State  47:      Singlet-A1    27.7063 eV   44.75 nm  f=0.1379  <S**2>=0.000
       2 ->  6         0.54027
       3 -> 18        -0.43131

 Excited State  48:      Singlet-B2    27.8128 eV   44.58 nm  f=0.1308  <S**2>=0.000
       3 -> 19         0.67702
       3 -> 21         0.15215

 Excited State  49:      Singlet-A1    28.3079 eV   43.80 nm  f=0.2023  <S**2>=0.000
       2 ->  6         0.40293
       3 -> 18         0.51378
       4 -> 21         0.21101
       5 -> 20        -0.11865

 Excited State  50:      Singlet-A2    28.5204 eV   43.47 nm  f=0.0000  <S**2>=0.000
       3 -> 20         0.70431

 Excited State  51:      Singlet-B2    29.1352 eV   42.55 nm  f=0.0421  <S**2>=0.000
       2 ->  7         0.64415
       2 -> 10         0.14630
       3 -> 21         0.22982

 Excited State  52:      Singlet-B1    29.8237 eV   41.57 nm  f=0.2405  <S**2>=0.000
       2 ->  9         0.22569
       3 -> 22         0.66301

 Excited State  53:      Singlet-B2    30.1198 eV   41.16 nm  f=0.2501  <S**2>=0.000
       2 ->  7        -0.21918
       3 -> 19        -0.14316
       3 -> 21         0.64153

 Excited State  54:      Singlet-A1    30.7154 eV   40.37 nm  f=0.0026  <S**2>=0.000
       2 ->  8         0.69001

 Excited State  55:      Singlet-B1    30.7422 eV   40.33 nm  f=0.0145  <S**2>=0.000
       2 ->  9         0.63882
       3 -> 22        -0.20944
       5 -> 23        -0.18435

 Excited State  56:      Singlet-B1    31.5163 eV   39.34 nm  f=0.0061  <S**2>=0.000
       2 ->  9         0.16655
       5 -> 23         0.67532

 Excited State  57:      Singlet-B2    31.6985 eV   39.11 nm  f=0.0080  <S**2>=0.000
       2 ->  7        -0.15827
       2 -> 10         0.68187

 Excited State  58:      Singlet-A1    32.4499 eV   38.21 nm  f=0.0013  <S**2>=0.000
       2 -> 11         0.69766

 Excited State  59:      Singlet-A2    33.5113 eV   37.00 nm  f=0.0000  <S**2>=0.000
       2 -> 12         0.69510
       5 -> 24         0.11757

 Excited State  60:      Singlet-A1    33.7024 eV   36.79 nm  f=0.0000  <S**2>=0.000
       2 -> 13         0.51426
       4 -> 23        -0.46559

 Excited State  61:      Singlet-A1    34.1730 eV   36.28 nm  f=0.0302  <S**2>=0.000
       2 -> 13         0.46081
       4 -> 23         0.50733
       5 -> 25         0.12110

 Excited State  62:      Singlet-A2    34.3175 eV   36.13 nm  f=0.0000  <S**2>=0.000
       2 -> 12        -0.11692
       5 -> 24         0.69342

 Excited State  63:      Singlet-B1    34.6154 eV   35.82 nm  f=0.0094  <S**2>=0.000
       2 -> 14         0.69609

 Excited State  64:      Singlet-B2    36.4478 eV   34.02 nm  f=0.0011  <S**2>=0.000
       2 -> 16        -0.30691
       2 -> 17         0.15453
       3 -> 23        -0.20044
       4 -> 24         0.57859

 Excited State  65:      Singlet-A1    36.7407 eV   33.75 nm  f=0.0030  <S**2>=0.000
       2 -> 15         0.67932
       5 -> 25         0.17180

 Excited State  66:      Singlet-B2    36.9282 eV   33.57 nm  f=0.0100  <S**2>=0.000
       2 -> 16         0.53334
       2 -> 17        -0.28927
       4 -> 24         0.34536

 Excited State  67:      Singlet-B2    37.6178 eV   32.96 nm  f=0.0024  <S**2>=0.000
       2 -> 16         0.34353
       2 -> 17         0.59935
       3 -> 23        -0.10405

 Excited State  68:      Singlet-B2    38.0205 eV   32.61 nm  f=0.0504  <S**2>=0.000
       2 -> 17         0.12192
       3 -> 23         0.66187
       4 -> 24         0.19570

 Excited State  69:      Singlet-B1    38.5621 eV   32.15 nm  f=0.0095  <S**2>=0.000
       5 -> 26         0.69694

 Excited State  70:      Singlet-A1    39.2192 eV   31.61 nm  f=0.0130  <S**2>=0.000
       2 -> 15        -0.10264
       2 -> 19        -0.10796
       3 -> 24         0.26945
       4 -> 26        -0.31983
       5 -> 25         0.53725

 Excited State  71:      Singlet-B1    40.0686 eV   30.94 nm  f=0.0016  <S**2>=0.000
       4 -> 25         0.69804

 Excited State  72:      Singlet-A1    40.7016 eV   30.46 nm  f=0.0235  <S**2>=0.000
       3 -> 24         0.55856
       4 -> 26         0.41343

 Excited State  73:      Singlet-B2    41.1605 eV   30.12 nm  f=0.0006  <S**2>=0.000
       2 -> 18         0.70053

 Excited State  74:      Singlet-A1    41.2562 eV   30.05 nm  f=0.0019  <S**2>=0.000
       2 -> 19         0.68852
       3 -> 24         0.13280

 Excited State  75:      Singlet-B1    42.4046 eV   29.24 nm  f=0.0002  <S**2>=0.000
       2 -> 20         0.70265

 Excited State  76:      Singlet-A2    43.1250 eV   28.75 nm  f=0.0000  <S**2>=0.000
       2 -> 22         0.67850
       3 -> 25         0.19222

 Excited State  77:      Singlet-A1    43.2796 eV   28.65 nm  f=0.0071  <S**2>=0.000
       2 -> 21         0.70198

 Excited State  78:      Singlet-A2    44.0969 eV   28.12 nm  f=0.0000  <S**2>=0.000
       2 -> 22        -0.19142
       3 -> 25         0.67887

 Excited State  79:      Singlet-B2    44.9831 eV   27.56 nm  f=0.0595  <S**2>=0.000
       3 -> 26         0.70033

 Excited State  80:      Singlet-A2    46.9683 eV   26.40 nm  f=0.0000  <S**2>=0.000
       5 -> 27         0.70489

 Excited State  81:      Singlet-A1    47.0713 eV   26.34 nm  f=0.0193  <S**2>=0.000
       2 -> 15        -0.12070
       2 -> 23        -0.18317
       3 -> 24        -0.28790
       3 -> 27         0.18158
       4 -> 26         0.43485
       5 -> 25         0.34565

 Excited State  82:      Singlet-B2    49.3142 eV   25.14 nm  f=0.0398  <S**2>=0.000
       4 -> 27         0.68086
       5 -> 29         0.17700

 Excited State  83:      Singlet-B1    49.8388 eV   24.88 nm  f=0.1081  <S**2>=0.000
       5 -> 28         0.70466

 Excited State  84:      Singlet-A1    51.3869 eV   24.13 nm  f=0.0491  <S**2>=0.000
       2 -> 23         0.62849
       3 -> 27         0.25687
       4 -> 28         0.13374

 Excited State  85:      Singlet-B2    51.4566 eV   24.09 nm  f=0.1289  <S**2>=0.000
       4 -> 27        -0.16823
       5 -> 29         0.67509

 Excited State  86:      Singlet-A1    51.8712 eV   23.90 nm  f=0.0443  <S**2>=0.000
       2 -> 23        -0.16453
       4 -> 28         0.68454

 Excited State  87:      Singlet-A2    53.1843 eV   23.31 nm  f=0.0000  <S**2>=0.000
       4 -> 29         0.70629

 Excited State  88:      Singlet-B2    54.0563 eV   22.94 nm  f=0.0425  <S**2>=0.000
       2 -> 24         0.70035

 Excited State  89:      Singlet-A1    54.9788 eV   22.55 nm  f=0.0179  <S**2>=0.000
       2 -> 23        -0.15771
       3 -> 27         0.40597
       4 -> 26        -0.10446
       5 -> 25        -0.10437
       5 -> 30         0.50756

 Excited State  90:      Singlet-A1    55.8293 eV   22.21 nm  f=0.0509  <S**2>=0.000
       2 -> 23         0.10229
       3 -> 27        -0.46476
       4 -> 32        -0.13064
       5 -> 30         0.47778

 Excited State  91:      Singlet-B2    56.1173 eV   22.09 nm  f=0.0060  <S**2>=0.000
       3 -> 28         0.69639

 Excited State  92:      Singlet-B1    57.1196 eV   21.71 nm  f=0.0012  <S**2>=0.000
       3 -> 29        -0.49379
       4 -> 30         0.49727

 Excited State  93:      Singlet-B1    57.7218 eV   21.48 nm  f=0.2646  <S**2>=0.000
       2 -> 25         0.62619
       3 -> 29         0.21856
       4 -> 30         0.18318
       5 -> 32         0.15769

 Excited State  94:      Singlet-B1    57.8990 eV   21.41 nm  f=0.0067  <S**2>=0.000
       2 -> 25        -0.30830
       3 -> 29         0.25409
       4 -> 30         0.35536
       5 -> 32         0.45988

 Excited State  95:      Singlet-A2    58.2878 eV   21.27 nm  f=0.0000  <S**2>=0.000
       5 -> 31         0.70619

 Excited State  96:      Singlet-A1    58.6230 eV   21.15 nm  f=0.0857  <S**2>=0.000
       2 -> 26         0.69691

 Excited State  97:      Singlet-B1    58.7411 eV   21.11 nm  f=0.2038  <S**2>=0.000
       3 -> 29        -0.37499
       4 -> 30        -0.30109
       5 -> 32         0.50575

 Excited State  98:      Singlet-B2    60.5469 eV   20.48 nm  f=0.0165  <S**2>=0.000
       4 -> 31         0.70328

 Excited State  99:      Singlet-A2    61.2138 eV   20.25 nm  f=0.0000  <S**2>=0.000
       3 -> 30         0.70405

 Excited State 100:      Singlet-A1    61.3325 eV   20.22 nm  f=0.2050  <S**2>=0.000
       4 -> 32         0.68937

 Excited State 101:      Singlet-B2    64.6328 eV   19.18 nm  f=0.0978  <S**2>=0.000
       3 -> 32         0.69382

 Excited State 102:      Singlet-A1    64.7376 eV   19.15 nm  f=0.0016  <S**2>=0.000
       3 -> 31         0.70140

 Excited State 103:      Singlet-A2    66.6820 eV   18.59 nm  f=0.0000  <S**2>=0.000
       5 -> 33         0.70375

 Excited State 104:      Singlet-B2    67.0225 eV   18.50 nm  f=0.0423  <S**2>=0.000
       2 -> 27         0.69743

 Excited State 105:      Singlet-B2    69.5417 eV   17.83 nm  f=0.0101  <S**2>=0.000
       4 -> 33         0.69969

 Excited State 106:      Singlet-A2    70.7630 eV   17.52 nm  f=0.0000  <S**2>=0.000
       2 -> 29         0.70609

 Excited State 107:      Singlet-A1    70.8680 eV   17.50 nm  f=0.0019  <S**2>=0.000
       2 -> 28         0.65850
       3 -> 33        -0.12962
       4 -> 34        -0.19375

 Excited State 108:      Singlet-B1    71.3578 eV   17.38 nm  f=0.1398  <S**2>=0.000
       5 -> 34         0.69936

 Excited State 109:      Singlet-A1    72.1212 eV   17.19 nm  f=0.0118  <S**2>=0.000
       2 -> 28         0.14027
       3 -> 33        -0.23912
       4 -> 34         0.64846

 Excited State 110:      Singlet-A1    74.4653 eV   16.65 nm  f=0.0325  <S**2>=0.000
       2 -> 28         0.17755
       3 -> 33         0.64451
       4 -> 34         0.19573

 Excited State 111:      Singlet-B1    74.7115 eV   16.60 nm  f=0.0170  <S**2>=0.000
       2 -> 30         0.70653

 Excited State 112:      Singlet-B2    76.0032 eV   16.31 nm  f=0.0175  <S**2>=0.000
       3 -> 34         0.69895

 Excited State 113:      Singlet-B2    77.6717 eV   15.96 nm  f=0.0001  <S**2>=0.000
       2 -> 31         0.70368

 Excited State 114:      Singlet-A1    78.2227 eV   15.85 nm  f=0.0030  <S**2>=0.000
       2 -> 32         0.70590

 Excited State 115:      Singlet-B2    86.6527 eV   14.31 nm  f=0.0156  <S**2>=0.000
       2 -> 33         0.70450

 Excited State 116:      Singlet-A1    87.3845 eV   14.19 nm  f=0.1649  <S**2>=0.000
       4 -> 37        -0.20002
       5 -> 35         0.67317

 Excited State 117:      Singlet-B1    89.0638 eV   13.92 nm  f=0.0927  <S**2>=0.000
       3 -> 36        -0.18173
       4 -> 35         0.66765
       5 -> 37         0.12173

 Excited State 118:      Singlet-B2    89.2899 eV   13.89 nm  f=0.1967  <S**2>=0.000
       3 -> 37         0.11483
       5 -> 36         0.69072

 Excited State 119:      Singlet-A2    89.3183 eV   13.88 nm  f=0.0000  <S**2>=0.000
       4 -> 36         0.70566

 Excited State 120:      Singlet-A1    90.0705 eV   13.77 nm  f=0.0072  <S**2>=0.000
       2 -> 34         0.70464

 Excited State 121:      Singlet-B1    91.0524 eV   13.62 nm  f=0.0119  <S**2>=0.000
       3 -> 36         0.17838
       5 -> 37         0.67917

 Excited State 122:      Singlet-A2    91.5363 eV   13.54 nm  f=0.0000  <S**2>=0.000
       3 -> 35         0.70570

 Excited State 123:      Singlet-B1    95.5977 eV   12.97 nm  f=0.1870  <S**2>=0.000
       3 -> 36         0.64453
       4 -> 35         0.18214
       5 -> 37        -0.14169
       5 -> 38         0.16498

 Excited State 124:      Singlet-A1    96.3188 eV   12.87 nm  f=0.2822  <S**2>=0.000
       4 -> 37         0.67586
       5 -> 35         0.19337

 Excited State 125:      Singlet-B2    97.9999 eV   12.65 nm  f=0.0636  <S**2>=0.000
       3 -> 37         0.69344
       5 -> 36        -0.10518

 Excited State 126:      Singlet-B1   104.5604 eV   11.86 nm  f=0.2647  <S**2>=0.000
       2 -> 35        -0.15293
       3 -> 36        -0.12751
       5 -> 38         0.66860

 Excited State 127:      Singlet-A1   105.2082 eV   11.78 nm  f=0.0071  <S**2>=0.000
       4 -> 38         0.70489

 Excited State 128:      Singlet-B1   106.1513 eV   11.68 nm  f=0.0359  <S**2>=0.000
       2 -> 35         0.68987
       5 -> 38         0.14497

 Excited State 129:      Singlet-A2   107.4620 eV   11.54 nm  f=0.0000  <S**2>=0.000
       2 -> 36         0.70639

 Excited State 130:      Singlet-B2   109.5747 eV   11.32 nm  f=0.0543  <S**2>=0.000
       3 -> 38         0.69414
       4 -> 39         0.11184

 Excited State 131:      Singlet-A1   111.5101 eV   11.12 nm  f=0.0064  <S**2>=0.000
       2 -> 37         0.70577

 Excited State 132:      Singlet-A2   113.0538 eV   10.97 nm  f=0.0000  <S**2>=0.000
       5 -> 39         0.70642

 Excited State 133:      Singlet-B2   116.7419 eV   10.62 nm  f=0.1556  <S**2>=0.000
       3 -> 38        -0.10515
       4 -> 39         0.69560

 Excited State 134:      Singlet-A1   120.6628 eV   10.28 nm  f=0.0728  <S**2>=0.000
       2 -> 38         0.17184
       3 -> 39         0.68327

 Excited State 135:      Singlet-A1   122.6233 eV   10.11 nm  f=0.0247  <S**2>=0.000
       2 -> 38         0.68550
       3 -> 39        -0.17124

 Excited State 136:      Singlet-B2   133.1426 eV    9.31 nm  f=0.0025  <S**2>=0.000
       2 -> 39         0.70673

 The electronic state is 1-A1.
 Alpha  occ. eigenvalues --  -19.64155  -1.11975  -0.61398  -0.47267  -0.40145
 Alpha virt. eigenvalues --    0.02797   0.07900   0.13013   0.13161   0.18511
 Alpha virt. eigenvalues --    0.20929   0.24924   0.27516   0.30009   0.37249
 Alpha virt. eigenvalues --    0.37333   0.41522   0.54966   0.56269   0.60435

 Mulliken charges:
               1
     1  O   -0.310603
     2  H    0.155301
     3  H    0.155301
 Sum of Mulliken charges =   0.00000

 Dipole moment (field-independent basis, Debye):
    X=             -0.0000    Y=             -0.0000    Z=             -1.9162  Tot=              1.9162
 Quadrupole moment (field-independent basis, Debye-Ang):
   XX=             -7.7176   YY=             -4.4254   ZZ=             -6.4337
   XY=              0.0000   XZ=              0.0000   YZ=              0.0000

 Normal termination of Gaussian 16 at Mon Mar 21 20:01:55 2022.
