 Gaussian 16, Revision C.01,
 Gaussian 16:  EM64L-G16RevC.01  3-Jul-2019

 ---------------------------------------------------------------------
 #P TD(Nstates=10000) m062x/Gen SCF(maxcycles=100) Int(Grid=ultrafine)
 ---------------------------------------------------------------------

 ---------------------
 xGDB7_00001_tier4.com
 ---------------------
 Symbolic Z-matrix:
 Charge =  0 Multiplicity = 1

                         Standard orientation:
 ---------------------------------------------------------------------
 Center     Atomic      Atomic             Coordinates (Angstroms)
 Number     Number       Type             X           Y           Z
 ---------------------------------------------------------------------
      1          6           0        0.630149   -0.000001   -0.000003
      2          9           0       -0.748512    0.000002    0.000001
      3          1           0        0.985250    0.897475   -0.509314
      4          1           0        0.985222   -0.889832   -0.522562
      5          1           0        0.985245   -0.007652    1.031883
 ---------------------------------------------------------------------

 SCF Done:  E(RM062X) =  -139.581912177     A.U. after   12 cycles

 Excitation energies and oscillator strengths:

 Excited State   1:      Singlet-A      9.6389 eV  128.63 nm  f=0.0268  <S**2>=0.000
       9 -> 10         0.62160
       9 -> 11        -0.29577
       9 -> 14         0.11529
 This state for optimization and/or second-order correction.
 Total Energy, E(TD-HF/TD-DFT) =  -139.227687795
 Copying the excited state density for this state as the 1-particle RhoCI density.

 Excited State   2:      Singlet-A      9.6390 eV  128.63 nm  f=0.0268  <S**2>=0.000
       8 -> 10         0.62159
       8 -> 11        -0.29579
       8 -> 14         0.11529

 Excited State   3:      Singlet-A     10.2040 eV  121.50 nm  f=0.0308  <S**2>=0.000
       9 -> 10         0.31887
       9 -> 11         0.59095
       9 -> 14        -0.14013
       9 -> 20        -0.13212

 Excited State   4:      Singlet-A     10.2041 eV  121.50 nm  f=0.0308  <S**2>=0.000
       8 -> 10         0.31888
       8 -> 11         0.59094
       8 -> 14        -0.14012
       8 -> 20        -0.13212

 Excited State   5:      Singlet-A     11.7267 eV  105.73 nm  f=0.0000  <S**2>=0.000
       8 -> 13         0.48999
       9 -> 12         0.49068

 Excited State   6:      Singlet-A     11.7904 eV  105.16 nm  f=0.0432  <S**2>=0.000
       8 -> 13         0.49371
       9 -> 12        -0.49302

 Excited State   7:      Singlet-A     11.7904 eV  105.16 nm  f=0.0432  <S**2>=0.000
       8 -> 12         0.49333
       9 -> 13         0.49340

 Excited State   8:      Singlet-A     12.0917 eV  102.54 nm  f=0.1086  <S**2>=0.000
       8 -> 12         0.48913
       9 -> 13        -0.48906

 Excited State   9:      Singlet-A     12.6298 eV   98.17 nm  f=0.0473  <S**2>=0.000
       6 -> 10        -0.14623
       9 -> 11         0.18953
       9 -> 14         0.63129

 Excited State  10:      Singlet-A     12.6299 eV   98.17 nm  f=0.0473  <S**2>=0.000
       5 -> 10        -0.14624
       8 -> 11         0.18953
       8 -> 14         0.63129

 Excited State  11:      Singlet-A     12.6612 eV   97.92 nm  f=0.0000  <S**2>=0.000
       8 -> 15         0.48755
       9 -> 16        -0.48744

 Excited State  12:      Singlet-A     13.1361 eV   94.38 nm  f=0.0032  <S**2>=0.000
       8 -> 16         0.46561
       8 -> 17         0.12954
       9 -> 15         0.46764
       9 -> 18         0.12935

 Excited State  13:      Singlet-A     13.1657 eV   94.17 nm  f=0.1236  <S**2>=0.000
       6 -> 11        -0.13302
       8 -> 15        -0.17099
       8 -> 16         0.43869
       9 -> 14         0.10674
       9 -> 15        -0.43679
       9 -> 16        -0.17092

 Excited State  14:      Singlet-A     13.1657 eV   94.17 nm  f=0.1236  <S**2>=0.000
       5 -> 11        -0.13301
       8 -> 14         0.10675
       8 -> 15         0.43772
       8 -> 16         0.17129
       9 -> 15        -0.17063
       9 -> 16         0.43777

 Excited State  15:      Singlet-A     13.5659 eV   91.39 nm  f=0.0000  <S**2>=0.000
       8 -> 18        -0.48411
       9 -> 17         0.48465

 Excited State  16:      Singlet-A     13.6647 eV   90.73 nm  f=0.0025  <S**2>=0.000
       5 -> 10         0.26611
       6 -> 10        -0.12922
       8 -> 18         0.42821
       9 -> 17         0.42768

 Excited State  17:      Singlet-A     13.6647 eV   90.73 nm  f=0.0025  <S**2>=0.000
       5 -> 10         0.12918
       6 -> 10         0.26614
       8 -> 17         0.42794
       9 -> 18        -0.42793

 Excited State  18:      Singlet-A     13.7929 eV   89.89 nm  f=0.1449  <S**2>=0.000
       6 -> 10         0.54823
       6 -> 11        -0.20367
       8 -> 17        -0.21445
       9 -> 14         0.10461
       9 -> 18         0.21439

 Excited State  19:      Singlet-A     13.7929 eV   89.89 nm  f=0.1449  <S**2>=0.000
       5 -> 10         0.54826
       5 -> 11        -0.20364
       8 -> 14         0.10462
       8 -> 18        -0.21447
       9 -> 17        -0.21432

 Excited State  20:      Singlet-A     13.8483 eV   89.53 nm  f=0.0179  <S**2>=0.000
       7 -> 10         0.65842
       7 -> 11        -0.14511
       8 -> 17        -0.13261
       9 -> 18        -0.13264

 Excited State  21:      Singlet-A     14.0431 eV   88.29 nm  f=0.0043  <S**2>=0.000
       6 -> 10         0.22966
       6 -> 11         0.54771
       6 -> 14        -0.13747
       6 -> 20        -0.14277
       9 -> 19         0.14177
       9 -> 20        -0.20929

 Excited State  22:      Singlet-A     14.0432 eV   88.29 nm  f=0.0043  <S**2>=0.000
       5 -> 10         0.22963
       5 -> 11         0.54773
       5 -> 14        -0.13748
       5 -> 20        -0.14277
       8 -> 19         0.14176
       8 -> 20        -0.20929

 Excited State  23:      Singlet-A     14.1979 eV   87.33 nm  f=0.0000  <S**2>=0.000
       7 -> 11        -0.35251
       7 -> 14         0.10089
       8 -> 17         0.39717
       9 -> 18         0.39718

 Excited State  24:      Singlet-A     14.8770 eV   83.34 nm  f=0.5330  <S**2>=0.000
       7 -> 10         0.20382
       7 -> 11         0.55997
       8 -> 16        -0.13276
       8 -> 17         0.21023
       9 -> 15        -0.13275
       9 -> 18         0.21024

 Excited State  25:      Singlet-A     15.3073 eV   81.00 nm  f=0.0020  <S**2>=0.000
       6 -> 10         0.14651
       6 -> 11         0.22124
       7 -> 13         0.21869
       9 -> 14        -0.13545
       9 -> 19        -0.38965
       9 -> 20         0.41010

 Excited State  26:      Singlet-A     15.3073 eV   81.00 nm  f=0.0020  <S**2>=0.000
       5 -> 10         0.14652
       5 -> 11         0.22123
       7 -> 12        -0.21901
       8 -> 14        -0.13544
       8 -> 19        -0.38965
       8 -> 20         0.41009

 Excited State  27:      Singlet-A     15.7419 eV   78.76 nm  f=0.0000  <S**2>=0.000
       5 -> 13         0.47924
       6 -> 12         0.48004

 Excited State  28:      Singlet-A     15.7525 eV   78.71 nm  f=0.0847  <S**2>=0.000
       5 -> 13        -0.10729
       6 -> 12         0.10414
       7 -> 12         0.62876
       8 -> 19        -0.18329
       8 -> 20         0.12114

 Excited State  29:      Singlet-A     15.7526 eV   78.71 nm  f=0.0847  <S**2>=0.000
       5 -> 12        -0.10619
       6 -> 13        -0.10725
       7 -> 13         0.62835
       9 -> 19         0.18327
       9 -> 20        -0.12114

 Excited State  30:      Singlet-A     15.8550 eV   78.20 nm  f=0.0170  <S**2>=0.000
       5 -> 12        -0.26945
       5 -> 13        -0.37904
       6 -> 12         0.37910
       6 -> 13        -0.26922
       7 -> 13        -0.18117

 Excited State  31:      Singlet-A     15.8550 eV   78.20 nm  f=0.0170  <S**2>=0.000
       5 -> 12         0.37917
       5 -> 13        -0.26967
       6 -> 12         0.26973
       6 -> 13         0.37894
       7 -> 12        -0.17970

 Excited State  32:      Singlet-A     16.2473 eV   76.31 nm  f=0.0568  <S**2>=0.000
       6 -> 11         0.17494
       6 -> 14         0.40226
       9 -> 19         0.41151
       9 -> 20         0.29994
       9 -> 23         0.10579

 Excited State  33:      Singlet-A     16.2474 eV   76.31 nm  f=0.0568  <S**2>=0.000
       5 -> 11         0.17494
       5 -> 14         0.40224
       8 -> 19         0.41151
       8 -> 20         0.29995
       8 -> 23         0.10579

 Excited State  34:      Singlet-A     16.3367 eV   75.89 nm  f=0.0058  <S**2>=0.000
       5 -> 12         0.46496
       5 -> 16        -0.11267
       6 -> 13        -0.46489
       6 -> 15        -0.11267

 Excited State  35:      Singlet-A     16.6951 eV   74.26 nm  f=0.0000  <S**2>=0.000
       5 -> 15         0.45888
       6 -> 16        -0.45884
       8 -> 22         0.14349
       9 -> 21        -0.14354

 Excited State  36:      Singlet-A     16.7989 eV   73.81 nm  f=0.0039  <S**2>=0.000
       7 -> 15         0.65110
       9 -> 20         0.11952

 Excited State  37:      Singlet-A     16.7989 eV   73.80 nm  f=0.0039  <S**2>=0.000
       7 -> 16         0.65082
       8 -> 20         0.11953

 Excited State  38:      Singlet-A     16.8056 eV   73.78 nm  f=0.0149  <S**2>=0.000
       5 -> 16        -0.28464
       6 -> 15        -0.28473
       7 -> 14         0.55057

 Excited State  39:      Singlet-A     16.9456 eV   73.17 nm  f=0.0372  <S**2>=0.000
       6 -> 11         0.10589
       6 -> 14         0.48337
       7 -> 15         0.13463
       9 -> 19        -0.29800
       9 -> 20        -0.33262

 Excited State  40:      Singlet-A     16.9457 eV   73.17 nm  f=0.0372  <S**2>=0.000
       5 -> 11         0.10589
       5 -> 14         0.48337
       7 -> 16         0.13432
       8 -> 19        -0.29799
       8 -> 20        -0.33260

 Excited State  41:      Singlet-A     17.1111 eV   72.46 nm  f=0.1144  <S**2>=0.000
       5 -> 14         0.12299
       5 -> 15         0.25728
       5 -> 16         0.14751
       5 -> 18        -0.15206
       6 -> 15        -0.14764
       6 -> 16         0.25692
       6 -> 17        -0.15206
       7 -> 16         0.13614
       8 -> 22         0.32362
       9 -> 21         0.32391

 Excited State  42:      Singlet-A     17.1111 eV   72.46 nm  f=0.1144  <S**2>=0.000
       5 -> 15         0.14774
       5 -> 16        -0.25724
       5 -> 17         0.15214
       6 -> 14        -0.12298
       6 -> 15         0.25748
       6 -> 16         0.14761
       6 -> 18        -0.15226
       7 -> 15        -0.13503
       8 -> 21        -0.32371
       9 -> 22         0.32378

 Excited State  43:      Singlet-A     17.2305 eV   71.96 nm  f=0.1182  <S**2>=0.000
       5 -> 15        -0.15137
       5 -> 16         0.31549
       6 -> 15        -0.31579
       6 -> 16        -0.15153
       8 -> 21        -0.31694
       9 -> 22         0.31695

 Excited State  44:      Singlet-A     17.2305 eV   71.96 nm  f=0.1182  <S**2>=0.000
       5 -> 15        -0.31537
       5 -> 16        -0.15142
       6 -> 15         0.15144
       6 -> 16        -0.31588
       8 -> 22         0.31625
       9 -> 21         0.31760

 Excited State  45:      Singlet-A     17.2410 eV   71.91 nm  f=0.0000  <S**2>=0.000
       5 -> 15        -0.14960
       5 -> 18        -0.16883
       6 -> 16         0.14861
       6 -> 17         0.16848
       8 -> 21        -0.14159
       8 -> 22         0.41021
       9 -> 21        -0.40896
       9 -> 22        -0.14114

 Excited State  46:      Singlet-A     17.2877 eV   71.72 nm  f=0.0134  <S**2>=0.000
       5 -> 12         0.11084
       5 -> 16         0.34849
       5 -> 17         0.13621
       6 -> 13        -0.11079
       6 -> 15         0.34809
       6 -> 18         0.13623
       7 -> 14         0.35890
       8 -> 21         0.14170
       9 -> 22         0.14188

 Excited State  47:      Singlet-A     17.3385 eV   71.51 nm  f=0.3735  <S**2>=0.000
       5 -> 17        -0.17990
       6 -> 18        -0.17989
       8 -> 21         0.42211
       8 -> 22         0.14574
       9 -> 21        -0.14564
       9 -> 22         0.42212

 Excited State  48:      Singlet-A     17.4760 eV   70.95 nm  f=0.0029  <S**2>=0.000
       7 -> 18        -0.11306
       9 -> 20        -0.10899
       9 -> 23         0.65830

 Excited State  49:      Singlet-A     17.4760 eV   70.95 nm  f=0.0029  <S**2>=0.000
       7 -> 17        -0.11300
       8 -> 20        -0.10899
       8 -> 23         0.65830

 Excited State  50:      Singlet-A     17.6571 eV   70.22 nm  f=0.0137  <S**2>=0.000
       5 -> 18        -0.10588
       6 -> 17        -0.10703
       7 -> 17         0.65730

 Excited State  51:      Singlet-A     17.6571 eV   70.22 nm  f=0.0137  <S**2>=0.000
       5 -> 17        -0.10592
       6 -> 18         0.10474
       7 -> 18         0.65772

 Excited State  52:      Singlet-A     17.7529 eV   69.84 nm  f=0.0000  <S**2>=0.000
       5 -> 18        -0.45024
       6 -> 17         0.45065
       8 -> 22        -0.17269
       9 -> 21         0.17282

 Excited State  53:      Singlet-A     17.9013 eV   69.26 nm  f=0.0539  <S**2>=0.000
       5 -> 17         0.14570
       5 -> 18         0.40699
       6 -> 17         0.40629
       6 -> 18        -0.14592
       7 -> 17         0.16930
       8 -> 22         0.16116
       9 -> 21         0.16101

 Excited State  54:      Singlet-A     17.9014 eV   69.26 nm  f=0.0539  <S**2>=0.000
       5 -> 17        -0.40682
       5 -> 18         0.14608
       6 -> 17         0.14583
       6 -> 18         0.40703
       7 -> 18        -0.16770
       8 -> 21        -0.16110
       9 -> 22         0.16107

 Excited State  55:      Singlet-A     18.1186 eV   68.43 nm  f=0.0089  <S**2>=0.000
       5 -> 16        -0.10355
       5 -> 17         0.42032
       6 -> 15        -0.10352
       6 -> 18         0.42038
       7 -> 14        -0.17565
       7 -> 19        -0.10352
       7 -> 20         0.17131
       8 -> 21         0.10812
       9 -> 22         0.10814

 Excited State  56:      Singlet-A     18.4325 eV   67.26 nm  f=0.0000  <S**2>=0.000
       8 -> 25         0.48029
       9 -> 26         0.48040

 Excited State  57:      Singlet-A     18.4628 eV   67.15 nm  f=0.0000  <S**2>=0.000
       9 -> 24         0.68808

 Excited State  58:      Singlet-A     18.4629 eV   67.15 nm  f=0.0000  <S**2>=0.000
       8 -> 24         0.68808

 Excited State  59:      Singlet-A     18.6566 eV   66.46 nm  f=0.0560  <S**2>=0.000
       8 -> 25         0.45648
       9 -> 26        -0.45639

 Excited State  60:      Singlet-A     18.6566 eV   66.46 nm  f=0.0560  <S**2>=0.000
       8 -> 26         0.45634
       9 -> 25         0.45652

 Excited State  61:      Singlet-A     18.8475 eV   65.78 nm  f=0.0484  <S**2>=0.000
       8 -> 26         0.47420
       9 -> 25        -0.47403

 Excited State  62:      Singlet-A     19.2116 eV   64.54 nm  f=0.0124  <S**2>=0.000
       6 -> 11         0.11823
       6 -> 14        -0.14340
       6 -> 19        -0.42867
       6 -> 20         0.45800
       9 -> 23        -0.13291

 Excited State  63:      Singlet-A     19.2117 eV   64.54 nm  f=0.0124  <S**2>=0.000
       5 -> 11         0.11824
       5 -> 14        -0.14341
       5 -> 19        -0.42869
       5 -> 20         0.45800
       8 -> 23        -0.13293

 Excited State  64:      Singlet-A     19.6794 eV   63.00 nm  f=0.0180  <S**2>=0.000
       4 -> 10         0.54178
       4 -> 11        -0.21916
       7 -> 19         0.19678
       7 -> 20        -0.15913
       8 -> 28         0.13907
       9 -> 27         0.13932

 Excited State  65:      Singlet-A     19.6836 eV   62.99 nm  f=0.0000  <S**2>=0.000
       8 -> 27         0.41108
       8 -> 28        -0.27199
       9 -> 27        -0.27215
       9 -> 28        -0.41100

 Excited State  66:      Singlet-A     19.8022 eV   62.61 nm  f=0.0275  <S**2>=0.000
       4 -> 10         0.37760
       4 -> 11         0.10401
       7 -> 19        -0.15809
       8 -> 27        -0.21152
       8 -> 28        -0.31880
       9 -> 27        -0.32339
       9 -> 28         0.21321

 Excited State  67:      Singlet-A     19.8166 eV   62.57 nm  f=0.0638  <S**2>=0.000
       8 -> 28         0.49214
       9 -> 27        -0.48892

 Excited State  68:      Singlet-A     19.8166 eV   62.57 nm  f=0.0638  <S**2>=0.000
       8 -> 27         0.49080
       9 -> 28         0.49026

 Excited State  69:      Singlet-A     20.1901 eV   61.41 nm  f=0.0294  <S**2>=0.000
       6 -> 20         0.12235
       9 -> 29         0.67417

 Excited State  70:      Singlet-A     20.1902 eV   61.41 nm  f=0.0294  <S**2>=0.000
       5 -> 20         0.12237
       8 -> 29         0.67417

 Excited State  71:      Singlet-A     20.2828 eV   61.13 nm  f=0.0986  <S**2>=0.000
       4 -> 11         0.44392
       4 -> 14        -0.13913
       7 -> 19         0.49141
       7 -> 23        -0.11285

 Excited State  72:      Singlet-A     20.4667 eV   60.58 nm  f=0.0128  <S**2>=0.000
       6 -> 19         0.51111
       6 -> 20         0.43866
       9 -> 29        -0.14447

 Excited State  73:      Singlet-A     20.4667 eV   60.58 nm  f=0.0128  <S**2>=0.000
       5 -> 19         0.51111
       5 -> 20         0.43867
       8 -> 29        -0.14448

 Excited State  74:      Singlet-A     20.5960 eV   60.20 nm  f=0.0509  <S**2>=0.000
       4 -> 11         0.37728
       7 -> 19        -0.36296
       7 -> 20        -0.34914
       7 -> 23        -0.10254
       8 -> 28         0.11418
       9 -> 27         0.11415

 Excited State  75:      Singlet-A     20.8251 eV   59.54 nm  f=0.0268  <S**2>=0.000
       4 -> 10         0.16259
       4 -> 11         0.14293
       5 -> 26        -0.12754
       6 -> 25         0.12754
       7 -> 19        -0.11266
       7 -> 20         0.44717
       7 -> 23         0.12415
       8 -> 27         0.11215
       8 -> 28         0.16956
       8 -> 31         0.11562
       9 -> 27         0.16955
       9 -> 28        -0.11215
       9 -> 32         0.11563

 Excited State  76:      Singlet-A     21.0538 eV   58.89 nm  f=0.0372  <S**2>=0.000
       6 -> 23        -0.31682
       9 -> 30         0.59174

 Excited State  77:      Singlet-A     21.0538 eV   58.89 nm  f=0.0372  <S**2>=0.000
       5 -> 23        -0.31681
       8 -> 30         0.59172

 Excited State  78:      Singlet-A     21.1860 eV   58.52 nm  f=0.0057  <S**2>=0.000
       5 -> 22         0.48175
       6 -> 21         0.48382

 Excited State  79:      Singlet-A     21.1860 eV   58.52 nm  f=0.0057  <S**2>=0.000
       5 -> 21        -0.48243
       6 -> 22         0.48353

 Excited State  80:      Singlet-A     21.2116 eV   58.45 nm  f=0.0000  <S**2>=0.000
       5 -> 21        -0.21051
       5 -> 22         0.44846
       6 -> 21        -0.44616
       6 -> 22        -0.21016

 Excited State  81:      Singlet-A     21.2262 eV   58.41 nm  f=0.0606  <S**2>=0.000
       7 -> 21         0.67705

 Excited State  82:      Singlet-A     21.2262 eV   58.41 nm  f=0.0606  <S**2>=0.000
       7 -> 22         0.67728

 Excited State  83:      Singlet-A     21.2319 eV   58.40 nm  f=0.0014  <S**2>=0.000
       5 -> 21         0.43350
       5 -> 22         0.20374
       6 -> 21        -0.20324
       6 -> 22         0.43202
       7 -> 23         0.16304

 Excited State  84:      Singlet-A     21.6769 eV   57.20 nm  f=0.0024  <S**2>=0.000
       4 -> 12         0.42726
       4 -> 13         0.43925
       5 -> 23        -0.14605
       6 -> 23         0.17630
       8 -> 30        -0.11574
       9 -> 30         0.11261

 Excited State  85:      Singlet-A     21.6769 eV   57.20 nm  f=0.0024  <S**2>=0.000
       4 -> 12         0.43930
       4 -> 13        -0.42718
       5 -> 23        -0.17621
       6 -> 23        -0.14621
       8 -> 30        -0.11253
       9 -> 30        -0.11583

 Excited State  86:      Singlet-A     21.7805 eV   56.92 nm  f=0.0160  <S**2>=0.000
       4 -> 13        -0.27207
       6 -> 23         0.54258
       9 -> 30         0.30144

 Excited State  87:      Singlet-A     21.7805 eV   56.92 nm  f=0.0160  <S**2>=0.000
       4 -> 12         0.27186
       5 -> 23         0.54266
       8 -> 30         0.30151

 Excited State  88:      Singlet-A     21.8002 eV   56.87 nm  f=0.0029  <S**2>=0.000
       4 -> 11         0.15962
       5 -> 21        -0.10722
       6 -> 22        -0.10723
       7 -> 20        -0.13446
       7 -> 23         0.64016

 Excited State  89:      Singlet-A     22.0087 eV   56.33 nm  f=0.0000  <S**2>=0.000
       5 -> 25         0.16535
       6 -> 26         0.16553
       8 -> 31         0.29140
       8 -> 32        -0.35977
       9 -> 31         0.36031
       9 -> 32         0.29162

 Excited State  90:      Singlet-A     22.1025 eV   56.10 nm  f=0.0011  <S**2>=0.000
       5 -> 25        -0.14873
       6 -> 26         0.14875
       7 -> 26        -0.10979
       8 -> 31        -0.14960
       8 -> 32         0.42609
       9 -> 31         0.42563
       9 -> 32         0.14920

 Excited State  91:      Singlet-A     22.1025 eV   56.10 nm  f=0.0011  <S**2>=0.000
       5 -> 26         0.14862
       6 -> 25         0.14849
       7 -> 25         0.11044
       8 -> 31         0.42585
       8 -> 32         0.14938
       9 -> 31         0.14942
       9 -> 32        -0.42584

 Excited State  92:      Singlet-A     22.3514 eV   55.47 nm  f=0.0025  <S**2>=0.000
       4 -> 15         0.22990
       5 -> 24         0.28329
       7 -> 25         0.54489
       8 -> 31        -0.10460
       9 -> 32         0.10460

 Excited State  93:      Singlet-A     22.3514 eV   55.47 nm  f=0.0025  <S**2>=0.000
       4 -> 16        -0.22991
       6 -> 24         0.28351
       7 -> 26         0.54445
       8 -> 32         0.10463
       9 -> 31         0.10451

 Excited State  94:      Singlet-A     22.4196 eV   55.30 nm  f=0.0000  <S**2>=0.000
       5 -> 25         0.42444
       6 -> 26         0.42453
       7 -> 24         0.26007
       8 -> 32         0.12025
       9 -> 31        -0.12038

 Excited State  95:      Singlet-A     22.5252 eV   55.04 nm  f=0.0023  <S**2>=0.000

 The electronic state is 1-A.
 Alpha  occ. eigenvalues --  -25.24016 -10.62907  -1.31467  -0.79097  -0.57386
 Alpha  occ. eigenvalues --   -0.57386  -0.57330  -0.42789  -0.42789
 Alpha virt. eigenvalues --    0.03988   0.09282   0.12025   0.12025   0.15515
 Alpha virt. eigenvalues --    0.17671   0.17671   0.18945   0.18945   0.28547
 Alpha virt. eigenvalues --    0.31312   0.32399   0.32399   0.33830   0.36524

 Mulliken charges:
               1
     1  C    0.670815
     2  F   -0.515043
     3  H   -0.051913
     4  H   -0.051934
     5  H   -0.051925
 Sum of Mulliken charges =  -0.00000

 Dipole moment (field-independent basis, Debye):
    X=              1.9021    Y=             -0.0000    Z=             -0.0000  Tot=              1.9021
 Quadrupole moment (field-independent basis, Debye-Ang):
   XX=            -12.6702   YY=            -11.8962   ZZ=            -11.8963
   XY=              0.0000   XZ=              0.0000   YZ=              0.0000

 Normal termination of Gaussian 16 at Mon Mar 21 20:11:02 2022.
