 Gaussian 16, Revision C.01,
 Gaussian 16:  EM64L-G16RevC.01  3-Jul-2019

 ---------------------------------------------------------------------
 #P TD(Nstates=10000) m062x/Gen SCF(maxcycles=100) Int(Grid=ultrafine)
 ---------------------------------------------------------------------

 ---------------------
 xGDB7_00001_tier4.com
 ---------------------
 Symbolic Z-matrix:
 Charge =  0 Multiplicity = 1

                         Standard orientation:
 ---------------------------------------------------------------------
 Center     Atomic      Atomic             Coordinates (Angstroms)
 Number     Number       Type             X           Y           Z
 ---------------------------------------------------------------------
      1          6           0       -0.049078    0.702042   -0.000000
      2          7           0       -0.049078   -0.754243    0.000000
      3          1           0        0.946109    1.166603   -0.000000
      4          1           0       -0.587574    1.062597    0.877770
      5          1           0       -0.587574    1.062597   -0.877770
      6          1           0        0.433525   -1.112175    0.812504
      7          1           0        0.433525   -1.112175   -0.812504
 ---------------------------------------------------------------------

 SCF Done:  E(RM062X) =  -95.7366904702     A.U. after   12 cycles

 Excitation energies and oscillator strengths:

 Excited State   1:      Singlet-A'     6.3641 eV  194.82 nm  f=0.0076  <S**2>=0.000
       9 -> 10         0.65777
       9 -> 11         0.24075
 This state for optimization and/or second-order correction.
 Total Energy, E(TD-HF/TD-DFT) =  -95.5028144420
 Copying the excited state density for this state as the 1-particle RhoCI density.

 Excited State   2:      Singlet-A'     7.6569 eV  161.92 nm  f=0.0399  <S**2>=0.000
       9 -> 10        -0.23948
       9 -> 11         0.65535

 Excited State   3:      Singlet-A"     8.0333 eV  154.34 nm  f=0.0075  <S**2>=0.000
       9 -> 12         0.68664

 Excited State   4:      Singlet-A'     9.0074 eV  137.65 nm  f=0.0783  <S**2>=0.000
       9 -> 13         0.68621
       9 -> 15        -0.13084

 Excited State   5:      Singlet-A"     9.3584 eV  132.48 nm  f=0.0003  <S**2>=0.000
       9 -> 14         0.68790

 Excited State   6:      Singlet-A'     9.7622 eV  127.00 nm  f=0.0047  <S**2>=0.000
       9 -> 13         0.10680
       9 -> 15         0.62764
       9 -> 16         0.27813

 Excited State   7:      Singlet-A"     9.8494 eV  125.88 nm  f=0.0175  <S**2>=0.000
       8 -> 10         0.69373

 Excited State   8:      Singlet-A'     9.9446 eV  124.67 nm  f=0.0265  <S**2>=0.000
       9 -> 15        -0.26069
       9 -> 16         0.60036
       9 -> 18        -0.16287
       9 -> 20        -0.14880

 Excited State   9:      Singlet-A"    10.4968 eV  118.12 nm  f=0.0003  <S**2>=0.000
       9 -> 12         0.10535
       9 -> 17         0.67884

 Excited State  10:      Singlet-A'    10.9464 eV  113.26 nm  f=0.0588  <S**2>=0.000
       7 -> 10         0.64262
       9 -> 16         0.12600
       9 -> 18         0.16168
       9 -> 20         0.15084

 Excited State  11:      Singlet-A"    10.9665 eV  113.06 nm  f=0.0991  <S**2>=0.000
       8 -> 11         0.68692

 Excited State  12:      Singlet-A'    11.3383 eV  109.35 nm  f=0.0058  <S**2>=0.000
       7 -> 10        -0.25138
       9 -> 16         0.17174
       9 -> 18         0.39059
       9 -> 20         0.44186

 Excited State  13:      Singlet-A"    11.5309 eV  107.52 nm  f=0.0089  <S**2>=0.000
       9 -> 19         0.68686

 Excited State  14:      Singlet-A'    11.5689 eV  107.17 nm  f=0.0214  <S**2>=0.000
       6 -> 10        -0.22213
       8 -> 12        -0.17560
       9 -> 18         0.45793
       9 -> 20        -0.41428

 Excited State  15:      Singlet-A'    11.9257 eV  103.96 nm  f=0.2512  <S**2>=0.000
       6 -> 10         0.20911
       7 -> 11        -0.38389
       8 -> 12         0.49838
       9 -> 18         0.12719
       9 -> 20        -0.11597

 Excited State  16:      Singlet-A'    11.9780 eV  103.51 nm  f=0.0289  <S**2>=0.000
       6 -> 10        -0.38660
       7 -> 11         0.36218
       8 -> 12         0.44540

 Excited State  17:      Singlet-A"    12.1399 eV  102.13 nm  f=0.0305  <S**2>=0.000
       8 -> 13         0.68721

 Excited State  18:      Singlet-A'    12.2659 eV  101.08 nm  f=0.0461  <S**2>=0.000
       6 -> 10         0.47074
       7 -> 11         0.43327
       8 -> 14         0.12728
       9 -> 18         0.13397
       9 -> 20        -0.14098

 Excited State  19:      Singlet-A"    12.7459 eV   97.27 nm  f=0.0169  <S**2>=0.000
       7 -> 12         0.66452
       8 -> 16         0.10519
       9 -> 21         0.13009

 Excited State  20:      Singlet-A'    12.7574 eV   97.19 nm  f=0.0332  <S**2>=0.000
       6 -> 10        -0.10185
       8 -> 14         0.57408
       8 -> 17        -0.11948
       9 -> 18        -0.10381
       9 -> 20         0.10155
       9 -> 22         0.30220

 Excited State  21:      Singlet-A'    12.9703 eV   95.59 nm  f=0.2068  <S**2>=0.000
       6 -> 11         0.37884
       7 -> 13         0.12275
       8 -> 14        -0.20968
       9 -> 20         0.11440
       9 -> 22         0.48363
       9 -> 25         0.12089

 Excited State  22:      Singlet-A"    13.0478 eV   95.02 nm  f=0.0049  <S**2>=0.000
       5 -> 10         0.22710
       5 -> 11         0.17469
       7 -> 14         0.14676
       8 -> 15         0.49209
       8 -> 16         0.11359
       9 -> 21        -0.32294

 Excited State  23:      Singlet-A"    13.1245 eV   94.47 nm  f=0.0116  <S**2>=0.000
       5 -> 10         0.14717
       7 -> 12        -0.10631
       8 -> 15        -0.24645
       8 -> 16         0.59443
       8 -> 18        -0.13296

 Excited State  24:      Singlet-A'    13.1454 eV   94.32 nm  f=0.1002  <S**2>=0.000
       6 -> 11         0.54533
       8 -> 14         0.21703
       9 -> 22        -0.30847
       9 -> 24         0.10341

 Excited State  25:      Singlet-A"    13.2277 eV   93.73 nm  f=0.1422  <S**2>=0.000
       7 -> 12        -0.12978
       8 -> 15         0.31591
       8 -> 16         0.13459
       9 -> 21         0.58154

 Excited State  26:      Singlet-A'    13.4271 eV   92.34 nm  f=0.0082  <S**2>=0.000
       7 -> 13         0.63419
       7 -> 15        -0.12332
       8 -> 17        -0.16613
       9 -> 23         0.12300

 Excited State  27:      Singlet-A"    13.5411 eV   91.56 nm  f=0.0020  <S**2>=0.000
       5 -> 10         0.21478
       6 -> 12         0.20705
       7 -> 14         0.57578
       8 -> 15        -0.20677
       9 -> 21         0.10496

 Excited State  28:      Singlet-A"    13.6041 eV   91.14 nm  f=0.0800  <S**2>=0.000
       5 -> 10         0.52221
       5 -> 11         0.10643
       6 -> 12        -0.26369
       7 -> 14        -0.18686
       8 -> 15        -0.12435
       8 -> 16        -0.25028

 Excited State  29:      Singlet-A'    13.6382 eV   90.91 nm  f=0.2369  <S**2>=0.000
       7 -> 13        -0.14161
       9 -> 23         0.65471

 Excited State  30:      Singlet-A'    13.8924 eV   89.25 nm  f=0.0189  <S**2>=0.000
       6 -> 13         0.22477
       7 -> 15         0.19850
       8 -> 17        -0.35236
       9 -> 22         0.15076
       9 -> 24         0.45458

 Excited State  31:      Singlet-A"    13.8990 eV   89.20 nm  f=0.1524  <S**2>=0.000
       5 -> 10         0.20022
       6 -> 12         0.57634
       7 -> 14        -0.25465
       7 -> 17         0.10242
       8 -> 20         0.13011

 Excited State  32:      Singlet-A'    14.0802 eV   88.06 nm  f=0.0256  <S**2>=0.000
       6 -> 13        -0.23414
       7 -> 15        -0.15701
       8 -> 17         0.40486
       9 -> 24         0.44019

 Excited State  33:      Singlet-A'    14.3388 eV   86.47 nm  f=0.0360  <S**2>=0.000
       6 -> 11         0.10923
       6 -> 13        -0.42024
       7 -> 15         0.49340
       7 -> 16         0.16696

 Excited State  34:      Singlet-A"    14.4825 eV   85.61 nm  f=0.0001  <S**2>=0.000
       5 -> 13         0.14452
       6 -> 14         0.28166
       8 -> 16         0.12555
       8 -> 18         0.58353

 Excited State  35:      Singlet-A'    14.5587 eV   85.16 nm  f=0.0889  <S**2>=0.000
       7 -> 13        -0.12354
       7 -> 15        -0.24312
       7 -> 16         0.59151
       8 -> 17        -0.14163

 Excited State  36:      Singlet-A'    14.5991 eV   84.93 nm  f=0.1834  <S**2>=0.000
       5 -> 12        -0.11128
       6 -> 13        -0.30052
       7 -> 13        -0.10649
       7 -> 15        -0.14737
       7 -> 16        -0.13950
       8 -> 17        -0.26799
       8 -> 19         0.13557
       9 -> 24         0.16192
       9 -> 25         0.41630

 Excited State  37:      Singlet-A"    14.6281 eV   84.76 nm  f=0.0000  <S**2>=0.000
       5 -> 11        -0.31904
       6 -> 14         0.42693
       7 -> 17        -0.13744
       8 -> 18        -0.25964
       8 -> 20        -0.27527

 Excited State  38:      Singlet-A"    14.6908 eV   84.40 nm  f=0.0475  <S**2>=0.000
       5 -> 10        -0.18109
       5 -> 11         0.47581
       6 -> 14         0.39970
       7 -> 17         0.10122
       8 -> 18        -0.13400

 Excited State  39:      Singlet-A'    14.8111 eV   83.71 nm  f=0.0355  <S**2>=0.000
       5 -> 12         0.18151
       6 -> 13         0.26026
       7 -> 15         0.17926
       7 -> 16         0.17758
       8 -> 17         0.19691
       9 -> 25         0.48738

 Excited State  40:      Singlet-A"    14.9235 eV   83.08 nm  f=0.0036  <S**2>=0.000
       5 -> 11        -0.22643
       6 -> 14         0.16776
       7 -> 17         0.48279
       8 -> 20         0.16717
       9 -> 26        -0.23797
       9 -> 28        -0.20933

 Excited State  41:      Singlet-A"    15.0860 eV   82.19 nm  f=0.1130  <S**2>=0.000
       5 -> 11        -0.16470
       7 -> 17         0.16597
       8 -> 20         0.28589
       9 -> 26         0.41696
       9 -> 27         0.15343
       9 -> 28         0.31704
       9 -> 31         0.10361

 Excited State  42:      Singlet-A'    15.1969 eV   81.59 nm  f=0.1464  <S**2>=0.000
       5 -> 12         0.10121
       6 -> 16        -0.19883
       8 -> 19         0.61934

 Excited State  43:      Singlet-A"    15.2721 eV   81.18 nm  f=0.1735  <S**2>=0.000
       5 -> 11        -0.10395
       6 -> 14         0.12801
       7 -> 17        -0.40785
       7 -> 19         0.14021
       8 -> 20         0.43737
       8 -> 22        -0.11100
       9 -> 26        -0.20230

 Excited State  44:      Singlet-A'    15.3168 eV   80.95 nm  f=0.0092  <S**2>=0.000
       5 -> 12        -0.24049
       6 -> 15         0.55951
       6 -> 16         0.11244
       7 -> 18        -0.22195
       7 -> 20        -0.12349

 Excited State  45:      Singlet-A'    15.5050 eV   79.96 nm  f=0.1341  <S**2>=0.000
       5 -> 12        -0.23711
       6 -> 15        -0.30297
       6 -> 16         0.42136
       7 -> 18        -0.13144
       8 -> 19         0.15958
       9 -> 30         0.29745

 Excited State  46:      Singlet-A"    15.5258 eV   79.86 nm  f=0.0264  <S**2>=0.000
       7 -> 19        -0.10061
       9 -> 26        -0.43017
       9 -> 27         0.10644
       9 -> 28         0.48105
       9 -> 31         0.14299

 Excited State  47:      Singlet-A'    15.5973 eV   79.49 nm  f=0.1280  <S**2>=0.000
       6 -> 15         0.17803
       7 -> 18         0.59523
       8 -> 19         0.10411
       9 -> 29        -0.19749
       9 -> 30         0.11983

 Excited State  48:      Singlet-A"    15.7777 eV   78.58 nm  f=0.0002  <S**2>=0.000
       6 -> 17        -0.12818
       9 -> 27         0.64507
       9 -> 28        -0.16951

 Excited State  49:      Singlet-A'    15.8144 eV   78.40 nm  f=0.1478  <S**2>=0.000
       5 -> 12        -0.21895
       6 -> 16         0.20349
       7 -> 18         0.13243
       7 -> 20        -0.15104
       8 -> 19         0.11927
       9 -> 29         0.37358
       9 -> 30        -0.36964

 Excited State  50:      Singlet-A'    15.9176 eV   77.89 nm  f=0.0039  <S**2>=0.000
       5 -> 12        -0.27931
       5 -> 14         0.15027
       6 -> 16        -0.32254
       7 -> 20         0.10404
       9 -> 29         0.35554
       9 -> 30         0.31521

 Excited State  51:      Singlet-A"    15.9489 eV   77.74 nm  f=0.0316  <S**2>=0.000
       5 -> 13         0.48473
       5 -> 15        -0.15041
       6 -> 17         0.18827
       7 -> 19        -0.34602
       8 -> 23        -0.15153
       9 -> 27         0.13535

 Excited State  52:      Singlet-A"    15.9674 eV   77.65 nm  f=0.0004  <S**2>=0.000
       5 -> 13        -0.26624
       6 -> 17         0.59287
       9 -> 26         0.13340

 Excited State  53:      Singlet-A'    16.0919 eV   77.05 nm  f=0.1286  <S**2>=0.000
       5 -> 12        -0.17216
       5 -> 14         0.14807
       6 -> 18         0.13734
       7 -> 15         0.13225
       7 -> 20         0.51550
       9 -> 29        -0.13921
       9 -> 30        -0.25204

 Excited State  54:      Singlet-A"    16.2335 eV   76.38 nm  f=0.0435  <S**2>=0.000
       5 -> 13         0.32252
       5 -> 15         0.10598
       6 -> 17         0.20888
       7 -> 19         0.43664
       8 -> 22         0.32519

 Excited State  55:      Singlet-A'    16.2395 eV   76.35 nm  f=0.0625  <S**2>=0.000
       5 -> 12         0.32154
       6 -> 15         0.12924
       6 -> 16         0.24831
       6 -> 18         0.14338
       7 -> 20         0.25886
       8 -> 19         0.10094
       9 -> 29         0.37285
       9 -> 30         0.13748

 Excited State  56:      Singlet-A"    16.4471 eV   75.38 nm  f=0.1474  <S**2>=0.000
       5 -> 16        -0.15802
       7 -> 19        -0.30890
       8 -> 20         0.19896
       8 -> 22         0.52615

 Excited State  57:      Singlet-A'    16.4612 eV   75.32 nm  f=0.1777  <S**2>=0.000
       5 -> 12         0.13227
       5 -> 14         0.52288
       5 -> 17        -0.11287
       6 -> 20        -0.17765
       7 -> 20        -0.12435
       8 -> 21         0.31415

 Excited State  58:      Singlet-A'    16.6628 eV   74.41 nm  f=0.0189  <S**2>=0.000
       5 -> 12        -0.10902
       5 -> 14        -0.18014
       5 -> 17        -0.10910
       6 -> 18         0.51012
       6 -> 20        -0.12007
       7 -> 20        -0.14040
       8 -> 21         0.32270

 Excited State  59:      Singlet-A"    16.7045 eV   74.22 nm  f=0.0487  <S**2>=0.000
       5 -> 13         0.17414
       5 -> 15         0.30523
       5 -> 16         0.16212
       8 -> 23         0.53746

 Excited State  60:      Singlet-A'    16.8484 eV   73.59 nm  f=0.0546  <S**2>=0.000
       5 -> 14        -0.30215
       6 -> 18        -0.30320
       7 -> 20         0.11535
       7 -> 22         0.10338
       8 -> 21         0.49153
       9 -> 32        -0.10603

 Excited State  61:      Singlet-A"    16.9223 eV   73.27 nm  f=0.0014  <S**2>=0.000
       5 -> 15         0.43474
       5 -> 16         0.17788
       6 -> 19        -0.27859
       8 -> 23        -0.29045
       9 -> 31        -0.28833

 Excited State  62:      Singlet-A'    16.9882 eV   72.98 nm  f=0.0177  <S**2>=0.000
       6 -> 18        -0.17832
       6 -> 20        -0.29626
       9 -> 25         0.11639
       9 -> 30        -0.14286
       9 -> 32         0.45028
       9 -> 33         0.28130

 Excited State  63:      Singlet-A"    17.0489 eV   72.72 nm  f=0.0393  <S**2>=0.000
       5 -> 15         0.17799
       5 -> 16         0.30048
       6 -> 19         0.28112
       7 -> 19        -0.11523
       8 -> 23        -0.22302
       9 -> 28        -0.15089
       9 -> 31         0.41150

 Excited State  64:      Singlet-A'    17.1134 eV   72.45 nm  f=0.1137  <S**2>=0.000
       6 -> 20         0.45876
       7 -> 20        -0.15324
       7 -> 22        -0.27008
       8 -> 21         0.10510
       9 -> 32         0.31934

 Excited State  65:      Singlet-A"    17.1928 eV   72.11 nm  f=0.0005  <S**2>=0.000
       5 -> 15         0.18246
       5 -> 16        -0.34837
       6 -> 19        -0.28387
       8 -> 22        -0.14009
       8 -> 24         0.20233
       9 -> 28        -0.15314
       9 -> 31         0.36839

 Excited State  66:      Singlet-A"    17.2313 eV   71.95 nm  f=0.0598  <S**2>=0.000
       5 -> 16         0.10382
       6 -> 19         0.13556
       8 -> 24         0.64735
       9 -> 31        -0.10613

 Excited State  67:      Singlet-A"    17.3728 eV   71.37 nm  f=0.1410  <S**2>=0.000
       5 -> 15         0.26456
       5 -> 16        -0.37896
       5 -> 18         0.11412
       6 -> 19         0.44201
       7 -> 21        -0.11399
       9 -> 31        -0.17188

 Excited State  68:      Singlet-A'    17.6260 eV   70.34 nm  f=0.1735  <S**2>=0.000
       4 -> 10        -0.12985
       5 -> 17        -0.34127
       6 -> 20         0.15979
       7 -> 22         0.48631
       7 -> 23         0.10648
       9 -> 32         0.11218
       9 -> 34        -0.14185

 Excited State  69:      Singlet-A"    17.7340 eV   69.91 nm  f=0.0158  <S**2>=0.000
       5 -> 15         0.10012
       5 -> 18        -0.14722
       6 -> 19         0.11221
       7 -> 21         0.63092
       8 -> 25        -0.15709

 Excited State  70:      Singlet-A'    17.8059 eV   69.63 nm  f=0.0093  <S**2>=0.000
       5 -> 17         0.50869
       7 -> 22         0.16447
       7 -> 23         0.22487
       7 -> 24         0.10057
       8 -> 21         0.11020
       9 -> 32         0.15657
       9 -> 33        -0.23944
       9 -> 34        -0.13105

 Excited State  71:      Singlet-A'    17.9045 eV   69.25 nm  f=0.0062  <S**2>=0.000
       5 -> 17         0.19955
       6 -> 18         0.11078
       6 -> 20         0.12995
       7 -> 22         0.14372
       9 -> 32        -0.25286
       9 -> 33         0.50839
       9 -> 34        -0.20071

 Excited State  72:      Singlet-A"    17.9454 eV   69.09 nm  f=0.0000  <S**2>=0.000
       5 -> 18         0.28943
       7 -> 21         0.23891
       8 -> 22        -0.14611
       8 -> 25         0.54107

 Excited State  73:      Singlet-A'    17.9792 eV   68.96 nm  f=0.0213  <S**2>=0.000
       7 -> 22        -0.15161
       7 -> 23         0.60295
       7 -> 24        -0.14946
       9 -> 32        -0.11447
       9 -> 33         0.14151

 Excited State  74:      Singlet-A"    18.1305 eV   68.38 nm  f=0.0043  <S**2>=0.000
       5 -> 16         0.13429
       5 -> 18         0.55826
       8 -> 23         0.12968
       8 -> 25        -0.33823

 Excited State  75:      Singlet-A'    18.2188 eV   68.05 nm  f=0.0085  <S**2>=0.000
       4 -> 10        -0.12764
       6 -> 20         0.17484
       7 -> 22         0.13168
       7 -> 24         0.15369
       9 -> 34         0.60216

 Excited State  76:      Singlet-A'    18.3506 eV   67.56 nm  f=0.1102  <S**2>=0.000
       4 -> 10         0.27207
       5 -> 17        -0.10181
       5 -> 19        -0.10235
       6 -> 22         0.21085
       7 -> 23         0.10776
       7 -> 24         0.54626

 Excited State  77:      Singlet-A"    18.4696 eV   67.13 nm  f=0.0216  <S**2>=0.000
       5 -> 18        -0.10026
       5 -> 20         0.57535
       5 -> 22        -0.15436
       6 -> 21        -0.13418
       9 -> 37         0.20422

 Excited State  78:      Singlet-A'    18.5007 eV   67.02 nm  f=0.0022  <S**2>=0.000
       4 -> 10         0.46906
       5 -> 19         0.23454
       6 -> 22         0.12357
       7 -> 22         0.11101
       7 -> 24        -0.22946
       8 -> 26         0.28810
       9 -> 36         0.12879

 Excited State  79:      Singlet-A'    18.5313 eV   66.91 nm  f=0.0211  <S**2>=0.000
       4 -> 10        -0.22888
       7 -> 22        -0.10868
       7 -> 24         0.10919
       8 -> 26         0.59718
       8 -> 28        -0.12205

 Excited State  80:      Singlet-A'    18.6413 eV   66.51 nm  f=0.0101  <S**2>=0.000
       4 -> 10        -0.20499
       6 -> 20         0.12749
       6 -> 22         0.57804
       7 -> 24        -0.13785
       7 -> 25         0.15674

 Excited State  81:      Singlet-A"    18.6701 eV   66.41 nm  f=0.0036  <S**2>=0.000
       6 -> 21         0.42805
       9 -> 35         0.53414

 Excited State  82:      Singlet-A"    18.6902 eV   66.34 nm  f=0.0054  <S**2>=0.000
       5 -> 20        -0.21879
       6 -> 21        -0.35751
       9 -> 35         0.34056
       9 -> 37         0.40218

 Excited State  83:      Singlet-A'    18.7980 eV   65.96 nm  f=0.0037  <S**2>=0.000
       5 -> 19        -0.34613
       6 -> 23        -0.24326
       8 -> 26         0.10839
       8 -> 27        -0.12229
       9 -> 36         0.48833

 Excited State  84:      Singlet-A'    18.8206 eV   65.88 nm  f=0.0375  <S**2>=0.000
       5 -> 19         0.48722
       6 -> 23        -0.10494
       6 -> 24         0.11558
       7 -> 22        -0.10016
       7 -> 23        -0.10121
       7 -> 24         0.15699
       7 -> 25         0.21059
       8 -> 26        -0.12354
       9 -> 36         0.23839

 Excited State  85:      Singlet-A"    18.8876 eV   65.64 nm  f=0.0073  <S**2>=0.000
       6 -> 21         0.35756
       9 -> 35        -0.25595
       9 -> 37         0.51205

 Excited State  86:      Singlet-A"    19.0267 eV   65.16 nm  f=0.0175  <S**2>=0.000
       6 -> 21         0.13557
       7 -> 27        -0.14104
       8 -> 29         0.52476
       8 -> 30         0.37586

 Excited State  87:      Singlet-A'    19.1244 eV   64.83 nm  f=0.0588  <S**2>=0.000
       5 -> 19        -0.11339
       6 -> 22        -0.13328
       6 -> 23         0.46276
       6 -> 24        -0.10487
       7 -> 22        -0.10816
       7 -> 25         0.39306
       8 -> 28         0.10813
       9 -> 36         0.12330

 Excited State  88:      Singlet-A'    19.2130 eV   64.53 nm  f=0.0671  <S**2>=0.000
       4 -> 11         0.31572
       6 -> 23         0.22814
       6 -> 24         0.28180
       7 -> 25        -0.15004
       8 -> 27         0.37233
       9 -> 36         0.17869

 Excited State  89:      Singlet-A'    19.3536 eV   64.06 nm  f=0.0821  <S**2>=0.000

 The electronic state is 1-A'.
 Alpha  occ. eigenvalues --  -14.73778 -10.56672  -0.96949  -0.73982  -0.56384
 Alpha  occ. eigenvalues --   -0.50904  -0.47013  -0.42950  -0.30417
 Alpha virt. eigenvalues --    0.04389   0.08297   0.11611   0.13719   0.15281
 Alpha virt. eigenvalues --    0.16991   0.18190   0.19066   0.22370   0.24424
 Alpha virt. eigenvalues --    0.24511   0.29154   0.29272   0.30995   0.32558

 Mulliken charges:
               1
     1  C    0.571887
     2  N   -0.329504
     3  H   -0.028795
     4  H   -0.109960
     5  H   -0.109960
     6  H    0.003166
     7  H    0.003166
 Sum of Mulliken charges =   0.00000

 Dipole moment (field-independent basis, Debye):
    X=              1.2581    Y=              0.3553    Z=             -0.0000  Tot=              1.3073
 Quadrupole moment (field-independent basis, Debye-Ang):
   XX=            -15.0722   YY=            -14.3513   ZZ=            -12.6974
   XY=             -2.0837   XZ=              0.0000   YZ=             -0.0000

 Normal termination of Gaussian 16 at Mon Mar 21 20:13:49 2022.
