 Gaussian 16, Revision C.01,
 Gaussian 16:  EM64L-G16RevC.01  3-Jul-2019

 ---------------------------------------------------------------------
 #P TD(Nstates=10000) m062x/Gen SCF(maxcycles=100) Int(Grid=ultrafine)
 ---------------------------------------------------------------------

 ---------------------
 xGDB7_00001_tier4.com
 ---------------------
 Symbolic Z-matrix:
 Charge =  0 Multiplicity = 1

                         Standard orientation:
 ---------------------------------------------------------------------
 Center     Atomic      Atomic             Coordinates (Angstroms)
 Number     Number       Type             X           Y           Z
 ---------------------------------------------------------------------
      1          6           0       -0.000001    0.000006    0.000000
      2          1           0       -0.991926    0.448073    0.033817
      3          1           0        0.066172   -0.671147   -0.854975
      4          1           0        0.176250   -0.561167    0.916416
      5          1           0        0.749514    0.784204   -0.095260
 ---------------------------------------------------------------------

 SCF Done:  E(RM062X) =  -40.4519532287     A.U. after   10 cycles

 Excitation energies and oscillator strengths:

 Excited State   1:      Singlet-A     10.6161 eV  116.79 nm  f=0.1445  <S**2>=0.000
       5 ->  6         0.69902
 This state for optimization and/or second-order correction.
 Total Energy, E(TD-HF/TD-DFT) =  -40.0618180448
 Copying the excited state density for this state as the 1-particle RhoCI density.

 Excited State   2:      Singlet-A     10.6162 eV  116.79 nm  f=0.1446  <S**2>=0.000
       3 ->  6         0.30720
       4 ->  6         0.62900

 Excited State   3:      Singlet-A     10.6163 eV  116.79 nm  f=0.1446  <S**2>=0.000
       3 ->  6         0.62789
       4 ->  6        -0.30778

 Excited State   4:      Singlet-A     12.9472 eV   95.76 nm  f=0.0000  <S**2>=0.000
       4 ->  8         0.17872
       4 ->  9         0.43027
       4 -> 10        -0.10194
       4 -> 11         0.11064
       5 ->  7        -0.14085
       5 ->  8        -0.40690
       5 ->  9         0.18115
       5 -> 12         0.10146

 Excited State   5:      Singlet-A     12.9472 eV   95.76 nm  f=0.0000  <S**2>=0.000
       3 ->  8         0.19566
       3 ->  9         0.41920
       3 -> 10        -0.10066
       3 -> 11         0.11186
       5 ->  7         0.44088
       5 ->  8        -0.15349
       5 -> 12        -0.11066

 Excited State   6:      Singlet-A     12.9473 eV   95.76 nm  f=0.0000  <S**2>=0.000
       3 ->  7         0.13543
       3 ->  8         0.39626
       3 ->  9        -0.20661
       3 -> 12        -0.10095
       4 ->  7         0.44397
       4 ->  8        -0.14248
       4 -> 12        -0.11114

 Excited State   7:      Singlet-A     13.1392 eV   94.36 nm  f=0.1230  <S**2>=0.000
       3 ->  7         0.28335
       3 ->  8        -0.16757
       3 ->  9         0.18346
       4 ->  7         0.11526
       4 ->  9         0.23445
       5 ->  8         0.38626
       5 ->  9         0.32929

 Excited State   8:      Singlet-A     13.1392 eV   94.36 nm  f=0.1230  <S**2>=0.000
       3 ->  7         0.36518
       3 ->  9         0.18175
       4 ->  8         0.22797
       4 ->  9        -0.35239
       5 ->  7        -0.30669
       5 ->  8        -0.13756

 Excited State   9:      Singlet-A     13.1392 eV   94.36 nm  f=0.1230  <S**2>=0.000
       3 ->  7         0.25218
       3 ->  8         0.16404
       3 ->  9        -0.25856
       4 ->  7        -0.20203
       4 ->  8         0.39396
       4 ->  9         0.16109
       5 ->  7         0.21387
       5 ->  8         0.17317
       5 ->  9        -0.13638

 Excited State  10:      Singlet-A     13.2859 eV   93.32 nm  f=0.0000  <S**2>=0.000
       3 ->  7         0.14720
       3 ->  8        -0.10408
       3 ->  9        -0.30407
       4 ->  7        -0.13372
       4 ->  8        -0.17179
       4 ->  9        -0.17188
       5 ->  7         0.24993
       5 ->  8        -0.19606
       5 ->  9         0.36527
       5 -> 10        -0.16449

 Excited State  11:      Singlet-A     13.2860 eV   93.32 nm  f=0.0000  <S**2>=0.000
       3 ->  8         0.39618
       3 -> 11         0.13219
       4 ->  7        -0.39370
       4 ->  8        -0.21941
       4 ->  9         0.10356
       4 -> 12         0.15764
       5 ->  7        -0.16605
       5 ->  9         0.14809

 Excited State  12:      Singlet-A     13.6010 eV   91.16 nm  f=0.0000  <S**2>=0.000
       3 -> 10         0.13964
       3 -> 11        -0.17027
       4 ->  9         0.11749
       4 -> 10         0.29315
       4 -> 11        -0.27188
       4 -> 14         0.15499
       5 ->  8        -0.13414
       5 -> 10         0.31711
       5 -> 11         0.31206
       5 -> 12        -0.10554

 Excited State  13:      Singlet-A     13.6010 eV   91.16 nm  f=0.0000  <S**2>=0.000
       3 ->  9         0.11904
       3 -> 10         0.28618
       3 -> 11        -0.27968
       3 -> 14        -0.12807
       4 -> 10        -0.15914
       4 -> 11         0.15217
       5 ->  7         0.14209
       5 -> 12         0.44477
       5 -> 13         0.12423

 Excited State  14:      Singlet-A     13.6010 eV   91.16 nm  f=0.0000  <S**2>=0.000
       3 ->  8         0.12659
       3 -> 10        -0.24220
       3 -> 11        -0.23526
       3 -> 12         0.30684
       3 -> 13        -0.10719
       4 ->  7         0.13675
       4 -> 10         0.20040
       4 -> 11         0.23381
       4 -> 12         0.33793
       5 -> 13         0.10558

 Excited State  15:      Singlet-A     13.6039 eV   91.14 nm  f=0.0000  <S**2>=0.000
       3 ->  7        -0.20022
       3 -> 10         0.16833
       3 -> 11         0.16249
       3 -> 12         0.25673
       4 ->  8         0.18463
       4 -> 10         0.18224
       4 -> 11         0.18113
       4 -> 12        -0.23338
       5 ->  9         0.19462
       5 -> 10        -0.24441
       5 -> 11         0.24778

 Excited State  16:      Singlet-A     13.6246 eV   91.00 nm  f=0.0000  <S**2>=0.000
       3 ->  9        -0.10557
       3 -> 10        -0.16519
       3 -> 11         0.26311
       3 -> 12         0.17945
       4 -> 10        -0.13817
       4 -> 11         0.20311
       4 -> 12        -0.13219
       5 ->  9         0.12624
       5 -> 10         0.47999

 Excited State  17:      Singlet-A     13.6247 eV   91.00 nm  f=0.0000  <S**2>=0.000
       3 ->  8        -0.13692
       3 -> 10         0.12861
       3 -> 11         0.38555
       4 ->  7         0.13642
       4 -> 12         0.46237
       5 -> 11         0.17318
       5 -> 12         0.16091

 Excited State  18:      Singlet-A     14.3612 eV   86.33 nm  f=0.0323  <S**2>=0.000
       3 -> 11         0.10806
       3 -> 12         0.12720
       3 -> 13        -0.19999
       3 -> 14        -0.25941
       4 -> 10         0.25720
       4 -> 11        -0.22384
       4 -> 14        -0.17280
       5 -> 11        -0.27650
       5 -> 12         0.30462
       5 -> 13        -0.14788

 Excited State  19:      Singlet-A     14.3612 eV   86.33 nm  f=0.0323  <S**2>=0.000
       3 -> 10         0.34135
       3 -> 13        -0.16171
       3 -> 14         0.10517
       4 -> 10         0.14824
       4 -> 11         0.20525
       4 -> 13         0.32672
       5 -> 10         0.13425
       5 -> 11        -0.28719
       5 -> 12        -0.18254
       5 -> 14        -0.11734

 Excited State  20:      Singlet-A     14.3613 eV   86.33 nm  f=0.0323  <S**2>=0.000
       3 -> 10         0.15638
       3 -> 12         0.38583
       3 -> 13         0.15117
       4 -> 10        -0.27292
       4 -> 11        -0.22591
       4 -> 13         0.15450
       5 -> 12        -0.11787
       5 -> 14         0.33625

 Excited State  21:      Singlet-A     14.6158 eV   84.83 nm  f=0.0000  <S**2>=0.000
       3 -> 14        -0.23062
       4 -> 13        -0.14753
       4 -> 14        -0.11434
       5 -> 12        -0.10290
       5 -> 13         0.60371

 Excited State  22:      Singlet-A     14.6160 eV   84.83 nm  f=0.0000  <S**2>=0.000
       3 -> 13        -0.40800
       4 -> 14         0.43865
       5 -> 14         0.28724

 Excited State  23:      Singlet-A     14.6160 eV   84.83 nm  f=0.0000  <S**2>=0.000
       3 -> 10         0.11154
       3 -> 13        -0.21431
       3 -> 14         0.42281
       4 -> 13        -0.27399
       4 -> 14        -0.38722

 Excited State  24:      Singlet-A     15.0138 eV   82.58 nm  f=0.7390  <S**2>=0.000
       3 -> 12        -0.28870
       3 -> 13         0.14048
       4 -> 10         0.14666
       4 -> 11         0.20262
       4 -> 13         0.19062
       4 -> 14        -0.14685
       5 -> 14         0.48004

 Excited State  25:      Singlet-A     15.0138 eV   82.58 nm  f=0.7390  <S**2>=0.000
       3 -> 10        -0.23229
       3 -> 14         0.32091
       4 -> 11        -0.17626
       4 -> 13         0.37299
       5 -> 12         0.24058
       5 -> 13         0.22663
       5 -> 14        -0.11576

 Excited State  26:      Singlet-A     15.0138 eV   82.58 nm  f=0.7389  <S**2>=0.000
       3 -> 10         0.10038
       3 -> 13         0.37802
       3 -> 14         0.20632
       4 -> 10         0.24048
       4 -> 13        -0.25558
       4 -> 14         0.21127
       5 -> 11        -0.26480
       5 -> 12         0.11102

 Excited State  27:      Singlet-A     15.0642 eV   82.30 nm  f=0.0000  <S**2>=0.000
       3 ->  7         0.32571
       3 ->  8        -0.11127
       3 -> 10         0.10193
       3 -> 12         0.15637
       4 ->  7        -0.10257
       4 ->  8        -0.30021
       4 ->  9         0.13353
       4 -> 10         0.11073
       4 -> 11         0.11032
       4 -> 12        -0.14186
       5 ->  8        -0.12635
       5 ->  9        -0.31721
       5 -> 10        -0.14801
       5 -> 11         0.15058

 Excited State  28:      Singlet-A     17.5198 eV   70.77 nm  f=0.1049  <S**2>=0.000
       5 -> 15         0.69712

 Excited State  29:      Singlet-A     17.5199 eV   70.77 nm  f=0.1049  <S**2>=0.000
       3 -> 15         0.29207
       4 -> 15         0.63353

 Excited State  30:      Singlet-A     17.5199 eV   70.77 nm  f=0.1049  <S**2>=0.000
       3 -> 15         0.63343
       4 -> 15        -0.29362

 Excited State  31:      Singlet-A     18.7613 eV   66.09 nm  f=0.0272  <S**2>=0.000
       5 -> 16         0.68185

 Excited State  32:      Singlet-A     18.7614 eV   66.08 nm  f=0.0272  <S**2>=0.000
       3 -> 16         0.31742
       4 -> 16         0.60558

 Excited State  33:      Singlet-A     18.7615 eV   66.08 nm  f=0.0272  <S**2>=0.000
       3 -> 16         0.60395
       4 -> 16        -0.31646

 Excited State  34:      Singlet-A     19.2384 eV   64.45 nm  f=0.0000  <S**2>=0.000
       3 -> 17         0.33827
       3 -> 20        -0.10540
       3 -> 22         0.12833
       4 -> 17         0.18766
       4 -> 18        -0.16966
       4 -> 21        -0.18281
       5 -> 17        -0.18376
       5 -> 19         0.42722

 Excited State  35:      Singlet-A     19.2384 eV   64.45 nm  f=0.0000  <S**2>=0.000
       3 -> 17         0.21831
       3 -> 18        -0.25445
       3 -> 19         0.21476
       3 -> 20         0.12411
       4 -> 18         0.41111
       4 -> 19         0.16860
       5 -> 17         0.19903
       5 -> 19         0.10553
       5 -> 22        -0.17280

 Excited State  36:      Singlet-A     19.2989 eV   64.24 nm  f=0.0075  <S**2>=0.000
       3 -> 16        -0.10941
       4 -> 17         0.47173
       4 -> 19        -0.10994
       5 -> 18         0.46106
       5 -> 19        -0.15372

 Excited State  37:      Singlet-A     19.2989 eV   64.24 nm  f=0.0075  <S**2>=0.000
       3 -> 17         0.45870
       3 -> 19        -0.15410
       4 -> 16         0.10986
       5 -> 17        -0.16842
       5 -> 18        -0.13683
       5 -> 19        -0.43804

 Excited State  38:      Singlet-A     19.2990 eV   64.24 nm  f=0.0075  <S**2>=0.000
       3 -> 18         0.46284
       3 -> 19        -0.14975
       4 -> 17         0.12492
       4 -> 18         0.14155
       4 -> 19         0.45086
       5 -> 16         0.10934

 Excited State  39:      Singlet-A     19.3748 eV   63.99 nm  f=0.0000  <S**2>=0.000
       2 ->  6         0.64437
       3 -> 21         0.13276
       4 -> 22        -0.12970
       5 -> 20         0.15793

 Excited State  40:      Singlet-A     19.4017 eV   63.90 nm  f=0.0000  <S**2>=0.000
       3 -> 17         0.12120
       3 -> 19        -0.29409
       3 -> 20        -0.29634
       4 -> 19        -0.18613
       4 -> 20        -0.12731
       5 -> 17         0.34351
       5 -> 21         0.17527
       5 -> 22        -0.27300

 Excited State  41:      Singlet-A     19.4017 eV   63.90 nm  f=0.0000  <S**2>=0.000
       3 -> 17         0.12867
       3 -> 21         0.14540
       3 -> 22         0.22232
       4 -> 17        -0.29265
       4 -> 19         0.15206
       4 -> 20        -0.15567
       4 -> 21         0.21104
       4 -> 22        -0.18447
       5 -> 18         0.35234
       5 -> 21        -0.17642
       5 -> 22        -0.11088

 Excited State  42:      Singlet-A     19.4017 eV   63.90 nm  f=0.0000  <S**2>=0.000
       3 -> 18         0.29499
       3 -> 19         0.23117
       3 -> 20        -0.13662
       3 -> 21         0.12046
       3 -> 22         0.14551
       4 -> 17        -0.13578
       4 -> 18         0.19209
       4 -> 19        -0.24229
       4 -> 20         0.25621
       4 -> 21         0.17049
       5 -> 21         0.21811
       5 -> 22         0.13095

 Excited State  43:      Singlet-A     19.4359 eV   63.79 nm  f=0.0000  <S**2>=0.000
       3 -> 18        -0.10976
       3 -> 20        -0.30241
       3 -> 21        -0.17453
       4 -> 18         0.17837
       4 -> 20        -0.23519
       4 -> 21         0.11054
       5 -> 20         0.19552
       5 -> 21        -0.11497
       5 -> 22         0.41161

 Excited State  44:      Singlet-A     19.4360 eV   63.79 nm  f=0.0000  <S**2>=0.000
       3 -> 17         0.14781
       3 -> 20         0.24039
       3 -> 22        -0.30557
       4 -> 21         0.43805
       4 -> 22         0.10150
       5 -> 19         0.18406
       5 -> 20         0.16327
       5 -> 21         0.16063

 Excited State  45:      Singlet-A     19.4929 eV   63.60 nm  f=0.0000  <S**2>=0.000
       3 -> 19        -0.31794
       3 -> 20         0.25721
       4 -> 20         0.23146
       5 -> 17         0.30622
       5 -> 22         0.33603

 Excited State  46:      Singlet-A     19.4929 eV   63.60 nm  f=0.0000  <S**2>=0.000
       3 -> 18        -0.17762
       3 -> 20        -0.18483
       3 -> 22        -0.13889
       4 -> 17        -0.14101
       4 -> 18        -0.16944
       4 -> 19         0.26552
       4 -> 20         0.24488
       4 -> 22         0.12278
       5 -> 17        -0.10014
       5 -> 18         0.22494
       5 -> 21         0.32481

 Excited State  47:      Singlet-A     19.4930 eV   63.60 nm  f=0.0000  <S**2>=0.000
       3 -> 17        -0.13606
       3 -> 18        -0.21375
       3 -> 20        -0.16226
       3 -> 21         0.19331
       3 -> 22         0.24736
       4 -> 17         0.25641
       4 -> 18        -0.10005
       4 -> 19         0.13394
       4 -> 20         0.10544
       4 -> 21         0.27623
       4 -> 22        -0.17379
       5 -> 18        -0.23238
       5 -> 21         0.12246

 Excited State  48:      Singlet-A     19.5859 eV   63.30 nm  f=0.0000  <S**2>=0.000
       3 -> 17        -0.14040
       3 -> 18        -0.11258
       3 -> 19        -0.36669
       4 -> 18         0.38687
       4 -> 19        -0.12826
       5 -> 17        -0.38217
       5 -> 19         0.12636

 Excited State  49:      Singlet-A     20.1952 eV   61.39 nm  f=0.1624  <S**2>=0.000
       3 -> 22         0.27856
       4 -> 20         0.17567
       4 -> 22         0.30269
       5 -> 20         0.46697
       5 -> 22        -0.14597

 Excited State  50:      Singlet-A     20.1952 eV   61.39 nm  f=0.1624  <S**2>=0.000
       3 -> 20         0.24877
       3 -> 21        -0.21427
       3 -> 22         0.24902
       4 -> 20        -0.23829
       4 -> 21        -0.13259
       4 -> 22        -0.19137
       5 -> 21         0.40066

 Excited State  51:      Singlet-A     20.1953 eV   61.39 nm  f=0.1624  <S**2>=0.000
       3 -> 21         0.43540
       4 -> 20        -0.27576
       4 -> 22         0.36852
       5 -> 21         0.13662
       5 -> 22         0.12651
       5 -> 27        -0.11498

 Excited State  52:      Singlet-A     20.2924 eV   61.10 nm  f=0.0000  <S**2>=0.000
       2 ->  6        -0.23556
       3 -> 21         0.26578
       3 -> 22        -0.18011
       3 -> 25        -0.17855
       4 -> 21        -0.18487
       4 -> 22        -0.25954
       4 -> 24        -0.17900
       5 -> 20         0.31559
       5 -> 23        -0.18441

 Excited State  53:      Singlet-A     20.8711 eV   59.40 nm  f=0.0000  <S**2>=0.000
       3 -> 23         0.14885
       4 -> 23        -0.44047
       4 -> 24         0.14929
       5 -> 23         0.13963
       5 -> 24         0.46271

 Excited State  54:      Singlet-A     20.8711 eV   59.40 nm  f=0.0000  <S**2>=0.000
       3 -> 23        -0.44071
       3 -> 25         0.15620
       4 -> 23        -0.11286
       5 -> 23         0.16733
       5 -> 25         0.45352

 Excited State  55:      Singlet-A     20.8712 eV   59.40 nm  f=0.0000  <S**2>=0.000
       3 -> 23        -0.10779
       3 -> 24        -0.43807
       3 -> 25        -0.18551
       4 -> 24        -0.19013
       4 -> 25         0.44425

 Excited State  56:      Singlet-A     20.9491 eV   59.18 nm  f=0.0075  <S**2>=0.000
       2 -> 11        -0.11073
       3 -> 23        -0.10369
       3 -> 24         0.10507
       3 -> 25        -0.15792
       4 -> 23         0.30204
       4 -> 24        -0.19637
       4 -> 25        -0.18040
       5 -> 23         0.41963
       5 -> 24         0.28226

 Excited State  57:      Singlet-A     20.9492 eV   59.18 nm  f=0.0075  <S**2>=0.000
       2 -> 12        -0.10930
       3 -> 23        -0.11794
       3 -> 24         0.18479
       3 -> 25         0.37271
       4 -> 23         0.22402
       4 -> 25         0.17809
       5 -> 23        -0.28136
       5 -> 24         0.32591

 Excited State  58:      Singlet-A     20.9492 eV   59.18 nm  f=0.0075  <S**2>=0.000
       2 -> 10         0.10214
       3 -> 23         0.11297
       3 -> 24         0.37112
       3 -> 25        -0.28802
       4 -> 23         0.18078
       4 -> 24         0.22113
       4 -> 25         0.37016

 Excited State  59:      Singlet-A     21.1529 eV   58.61 nm  f=0.0000  <S**2>=0.000
       3 -> 23         0.31391
       3 -> 24        -0.21735
       4 -> 23         0.25462
       4 -> 25        -0.11262
       5 -> 23        -0.10610
       5 -> 24         0.15493
       5 -> 25         0.48057

 Excited State  60:      Singlet-A     21.1529 eV   58.61 nm  f=0.0000  <S**2>=0.000
       3 -> 23        -0.33836
       3 -> 24        -0.14671
       3 -> 25        -0.21906
       4 -> 24         0.45527
       4 -> 25        -0.17502
       5 -> 23        -0.17765
       5 -> 24         0.15764

 Excited State  61:      Singlet-A     21.9969 eV   56.36 nm  f=0.0194  <S**2>=0.000
       2 ->  7         0.57854
       2 ->  9         0.29443
       4 -> 26         0.12449
       5 -> 27         0.16340

 Excited State  62:      Singlet-A     21.9969 eV   56.36 nm  f=0.0194  <S**2>=0.000
       2 ->  8         0.62355
       2 ->  9         0.18353
       3 -> 26        -0.14221
       3 -> 27        -0.10375

 Excited State  63:      Singlet-A     21.9969 eV   56.36 nm  f=0.0194  <S**2>=0.000
       2 ->  7        -0.29629
       2 ->  8        -0.18051
       2 ->  9         0.55101
       3 -> 27        -0.11331
       4 -> 26        -0.12541

 Excited State  64:      Singlet-A     22.3781 eV   55.40 nm  f=0.0000  <S**2>=0.000
       3 -> 26        -0.19057
       3 -> 27        -0.15709
       4 -> 26        -0.20114
       5 -> 26         0.60281
       5 -> 27         0.14673

 Excited State  65:      Singlet-A     22.3782 eV   55.40 nm  f=0.0000  <S**2>=0.000
       3 -> 26         0.46115
       3 -> 27        -0.26745
       4 -> 26         0.14663
       4 -> 27        -0.28843
       5 -> 26         0.15482
       5 -> 27        -0.28321

 Excited State  66:      Singlet-A     22.3782 eV   55.40 nm  f=0.0000  <S**2>=0.000
       3 -> 27        -0.37727
       4 -> 26         0.18167
       4 -> 27         0.55516

 Excited State  67:      Singlet-A     22.4104 eV   55.32 nm  f=0.0000  <S**2>=0.000
       2 ->  6        -0.15836
       2 -> 15        -0.14140
       3 -> 21         0.14110
       3 -> 24        -0.14731
       3 -> 25         0.29843
       4 -> 22        -0.13783
       4 -> 23         0.12603
       4 -> 24         0.29910
       4 -> 25         0.11198
       5 -> 20         0.16775
       5 -> 23         0.30797
       5 -> 25        -0.12762

 Excited State  68:      Singlet-A     22.6987 eV   54.62 nm  f=0.0740  <S**2>=0.000
       2 -> 10         0.62554
       2 -> 11         0.24820
       5 -> 27         0.14015

 Excited State  69:      Singlet-A     22.6988 eV   54.62 nm  f=0.0740  <S**2>=0.000
       2 -> 10        -0.23731
       2 -> 11         0.60026
       2 -> 12        -0.19044

 The electronic state is 1-A.
 Alpha  occ. eigenvalues --  -10.53510  -0.77701  -0.45517  -0.45517  -0.45517
 Alpha virt. eigenvalues --    0.04673   0.15453   0.15453   0.15453   0.18821
 Alpha virt. eigenvalues --    0.18821   0.18821   0.20575   0.20575   0.31269
 Alpha virt. eigenvalues --    0.36081   0.37960   0.37960   0.37961   0.40140

 Mulliken charges:
               1
     1  C    0.149098
     2  H   -0.037256
     3  H   -0.037288
     4  H   -0.037296
     5  H   -0.037258
 Sum of Mulliken charges =  -0.00000

 Dipole moment (field-independent basis, Debye):
    X=             -0.0000    Y=             -0.0000    Z=             -0.0000  Tot=              0.0000
 Quadrupole moment (field-independent basis, Debye-Ang):
   XX=             -8.4061   YY=             -8.4061   ZZ=             -8.4062
   XY=             -0.0000   XZ=              0.0000   YZ=             -0.0000

 Normal termination of Gaussian 16 at Mon Mar 21 20:01:50 2022.
