 Gaussian 16, Revision C.01,
 Gaussian 16:  EM64L-G16RevC.01  3-Jul-2019

 ---------------------------------------------------------------------
 #P TD(Nstates=10000) m062x/Gen SCF(maxcycles=100) Int(Grid=ultrafine)
 ---------------------------------------------------------------------

 ---------------------
 xGDB7_00001_tier4.com
 ---------------------
 Symbolic Z-matrix:
 Charge =  0 Multiplicity = 1

                         Standard orientation:
 ---------------------------------------------------------------------
 Center     Atomic      Atomic             Coordinates (Angstroms)
 Number     Number       Type             X           Y           Z
 ---------------------------------------------------------------------
      1          6           0        0.000000    0.865978    0.000000
      2          6           0        0.749967   -0.432983    0.000000
      3          6           0       -0.749954   -0.432999    0.000000
      4          1           0       -0.000033    1.451806   -0.909176
      5          1           0       -0.000033    1.451806    0.909176
      6          1           0        1.257295   -0.725894    0.909177
      7          1           0        1.257295   -0.725894   -0.909177
      8          1           0       -1.257302   -0.725899    0.909179
      9          1           0       -1.257302   -0.725899   -0.909179
 ---------------------------------------------------------------------

 SCF Done:  E(RM062X) =  -117.749279702     A.U. after   11 cycles

 Excitation energies and oscillator strengths:

 Excited State   1:      Singlet-A'     8.1589 eV  151.96 nm  f=0.0001  <S**2>=0.000
      12 -> 13         0.68797
 This state for optimization and/or second-order correction.
 Total Energy, E(TD-HF/TD-DFT) =  -117.449443990
 Copying the excited state density for this state as the 1-particle RhoCI density.

 Excited State   2:      Singlet-A'     8.1591 eV  151.96 nm  f=0.0001  <S**2>=0.000
      11 -> 13         0.68797

 Excited State   3:      Singlet-A'     8.7808 eV  141.20 nm  f=0.0000  <S**2>=0.000
      11 -> 14         0.46616
      11 -> 15        -0.16521
      12 -> 14         0.16544
      12 -> 15         0.46670

 Excited State   4:      Singlet-A'     8.8955 eV  139.38 nm  f=0.0000  <S**2>=0.000
      11 -> 14        -0.16373
      11 -> 15        -0.45842
      12 -> 14         0.46971
      12 -> 15        -0.16525

 Excited State   5:      Singlet-A'     8.9048 eV  139.23 nm  f=0.1043  <S**2>=0.000
      11 -> 14         0.42687
      11 -> 15         0.24296
      12 -> 14         0.23655
      12 -> 15        -0.42422

 Excited State   6:      Singlet-A'     8.9048 eV  139.23 nm  f=0.1043  <S**2>=0.000
      11 -> 14        -0.23847
      11 -> 15         0.42992
      12 -> 14         0.42112
      12 -> 15         0.24109

 Excited State   7:      Singlet-A"     9.0757 eV  136.61 nm  f=0.0000  <S**2>=0.000
      12 -> 16         0.69219

 Excited State   8:      Singlet-A"     9.0759 eV  136.61 nm  f=0.0000  <S**2>=0.000
      11 -> 16         0.69219

 Excited State   9:      Singlet-A"     9.9974 eV  124.02 nm  f=0.0000  <S**2>=0.000
       9 -> 15        -0.16768
      10 -> 13         0.64987
      10 -> 14         0.16770

 Excited State  10:      Singlet-A"     9.9975 eV  124.01 nm  f=0.0000  <S**2>=0.000
       9 -> 13         0.64986
       9 -> 14        -0.16771
      10 -> 15        -0.16772

 Excited State  11:      Singlet-A'    10.2445 eV  121.02 nm  f=0.0073  <S**2>=0.000
      12 -> 13        -0.11008
      12 -> 17         0.68469

 Excited State  12:      Singlet-A'    10.2447 eV  121.02 nm  f=0.0073  <S**2>=0.000
      11 -> 13        -0.11008
      11 -> 17         0.68469

 Excited State  13:      Singlet-A"    10.6736 eV  116.16 nm  f=0.1975  <S**2>=0.000
       9 -> 14        -0.47143
       9 -> 15         0.14031
      10 -> 14         0.14041
      10 -> 15         0.47147

 Excited State  14:      Singlet-A"    10.8983 eV  113.76 nm  f=0.0000  <S**2>=0.000
       9 -> 13         0.13345
       9 -> 14         0.31661
       9 -> 15        -0.32734
      10 -> 13        -0.18028
      10 -> 14         0.33100
      10 -> 15         0.31540
      10 -> 17        -0.10773

 Excited State  15:      Singlet-A"    10.8983 eV  113.76 nm  f=0.0000  <S**2>=0.000
       9 -> 13         0.18029
       9 -> 14         0.32865
       9 -> 15         0.31435
       9 -> 17         0.10773
      10 -> 13         0.13340
      10 -> 14        -0.31767
      10 -> 15         0.32969

 Excited State  16:      Singlet-A"    10.9097 eV  113.65 nm  f=0.0000  <S**2>=0.000
       9 -> 14         0.13790
       9 -> 15         0.46586
      10 -> 14         0.46096
      10 -> 15        -0.13804

 Excited State  17:      Singlet-A'    10.9803 eV  112.92 nm  f=0.2869  <S**2>=0.000
      10 -> 16         0.16318
      11 -> 20        -0.20602
      12 -> 20         0.61292

 Excited State  18:      Singlet-A'    10.9804 eV  112.91 nm  f=0.2869  <S**2>=0.000
       9 -> 16        -0.16317
      11 -> 20         0.61292
      12 -> 20         0.20602

 Excited State  19:      Singlet-A"    11.2750 eV  109.96 nm  f=0.0000  <S**2>=0.000
      11 -> 18        -0.49095
      12 -> 19         0.49135

 Excited State  20:      Singlet-A'    11.3632 eV  109.11 nm  f=0.0736  <S**2>=0.000
      10 -> 16         0.66478
      12 -> 20        -0.17479

 Excited State  21:      Singlet-A'    11.3633 eV  109.11 nm  f=0.0736  <S**2>=0.000
       9 -> 16         0.66478
      11 -> 20         0.17480

 Excited State  22:      Singlet-A"    11.4271 eV  108.50 nm  f=0.0000  <S**2>=0.000
      11 -> 18         0.14336
      11 -> 19        -0.46810
      12 -> 18         0.46940
      12 -> 19         0.14301

 Excited State  23:      Singlet-A"    11.4272 eV  108.50 nm  f=0.0000  <S**2>=0.000
      11 -> 18         0.46891
      11 -> 19         0.14296
      12 -> 18        -0.14341
      12 -> 19         0.46859

 Excited State  24:      Singlet-A"    11.5129 eV  107.69 nm  f=0.0104  <S**2>=0.000
      11 -> 19         0.48832
      12 -> 18         0.48693

 Excited State  25:      Singlet-A'    11.8519 eV  104.61 nm  f=0.0000  <S**2>=0.000
      11 -> 21         0.22984
      11 -> 22         0.40450
      11 -> 23        -0.13837
      12 -> 21         0.40698
      12 -> 22        -0.23053
      12 -> 24        -0.13882

 Excited State  26:      Singlet-A'    11.8923 eV  104.26 nm  f=0.0236  <S**2>=0.000
      11 -> 21         0.44361
      11 -> 22        -0.15626
      12 -> 21         0.15620
      12 -> 22         0.44384

 Excited State  27:      Singlet-A'    11.8924 eV  104.26 nm  f=0.0236  <S**2>=0.000
      11 -> 21         0.15694
      11 -> 22         0.44479
      12 -> 21        -0.44267
      12 -> 22         0.15553

 Excited State  28:      Singlet-A"    12.1567 eV  101.99 nm  f=0.0000  <S**2>=0.000
       9 -> 17         0.39934
       9 -> 20        -0.22371
      10 -> 17        -0.33901
      10 -> 20        -0.26389
      11 -> 25        -0.17938
      12 -> 25         0.19071

 Excited State  29:      Singlet-A"    12.1567 eV  101.99 nm  f=0.0000  <S**2>=0.000
       9 -> 17         0.33891
       9 -> 20         0.26351
      10 -> 17         0.39957
      10 -> 20        -0.22382
      11 -> 25         0.19070
      12 -> 25         0.17946

 Excited State  30:      Singlet-A'    12.1971 eV  101.65 nm  f=0.0000  <S**2>=0.000
       7 -> 16        -0.11210
       9 -> 18         0.16034
      10 -> 19         0.16034
      11 -> 21         0.38832
      11 -> 22        -0.22039
      12 -> 21        -0.22015
      12 -> 22        -0.38820

 Excited State  31:      Singlet-A"    12.2453 eV  101.25 nm  f=0.0000  <S**2>=0.000
       9 -> 17         0.26767
       9 -> 20         0.21352
      10 -> 17        -0.10500
      10 -> 20         0.54409
      12 -> 25         0.15981

 Excited State  32:      Singlet-A"    12.2454 eV  101.25 nm  f=0.0000  <S**2>=0.000
       9 -> 17        -0.10494
       9 -> 20         0.54431
      10 -> 17        -0.26738
      10 -> 20        -0.21353
      11 -> 25        -0.15955

 Excited State  33:      Singlet-A'    12.5152 eV   99.07 nm  f=0.0000  <S**2>=0.000
      11 -> 22         0.14359
      11 -> 23         0.40410
      11 -> 24        -0.22660
      12 -> 21         0.14362
      12 -> 23         0.22675
      12 -> 24         0.40436

 Excited State  34:      Singlet-A"    12.5271 eV   98.97 nm  f=0.0000  <S**2>=0.000
       9 -> 17        -0.31717
      12 -> 25         0.61829

 Excited State  35:      Singlet-A"    12.5272 eV   98.97 nm  f=0.0000  <S**2>=0.000
      10 -> 17        -0.31699
      11 -> 25         0.61839

 Excited State  36:      Singlet-A'    12.7564 eV   97.19 nm  f=0.0001  <S**2>=0.000
      11 -> 23        -0.22624
      11 -> 24        -0.39944
      12 -> 23         0.43505
      12 -> 24        -0.24170

 Excited State  37:      Singlet-A'    12.7590 eV   97.17 nm  f=0.0426  <S**2>=0.000
      11 -> 23        -0.42420
      11 -> 24         0.20436
      12 -> 23         0.20293
      12 -> 24         0.42467

 Excited State  38:      Singlet-A'    12.7590 eV   97.17 nm  f=0.0426  <S**2>=0.000
      11 -> 23         0.21314
      11 -> 24         0.44126
      12 -> 23         0.40685
      12 -> 24        -0.19385

 Excited State  39:      Singlet-A"    12.9815 eV   95.51 nm  f=0.0000  <S**2>=0.000
      11 -> 26        -0.48854
      12 -> 27         0.48951

 Excited State  40:      Singlet-A"    12.9815 eV   95.51 nm  f=0.0000  <S**2>=0.000
      11 -> 27         0.48846
      12 -> 26         0.48959

 Excited State  41:      Singlet-A"    13.0426 eV   95.06 nm  f=0.0653  <S**2>=0.000
      11 -> 26         0.43834
      11 -> 27        -0.17928
      12 -> 26         0.17879
      12 -> 27         0.43739

 Excited State  42:      Singlet-A"    13.0805 eV   94.79 nm  f=0.0000  <S**2>=0.000
      11 -> 26         0.18520
      11 -> 27         0.45306
      12 -> 26        -0.45203
      12 -> 27         0.18487

 Excited State  43:      Singlet-A'    13.2320 eV   93.70 nm  f=0.0000  <S**2>=0.000
       8 -> 13         0.64843
       9 -> 18        -0.16848
      10 -> 19        -0.16849

 Excited State  44:      Singlet-A'    13.3770 eV   92.68 nm  f=0.1817  <S**2>=0.000
       9 -> 18        -0.12212
      10 -> 19         0.12211
      12 -> 28         0.64959

 Excited State  45:      Singlet-A'    13.3772 eV   92.68 nm  f=0.1817  <S**2>=0.000
       9 -> 19         0.12215
      10 -> 18         0.12223
      11 -> 28         0.64956

 Excited State  46:      Singlet-A'    13.6291 eV   90.97 nm  f=0.0038  <S**2>=0.000
       9 -> 18        -0.45917
      10 -> 19         0.45921
      12 -> 28        -0.14342

 Excited State  47:      Singlet-A'    13.6291 eV   90.97 nm  f=0.0038  <S**2>=0.000
       9 -> 19         0.45781
      10 -> 18         0.46055
      11 -> 28        -0.14353

 Excited State  48:      Singlet-A'    13.6553 eV   90.80 nm  f=0.0000  <S**2>=0.000
       9 -> 19         0.47434
       9 -> 26         0.13427
      10 -> 18        -0.47167
      10 -> 27        -0.13429

 Excited State  49:      Singlet-A"    13.7210 eV   90.36 nm  f=0.0000  <S**2>=0.000
       9 -> 15        -0.10164
       9 -> 21         0.39536
       9 -> 22        -0.25141
      10 -> 14        -0.10171
      10 -> 21         0.25247
      10 -> 22         0.39545

 Excited State  50:      Singlet-A"    13.7667 eV   90.06 nm  f=0.0000  <S**2>=0.000
       7 -> 15         0.19530
       9 -> 21         0.42241
       9 -> 22        -0.15726
      10 -> 21        -0.15700
      10 -> 22        -0.42201

 Excited State  51:      Singlet-A"    13.7667 eV   90.06 nm  f=0.0000  <S**2>=0.000
       7 -> 14        -0.19531
       9 -> 21         0.15666
       9 -> 22         0.42240
      10 -> 21         0.42202
      10 -> 22        -0.15759

 Excited State  52:      Singlet-A'    13.8025 eV   89.83 nm  f=0.2388  <S**2>=0.000
       8 -> 14         0.68204

 Excited State  53:      Singlet-A'    13.8026 eV   89.83 nm  f=0.2388  <S**2>=0.000
       8 -> 15         0.68205

 Excited State  54:      Singlet-A"    14.0109 eV   88.49 nm  f=0.0074  <S**2>=0.000
       7 -> 13         0.15534
       8 -> 16         0.43219
       9 -> 21         0.17714
       9 -> 22         0.27803
       9 -> 23        -0.13734
      10 -> 21        -0.27790
      10 -> 22         0.17708
      10 -> 24         0.13732

 Excited State  55:      Singlet-A'    14.0368 eV   88.33 nm  f=0.0000  <S**2>=0.000
       8 -> 13         0.21077
       8 -> 17         0.13314
       9 -> 18         0.42555
      10 -> 19         0.42551
      11 -> 21        -0.13501
      12 -> 22         0.13500

 Excited State  56:      Singlet-A"    14.1614 eV   87.55 nm  f=0.1396  <S**2>=0.000
       7 -> 13         0.57161
       8 -> 16         0.14895
       9 -> 21        -0.13573
       9 -> 22        -0.21304
      10 -> 21         0.21298
      10 -> 22        -0.13572

 Excited State  57:      Singlet-A"    14.1946 eV   87.35 nm  f=0.1950  <S**2>=0.000
       7 -> 13        -0.35006
       8 -> 16         0.46965
       9 -> 21        -0.13859
       9 -> 22        -0.21752
      10 -> 21         0.21747
      10 -> 22        -0.13857

 Excited State  58:      Singlet-A'    14.6699 eV   84.52 nm  f=0.0000  <S**2>=0.000
       8 -> 20         0.31787
       9 -> 26        -0.21361
      10 -> 27         0.21364
      11 -> 29        -0.16983
      11 -> 30         0.32165
      12 -> 29         0.32210
      12 -> 30         0.16989

 Excited State  59:      Singlet-A'    14.7163 eV   84.25 nm  f=0.1647  <S**2>=0.000
      10 -> 25         0.62131
      11 -> 30        -0.19485
      12 -> 29         0.19433

 Excited State  60:      Singlet-A'    14.7163 eV   84.25 nm  f=0.1648  <S**2>=0.000
       9 -> 25         0.62130
      11 -> 29         0.19464
      12 -> 30         0.19457

 Excited State  61:      Singlet-A"    14.7257 eV   84.20 nm  f=0.0000  <S**2>=0.000
       9 -> 23         0.19497
       9 -> 24        -0.43876
      10 -> 23         0.43904
      10 -> 24         0.19501

 Excited State  62:      Singlet-A"    14.7257 eV   84.20 nm  f=0.0000  <S**2>=0.000
       9 -> 23         0.43883
       9 -> 24         0.19493
      10 -> 23        -0.19506
      10 -> 24         0.43897

 Excited State  63:      Singlet-A'    14.7808 eV   83.88 nm  f=0.0000  <S**2>=0.000
       8 -> 20        -0.26196
       9 -> 19         0.12741
       9 -> 26        -0.38752
       9 -> 27         0.13573
      10 -> 18        -0.12741
      10 -> 26         0.13574
      10 -> 27         0.38760
      11 -> 30        -0.13782
      12 -> 29        -0.13784

 Excited State  64:      Singlet-A"    14.8827 eV   83.31 nm  f=1.0050  <S**2>=0.000
       8 -> 16         0.22537
       9 -> 23         0.39946
       9 -> 24        -0.19783
      10 -> 23        -0.19775
      10 -> 24        -0.39935

 Excited State  65:      Singlet-A"    14.8924 eV   83.25 nm  f=0.0000  <S**2>=0.000
       7 -> 14         0.65829
       9 -> 22         0.10950
      10 -> 21         0.10951

 Excited State  66:      Singlet-A"    14.8924 eV   83.25 nm  f=0.0000  <S**2>=0.000
       7 -> 15         0.65829
       9 -> 21        -0.10952
      10 -> 22         0.10947

 Excited State  67:      Singlet-A"    14.9337 eV   83.02 nm  f=0.0000  <S**2>=0.000
       9 -> 23         0.21361
       9 -> 24         0.43145
      10 -> 23         0.43116
      10 -> 24        -0.21356

 Excited State  68:      Singlet-A'    15.1009 eV   82.10 nm  f=0.4269  <S**2>=0.000
       9 -> 26         0.39100
       9 -> 27         0.28447
      10 -> 26        -0.28494
      10 -> 27         0.39112

 Excited State  69:      Singlet-A'    15.1009 eV   82.10 nm  f=0.4270  <S**2>=0.000
       9 -> 26         0.28477
       9 -> 27        -0.39095
      10 -> 26         0.39117
      10 -> 27         0.28464

 Excited State  70:      Singlet-A'    15.1106 eV   82.05 nm  f=0.0000  <S**2>=0.000
       7 -> 16        -0.34681
       8 -> 17         0.53757
       9 -> 27         0.10413
      10 -> 26         0.10293
      11 -> 29         0.11556
      12 -> 30        -0.11555

 Excited State  71:      Singlet-A"    15.2214 eV   81.45 nm  f=0.0000  <S**2>=0.000
      10 -> 28         0.67702

 Excited State  72:      Singlet-A"    15.2215 eV   81.45 nm  f=0.0000  <S**2>=0.000
       9 -> 28         0.67702

 Excited State  73:      Singlet-A'    15.3099 eV   80.98 nm  f=0.0000  <S**2>=0.000
       8 -> 17        -0.22065
       9 -> 26         0.15401
       9 -> 27         0.43977
      10 -> 26         0.43955
      10 -> 27        -0.15395

 Excited State  74:      Singlet-A'    15.3136 eV   80.96 nm  f=0.0000  <S**2>=0.000
       8 -> 20         0.55500
      11 -> 29         0.12752
      11 -> 30        -0.24141
      12 -> 29        -0.24191
      12 -> 30        -0.12754

 Excited State  75:      Singlet-A'    15.3892 eV   80.57 nm  f=0.2693  <S**2>=0.000
       9 -> 25         0.16023
      10 -> 25         0.16170
      11 -> 29        -0.25790
      11 -> 30         0.27896
      11 -> 31        -0.21112
      11 -> 34         0.10321
      12 -> 29        -0.27856
      12 -> 30        -0.25791
      12 -> 31        -0.23203

 Excited State  76:      Singlet-A'    15.3892 eV   80.57 nm  f=0.2693  <S**2>=0.000
       9 -> 25        -0.16168
      10 -> 25         0.16023
      11 -> 29         0.27805
      11 -> 30         0.25777
      11 -> 31        -0.23185
      12 -> 29        -0.25818
      12 -> 30         0.27935
      12 -> 31         0.21131
      12 -> 34        -0.10325

 Excited State  77:      Singlet-A'    15.4164 eV   80.42 nm  f=0.0000  <S**2>=0.000
       8 -> 17        -0.20999
      11 -> 29         0.40811
      11 -> 30         0.21542
      12 -> 29         0.21484
      12 -> 30        -0.40721

 Excited State  78:      Singlet-A'    15.5797 eV   79.58 nm  f=0.0984  <S**2>=0.000
       9 -> 25         0.12395
      11 -> 29        -0.19694
      12 -> 30        -0.19690
      12 -> 31         0.60772

 Excited State  79:      Singlet-A'    15.5799 eV   79.58 nm  f=0.0983  <S**2>=0.000
      10 -> 25         0.12386
      11 -> 30         0.19683
      11 -> 31         0.60786
      12 -> 29        -0.19667

 Excited State  80:      Singlet-A'    15.7520 eV   78.71 nm  f=0.0000  <S**2>=0.000
       7 -> 16         0.57799
       8 -> 17         0.27571
       9 -> 27         0.10760
      10 -> 26         0.10758

 Excited State  81:      Singlet-A"    15.9119 eV   77.92 nm  f=0.0000  <S**2>=0.000
       7 -> 20         0.65388
       7 -> 34         0.11509
       9 -> 29         0.11502
      10 -> 30         0.11503

 Excited State  82:      Singlet-A"    16.2121 eV   76.48 nm  f=0.0000  <S**2>=0.000
       5 -> 16        -0.13114
       8 -> 18         0.48687
      12 -> 33        -0.46367

 Excited State  83:      Singlet-A"    16.2122 eV   76.48 nm  f=0.0000  <S**2>=0.000
       6 -> 16        -0.13120
       8 -> 19         0.48714
      11 -> 33        -0.46334

 Excited State  84:      Singlet-A'    16.2292 eV   76.40 nm  f=0.0000  <S**2>=0.000
       6 -> 13        -0.15983
       8 -> 21         0.23304
       8 -> 22        -0.20908
      11 -> 34        -0.11971
      12 -> 34         0.54752

 Excited State  85:      Singlet-A'    16.2293 eV   76.40 nm  f=0.0000  <S**2>=0.000
       5 -> 13         0.15982
       8 -> 21         0.20912
       8 -> 22         0.23305
      11 -> 34         0.54750
      12 -> 34         0.11969

 Excited State  86:      Singlet-A"    16.3134 eV   76.00 nm  f=0.1141  <S**2>=0.000
       7 -> 17         0.66981
       8 -> 25         0.13713

 Excited State  87:      Singlet-A"    16.3135 eV   76.00 nm  f=0.0008  <S**2>=0.000
       8 -> 18         0.42837
      11 -> 32        -0.18275
      12 -> 33         0.50090

 Excited State  88:      Singlet-A"    16.3136 eV   76.00 nm  f=0.0000  <S**2>=0.000
       8 -> 19         0.42940
      11 -> 33         0.50283
      12 -> 32         0.18375

 Excited State  89:      Singlet-A"    16.4267 eV   75.48 nm  f=0.0000  <S**2>=0.000
       8 -> 19        -0.16538
      12 -> 32         0.67205

 Excited State  90:      Singlet-A"    16.4269 eV   75.48 nm  f=0.0000  <S**2>=0.000
       8 -> 18         0.16508
      11 -> 32         0.67217

 Excited State  91:      Singlet-A'    16.9535 eV   73.13 nm  f=0.0568  <S**2>=0.000
       6 -> 13         0.38199
       7 -> 19         0.14435
       8 -> 21         0.48882
       8 -> 22        -0.14684
      12 -> 34        -0.14809

 Excited State  92:      Singlet-A'    16.9536 eV   73.13 nm  f=0.0568  <S**2>=0.000
       5 -> 13        -0.38192
       7 -> 18        -0.14442
       8 -> 21         0.14684
       8 -> 22         0.48883
      11 -> 34        -0.14815

 Excited State  93:      Singlet-A"    17.0041 eV   72.91 nm  f=0.1176  <S**2>=0.000
       9 -> 29         0.20303
       9 -> 30        -0.43772
      10 -> 29         0.43802
      10 -> 30         0.20319

 Excited State  94:      Singlet-A"    17.1495 eV   72.30 nm  f=0.0000  <S**2>=0.000
       9 -> 29        -0.44353
       9 -> 34        -0.10709
      10 -> 30         0.44353
      10 -> 31        -0.21247

 Excited State  95:      Singlet-A"    17.1495 eV   72.30 nm  f=0.0000  <S**2>=0.000
       9 -> 30         0.44363
       9 -> 31         0.21247
      10 -> 29         0.44342
      10 -> 34        -0.10712

 Excited State  96:      Singlet-A'    17.1608 eV   72.25 nm  f=0.0092  <S**2>=0.000
       5 -> 13         0.20563
       5 -> 15        -0.17140
       6 -> 13         0.44025
       6 -> 14         0.17145
       7 -> 18        -0.13106
       7 -> 19        -0.24883
       8 -> 22         0.13395
       8 -> 24        -0.14137
      12 -> 34         0.18682

 Excited State  97:      Singlet-A'    17.1609 eV   72.25 nm  f=0.0092  <S**2>=0.000
       5 -> 13         0.44028
       5 -> 14        -0.17141
       6 -> 13        -0.20560
       6 -> 15        -0.17143
       7 -> 18        -0.24887
       7 -> 19         0.13107
       8 -> 21         0.13392
       8 -> 23         0.14138
      11 -> 34        -0.18680

 Excited State  98:      Singlet-A"    17.4864 eV   70.90 nm  f=0.0000  <S**2>=0.000
       7 -> 20        -0.19889
       9 -> 29         0.42475
       9 -> 30         0.19703
      10 -> 29        -0.19696
      10 -> 30         0.42463

 Excited State  99:      Singlet-A'    17.5214 eV   70.76 nm  f=0.0000  <S**2>=0.000
       5 -> 15        -0.13546

 The electronic state is 1-A'.
 Alpha  occ. eigenvalues --  -10.54994 -10.54939 -10.54939  -0.94433  -0.67349
 Alpha  occ. eigenvalues --   -0.67349  -0.56978  -0.53423  -0.42438  -0.42438
 Alpha  occ. eigenvalues --   -0.35398  -0.35397
 Alpha virt. eigenvalues --    0.04837   0.06719   0.06719   0.10026   0.13155
 Alpha virt. eigenvalues --    0.16766   0.16767   0.16932   0.19704   0.19704
 Alpha virt. eigenvalues --    0.22114   0.22114   0.22577   0.23357   0.23357

 Mulliken charges:
               1
     1  C    0.441183
     2  C    0.441245
     3  C    0.441149
     4  H   -0.220600
     5  H   -0.220600
     6  H   -0.220597
     7  H   -0.220597
     8  H   -0.220591
     9  H   -0.220591
 Sum of Mulliken charges =  -0.00000

 Dipole moment (field-independent basis, Debye):
    X=             -0.0000    Y=              0.0000    Z=              0.0000  Tot=              0.0001
 Quadrupole moment (field-independent basis, Debye-Ang):
   XX=            -20.7605   YY=            -20.7605   ZZ=            -18.5166
   XY=             -0.0001   XZ=              0.0000   YZ=             -0.0000

 Normal termination of Gaussian 16 at Mon Mar 21 20:10:58 2022.
