 Gaussian 16, Revision C.01,
 Gaussian 16:  EM64L-G16RevC.01  3-Jul-2019

 ---------------------------------------------------------------------
 #P TD(Nstates=10000) m062x/Gen SCF(maxcycles=100) Int(Grid=ultrafine)
 ---------------------------------------------------------------------

 ---------------------
 xGDB7_00001_tier4.com
 ---------------------
 Symbolic Z-matrix:
 Charge =  0 Multiplicity = 1

                         Standard orientation:
 ---------------------------------------------------------------------
 Center     Atomic      Atomic             Coordinates (Angstroms)
 Number     Number       Type             X           Y           Z
 ---------------------------------------------------------------------
      1          6           0        0.000000    1.163894   -0.193136
      2          8           0       -0.000000   -0.000000    0.585449
      3          6           0       -0.000000   -1.163894   -0.193136
      4          1           0        0.000000    2.015478    0.485827
      5          1           0       -0.890390    1.219204   -0.834404
      6          1           0        0.890390    1.219204   -0.834404
      7          1           0       -0.000000   -2.015478    0.485827
      8          1           0        0.890390   -1.219204   -0.834404
      9          1           0       -0.890390   -1.219204   -0.834404
 ---------------------------------------------------------------------

 SCF Done:  E(RM062X) =  -154.837056969     A.U. after   12 cycles

 Excitation energies and oscillator strengths:

 Excited State   1:      Singlet-B1     7.3971 eV  167.61 nm  f=0.0280  <S**2>=0.000
      13 -> 14         0.66664
      13 -> 16        -0.13972
      13 -> 18        -0.17084
 This state for optimization and/or second-order correction.
 Total Energy, E(TD-HF/TD-DFT) =  -154.565219829
 Copying the excited state density for this state as the 1-particle RhoCI density.

 Excited State   2:      Singlet-B1     8.3529 eV  148.43 nm  f=0.0275  <S**2>=0.000
      13 -> 14         0.20941
      13 -> 16         0.55200
      13 -> 18         0.35259

 Excited State   3:      Singlet-A2     8.3628 eV  148.26 nm  f=0.0000  <S**2>=0.000
      13 -> 15         0.69525

 Excited State   4:      Singlet-B1     9.0451 eV  137.07 nm  f=0.0362  <S**2>=0.000
      13 -> 16        -0.39920
      13 -> 18         0.56879

 Excited State   5:      Singlet-A1     9.0577 eV  136.88 nm  f=0.0066  <S**2>=0.000
      12 -> 14        -0.41803
      12 -> 16         0.10075
      12 -> 18         0.10643
      13 -> 17         0.54193

 Excited State   6:      Singlet-A1     9.0704 eV  136.69 nm  f=0.0575  <S**2>=0.000
      12 -> 14         0.50796
      12 -> 16        -0.14337
      13 -> 17         0.44534

 Excited State   7:      Singlet-A2     9.6775 eV  128.12 nm  f=0.0000  <S**2>=0.000
      13 -> 19         0.67868
      13 -> 28        -0.10313

 Excited State   8:      Singlet-B2     9.8517 eV  125.85 nm  f=0.0028  <S**2>=0.000
      11 -> 14         0.33533
      12 -> 15         0.60980

 Excited State   9:      Singlet-A1     9.9949 eV  124.05 nm  f=0.0461  <S**2>=0.000
      12 -> 14         0.19684
      12 -> 16         0.54916
      12 -> 18         0.29853
      13 -> 20         0.19696

 Excited State  10:      Singlet-B1    10.0215 eV  123.72 nm  f=0.0029  <S**2>=0.000
      13 -> 21         0.67595
      13 -> 23         0.16136

 Excited State  11:      Singlet-A1    10.3702 eV  119.56 nm  f=0.0916  <S**2>=0.000
      11 -> 15        -0.10188
      12 -> 16        -0.15094
      13 -> 20         0.66138

 Excited State  12:      Singlet-B2    10.5372 eV  117.66 nm  f=0.0420  <S**2>=0.000
      11 -> 14         0.56275
      11 -> 16        -0.10717
      11 -> 18        -0.18675
      12 -> 15        -0.32899

 Excited State  13:      Singlet-B1    10.6662 eV  116.24 nm  f=0.0527  <S**2>=0.000
      12 -> 17         0.69945

 Excited State  14:      Singlet-A2    10.7413 eV  115.43 nm  f=0.0000  <S**2>=0.000
      10 -> 14         0.62900
      10 -> 18        -0.20837
      13 -> 24        -0.15078

 Excited State  15:      Singlet-A1    10.8095 eV  114.70 nm  f=0.0089  <S**2>=0.000
      11 -> 15         0.10461
      12 -> 16        -0.35060
      12 -> 18         0.59174

 Excited State  16:      Singlet-B2    10.8242 eV  114.54 nm  f=0.1298  <S**2>=0.000
      11 -> 14         0.10401
      13 -> 22         0.67297
      13 -> 25        -0.11977

 Excited State  17:      Singlet-B1    11.1161 eV  111.54 nm  f=0.0042  <S**2>=0.000
      13 -> 21        -0.17465
      13 -> 23         0.66120

 Excited State  18:      Singlet-B2    11.1833 eV  110.87 nm  f=0.0123  <S**2>=0.000
      11 -> 14        -0.16452
      11 -> 16        -0.32367
      11 -> 18        -0.18557
      12 -> 19         0.54461

 Excited State  19:      Singlet-A1    11.3649 eV  109.09 nm  f=0.0224  <S**2>=0.000
       9 -> 14        -0.12422
      11 -> 15         0.65617
      12 -> 14        -0.12202
      12 -> 18        -0.12199

 Excited State  20:      Singlet-A2    11.4080 eV  108.68 nm  f=0.0000  <S**2>=0.000
      10 -> 14         0.22048
      10 -> 18         0.14193
      13 -> 24         0.59222
      13 -> 27        -0.19159

 Excited State  21:      Singlet-B2    11.6627 eV  106.31 nm  f=0.0584  <S**2>=0.000
      11 -> 16         0.20501
      11 -> 18         0.24196
      12 -> 19         0.26367
      13 -> 22         0.12611
      13 -> 25         0.53710

 Excited State  22:      Singlet-B1    11.7084 eV  105.89 nm  f=0.0138  <S**2>=0.000
      10 -> 15         0.16014
      12 -> 20         0.67306

 Excited State  23:      Singlet-B2    11.7266 eV  105.73 nm  f=0.1926  <S**2>=0.000
      11 -> 14        -0.11435
      11 -> 16        -0.22784
      11 -> 18        -0.37799
      12 -> 19        -0.29679
      13 -> 25         0.41569

 Excited State  24:      Singlet-B1    11.7693 eV  105.35 nm  f=0.1367  <S**2>=0.000
       7 -> 14        -0.14253
      10 -> 15         0.65275
      12 -> 20        -0.15909

 Excited State  25:      Singlet-A1    11.8202 eV  104.89 nm  f=0.0845  <S**2>=0.000
      12 -> 21         0.68088
      12 -> 23         0.11233

 Excited State  26:      Singlet-A2    11.8912 eV  104.27 nm  f=0.0000  <S**2>=0.000
      11 -> 17         0.59562
      12 -> 22        -0.32891

 Excited State  27:      Singlet-A2    11.9536 eV  103.72 nm  f=0.0000  <S**2>=0.000
      10 -> 16        -0.29836
      10 -> 18        -0.13977
      13 -> 19        -0.12248
      13 -> 24         0.30341
      13 -> 27         0.42463
      13 -> 28        -0.20405
      13 -> 33         0.11322

 Excited State  28:      Singlet-A2    12.1076 eV  102.40 nm  f=0.0000  <S**2>=0.000
      10 -> 16         0.44358
      10 -> 18         0.31269
      13 -> 27         0.35080
      13 -> 28        -0.10905

 Excited State  29:      Singlet-B2    12.2283 eV  101.39 nm  f=0.0855  <S**2>=0.000
      10 -> 17        -0.13650
      11 -> 16         0.50554
      11 -> 18        -0.42142
      12 -> 19         0.11872

 Excited State  30:      Singlet-A1    12.4584 eV   99.52 nm  f=0.0158  <S**2>=0.000
      11 -> 19        -0.12559
      12 -> 23         0.25737
      13 -> 26         0.61342

 Excited State  31:      Singlet-A2    12.5227 eV   99.01 nm  f=0.0000  <S**2>=0.000
      10 -> 16         0.20805
      11 -> 17         0.33042
      12 -> 22         0.52214
      12 -> 25        -0.18433

 Excited State  32:      Singlet-A2    12.6990 eV   97.63 nm  f=0.0000  <S**2>=0.000
      10 -> 14         0.13799
      10 -> 16        -0.35512
      10 -> 18         0.49467
      10 -> 21         0.13192
      12 -> 22         0.13770
      13 -> 24        -0.13506
      13 -> 28         0.13203

 Excited State  33:      Singlet-B2    12.7286 eV   97.41 nm  f=0.0041  <S**2>=0.000
      10 -> 17         0.65363
      10 -> 20        -0.10272
      11 -> 16         0.14196

 Excited State  34:      Singlet-A2    12.8113 eV   96.78 nm  f=0.0000  <S**2>=0.000
      10 -> 18        -0.14305
      10 -> 21         0.24782
      11 -> 20         0.39256
      12 -> 22        -0.24131
      12 -> 25        -0.32603
      13 -> 28         0.23002

 Excited State  35:      Singlet-A1    12.9772 eV   95.54 nm  f=0.1168  <S**2>=0.000
       9 -> 14        -0.10185
       9 -> 16         0.11281
      11 -> 19         0.57457
      12 -> 23        -0.20317
      13 -> 26         0.21834

 Excited State  36:      Singlet-B2    13.1063 eV   94.60 nm  f=0.0056  <S**2>=0.000
      11 -> 21         0.51822
      12 -> 24        -0.39749
      12 -> 27         0.18725

 Excited State  37:      Singlet-A2    13.1742 eV   94.11 nm  f=0.0000  <S**2>=0.000
      10 -> 18        -0.13180
      10 -> 21         0.18647
      11 -> 20        -0.33799
      12 -> 25         0.19403
      13 -> 27         0.28046
      13 -> 28         0.40895
      13 -> 33        -0.11956

 Excited State  38:      Singlet-B1    13.2107 eV   93.85 nm  f=0.0053  <S**2>=0.000
       7 -> 14        -0.19346
       7 -> 16         0.20834
      10 -> 19         0.58074
      11 -> 22        -0.10302
      13 -> 30        -0.10021

 Excited State  39:      Singlet-A1    13.2433 eV   93.62 nm  f=0.0080  <S**2>=0.000
       8 -> 15        -0.10301
      11 -> 19         0.29015
      12 -> 23         0.57996
      13 -> 26        -0.19024

 Excited State  40:      Singlet-B2    13.2559 eV   93.53 nm  f=0.0123  <S**2>=0.000
       8 -> 14        -0.18727
      11 -> 18        -0.10895
      11 -> 21         0.37110
      12 -> 24         0.53166

 Excited State  41:      Singlet-B1    13.4051 eV   92.49 nm  f=0.0008  <S**2>=0.000
       9 -> 17         0.11999
      11 -> 22         0.43417
      12 -> 26         0.22724
      13 -> 29         0.22736
      13 -> 30        -0.34438
      13 -> 34        -0.15247

 Excited State  42:      Singlet-A1    13.4674 eV   92.06 nm  f=0.0208  <S**2>=0.000
       9 -> 14         0.61513
       9 -> 18        -0.20455
      11 -> 15         0.11376
      11 -> 19         0.15886
      11 -> 24         0.12713

 Excited State  43:      Singlet-B2    13.5060 eV   91.80 nm  f=0.0189  <S**2>=0.000
       8 -> 14         0.63315
      10 -> 20         0.11176
      11 -> 21         0.16750
      12 -> 24         0.11856

 Excited State  44:      Singlet-A2    13.5071 eV   91.79 nm  f=0.0000  <S**2>=0.000
      11 -> 20         0.41196
      12 -> 25         0.54348

 Excited State  45:      Singlet-B1    13.5258 eV   91.67 nm  f=0.0384  <S**2>=0.000
       7 -> 14         0.45808
      11 -> 22        -0.34788
      12 -> 26        -0.13935
      13 -> 29         0.18271
      13 -> 30        -0.23766
      13 -> 34        -0.10407

 Excited State  46:      Singlet-B1    13.5314 eV   91.63 nm  f=0.0773  <S**2>=0.000
       7 -> 14         0.40166
       7 -> 18        -0.19456
      10 -> 19         0.28529
      11 -> 22         0.20492
      12 -> 26         0.13781
      13 -> 29        -0.20538
      13 -> 30         0.25250

 Excited State  47:      Singlet-A2    13.7123 eV   90.42 nm  f=0.0000  <S**2>=0.000
      10 -> 21         0.57479
      11 -> 20        -0.14660
      13 -> 27        -0.20922
      13 -> 28        -0.21356
      13 -> 33         0.11668

 Excited State  48:      Singlet-B2    13.7226 eV   90.35 nm  f=0.0348  <S**2>=0.000
       8 -> 14        -0.16896
      10 -> 17         0.12490
      10 -> 20         0.48426
      11 -> 21        -0.11159
      11 -> 23        -0.12583
      12 -> 27         0.34069
      12 -> 28        -0.16669

 Excited State  49:      Singlet-B2    13.9219 eV   89.06 nm  f=0.2372  <S**2>=0.000
       9 -> 15         0.18575
      10 -> 20         0.42284
      11 -> 21         0.12940
      11 -> 23         0.21017
      12 -> 27        -0.39629
      12 -> 28         0.11059

 Excited State  50:      Singlet-B1    14.0374 eV   88.32 nm  f=0.0059  <S**2>=0.000
       9 -> 20         0.12892
      11 -> 22        -0.22220
      11 -> 25         0.33257
      12 -> 26         0.49657
      13 -> 29        -0.14936
      13 -> 30        -0.11199

 Excited State  51:      Singlet-A1    14.1570 eV   87.58 nm  f=0.0225  <S**2>=0.000
       8 -> 15         0.22839
       9 -> 14        -0.22882
       9 -> 16        -0.14958
       9 -> 18        -0.30602
      10 -> 22        -0.27035
      11 -> 24         0.39350

 Excited State  52:      Singlet-B1    14.2921 eV   86.75 nm  f=0.0778  <S**2>=0.000
      12 -> 26         0.25562
      13 -> 29         0.52639
      13 -> 30         0.34004

 Excited State  53:      Singlet-A1    14.3671 eV   86.30 nm  f=0.0004  <S**2>=0.000
       7 -> 17         0.10500
       8 -> 15         0.56546
      10 -> 22         0.34986

 Excited State  54:      Singlet-B2    14.3713 eV   86.27 nm  f=0.2092  <S**2>=0.000
       8 -> 14         0.10988
       8 -> 16         0.20416
       8 -> 18         0.13197
       9 -> 15         0.47840
      11 -> 23         0.30712
      12 -> 27         0.28156

 Excited State  55:      Singlet-B1    14.4243 eV   85.95 nm  f=0.0066  <S**2>=0.000
       7 -> 14        -0.16279
       7 -> 16        -0.22162
       7 -> 18        -0.28111
      10 -> 24         0.23648
      11 -> 22         0.12164
      11 -> 25         0.34175
      12 -> 26        -0.25257
      13 -> 29         0.20236

 Excited State  56:      Singlet-A2    14.4625 eV   85.73 nm  f=0.0000  <S**2>=0.000
       7 -> 15         0.66643
      13 -> 28        -0.14372

 Excited State  57:      Singlet-B2    14.5422 eV   85.26 nm  f=0.0013  <S**2>=0.000
       8 -> 16        -0.29874
       9 -> 15        -0.26628
      11 -> 21        -0.11031
      11 -> 23         0.51557

 Excited State  58:      Singlet-A1    14.5659 eV   85.12 nm  f=0.0413  <S**2>=0.000
       8 -> 15         0.24640
       9 -> 14         0.13695
       9 -> 16         0.39016
       9 -> 18         0.11498
      10 -> 22        -0.38157
      11 -> 19        -0.14489
      12 -> 23         0.10512
      13 -> 31        -0.16784

 Excited State  59:      Singlet-B2    14.5694 eV   85.10 nm  f=0.2973  <S**2>=0.000
       8 -> 16         0.48889
       8 -> 18         0.22784
       9 -> 15        -0.31932
      10 -> 20         0.13722
      11 -> 23         0.17956
      12 -> 28        -0.10177

 Excited State  60:      Singlet-A2    14.6088 eV   84.87 nm  f=0.0000  <S**2>=0.000
       7 -> 19         0.13310
      10 -> 21        -0.10516
      10 -> 23         0.42180
      13 -> 28         0.22460
      13 -> 33         0.44113

 Excited State  61:      Singlet-B1    14.6934 eV   84.38 nm  f=0.0911  <S**2>=0.000
       7 -> 16         0.43801
       7 -> 18         0.19678
       9 -> 17         0.11124
      10 -> 19        -0.15420
      11 -> 25         0.34916
      12 -> 26        -0.14050
      13 -> 30         0.18611

 Excited State  62:      Singlet-A1    14.8313 eV   83.60 nm  f=0.0545  <S**2>=0.000
       7 -> 17         0.13823
       8 -> 15         0.11849
       9 -> 16        -0.18485
       9 -> 21        -0.11385
      10 -> 22        -0.23661
      10 -> 25         0.17710
      11 -> 24        -0.30171
      11 -> 27         0.21394
      12 -> 30         0.12926
      13 -> 31         0.36963

 Excited State  63:      Singlet-A2    14.9406 eV   82.98 nm  f=0.0000  <S**2>=0.000
       8 -> 17         0.64814
       8 -> 20        -0.12333
      10 -> 23         0.17520

 Excited State  64:      Singlet-B1    14.9839 eV   82.74 nm  f=0.1747  <S**2>=0.000
       7 -> 16         0.20043
       7 -> 18        -0.11857
       9 -> 17        -0.16183
      10 -> 24         0.30593
      11 -> 25        -0.16010
      13 -> 32         0.49898

 Excited State  65:      Singlet-A1    14.9949 eV   82.68 nm  f=0.1018  <S**2>=0.000
       7 -> 17        -0.12707
       9 -> 16         0.29673
      11 -> 24         0.18059
      13 -> 31         0.55439

 Excited State  66:      Singlet-B1    15.0301 eV   82.49 nm  f=0.0995  <S**2>=0.000
       7 -> 16        -0.31653
       7 -> 18         0.23732
       9 -> 17         0.14060
      10 -> 24        -0.22142
      11 -> 25         0.11062
      13 -> 30         0.12177
      13 -> 32         0.40082
      13 -> 34        -0.19729
      13 -> 35        -0.11052

 Excited State  67:      Singlet-A2    15.0590 eV   82.33 nm  f=0.0000  <S**2>=0.000
       8 -> 17        -0.18908
      10 -> 23         0.44443
      13 -> 28        -0.17633
      13 -> 33        -0.41631

 Excited State  68:      Singlet-B2    15.0695 eV   82.27 nm  f=0.0011  <S**2>=0.000
       8 -> 16        -0.22845
       8 -> 18         0.40610
       9 -> 15         0.13449
      12 -> 27        -0.19256
      12 -> 28        -0.39076
      12 -> 33         0.11065

 Excited State  69:      Singlet-B1    15.1673 eV   81.74 nm  f=0.0136  <S**2>=0.000
       7 -> 16         0.10057
       7 -> 18        -0.11268
       9 -> 17         0.62158
      11 -> 22        -0.18962
      11 -> 25        -0.13289

 Excited State  70:      Singlet-A1    15.2090 eV   81.52 nm  f=0.1711  <S**2>=0.000
       7 -> 17        -0.26652
       9 -> 18         0.12638
      10 -> 22         0.10272
      10 -> 25        -0.12644
      11 -> 24         0.24324
      11 -> 27         0.41937
      11 -> 28        -0.11287
      12 -> 29        -0.12183
      12 -> 30         0.23109
      12 -> 34         0.12498

 Excited State  71:      Singlet-B1    15.2290 eV   81.41 nm  f=0.0633  <S**2>=0.000
       7 -> 18         0.15708
      11 -> 25         0.10278
      13 -> 30        -0.18600
      13 -> 32         0.13908
      13 -> 34         0.59895

 Excited State  72:      Singlet-A1    15.2582 eV   81.26 nm  f=0.0064  <S**2>=0.000
       7 -> 20         0.14622
       8 -> 15         0.10951
       9 -> 16        -0.24382
       9 -> 18         0.32104
      10 -> 25         0.19630
      11 -> 24         0.16933
      11 -> 27         0.11346
      12 -> 29         0.26853
      12 -> 30        -0.28858
      12 -> 34        -0.14077

 Excited State  73:      Singlet-A1    15.2816 eV   81.13 nm  f=0.0475  <S**2>=0.000
       7 -> 17         0.43249
       7 -> 20        -0.17647
       9 -> 16        -0.12994
       9 -> 18         0.22248
      10 -> 22        -0.15659
      10 -> 25        -0.34226
      11 -> 24         0.16740

 Excited State  74:      Singlet-B2    15.2873 eV   81.10 nm  f=0.2165  <S**2>=0.000
       8 -> 16        -0.18064
       8 -> 18         0.44893
       9 -> 15        -0.10321
      12 -> 27         0.10943
      12 -> 28         0.42235

 Excited State  75:      Singlet-A1    15.2988 eV   81.04 nm  f=0.0317  <S**2>=0.000
       7 -> 17         0.35150
       8 -> 19        -0.14178
       9 -> 16         0.27427
       9 -> 21        -0.10245
      10 -> 25         0.37748
      11 -> 24         0.21684
      11 -> 27         0.10872
      12 -> 30         0.10217

 Excited State  76:      Singlet-A2    15.3279 eV   80.89 nm  f=0.0000  <S**2>=0.000
       9 -> 22        -0.18451
      11 -> 26         0.65552

 Excited State  77:      Singlet-B1    15.5154 eV   79.91 nm  f=0.0856  <S**2>=0.000
       7 -> 16        -0.19189
       7 -> 18         0.39321
       7 -> 21         0.11800
      10 -> 24         0.48480

 Excited State  78:      Singlet-A1    15.6772 eV   79.09 nm  f=0.0352  <S**2>=0.000
       7 -> 17         0.14766
       8 -> 19        -0.15037
       9 -> 18        -0.31650
      10 -> 25        -0.20236
      11 -> 27         0.35522
      12 -> 29         0.32189
      12 -> 30        -0.15563

 Excited State  79:      Singlet-B1    15.7492 eV   78.72 nm  f=0.1172  <S**2>=0.000
       7 -> 21         0.33157
      10 -> 24        -0.12185
      10 -> 27        -0.34324
      13 -> 32         0.19507
      13 -> 35         0.41205

 Excited State  80:      Singlet-B2    15.7897 eV   78.52 nm  f=0.1861  <S**2>=0.000
       7 -> 22        -0.19730
       8 -> 21         0.11067
       9 -> 19         0.22911
      10 -> 26         0.58493
      13 -> 37         0.11632

 Excited State  81:      Singlet-A1    15.8719 eV   78.12 nm  f=0.0413  <S**2>=0.000
       8 -> 19         0.53658
       9 -> 18        -0.13715
      11 -> 27         0.12957
      12 -> 29        -0.18632
      12 -> 30        -0.22788
      13 -> 38        -0.16186

 Excited State  82:      Singlet-B2    15.8984 eV   77.99 nm  f=0.1398  <S**2>=0.000
       8 -> 21         0.42816
       8 -> 23         0.10954
       9 -> 19         0.43529
      10 -> 26        -0.24810

 Excited State  83:      Singlet-B1    15.9106 eV   77.93 nm  f=0.0291  <S**2>=0.000
       7 -> 21        -0.16866
      10 -> 27         0.36881
      11 -> 25         0.10927
      13 -> 35         0.52984

 Excited State  84:      Singlet-A1    15.9241 eV   77.86 nm  f=0.0001  <S**2>=0.000
       8 -> 19         0.27030
       9 -> 21        -0.10766
      11 -> 27        -0.12770
      12 -> 29         0.45823
      12 -> 30         0.34626
      12 -> 32        -0.11883
      13 -> 36        -0.10887

 Excited State  85:      Singlet-A2    15.9403 eV   77.78 nm  f=0.0000  <S**2>=0.000
       7 -> 19         0.58522
       8 -> 20        -0.28380
      10 -> 23        -0.17357

 Excited State  86:      Singlet-A2    15.9906 eV   77.54 nm  f=0.0000  <S**2>=0.000
       7 -> 19         0.27167
       8 -> 17         0.12792
       8 -> 20         0.60904

 Excited State  87:      Singlet-B2    16.0121 eV   77.43 nm  f=0.0050  <S**2>=0.000
       8 -> 21         0.46727
       9 -> 19        -0.40755
      13 -> 37         0.21406

 Excited State  88:      Singlet-B1    16.1268 eV   76.88 nm  f=0.0012  <S**2>=0.000
       7 -> 18        -0.15821
       7 -> 21         0.40782
       7 -> 23         0.16349
       9 -> 20         0.16052
      10 -> 27         0.38282
      10 -> 28        -0.23153

 Excited State  89:      Singlet-A1    16.2270 eV   76.41 nm  f=0.0440  <S**2>=0.000
       7 -> 17         0.11661
       7 -> 20         0.25788
       8 -> 19         0.20215
       9 -> 21         0.18951
      11 -> 28        -0.11166
      12 -> 30         0.10170
      13 -> 36         0.47434
      13 -> 38         0.21291

 Excited State  90:      Singlet-A1    16.2806 eV   76.15 nm  f=0.0058  <S**2>=0.000
       9 -> 21         0.32137
      11 -> 27         0.12935
      11 -> 28        -0.10106

 The electronic state is 1-A1.
 Alpha  occ. eigenvalues --  -19.63878 -10.59460 -10.59458  -1.14842  -0.81222
 Alpha  occ. eigenvalues --   -0.71863  -0.55316  -0.55220  -0.55140  -0.46097
 Alpha  occ. eigenvalues --   -0.44156  -0.39169  -0.33177
 Alpha virt. eigenvalues --    0.04040   0.06574   0.09343   0.10038   0.11435
 Alpha virt. eigenvalues --    0.12784   0.15336   0.15446   0.16514   0.18707
 Alpha virt. eigenvalues --    0.19970   0.20555   0.22721   0.22979   0.28366

 Mulliken charges:
               1
     1  C    0.569291
     2  O   -0.867202
     3  C    0.569291
     4  H   -0.158884
     5  H    0.011597
     6  H    0.011597
     7  H   -0.158884
     8  H    0.011597
     9  H    0.011597
 Sum of Mulliken charges =   0.00000

 Dipole moment (field-independent basis, Debye):
    X=              0.0000    Y=             -0.0000    Z=             -1.3440  Tot=              1.3440
 Quadrupole moment (field-independent basis, Debye-Ang):
   XX=            -20.2683   YY=            -17.4087   ZZ=            -21.4173
   XY=             -0.0000   XZ=             -0.0000   YZ=              0.0000

 Normal termination of Gaussian 16 at Mon Mar 21 20:15:26 2022.
