 Gaussian 16, Revision C.01,
 Gaussian 16:  EM64L-G16RevC.01  3-Jul-2019

 ---------------------------------------------------------------------
 #P TD(Nstates=10000) m062x/Gen SCF(maxcycles=100) Int(Grid=ultrafine)
 ---------------------------------------------------------------------

 ---------------------
 xGDB7_00001_tier4.com
 ---------------------
 Symbolic Z-matrix:
 Charge =  0 Multiplicity = 1

                         Standard orientation:
 ---------------------------------------------------------------------
 Center     Atomic      Atomic             Coordinates (Angstroms)
 Number     Number       Type             X           Y           Z
 ---------------------------------------------------------------------
      1          8           0        0.000000    0.000000    0.596896
      2          8           0        0.000000    0.000000   -0.596896
 ---------------------------------------------------------------------

 SCF Done:  E(RM062X) =  -150.092949601     A.U. after   10 cycles

 Excitation energies and oscillator strengths:

 Excited state symmetry could not be determined.
 Excited State   1:      Singlet-?Sym    -0.0174 eV    -71378.87 nm  f=-0.0000  <S**2>=0.000
       8 ->  9        -3.69566
       8 -> 15         0.25297
       8 -> 26        -0.11750
       8 <-  9        -3.62795
       8 <- 15         0.24710
       8 <- 26        -0.11427
 This state for optimization and/or second-order correction.
 Total Energy, E(TD-HF/TD-DFT) =  -150.093587932
 Copying the excited state density for this state as the 1-particle RhoCI density.

 Excited state symmetry could not be determined.
 Excited State   2:      Singlet-?Sym    6.5891 eV  188.16 nm  f=0.0000  <S**2>=0.000
       5 ->  9         0.69818

 Excited state symmetry could not be determined.
 Excited State   3:      Singlet-?Sym    7.1360 eV  173.75 nm  f=0.0000  <S**2>=0.000
       6 ->  9         0.70635

 Excited state symmetry could not be determined.
 Excited State   4:      Singlet-?Sym    8.3354 eV  148.74 nm  f=0.0171  <S**2>=0.000
       8 -> 10         0.68851
       8 -> 17        -0.15364

 Excited state symmetry could not be determined.
 Excited State   5:      Singlet-?Sym    8.3747 eV  148.05 nm  f=0.0000  <S**2>=0.000
       8 -> 11         0.67819
       8 -> 14        -0.19486

 Excited state symmetry could not be determined.
 Excited State   6:      Singlet-?Sym    9.0857 eV  136.46 nm  f=0.0000  <S**2>=0.000
       8 -> 12         0.69995

 Excited state symmetry could not be determined.
 Excited State   7:      Singlet-?Sym    9.2868 eV  133.51 nm  f=0.1094  <S**2>=0.000
       7 ->  9         0.28884
       8 -> 13         0.64300

 Excited state symmetry could not be determined.
 Excited State   8:      Singlet-?Sym   10.5536 eV  117.48 nm  f=0.0000  <S**2>=0.000
       8 -> 11         0.19344
       8 -> 14         0.67640

 Excited state symmetry could not be determined.
 Excited State   9:      Singlet-?Sym   10.5795 eV  117.19 nm  f=0.0756  <S**2>=0.000
       6 -> 17        -0.11739
       6 -> 18         0.11160
       7 ->  9         0.62710
       8 -> 13        -0.29138
       7 <-  9        -0.10021

 Excited state symmetry could not be determined.
 Excited State  10:      Singlet-?Sym   10.9733 eV  112.99 nm  f=0.0000  <S**2>=0.000
       8 -> 15         0.70170

 Excited state symmetry could not be determined.
 Excited State  11:      Singlet-?Sym   11.5047 eV  107.77 nm  f=0.0000  <S**2>=0.000
       8 -> 16         0.70406

 Excited state symmetry could not be determined.
 Excited State  12:      Singlet-?Sym   11.6837 eV  106.12 nm  f=0.0133  <S**2>=0.000
       8 -> 10         0.14715
       8 -> 17         0.57362
       8 -> 18        -0.36773
       8 -> 28        -0.10407

 Excited state symmetry could not be determined.
 Excited State  13:      Singlet-?Sym   15.4061 eV   80.48 nm  f=0.0000  <S**2>=0.000
       7 -> 10         0.68165
       7 -> 17        -0.15691

 Excited state symmetry could not be determined.
 Excited State  14:      Singlet-?Sym   15.4626 eV   80.18 nm  f=0.1181  <S**2>=0.000
       5 -> 11         0.30517
       8 -> 17         0.34843
       8 -> 18         0.52119

 Excited state symmetry could not be determined.
 Excited State  15:      Singlet-?Sym   15.5574 eV   79.69 nm  f=0.1250  <S**2>=0.000
       4 ->  9         0.14794
       7 -> 11         0.67260
       7 -> 14        -0.14883

 Excited state symmetry could not be determined.
 Excited State  16:      Singlet-?Sym   15.8431 eV   78.26 nm  f=0.0000  <S**2>=0.000
       5 -> 10        -0.27827
       8 -> 20         0.64090

 Excited state symmetry could not be determined.
 Excited State  17:      Singlet-?Sym   15.8824 eV   78.06 nm  f=0.0000  <S**2>=0.000
       8 -> 19         0.69928

 Excited state symmetry could not be determined.
 Excited State  18:      Singlet-?Sym   16.0748 eV   77.13 nm  f=0.0000  <S**2>=0.000
       5 -> 10         0.62614
       5 -> 17        -0.13488
       8 -> 20         0.29465

 Excited State  19:      Singlet-SGU   16.0797 eV   77.11 nm  f=0.2457  <S**2>=0.000
       6 -> 10         0.69499

 Excited State  20:      Singlet-SGG   16.2930 eV   76.10 nm  f=0.0000  <S**2>=0.000
       6 -> 11         0.50756
       6 -> 14        -0.11197
       7 -> 12        -0.47596

 Excited state symmetry could not be determined.
 Excited State  21:      Singlet-?Sym   16.3665 eV   75.75 nm  f=0.0183  <S**2>=0.000
       5 -> 11         0.60949
       5 -> 14        -0.15714
       8 -> 17        -0.14014
       8 -> 18        -0.28862

 Excited state symmetry could not be determined.
 Excited State  22:      Singlet-?Sym   16.3841 eV   75.67 nm  f=0.0036  <S**2>=0.000
       4 ->  9         0.60182
       6 -> 12        -0.31437
       7 -> 11        -0.13355
       7 -> 14         0.10815

 Excited state symmetry could not be determined.
 Excited State  23:      Singlet-?Sym   16.3892 eV   75.65 nm  f=0.0000  <S**2>=0.000
       7 -> 13         0.69938

 Excited state symmetry could not be determined.
 Excited State  24:      Singlet-?Sym   16.5759 eV   74.80 nm  f=0.0000  <S**2>=0.000
       5 -> 13        -0.32480
       6 -> 11         0.41203
       6 -> 14        -0.12499
       7 -> 12         0.45075

 Excited state symmetry could not be determined.
 Excited State  25:      Singlet-?Sym   16.7765 eV   73.90 nm  f=0.0000  <S**2>=0.000
       5 -> 12         0.69677
       7 -> 13         0.10020

 Excited state symmetry could not be determined.
 Excited State  26:      Singlet-?Sym   16.9464 eV   73.16 nm  f=0.0865  <S**2>=0.000
       4 ->  9         0.30826
       6 -> 12         0.63026

 Excited state symmetry could not be determined.
 Excited State  27:      Singlet-?Sym   17.0589 eV   72.68 nm  f=0.0545  <S**2>=0.000
       6 -> 13         0.70468

 Excited state symmetry could not be determined.
 Excited State  28:      Singlet-?Sym   17.5677 eV   70.58 nm  f=0.0000  <S**2>=0.000
       5 -> 13         0.61184
       6 -> 11         0.15169
       6 -> 14        -0.19939
       7 -> 12         0.24048

 Excited state symmetry could not be determined.
 Excited State  29:      Singlet-?Sym   17.7863 eV   69.71 nm  f=0.0639  <S**2>=0.000
       7 -> 11         0.17043
       7 -> 14         0.67690

 Excited state symmetry could not be determined.
 Excited State  30:      Singlet-?Sym   18.1991 eV   68.13 nm  f=0.0000  <S**2>=0.000
       7 -> 16         0.70435

 Excited state symmetry could not be determined.
 Excited State  31:      Singlet-?Sym   18.2005 eV   68.12 nm  f=0.0107  <S**2>=0.000
       7 -> 15         0.69508

 Excited state symmetry could not be determined.
 Excited State  32:      Singlet-?Sym   18.3154 eV   67.69 nm  f=0.0352  <S**2>=0.000
       5 -> 11         0.17554
       5 -> 14         0.67906

 Excited State  33:      Singlet-SGG   18.4029 eV   67.37 nm  f=0.0000  <S**2>=0.000
       5 -> 13         0.12948
       6 -> 11         0.20962
       6 -> 14         0.65438

 Excited state symmetry could not be determined.
 Excited State  34:      Singlet-?Sym   18.6406 eV   66.51 nm  f=0.0000  <S**2>=0.000
       6 -> 15         0.62722
       7 -> 17         0.25367
       7 -> 18        -0.15952

 Excited state symmetry could not be determined.
 Excited State  35:      Singlet-?Sym   18.6788 eV   66.38 nm  f=0.0000  <S**2>=0.000
       5 -> 15         0.69956

 Excited state symmetry could not be determined.
 Excited State  36:      Singlet-?Sym   18.7945 eV   65.97 nm  f=0.0000  <S**2>=0.000
       6 -> 16         0.70209

 Excited state symmetry could not be determined.
 Excited State  37:      Singlet-?Sym   18.8625 eV   65.73 nm  f=0.0000  <S**2>=0.000
       6 -> 15        -0.31346
       7 -> 10         0.13344
       7 -> 17         0.51861
       7 -> 18        -0.32083

 Excited state symmetry could not be determined.
 Excited State  38:      Singlet-?Sym   18.8864 eV   65.65 nm  f=0.0392  <S**2>=0.000
       5 -> 16         0.69200

 Excited state symmetry could not be determined.
 Excited State  39:      Singlet-?Sym   19.3225 eV   64.17 nm  f=0.0000  <S**2>=0.000
       5 -> 10         0.15881
       5 -> 17         0.57045
       5 -> 18        -0.36468
       5 -> 28        -0.10349

 Excited state symmetry could not be determined.
 Excited State  40:      Singlet-?Sym   20.7258 eV   59.82 nm  f=0.0007  <S**2>=0.000
       6 -> 17        -0.42298
       6 -> 18         0.11768
       8 -> 23         0.52940

 Excited state symmetry could not be determined.
 Excited State  41:      Singlet-?Sym   20.7680 eV   59.70 nm  f=0.0000  <S**2>=0.000
       8 -> 21         0.69866

 Excited state symmetry could not be determined.
 Excited State  42:      Singlet-?Sym   20.8226 eV   59.54 nm  f=0.0000  <S**2>=0.000
       8 -> 22         0.70322

 Excited state symmetry could not be determined.
 Excited State  43:      Singlet-?Sym   22.0551 eV   56.22 nm  f=0.1167  <S**2>=0.000
       5 -> 20         0.10428
       7 -> 19        -0.15829
       8 -> 24         0.66520
       8 -> 28         0.13050

 Excited state symmetry could not be determined.
 Excited State  44:      Singlet-?Sym   22.1254 eV   56.04 nm  f=0.1647  <S**2>=0.000
       5 -> 19         0.10015
       7 -> 20         0.19380
       8 -> 25         0.66988

 Excited State  45:      Singlet-SGU   22.1916 eV   55.87 nm  f=0.7708  <S**2>=0.000
       4 -> 11         0.26145
       6 -> 17         0.46552
       6 -> 18         0.14824
       8 -> 23         0.40990

 Excited state symmetry could not be determined.
 Excited State  46:      Singlet-?Sym   22.5158 eV   55.07 nm  f=0.0000  <S**2>=0.000
       8 -> 26         0.70012

 Excited state symmetry could not be determined.
 Excited State  47:      Singlet-?Sym   22.5859 eV   54.89 nm  f=0.0648  <S**2>=0.000
       7 -> 19         0.12243
       8 -> 24        -0.11002
       8 -> 28         0.67354

 Excited state symmetry could not be determined.
 Excited State  48:      Singlet-?Sym   22.6725 eV   54.68 nm  f=0.0000  <S**2>=0.000
       7 -> 17         0.36308
       7 -> 18         0.60381

 Excited state symmetry could not be determined.
 Excited State  49:      Singlet-?Sym   23.1204 eV   53.63 nm  f=0.0000  <S**2>=0.000
       4 -> 10        -0.44735
       4 -> 17         0.11569
       8 -> 27         0.52593

 Excited state symmetry could not be determined.
 Excited State  50:      Singlet-?Sym   23.3067 eV   53.20 nm  f=0.0000  <S**2>=0.000
       5 -> 17         0.37022
       5 -> 18         0.59548

 Excited state symmetry could not be determined.
 Excited State  51:      Singlet-?Sym   23.3532 eV   53.09 nm  f=0.1487  <S**2>=0.000
       5 -> 19         0.30813
       7 -> 20         0.59547
       8 -> 25        -0.21185

 Excited state symmetry could not be determined.
 Excited State  52:      Singlet-?Sym   23.3633 eV   53.07 nm  f=0.1702  <S**2>=0.000
       5 -> 20        -0.28082
       7 -> 19         0.60835
       8 -> 24         0.20269

 Excited state symmetry could not be determined.
 Excited State  53:      Singlet-?Sym   23.5713 eV   52.60 nm  f=0.0000  <S**2>=0.000
       6 -> 19         0.70636

 Excited state symmetry could not be determined.
 Excited State  54:      Singlet-?Sym   23.5760 eV   52.59 nm  f=0.0000  <S**2>=0.000
       6 -> 20         0.70509

 Excited State  55:      Singlet-SGG   23.7688 eV   52.16 nm  f=0.0000  <S**2>=0.000
       4 -> 10         0.53510
       8 -> 27         0.44888

 Excited State  56:      Singlet-SGU   23.7891 eV   52.12 nm  f=0.0005  <S**2>=0.000
       4 -> 11         0.55825
       4 -> 14        -0.12665
       6 -> 17        -0.21442
       6 -> 18        -0.35415

 Excited state symmetry could not be determined.
 Excited State  57:      Singlet-?Sym   24.0846 eV   51.48 nm  f=0.4617  <S**2>=0.000
       5 -> 20         0.63592
       7 -> 19         0.28982

 Excited state symmetry could not be determined.
 Excited State  58:      Singlet-?Sym   24.1495 eV   51.34 nm  f=0.0000  <S**2>=0.000
       4 -> 12         0.70268

 Excited state symmetry could not be determined.
 Excited State  59:      Singlet-?Sym   24.1762 eV   51.28 nm  f=0.4996  <S**2>=0.000
       5 -> 19         0.61962
       7 -> 20        -0.30844

 Excited state symmetry could not be determined.
 Excited State  60:      Singlet-?Sym   24.3814 eV   50.85 nm  f=0.0000  <S**2>=0.000
       4 -> 13         0.70274

 Excited State  61:      Singlet-SGU   25.1327 eV   49.33 nm  f=0.6310  <S**2>=0.000
       4 -> 11         0.29270
       5 -> 27         0.10211
       6 -> 17        -0.11631
       6 -> 18         0.54820
       7 ->  9        -0.14408
       8 -> 23        -0.20615
       8 -> 30        -0.11650

 Excited State  62:      Singlet-SGU   25.5468 eV   48.53 nm  f=0.0595  <S**2>=0.000
       4 -> 11         0.14905
       4 -> 14         0.68254

 Excited state symmetry could not be determined.
 Excited State  63:      Singlet-?Sym   26.0236 eV   47.64 nm  f=0.0038  <S**2>=0.000
       4 -> 15         0.69770

 Excited state symmetry could not be determined.
 Excited State  64:      Singlet-?Sym   26.1364 eV   47.44 nm  f=0.0045  <S**2>=0.000
       4 -> 16         0.69918

 Excited State  65:      Singlet-SGG   27.6326 eV   44.87 nm  f=0.0000  <S**2>=0.000
       4 -> 17         0.51464
       4 -> 18        -0.28394
       6 -> 21         0.15052
       7 -> 22        -0.32257

 Excited state symmetry could not be determined.
 Excited State  66:      Singlet-?Sym   28.1448 eV   44.05 nm  f=0.0293  <S**2>=0.000
       6 -> 22        -0.24013
       7 -> 21         0.65980

 Excited state symmetry could not be determined.
 Excited State  67:      Singlet-?Sym   28.2370 eV   43.91 nm  f=0.0000  <S**2>=0.000
       5 -> 22        -0.13607
       7 -> 23         0.69322

 Excited state symmetry could not be determined.
 Excited State  68:      Singlet-?Sym   28.3342 eV   43.76 nm  f=0.0000  <S**2>=0.000
       4 -> 17         0.21329
       5 -> 23        -0.25018
       6 -> 21         0.19638
       7 -> 22         0.58711

 Excited state symmetry could not be determined.
 Excited State  69:      Singlet-?Sym   28.6556 eV   43.27 nm  f=0.0000  <S**2>=0.000
       5 -> 22         0.69051
       7 -> 23         0.13699

 Excited state symmetry could not be determined.
 Excited State  70:      Singlet-?Sym   28.7452 eV   43.13 nm  f=0.0014  <S**2>=0.000
       5 -> 21         0.60089
       6 -> 23        -0.35926

 Excited state symmetry could not be determined.
 Excited State  71:      Singlet-?Sym   28.9028 eV   42.90 nm  f=0.0000  <S**2>=0.000
       4 -> 17        -0.10481
       5 -> 23         0.31918
       6 -> 21         0.60642

 Excited state symmetry could not be determined.
 Excited State  72:      Singlet-?Sym   28.9282 eV   42.86 nm  f=0.0000  <S**2>=0.000
       3 ->  9         0.43197
       7 -> 24         0.54597

 Excited state symmetry could not be determined.
 Excited State  73:      Singlet-?Sym   28.9504 eV   42.83 nm  f=0.3071  <S**2>=0.000
       6 -> 22         0.65506
       7 -> 21         0.23191

 Excited state symmetry could not be determined.
 Excited State  74:      Singlet-?Sym   29.1287 eV   42.56 nm  f=0.0000  <S**2>=0.000
       5 -> 24        -0.10379
       7 -> 25         0.69882

 Excited state symmetry could not be determined.
 Excited State  75:      Singlet-?Sym   29.2284 eV   42.42 nm  f=0.0000  <S**2>=0.000
       3 ->  9         0.44010
       5 -> 25        -0.21132
       7 -> 24        -0.42309
       7 -> 28        -0.26088

 Excited state symmetry could not be determined.
 Excited State  76:      Singlet-?Sym   29.2635 eV   42.37 nm  f=0.3052  <S**2>=0.000
       5 -> 21         0.35565
       6 -> 23         0.59890

 Excited state symmetry could not be determined.
 Excited State  77:      Singlet-?Sym   29.4089 eV   42.16 nm  f=0.0032  <S**2>=0.000
       4 -> 20         0.24727
       6 -> 24         0.61733
       7 -> 26         0.23179

 Excited state symmetry could not be determined.
 Excited State  78:      Singlet-?Sym   29.4209 eV   42.14 nm  f=0.0000  <S**2>=0.000
       4 -> 17         0.30844
       5 -> 23         0.55420
       6 -> 21        -0.22773
       7 -> 22         0.20246

 Excited state symmetry could not be determined.
 Excited State  79:      Singlet-?Sym   29.4666 eV   42.08 nm  f=0.0000  <S**2>=0.000
       4 -> 19         0.25440
       6 -> 25         0.64515
       7 -> 27        -0.11645

 Excited state symmetry could not be determined.
 Excited State  80:      Singlet-?Sym   29.7489 eV   41.68 nm  f=0.0000  <S**2>=0.000
       5 -> 25         0.54587
       7 -> 28        -0.43937

 Excited state symmetry could not be determined.
 Excited State  81:      Singlet-?Sym   29.7628 eV   41.66 nm  f=0.0000  <S**2>=0.000
       5 -> 26        -0.20936
       7 -> 27         0.66074

 Excited state symmetry could not be determined.
 Excited State  82:      Singlet-?Sym   29.7633 eV   41.66 nm  f=0.0000  <S**2>=0.000
       5 -> 24         0.69577
       7 -> 25         0.10253

 Excited state symmetry could not be determined.
 Excited State  83:      Singlet-?Sym   29.9181 eV   41.44 nm  f=0.0087  <S**2>=0.000
       5 -> 27        -0.16824
       6 -> 24        -0.22816
       6 -> 28         0.16238
       7 -> 26         0.61817

 Excited state symmetry could not be determined.
 Excited State  84:      Singlet-?Sym   29.9775 eV   41.36 nm  f=0.0000  <S**2>=0.000
       3 ->  9         0.32201
       5 -> 25         0.39179
       7 -> 24        -0.14527
       7 -> 28         0.46603

 Excited state symmetry could not be determined.
 Excited State  85:      Singlet-?Sym   30.1673 eV   41.10 nm  f=0.0000  <S**2>=0.000
       5 -> 26         0.63186
       6 -> 25         0.12034
       7 -> 27         0.21433
       8 -> 29        -0.18571

 Excited state symmetry could not be determined.
 Excited State  86:      Singlet-?Sym   30.1756 eV   41.09 nm  f=0.0026  <S**2>=0.000
       5 -> 27         0.38730
       6 -> 28         0.55613
       8 -> 30        -0.12784

 Excited state symmetry could not be determined.
 Excited State  87:      Singlet-?Sym   30.2082 eV   41.04 nm  f=0.0000  <S**2>=0.000
       6 -> 26         0.69341

 Excited state symmetry could not be determined.
 Excited State  88:      Singlet-?Sym   30.3301 eV   40.88 nm  f=0.0000  <S**2>=0.000
       6 -> 27         0.69037

 Excited state symmetry could not be determined.
 Excited State  89:      Singlet-?Sym   30.3713 eV   40.82 nm  f=0.0000  <S**2>=0.000
       5 -> 28         0.68611
       6 -> 27        -0.10492

 Excited State  90:      Singlet-SGG   31.1041 eV   39.86 nm  f=0.0000  <S**2>=0.000
       4 -> 17         0.24665
       4 -> 18         0.63908
       5 -> 23        -0.12125

 Excited state symmetry could not be determined.
 Excited State  91:      Singlet-?Sym   31.1245 eV   39.83 nm  f=0.0000  <S**2>=0.000
       4 -> 19         0.65657
       6 -> 25        -0.24980

 Excited state symmetry could not be determined.
 Excited State  92:      Singlet-?Sym   31.1358 eV   39.82 nm  f=0.0000  <S**2>=0.000
       4 -> 20         0.65098
       5 -> 27         0.10959
       6 -> 24        -0.24725

 Excited state symmetry could not be determined.
 Excited State  93:      Singlet-?Sym   31.4289 eV   39.45 nm  f=0.0025  <S**2>=0.000
       5 -> 27         0.53605
       6 -> 28        -0.32751
       7 -> 26         0.20007
       8 -> 30         0.19623

 Excited state symmetry could not be determined.
 Excited State  94:      Singlet-?Sym   32.9711 eV   37.60 nm  f=0.0000  <S**2>=0.000
       5 -> 26         0.20599
       8 -> 29         0.67178

 Excited state symmetry could not be determined.
 Excited State  95:      Singlet-?Sym   34.9137 eV   35.51 nm  f=0.0091  <S**2>=0.000
       3 -> 10         0.14886
       3 -> 17        -0.18144
       4 -> 21         0.10804
       6 -> 28         0.17913
       7 -> 26        -0.10209
       8 -> 30         0.59730

 Excited state symmetry could not be determined.
 Excited State  96:      Singlet-?Sym   35.0111 eV   35.41 nm  f=0.0000  <S**2>=0.000
       8 -> 31         0.70046

 Excited state symmetry could not be determined.
 Excited State  97:      Singlet-?Sym   36.0250 eV   34.42 nm  f=0.0867  <S**2>=0.000
       4 -> 21         0.68832
       8 -> 30        -0.12026

 Excited state symmetry could not be determined.
 Excited State  98:      Singlet-?Sym   36.1044 eV   34.34 nm  f=0.0000  <S**2>=0.000
       4 -> 22         0.70240

 Excited state symmetry could not be determined.
 Excited State  99:      Singlet-?Sym   36.3432 eV   34.11 nm  f=0.0000  <S**2>=0.000
       4 -> 23         0.70261

 Excited state symmetry could not be determined.
 Excited State 100:      Singlet-?Sym   37.0252 eV   33.49 nm  f=0.0000  <S**2>=0.000
       4 -> 24         0.70529

 Excited state symmetry could not be determined.
 Excited State 101:      Singlet-?Sym   37.0588 eV   33.46 nm  f=0.0000  <S**2>=0.000
       4 -> 25         0.70593

 Excited state symmetry could not be determined.
 Excited State 102:      Singlet-?Sym   37.5726 eV   33.00 nm  f=0.0671  <S**2>=0.000
       4 -> 26         0.68219
       6 -> 29        -0.15350

 Excited State 103:      Singlet-SGG   37.5927 eV   32.98 nm  f=0.0000  <S**2>=0.000
       3 -> 11         0.63104
       3 -> 14        -0.17642
       4 -> 28         0.25402

 Excited state symmetry could not be determined.
 Excited State 104:      Singlet-?Sym   37.6444 eV   32.94 nm  f=0.0626  <S**2>=0.000
       4 -> 27         0.68140
       6 -> 30        -0.15594

 Excited state symmetry could not be determined.
 Excited State 105:      Singlet-?Sym   37.8187 eV   32.78 nm  f=0.0000  <S**2>=0.000
       3 -> 11        -0.23143
       3 -> 14         0.12101
       4 -> 28         0.64836

 Excited State 106:      Singlet-SGU   38.0063 eV   32.62 nm  f=0.0114  <S**2>=0.000
       3 -> 10         0.68678
       8 -> 30        -0.12128

 Excited state symmetry could not be determined.
 Excited State 107:      Singlet-?Sym   38.3953 eV   32.29 nm  f=0.0009  <S**2>=0.000
       3 -> 12         0.70105

 Excited state symmetry could not be determined.
 Excited State 108:      Singlet-?Sym   38.6075 eV   32.11 nm  f=0.0014  <S**2>=0.000
       3 -> 13         0.70059

 Excited State 109:      Singlet-SGG   39.9080 eV   31.07 nm  f=0.0000  <S**2>=0.000
       3 -> 11         0.21219
       3 -> 14         0.66741

 Excited state symmetry could not be determined.
 Excited State 110:      Singlet-?Sym   39.9628 eV   31.02 nm  f=0.0000  <S**2>=0.000
       5 -> 29        -0.47176
       7 -> 30         0.50923
       8 -> 34        -0.12334

 Excited state symmetry could not be determined.
 Excited State 111:      Singlet-?Sym   40.2917 eV   30.77 nm  f=0.0000  <S**2>=0.000
       3 -> 15         0.70332

 Excited state symmetry could not be determined.
 Excited State 112:      Singlet-?Sym   40.4123 eV   30.68 nm  f=0.0000  <S**2>=0.000
       3 -> 16         0.70470

 Excited state symmetry could not be determined.
 Excited State 113:      Singlet-?Sym   40.4502 eV   30.65 nm  f=0.0000  <S**2>=0.000
       5 -> 30        -0.41339
       7 -> 29         0.55974
       8 -> 35        -0.10911

 Excited state symmetry could not be determined.
 Excited State 114:      Singlet-?Sym   40.5102 eV   30.61 nm  f=0.0700  <S**2>=0.000
       5 -> 31        -0.30119

 Unable to determine electronic state:  an orbital has unidentified symmetry.
 Alpha  occ. eigenvalues --  -19.80298 -19.80274  -1.42620  -0.89940  -0.63204
 Alpha  occ. eigenvalues --   -0.63138  -0.60948  -0.34758
 Alpha virt. eigenvalues --   -0.12340   0.06500   0.09323   0.11249   0.12094
 Alpha virt. eigenvalues --    0.15961   0.16333   0.16687   0.30198   0.37778
 Alpha virt. eigenvalues --    0.40065   0.40106   0.56773   0.58437   0.59408

 Mulliken charges:
               1
     1  O   -0.000000
     2  O   -0.000000
 Sum of Mulliken charges =  -0.00000

 Dipole moment (field-independent basis, Debye):
    X=             -0.0000    Y=              0.0000    Z=              0.0000  Tot=              0.0000
 Quadrupole moment (field-independent basis, Debye-Ang):
   XX=            -11.1252   YY=             -9.3087   ZZ=            -10.7231
   XY=              0.0000   XZ=              0.0000   YZ=              0.0000

 Normal termination of Gaussian 16 at Mon Mar 21 20:02:11 2022.
