 Gaussian 16, Revision C.01,
 Gaussian 16:  EM64L-G16RevC.01  3-Jul-2019

 ---------------------------------------------------------------------
 #P TD(Nstates=10000) m062x/Gen SCF(maxcycles=100) Int(Grid=ultrafine)
 ---------------------------------------------------------------------

 ---------------------
 xGDB7_00001_tier4.com
 ---------------------
 Symbolic Z-matrix:
 Charge =  0 Multiplicity = 1

                         Standard orientation:
 ---------------------------------------------------------------------
 Center     Atomic      Atomic             Coordinates (Angstroms)
 Number     Number       Type             X           Y           Z
 ---------------------------------------------------------------------
      1          6           0        0.000000    0.729549   -0.367364
      2          6           0       -0.000000   -0.729549   -0.367364
      3          8           0       -0.000000   -0.000000    0.845033
      4          1           0       -0.918945    1.264243   -0.587975
      5          1           0        0.918945    1.264243   -0.587975
      6          1           0        0.918945   -1.264243   -0.587975
      7          1           0       -0.918945   -1.264243   -0.587975
 ---------------------------------------------------------------------

 SCF Done:  E(RM062X) =  -153.611751696     A.U. after   12 cycles

 Excitation energies and oscillator strengths:

 Excited State   1:      Singlet-B1     8.1829 eV  151.52 nm  f=0.0141  <S**2>=0.000
      12 -> 13         0.60693
      12 -> 15         0.33035
      12 -> 18         0.11909
 This state for optimization and/or second-order correction.
 Total Energy, E(TD-HF/TD-DFT) =  -153.311037009
 Copying the excited state density for this state as the 1-particle RhoCI density.

 Excited State   2:      Singlet-B1     8.3209 eV  149.00 nm  f=0.0292  <S**2>=0.000
      12 -> 13        -0.34243
      12 -> 15         0.57446
      12 -> 18         0.10683
      12 -> 21         0.10848
      12 -> 28         0.13428

 Excited State   3:      Singlet-A2     8.4664 eV  146.44 nm  f=0.0000  <S**2>=0.000
      12 -> 14        -0.31993
      12 -> 17         0.56475
      12 -> 20        -0.24295

 Excited State   4:      Singlet-A1     8.8381 eV  140.28 nm  f=0.0004  <S**2>=0.000
      11 -> 13         0.69226

 Excited State   5:      Singlet-A2     8.8723 eV  139.74 nm  f=0.0000  <S**2>=0.000
      12 -> 14         0.61539
      12 -> 17         0.24343
      12 -> 20        -0.19741
      12 -> 29        -0.10900

 Excited State   6:      Singlet-A1     9.2304 eV  134.32 nm  f=0.0021  <S**2>=0.000
      11 -> 15        -0.38761
      11 -> 18        -0.10730
      12 -> 16         0.56753

 Excited State   7:      Singlet-A1     9.2850 eV  133.53 nm  f=0.0924  <S**2>=0.000
      11 -> 15         0.53137
      11 -> 18         0.14680
      12 -> 16         0.40956

 Excited State   8:      Singlet-B2     9.4826 eV  130.75 nm  f=0.0813  <S**2>=0.000
      11 -> 14         0.69390

 Excited State   9:      Singlet-B1     9.8714 eV  125.60 nm  f=0.0048  <S**2>=0.000
      11 -> 16         0.69298

 Excited State  10:      Singlet-B1    10.1093 eV  122.64 nm  f=0.0265  <S**2>=0.000
      12 -> 15        -0.17870
      12 -> 18         0.67045

 Excited State  11:      Singlet-B2    10.3970 eV  119.25 nm  f=0.1327  <S**2>=0.000
       9 -> 15        -0.13099
      11 -> 14         0.10436
      11 -> 17         0.63817
      11 -> 20        -0.17594

 Excited State  12:      Singlet-A2    10.6145 eV  116.81 nm  f=0.0000  <S**2>=0.000
      10 -> 13         0.67920

 Excited State  13:      Singlet-A1    10.9744 eV  112.98 nm  f=0.0101  <S**2>=0.000
      11 -> 15        -0.18993
      11 -> 18         0.66114

 Excited State  14:      Singlet-A2    11.0511 eV  112.19 nm  f=0.0000  <S**2>=0.000
      10 -> 15         0.14188
      12 -> 17         0.30418
      12 -> 20         0.59980

 Excited State  15:      Singlet-B1    11.0862 eV  111.84 nm  f=0.0627  <S**2>=0.000
      10 -> 14         0.53226
      10 -> 17        -0.17266
      10 -> 20         0.10930
      12 -> 21        -0.38350

 Excited State  16:      Singlet-B2    11.3620 eV  109.12 nm  f=0.0940  <S**2>=0.000
       9 -> 13         0.65856
       9 -> 15        -0.14693
      12 -> 19         0.11802

 Excited State  17:      Singlet-A2    11.3710 eV  109.04 nm  f=0.0000  <S**2>=0.000
      10 -> 15         0.62904
      10 -> 18         0.21532
      10 -> 21         0.10887
      12 -> 17        -0.10806
      12 -> 20        -0.11578

 Excited State  18:      Singlet-B2    11.4773 eV  108.03 nm  f=0.0984  <S**2>=0.000
       9 -> 13        -0.15052
      10 -> 16        -0.15936
      12 -> 19         0.66115

 Excited State  19:      Singlet-B1    11.5066 eV  107.75 nm  f=0.0226  <S**2>=0.000
      10 -> 14         0.33425
      10 -> 17        -0.20320
      12 -> 21         0.54516
      12 -> 28         0.10578

 Excited State  20:      Singlet-B2    11.6731 eV  106.21 nm  f=0.0414  <S**2>=0.000
       9 -> 13         0.13170
       9 -> 15         0.59402
       9 -> 18         0.12606
      11 -> 17         0.20933
      11 -> 20         0.20061

 Excited State  21:      Singlet-A1    11.7740 eV  105.30 nm  f=0.0003  <S**2>=0.000
       9 -> 17         0.23563
      11 -> 21         0.21945
      12 -> 22         0.60097

 Excited State  22:      Singlet-B1    11.7984 eV  105.09 nm  f=0.0231  <S**2>=0.000
      10 -> 14         0.29567
      10 -> 17         0.56028
      10 -> 20        -0.25691

 Excited State  23:      Singlet-A2    11.9599 eV  103.67 nm  f=0.0000  <S**2>=0.000
      11 -> 19         0.69618

 Excited State  24:      Singlet-B2    12.0096 eV  103.24 nm  f=0.1194  <S**2>=0.000
       9 -> 15         0.13038
      10 -> 16         0.57679
      11 -> 17        -0.10448
      11 -> 20        -0.27020
      12 -> 19         0.19885

 Excited State  25:      Singlet-A1    12.0101 eV  103.23 nm  f=0.0126  <S**2>=0.000
       9 -> 14         0.67993
       9 -> 17        -0.10904
      12 -> 22         0.11062

 Excited State  26:      Singlet-A1    12.2754 eV  101.00 nm  f=0.0130  <S**2>=0.000
       9 -> 17        -0.30162
       9 -> 20         0.11378
      11 -> 15        -0.11856
      11 -> 21         0.58153

 Excited State  27:      Singlet-B2    12.2798 eV  100.97 nm  f=0.0270  <S**2>=0.000
       9 -> 15        -0.17796
      10 -> 16         0.33265
      11 -> 20         0.55635
      11 -> 23         0.12990

 Excited State  28:      Singlet-A2    12.3581 eV  100.33 nm  f=0.0000  <S**2>=0.000
       9 -> 16         0.69264

 Excited State  29:      Singlet-B1    12.3629 eV  100.29 nm  f=0.0019  <S**2>=0.000
      11 -> 22         0.68740

 Excited State  30:      Singlet-A2    12.5838 eV   98.53 nm  f=0.0000  <S**2>=0.000
      10 -> 15         0.11716
      10 -> 18        -0.24124
      10 -> 21         0.10504
      12 -> 23         0.62478

 Excited State  31:      Singlet-A1    12.6963 eV   97.65 nm  f=0.0180  <S**2>=0.000
       9 -> 17         0.10186
      12 -> 22        -0.12338
      12 -> 24         0.67527

 Excited State  32:      Singlet-A2    13.0076 eV   95.32 nm  f=0.0000  <S**2>=0.000
      10 -> 15        -0.14606
      10 -> 18         0.59466
      10 -> 21        -0.15239
      12 -> 23         0.29139

 Excited State  33:      Singlet-B1    13.0609 eV   94.93 nm  f=0.0001  <S**2>=0.000
      11 -> 24        -0.24392
      12 -> 21        -0.13689
      12 -> 25         0.53943
      12 -> 28         0.29684

 Excited State  34:      Singlet-B2    13.1964 eV   93.95 nm  f=0.0180  <S**2>=0.000
       9 -> 18        -0.20051
      11 -> 20        -0.12135
      11 -> 23         0.64055

 Excited State  35:      Singlet-B1    13.2678 eV   93.45 nm  f=0.0211  <S**2>=0.000
      11 -> 24         0.64098
      12 -> 25         0.16066
      12 -> 28         0.18170

 Excited State  36:      Singlet-A1    13.3281 eV   93.02 nm  f=0.0471  <S**2>=0.000
       8 -> 13         0.22444
       8 -> 15        -0.13877
       9 -> 14         0.12150
       9 -> 17         0.38003
       9 -> 20        -0.20117
      11 -> 21         0.24431
      11 -> 25        -0.12426
      11 -> 28        -0.21155
      12 -> 22        -0.22629
      12 -> 24        -0.13915

 Excited State  37:      Singlet-B2    13.4121 eV   92.44 nm  f=0.0246  <S**2>=0.000
       9 -> 15        -0.11176
       9 -> 18         0.65064
      11 -> 23         0.21676

 Excited State  38:      Singlet-B1    13.8216 eV   89.70 nm  f=0.0201  <S**2>=0.000
      10 -> 17         0.18129
      10 -> 20         0.41680
      12 -> 25         0.33032
      12 -> 28        -0.37282

 Excited State  39:      Singlet-A1    13.9357 eV   88.97 nm  f=0.0007  <S**2>=0.000
       8 -> 13         0.44528
       9 -> 17        -0.19400
      10 -> 19        -0.15816
      11 -> 25        -0.42309
      12 -> 22         0.13192

 Excited State  40:      Singlet-A1    13.9502 eV   88.88 nm  f=0.0019  <S**2>=0.000
       8 -> 13         0.34310
       8 -> 15         0.20374
      10 -> 19        -0.37321
      11 -> 25         0.40505

 Excited State  41:      Singlet-A2    13.9673 eV   88.77 nm  f=0.0000  <S**2>=0.000
       7 -> 14         0.13283
      10 -> 15        -0.16872
      10 -> 18         0.14619
      10 -> 21         0.61768
      12 -> 29         0.14581

 Excited State  42:      Singlet-B2    14.1591 eV   87.57 nm  f=0.0201  <S**2>=0.000
      10 -> 22         0.32230
      10 -> 24        -0.15482
      12 -> 26         0.58436

 Excited State  43:      Singlet-B1    14.1976 eV   87.33 nm  f=0.0191  <S**2>=0.000
      10 -> 17         0.23453
      10 -> 20         0.46810
      12 -> 25        -0.22355
      12 -> 28         0.38176

 Excited State  44:      Singlet-A1    14.2230 eV   87.17 nm  f=0.0015  <S**2>=0.000
       8 -> 13         0.22098
       8 -> 15         0.26930
       8 -> 18         0.11106
       9 -> 17         0.18218
       9 -> 20         0.42161
      10 -> 19         0.37220

 Excited State  45:      Singlet-B2    14.2439 eV   87.04 nm  f=0.1550  <S**2>=0.000
       8 -> 14         0.53629
       8 -> 17        -0.37246
       8 -> 20         0.17050
      11 -> 29         0.11666

 Excited State  46:      Singlet-A1    14.4003 eV   86.10 nm  f=0.3147  <S**2>=0.000
       8 -> 13        -0.21831
       8 -> 15         0.49834
      10 -> 19        -0.20721
      11 -> 25        -0.29466
      11 -> 28        -0.15423
      12 -> 27        -0.10619

 Excited State  47:      Singlet-B1    14.4938 eV   85.54 nm  f=0.1090  <S**2>=0.000
       8 -> 16        -0.29039
       9 -> 19         0.61958

 Excited State  48:      Singlet-B2    14.4995 eV   85.51 nm  f=0.0691  <S**2>=0.000
       8 -> 14        -0.13441
       8 -> 17        -0.23977
       8 -> 20         0.11291
       9 -> 21         0.58086
      12 -> 26         0.15263

 Excited State  49:      Singlet-A2    14.5377 eV   85.28 nm  f=0.0000  <S**2>=0.000
       7 -> 17        -0.21242
       7 -> 20         0.10599
       9 -> 22        -0.28527
      10 -> 21        -0.16864
      12 -> 29         0.51103
      12 -> 38        -0.11695
      12 -> 46        -0.10062

 Excited State  50:      Singlet-B2    14.6571 eV   84.59 nm  f=0.0123  <S**2>=0.000
      10 -> 22         0.60722
      12 -> 26        -0.30805

 Excited State  51:      Singlet-A1    14.6573 eV   84.59 nm  f=0.0007  <S**2>=0.000
       8 -> 13        -0.11504
       8 -> 15        -0.19354
       8 -> 18        -0.11860
       9 -> 17         0.25731
       9 -> 20         0.42238
      10 -> 19        -0.34081
      11 -> 25        -0.11037
      11 -> 28         0.17975

 Excited State  52:      Singlet-A2    14.7724 eV   83.93 nm  f=0.0000  <S**2>=0.000
       9 -> 22         0.62430
      12 -> 29         0.27013

 Excited State  53:      Singlet-B2    14.7933 eV   83.81 nm  f=0.0064  <S**2>=0.000
       8 -> 14         0.41782
       8 -> 17         0.38041
       8 -> 20        -0.20305
       9 -> 21         0.29600

 Excited State  54:      Singlet-B1    14.8100 eV   83.72 nm  f=0.2103  <S**2>=0.000
       7 -> 13         0.66904

 Excited State  55:      Singlet-B1    14.9292 eV   83.05 nm  f=0.0009  <S**2>=0.000
       8 -> 16         0.58266
       9 -> 19         0.30483
      10 -> 23        -0.19229

 Excited State  56:      Singlet-A2    14.9681 eV   82.83 nm  f=0.0000  <S**2>=0.000
      11 -> 26         0.69942

 Excited State  57:      Singlet-A1    15.1089 eV   82.06 nm  f=0.0239  <S**2>=0.000
      11 -> 28        -0.36135
      12 -> 27         0.55506

 Excited State  58:      Singlet-A2    15.2850 eV   81.11 nm  f=0.0000  <S**2>=0.000
       7 -> 14         0.48013
       7 -> 17        -0.35595
       7 -> 20         0.18706
      10 -> 25         0.17288
      10 -> 28         0.10200
      12 -> 29        -0.18142

 Excited State  59:      Singlet-B2    15.3025 eV   81.02 nm  f=0.3642  <S**2>=0.000
       9 -> 21        -0.12699
       9 -> 25         0.11825
      10 -> 24         0.65404
      12 -> 26         0.12822

 Excited State  60:      Singlet-B1    15.3222 eV   80.92 nm  f=0.3677  <S**2>=0.000
       7 -> 13        -0.11435
       8 -> 16         0.17295
      10 -> 23         0.64929

 Excited State  61:      Singlet-B1    15.3806 eV   80.61 nm  f=0.1087  <S**2>=0.000
       7 -> 15         0.59495
       7 -> 18         0.13234
       7 -> 21         0.10083
       8 -> 16         0.12583
      12 -> 28        -0.13551
      12 -> 30        -0.22952

 Excited State  62:      Singlet-A2    15.5658 eV   79.65 nm  f=0.0000  <S**2>=0.000
       7 -> 14         0.44500
       7 -> 17         0.29092
       7 -> 20        -0.14705
      10 -> 21        -0.10166
      10 -> 25        -0.33274
      10 -> 28        -0.11299
      12 -> 29         0.14952
      12 -> 31         0.12284

 Excited State  63:      Singlet-A1    15.6144 eV   79.40 nm  f=0.2222  <S**2>=0.000
       8 -> 15         0.16903
       8 -> 18        -0.29375
       9 -> 20        -0.14331
       9 -> 23         0.32776
      11 -> 28         0.29918
      12 -> 27         0.33497

 Excited State  64:      Singlet-B2    15.6818 eV   79.06 nm  f=0.0637  <S**2>=0.000
       8 -> 17         0.13239
      11 -> 29         0.65146
      11 -> 38        -0.12968

 Excited State  65:      Singlet-B1    15.7396 eV   78.77 nm  f=0.0146  <S**2>=0.000
       7 -> 15         0.23035
      12 -> 30         0.64595

 Excited State  66:      Singlet-A2    15.7841 eV   78.55 nm  f=0.0000  <S**2>=0.000
       9 -> 24         0.66896
      12 -> 31        -0.12830

 Excited State  67:      Singlet-A1    15.8317 eV   78.31 nm  f=0.1295  <S**2>=0.000
       7 -> 16         0.11868
       9 -> 23         0.55902
      11 -> 28        -0.18033
      11 -> 30         0.21506
      12 -> 27        -0.15810
      12 -> 32        -0.11833

 Excited State  68:      Singlet-B1    15.8631 eV   78.16 nm  f=0.0261  <S**2>=0.000
      11 -> 27         0.68890

 Excited State  69:      Singlet-A2    15.9815 eV   77.58 nm  f=0.0000  <S**2>=0.000
       9 -> 24         0.13261
      10 -> 25         0.19405
      10 -> 28         0.15615
      12 -> 29         0.11906
      12 -> 31         0.60894

 Excited State  70:      Singlet-A1    16.0291 eV   77.35 nm  f=0.0445  <S**2>=0.000
       7 -> 16         0.25210
       8 -> 18         0.52574
       8 -> 21        -0.12109
       9 -> 20        -0.10627
       9 -> 23         0.16780
      11 -> 28         0.18085
      11 -> 30        -0.15356
      12 -> 32         0.10049

 Excited State  71:      Singlet-A1    16.1789 eV   76.63 nm  f=0.0011  <S**2>=0.000
       7 -> 16         0.44433
       8 -> 18        -0.21152
      11 -> 30        -0.30854
      12 -> 32        -0.34120

 Excited State  72:      Singlet-A2    16.1983 eV   76.54 nm  f=0.0000  <S**2>=0.000
       7 -> 14         0.16342
       7 -> 17         0.29424
       7 -> 20        -0.19040
      10 -> 25         0.52490
      12 -> 31        -0.19810

 Excited State  73:      Singlet-A1    16.2720 eV   76.19 nm  f=0.0583  <S**2>=0.000
       7 -> 16         0.34738
       9 -> 23        -0.16544
      11 -> 28         0.18818
      11 -> 30         0.52376

 Excited State  74:      Singlet-B2    16.3368 eV   75.89 nm  f=0.2176  <S**2>=0.000
       9 -> 21        -0.11052
       9 -> 25         0.47794
       9 -> 28         0.29295
      11 -> 31        -0.32904

 Excited State  75:      Singlet-A1    16.3731 eV   75.72 nm  f=0.0783  <S**2>=0.000
       7 -> 16         0.20557
       8 -> 18        -0.16057
      10 -> 26        -0.11495
      11 -> 28        -0.15749
      11 -> 30        -0.15723
      12 -> 27        -0.10653
      12 -> 32         0.56562

 Excited State  76:      Singlet-B1    16.6088 eV   74.65 nm  f=0.1570  <S**2>=0.000
      11 -> 32         0.10946
      12 -> 34         0.68110

 Excited State  77:      Singlet-B2    16.6314 eV   74.55 nm  f=0.0598  <S**2>=0.000
       8 -> 17         0.15577
       8 -> 20         0.38708
       9 -> 25         0.33625
      11 -> 31         0.40542

 Excited State  78:      Singlet-B1    16.8829 eV   73.44 nm  f=0.0020  <S**2>=0.000
       7 -> 18        -0.23044
      11 -> 32         0.63390
      12 -> 34        -0.10979

 Excited State  79:      Singlet-A2    16.8958 eV   73.38 nm  f=0.0000  <S**2>=0.000
       6 -> 16         0.10406
       8 -> 19         0.67496

 Excited State  80:      Singlet-A1    16.9517 eV   73.14 nm  f=0.2081  <S**2>=0.000
       7 -> 22        -0.10511
      10 -> 26         0.66753
      12 -> 32         0.10676

 Excited State  81:      Singlet-B1    17.0371 eV   72.77 nm  f=0.0820  <S**2>=0.000
       7 -> 15        -0.11005
       7 -> 18         0.59015
       8 -> 22         0.13041
       9 -> 26         0.11323
      11 -> 32         0.23893
      12 -> 36        -0.13689

 Excited State  82:      Singlet-B2    17.0485 eV   72.72 nm  f=0.0232  <S**2>=0.000
       7 -> 19        -0.10796
       8 -> 17         0.26491
       8 -> 20         0.46503
      11 -> 31        -0.38340

 Excited State  83:      Singlet-A2    17.0844 eV   72.57 nm  f=0.0000  <S**2>=0.000
       7 -> 17         0.18394
       7 -> 20         0.12324
      10 -> 25        -0.12236
      10 -> 28         0.60221
      10 -> 30        -0.10703
      12 -> 31        -0.16656

 Excited State  84:      Singlet-A1    17.1916 eV   72.12 nm  f=0.0017  <S**2>=0.000
       8 -> 21         0.54233
       9 -> 29         0.12435
      11 -> 34         0.38714

 Excited State  85:      Singlet-B2    17.2174 eV   72.01 nm  f=0.0056  <S**2>=0.000
       9 -> 25        -0.31090
       9 -> 28         0.55219
      11 -> 31         0.12665

 Excited State  86:      Singlet-B1    17.2949 eV   71.69 nm  f=0.1062  <S**2>=0.000
       7 -> 18        -0.14203
       8 -> 22         0.63874
       9 -> 26         0.18308

 Excited State  87:      Singlet-B2    17.3678 eV   71.39 nm  f=0.0863  <S**2>=0.000
      12 -> 33         0.68583

 Excited State  88:      Singlet-A1    17.4146 eV   71.20 nm  f=0.1575  <S**2>=0.000
       7 -> 16        -0.11425
       8 -> 21        -0.34328
      11 -> 34         0.56080

 Excited State  89:      Singlet-B1    17.4915 eV   70.88 nm  f=0.0296  <S**2>=0.000
       8 -> 22        -0.20184
       8 -> 24        -0.15072
       9 -> 26         0.60533
      12 -> 36         0.20474

 Excited State  90:      Singlet-B1    17.6010 eV   70.44 nm  f=0.0002  <S**2>=0.000
       7 -> 21        -0.31261
       8 -> 24         0.13513
      10 -> 29         0.53331
      12 -> 36         0.24722

 Excited State  91:      Singlet-A2    17.6674 eV   70.18 nm  f=0.0000  <S**2>=0.000
      10 -> 30        -0.30402
      12 -> 29         0.10613
      12 -> 35         0.35291
      12 -> 38         0.47814

 Excited State  92:      Singlet-B1    17.7197 eV   69.97 nm  f=0.0553  <S**2>=0.000
       7 -> 18         0.14602
       9 -> 26        -0.19478
      10 -> 29        -0.25465
      10 -> 31         0.10402
      12 -> 36         0.55930
      12 -> 37         0.16770

 Excited State  93:      Singlet-B2    17.8344 eV   69.52 nm  f=0.0265  <S**2>=0.000
      10 -> 27         0.65683
      11 -> 38         0.10817

 Excited State  94:      Singlet-A2    17.8808 eV   69.34 nm  f=0.0000  <S**2>=0.000
       7 -> 20         0.18647
      11 -> 33         0.61594
      11 -> 39         0.11665
      12 -> 35         0.18684

 Excited State  95:      Singlet-A2    17.9131 eV   69.21 nm  f=0.0000  <S**2>=0.000
       7 -> 20         0.17529
      11 -> 33        -0.26134
      12 -> 29        -0.11106
      12 -> 35         0.48742
      12 -> 38        -0.34327
      12 -> 45         0.11752

 Excited State  96:      Singlet-A2    18.0480 eV   68.70 nm  f=0.0000  <S**2>=0.000
       7 -> 17         0.26651
       7 -> 20         0.53531
      10 -> 28        -0.20805
      11 -> 33        -0.14908
      12 -> 35        -0.16803
      12 -> 38         0.17410

 Excited State  97:      Singlet-B2    18.0658 eV   68.63 nm  f=0.0000  <S**2>=0.000
       6 -> 13        -0.17639
       7 -> 19         0.55848
       8 -> 23         0.10400
      11 -> 35        -0.15339
      11 -> 38        -0.29253

 Excited State  98:      Singlet-B1    18.0815 eV   68.57 nm  f=0.0012  <S**2>=0.000
       7 -> 15        -0.11178
       7 -> 21         0.47601
       8 -> 24        -0.15454
      10 -> 29         0.31259
      10 -> 31         0.29802

 Excited State  99:      Singlet-B2    18.1198 eV   68.42 nm  f=0.0202  <S**2>=0.000
       6 -> 13         0.57047
       6 -> 15        -0.14204
       9 -> 28         0.11116
      10 -> 27         0.10304
      11 -> 35        -0.11809
      11 -> 38        -0.26684

 Excited State 100:      Singlet-B2    18.2433 eV   67.96 nm  f=0.0450  <S**2>=0.000
       7 -> 19        -0.25073
       8 -> 23         0.59863
      11 -> 38        -0.16371

 Excited State 101:      Singlet-A2    18.2504 eV   67.94 nm  f=0.0000  <S**2>=0.000
      10 -> 28         0.11019
      10 -> 30         0.60332
      12 -> 35         0.21426
      12 -> 38         0.22473

 Excited State 102:      Singlet-A1    18.2990 eV   67.75 nm  f=0.1081  <S**2>=0.000
       7 -> 22        -0.38753
       9 -> 29         0.51719
      12 -> 44         0.14674

 Excited State 103:      Singlet-B1    18.3444 eV   67.59 nm  f=0.1054  <S**2>=0.000
       7 -> 21         0.20173
       8 -> 24         0.62387
       9 -> 26         0.13114

 The electronic state is 1-A1.
 Alpha  occ. eigenvalues --  -19.65624 -10.60852 -10.60807  -1.19655  -0.76375
 Alpha  occ. eigenvalues --   -0.72093  -0.60087  -0.56372  -0.47531  -0.45182
 Alpha  occ. eigenvalues --   -0.38342  -0.35558
 Alpha virt. eigenvalues --    0.04283   0.06075   0.08373   0.08918   0.12239
 Alpha virt. eigenvalues --    0.12695   0.16179   0.16718   0.17343   0.18436
 Alpha virt. eigenvalues --    0.21466   0.22043   0.25155   0.27471   0.31242

 Mulliken charges:
               1
     1  C    0.574144
     2  C    0.574144
     3  O   -0.641104
     4  H   -0.126796
     5  H   -0.126796
     6  H   -0.126796
     7  H   -0.126796
 Sum of Mulliken charges =   0.00000

 Dipole moment (field-independent basis, Debye):
    X=             -0.0000    Y=              0.0000    Z=             -1.9733  Tot=              1.9733
 Quadrupole moment (field-independent basis, Debye-Ang):
   XX=            -17.4607   YY=            -16.4645   ZZ=            -21.0103
   XY=             -0.0000   XZ=             -0.0000   YZ=             -0.0000

 Normal termination of Gaussian 16 at Mon Mar 21 20:04:48 2022.
