 Gaussian 16, Revision C.01,
 Gaussian 16:  EM64L-G16RevC.01  3-Jul-2019

 ---------------------------------------------------------------------
 #P TD(Nstates=10000) m062x/Gen SCF(maxcycles=100) Int(Grid=ultrafine)
 ---------------------------------------------------------------------

 ---------------------
 xGDB7_00001_tier4.com
 ---------------------
 Symbolic Z-matrix:
 Charge =  0 Multiplicity = 1

                         Standard orientation:
 ---------------------------------------------------------------------
 Center     Atomic      Atomic             Coordinates (Angstroms)
 Number     Number       Type             X           Y           Z
 ---------------------------------------------------------------------
      1          6           0       -1.122844   -0.452320    0.000000
      2          6           0        0.000000    0.553997    0.000000
      3          9           0        1.225284   -0.098236    0.000000
      4          1           0       -2.083314    0.066805    0.000000
      5          1           0       -1.072796   -1.085651    0.886148
      6          1           0       -1.072796   -1.085651   -0.886148
      7          1           0       -0.030794    1.189278    0.888716
      8          1           0       -0.030794    1.189278   -0.888716
 ---------------------------------------------------------------------

 SCF Done:  E(RM062X) =  -178.852892015     A.U. after   13 cycles

 Excitation energies and oscillator strengths:

 Excited State   1:      Singlet-A"     9.2188 eV  134.49 nm  f=0.0047  <S**2>=0.000
      13 -> 14         0.67315
      13 -> 15         0.14989
 This state for optimization and/or second-order correction.
 Total Energy, E(TD-HF/TD-DFT) =  -178.514109038
 Copying the excited state density for this state as the 1-particle RhoCI density.

 Excited State   2:      Singlet-A'     9.6370 eV  128.65 nm  f=0.0082  <S**2>=0.000
      12 -> 14         0.66080
      12 -> 15         0.16373
      12 -> 16        -0.12129

 Excited State   3:      Singlet-A"     9.9844 eV  124.18 nm  f=0.0217  <S**2>=0.000
      10 -> 14         0.13005
      13 -> 14        -0.15816
      13 -> 15         0.48211
      13 -> 16        -0.37410
      13 -> 19        -0.18038
      13 -> 23         0.13054

 Excited State   4:      Singlet-A'    10.3093 eV  120.26 nm  f=0.0241  <S**2>=0.000
      12 -> 14        -0.21994
      12 -> 15         0.42905
      12 -> 16        -0.41268
      12 -> 18        -0.10515
      12 -> 19        -0.19401
      12 -> 23         0.14122

 Excited State   5:      Singlet-A"    10.4352 eV  118.81 nm  f=0.0841  <S**2>=0.000
      10 -> 14         0.10874
      13 -> 15         0.44364
      13 -> 16         0.47470
      13 -> 19         0.14178

 Excited State   6:      Singlet-A'    10.7125 eV  115.74 nm  f=0.0800  <S**2>=0.000
      11 -> 14         0.59669
      11 -> 15        -0.15850
      12 -> 15        -0.24821
      12 -> 16        -0.19170

 Excited State   7:      Singlet-A'    10.8134 eV  114.66 nm  f=0.1387  <S**2>=0.000
      11 -> 14         0.30189
      12 -> 15         0.45529
      12 -> 16         0.38875
      12 -> 19         0.11506

 Excited State   8:      Singlet-A'    11.0056 eV  112.66 nm  f=0.1203  <S**2>=0.000
      13 -> 17         0.69373

 Excited State   9:      Singlet-A"    11.1535 eV  111.16 nm  f=0.0282  <S**2>=0.000
      10 -> 14         0.12005
      12 -> 17         0.68248

 Excited State  10:      Singlet-A"    11.2968 eV  109.75 nm  f=0.0254  <S**2>=0.000
      10 -> 14         0.63176
      12 -> 17        -0.10766
      13 -> 15        -0.13556
      13 -> 18         0.13734
      13 -> 19         0.12456

 Excited State  11:      Singlet-A"    11.5645 eV  107.21 nm  f=0.0050  <S**2>=0.000
      10 -> 14        -0.13300
      10 -> 16         0.10866
      13 -> 16        -0.12705
      13 -> 18         0.63664

 Excited State  12:      Singlet-A'    11.7418 eV  105.59 nm  f=0.0620  <S**2>=0.000
      11 -> 14         0.10771
      11 -> 15         0.48911
      12 -> 16        -0.14390
      12 -> 18         0.41380
      12 -> 19         0.10949

 Excited State  13:      Singlet-A'    11.8699 eV  104.45 nm  f=0.0345  <S**2>=0.000
      11 -> 14        -0.13817
      11 -> 15        -0.44105
      12 -> 16        -0.11855
      12 -> 18         0.48771

 Excited State  14:      Singlet-A"    11.9098 eV  104.10 nm  f=0.0472  <S**2>=0.000
      10 -> 14        -0.11095
      13 -> 16        -0.26550
      13 -> 18        -0.10897
      13 -> 19         0.59194

 Excited State  15:      Singlet-A"    11.9959 eV  103.36 nm  f=0.0416  <S**2>=0.000
      10 -> 15         0.55619
      13 -> 21         0.37961

 Excited State  16:      Singlet-A'    12.0584 eV  102.82 nm  f=0.0126  <S**2>=0.000
       9 -> 14         0.11843
      12 -> 16        -0.23784
      12 -> 18        -0.17357
      12 -> 19         0.57850
      12 -> 21         0.10934

 Excited State  17:      Singlet-A"    12.1789 eV  101.80 nm  f=0.0049  <S**2>=0.000
      12 -> 20         0.68289

 Excited State  18:      Singlet-A'    12.2069 eV  101.57 nm  f=0.0016  <S**2>=0.000
      13 -> 20         0.67223

 Excited State  19:      Singlet-A"    12.4649 eV   99.47 nm  f=0.0012  <S**2>=0.000
      10 -> 15         0.10923
      10 -> 16        -0.31718
      10 -> 19        -0.12399
      11 -> 17         0.47587
      11 -> 22         0.12246
      13 -> 21        -0.25235

 Excited State  20:      Singlet-A"    12.4898 eV   99.27 nm  f=0.0446  <S**2>=0.000
      10 -> 15        -0.14798
      10 -> 16         0.29705
      10 -> 19         0.10618
      11 -> 17         0.46200
      11 -> 22         0.13651
      13 -> 19        -0.13751
      13 -> 21         0.29216

 Excited State  21:      Singlet-A'    12.5104 eV   99.10 nm  f=0.0739  <S**2>=0.000
      10 -> 17         0.13641
      11 -> 16         0.59971
      11 -> 19         0.21255
      11 -> 23        -0.10584
      13 -> 22        -0.14129

 Excited State  22:      Singlet-A'    12.7127 eV   97.53 nm  f=0.0198  <S**2>=0.000
      10 -> 17         0.39913
      11 -> 16        -0.13432
      11 -> 18        -0.22409
      11 -> 19        -0.17100
      12 -> 21         0.27744
      13 -> 22        -0.36369

 Excited State  23:      Singlet-A'    12.7982 eV   96.88 nm  f=0.0057  <S**2>=0.000
       9 -> 14         0.11798
       9 -> 15         0.10141
      10 -> 17        -0.11779
      11 -> 18         0.26801
      12 -> 19        -0.16387
      12 -> 21         0.54442
      13 -> 22         0.14722

 Excited State  24:      Singlet-A"    12.7986 eV   96.87 nm  f=0.0006  <S**2>=0.000
      10 -> 15         0.32341
      10 -> 16         0.39775
      10 -> 18         0.11248
      13 -> 21        -0.38685
      13 -> 23         0.16235

 Excited State  25:      Singlet-A"    12.9356 eV   95.85 nm  f=0.0003  <S**2>=0.000
      10 -> 18        -0.13573
      10 -> 19        -0.27656
      13 -> 16         0.10125
      13 -> 19         0.11426
      13 -> 21         0.12860
      13 -> 23         0.52294

 Excited State  26:      Singlet-A'    13.0520 eV   94.99 nm  f=0.0848  <S**2>=0.000
       9 -> 14         0.53811
       9 -> 15         0.12882
       9 -> 16        -0.15326
      11 -> 18        -0.26754
      12 -> 19        -0.11590
      12 -> 23        -0.16129

 Excited State  27:      Singlet-A"    13.1169 eV   94.52 nm  f=0.0038  <S**2>=0.000
       9 -> 17        -0.14728
      12 -> 22         0.65352

 Excited State  28:      Singlet-A'    13.1356 eV   94.39 nm  f=0.2010  <S**2>=0.000
       9 -> 14         0.31782
      10 -> 17         0.22069
      11 -> 16        -0.10253
      11 -> 18         0.39641
      12 -> 21        -0.14030
      12 -> 23         0.27430
      13 -> 22        -0.10824

 Excited State  29:      Singlet-A"    13.2380 eV   93.66 nm  f=0.0016  <S**2>=0.000
      10 -> 16        -0.14361
      10 -> 18         0.32274
      11 -> 20         0.52875
      11 -> 24         0.14431
      12 -> 22        -0.12287

 Excited State  30:      Singlet-A'    13.3413 eV   92.93 nm  f=0.0040  <S**2>=0.000
      10 -> 17         0.46003
      13 -> 22         0.51317

 Excited State  31:      Singlet-A'    13.4110 eV   92.45 nm  f=0.0262  <S**2>=0.000
       9 -> 16         0.11608
      10 -> 20         0.14467
      11 -> 18        -0.24087
      12 -> 21         0.19510
      12 -> 23         0.45882
      13 -> 22         0.13443
      13 -> 24        -0.27377

 Excited State  32:      Singlet-A"    13.4302 eV   92.32 nm  f=0.0172  <S**2>=0.000
       7 -> 14         0.12180
      10 -> 16        -0.16886
      10 -> 18         0.43640
      10 -> 19         0.16488
      11 -> 20        -0.30125
      13 -> 18         0.10833
      13 -> 23         0.23429
      13 -> 25         0.18235

 Excited State  33:      Singlet-A'    13.5589 eV   91.44 nm  f=0.0287  <S**2>=0.000
       9 -> 19         0.11873
      10 -> 17         0.12935
      10 -> 20         0.26966
      11 -> 16        -0.21047
      11 -> 19         0.32554
      12 -> 23        -0.23858
      13 -> 24        -0.31386

 Excited State  34:      Singlet-A"    13.5697 eV   91.37 nm  f=0.0503  <S**2>=0.000
      10 -> 19        -0.10572
      10 -> 21         0.17943
      11 -> 20         0.12043
      12 -> 22         0.14075
      12 -> 24         0.45945
      13 -> 25         0.37811

 Excited State  35:      Singlet-A'    13.5758 eV   91.33 nm  f=0.1120  <S**2>=0.000
       9 -> 14        -0.14412
       9 -> 16        -0.22605
       9 -> 23         0.10164
      10 -> 20        -0.13123
      11 -> 16        -0.11198
      11 -> 18        -0.14364
      11 -> 19         0.48900
      12 -> 23         0.11623
      13 -> 24         0.21085

 Excited State  36:      Singlet-A"    13.6826 eV   90.61 nm  f=0.0038  <S**2>=0.000
      10 -> 18        -0.16909
      10 -> 19         0.48420
      10 -> 21        -0.11456
      10 -> 23         0.12743
      11 -> 20         0.10423
      12 -> 24         0.28136
      13 -> 23         0.16177
      13 -> 25        -0.15908
      13 -> 26         0.16531

 Excited State  37:      Singlet-A'    13.8198 eV   89.71 nm  f=0.0734  <S**2>=0.000
       8 -> 14         0.11640
       9 -> 14         0.11775
       9 -> 15        -0.23701
       9 -> 16         0.22671
       9 -> 19         0.12472
      11 -> 19         0.12194
      11 -> 21         0.43153
      11 -> 25        -0.11987
      13 -> 24         0.22399

 Excited State  38:      Singlet-A"    14.0086 eV   88.51 nm  f=0.1892  <S**2>=0.000
      10 -> 16         0.11215
      10 -> 18         0.22600
      10 -> 19        -0.20024
      10 -> 21        -0.15838
      11 -> 20        -0.21749
      11 -> 22         0.10905
      12 -> 24         0.38119
      13 -> 25        -0.33621

 Excited State  39:      Singlet-A'    14.0376 eV   88.32 nm  f=0.0355  <S**2>=0.000
       8 -> 14         0.10798
       9 -> 15        -0.17622
      10 -> 20         0.38161
      11 -> 21        -0.21050
      12 -> 25        -0.28790
      13 -> 24         0.32542
      13 -> 27        -0.16412

 Excited State  40:      Singlet-A'    14.0947 eV   87.97 nm  f=0.1810  <S**2>=0.000
       8 -> 14         0.19576
       9 -> 15         0.42460
      10 -> 20         0.23829
      11 -> 18         0.10295
      11 -> 21         0.29412
      12 -> 25        -0.20204
      13 -> 24        -0.11484

 Excited State  41:      Singlet-A'    14.1682 eV   87.51 nm  f=0.0484  <S**2>=0.000
       8 -> 14        -0.18773
       9 -> 15         0.36884
       9 -> 16         0.34779
      10 -> 20         0.12378
      11 -> 21        -0.10033
      12 -> 25         0.16672
      13 -> 24         0.21695

 Excited State  42:      Singlet-A"    14.1851 eV   87.40 nm  f=0.0634  <S**2>=0.000
       7 -> 14         0.58815
       7 -> 15         0.19121
      10 -> 18        -0.10120
      10 -> 21         0.13523
      13 -> 23         0.10371
      13 -> 25        -0.17635
      13 -> 26        -0.10531

 Excited State  43:      Singlet-A'    14.2626 eV   86.93 nm  f=0.0772  <S**2>=0.000
       8 -> 14         0.51413
       9 -> 16         0.14712
      10 -> 20        -0.22211
      11 -> 21        -0.26644

 Excited State  44:      Singlet-A"    14.3057 eV   86.67 nm  f=0.0470  <S**2>=0.000
       8 -> 17        -0.12761
      11 -> 17        -0.17531
      11 -> 22         0.63553

 Excited State  45:      Singlet-A'    14.4622 eV   85.73 nm  f=0.0431  <S**2>=0.000
       8 -> 14         0.25712
      10 -> 20         0.26052
      10 -> 22        -0.11317
      11 -> 16         0.11869
      11 -> 23         0.13968
      12 -> 25         0.48644
      13 -> 27         0.12091

 Excited State  46:      Singlet-A"    14.5012 eV   85.50 nm  f=0.0555  <S**2>=0.000
       7 -> 14        -0.24808
       9 -> 17        -0.16396
      10 -> 21         0.51531
      13 -> 23         0.11528
      13 -> 25        -0.24113
      13 -> 26        -0.11950

 Excited State  47:      Singlet-A"    14.6136 eV   84.84 nm  f=0.0055  <S**2>=0.000
       9 -> 17         0.63950
      10 -> 21         0.11117
      12 -> 22         0.14037
      12 -> 27         0.13604

 Excited State  48:      Singlet-A"    14.6740 eV   84.49 nm  f=0.0469  <S**2>=0.000
      10 -> 18         0.12910
      10 -> 21         0.21237
      11 -> 24        -0.14357
      13 -> 23        -0.11621
      13 -> 26         0.53280
      13 -> 28        -0.15399

 Excited State  49:      Singlet-A'    14.8046 eV   83.75 nm  f=0.1747  <S**2>=0.000
       8 -> 14        -0.12829
       8 -> 15         0.18017
       8 -> 16        -0.18997
       9 -> 16         0.14451
       9 -> 19        -0.18313
      10 -> 22        -0.32742
      11 -> 23        -0.13195
      12 -> 26        -0.19479
      13 -> 27         0.34742

 Excited State  50:      Singlet-A'    14.8918 eV   83.26 nm  f=0.0892  <S**2>=0.000
       8 -> 16        -0.16935
       9 -> 16         0.25786
       9 -> 18        -0.21309
      12 -> 26         0.49275
      12 -> 28        -0.18058

 Excited State  51:      Singlet-A"    14.8964 eV   83.23 nm  f=0.0000  <S**2>=0.000
       7 -> 14         0.16683
       7 -> 15        -0.36970
       7 -> 16         0.38595
       7 -> 18         0.12960
       7 -> 19         0.22079
       7 -> 23        -0.14743
      10 -> 19        -0.10767
      10 -> 25        -0.11926

 Excited State  52:      Singlet-A'    15.0290 eV   82.50 nm  f=0.0173  <S**2>=0.000
       7 -> 17         0.10529
       8 -> 15         0.31897
       8 -> 16        -0.29208
       8 -> 19        -0.12218
      10 -> 22         0.19435
      11 -> 25         0.15734
      12 -> 26        -0.15363
      13 -> 27        -0.31627

 Excited State  53:      Singlet-A"    15.0538 eV   82.36 nm  f=0.0022  <S**2>=0.000
       7 -> 16         0.15100
      10 -> 23         0.52032
      11 -> 24        -0.26071
      12 -> 27        -0.12030
      13 -> 26        -0.17740
      13 -> 28         0.14790

 Excited State  54:      Singlet-A'    15.0911 eV   82.16 nm  f=0.0115  <S**2>=0.000
       8 -> 16         0.23432
       9 -> 16         0.20476
       9 -> 18        -0.18593
       9 -> 19        -0.15450
      10 -> 22        -0.29353
      11 -> 23         0.36365
      13 -> 27        -0.21366

 Excited State  55:      Singlet-A"    15.1580 eV   81.79 nm  f=0.0051  <S**2>=0.000
       9 -> 17        -0.10715
      11 -> 24        -0.32498
      12 -> 27         0.56293

 Excited State  56:      Singlet-A"    15.2381 eV   81.36 nm  f=0.0520  <S**2>=0.000
       7 -> 15         0.16986
       7 -> 16         0.22313
      10 -> 21         0.10529
      10 -> 23         0.23215
      10 -> 25         0.18012
      11 -> 24         0.40447
      11 -> 27        -0.10649
      12 -> 27         0.28886
      13 -> 26         0.11268

 Excited State  57:      Singlet-A'    15.2404 eV   81.35 nm  f=0.0407  <S**2>=0.000
       8 -> 15         0.27173
       8 -> 16         0.19483
       9 -> 18         0.10689
      10 -> 22         0.21352
      11 -> 23         0.30413
      11 -> 25         0.24422
      12 -> 25        -0.11450
      13 -> 27         0.30871

 Excited State  58:      Singlet-A'    15.3231 eV   80.91 nm  f=0.0166  <S**2>=0.000
       8 -> 15         0.36508
       8 -> 16         0.11651
       9 -> 16        -0.11257
       9 -> 19         0.28276
      10 -> 22        -0.30639
      11 -> 23        -0.15059
      12 -> 23         0.10154
      12 -> 26         0.17909
      12 -> 28         0.10063
      13 -> 27        -0.20859

 Excited State  59:      Singlet-A"    15.3971 eV   80.52 nm  f=0.0162  <S**2>=0.000
       7 -> 14        -0.12553
       7 -> 15         0.43774
       7 -> 16         0.24483
      10 -> 21        -0.13636
      10 -> 23        -0.14424
      11 -> 24        -0.16252
      13 -> 25        -0.12435
      13 -> 26         0.17098
      13 -> 28         0.19055
      13 -> 29         0.15092

 Excited State  60:      Singlet-A'    15.4545 eV   80.23 nm  f=0.0426  <S**2>=0.000
       9 -> 18         0.52387
       9 -> 19        -0.21450
      10 -> 22        -0.12105
      11 -> 23         0.14702
      11 -> 25        -0.11692
      12 -> 26         0.26666

 Excited State  61:      Singlet-A'    15.5071 eV   79.95 nm  f=0.0930  <S**2>=0.000
       8 -> 16         0.14377
       9 -> 18         0.11661
       9 -> 19        -0.12398
      10 -> 24         0.36542
      11 -> 21         0.14662
      11 -> 23        -0.24691
      11 -> 25         0.36337
      11 -> 26         0.11022

 Excited State  62:      Singlet-A'    15.5806 eV   79.58 nm  f=0.0785  <S**2>=0.000
       8 -> 15        -0.28697
       8 -> 16        -0.25328
       9 -> 19         0.21179
      10 -> 22        -0.16698
      10 -> 24        -0.23924
      11 -> 25         0.33163
      11 -> 26         0.17497

 Excited State  63:      Singlet-A"    15.6109 eV   79.42 nm  f=0.0027  <S**2>=0.000
       7 -> 15        -0.17308
       7 -> 16        -0.12168
       8 -> 17         0.38906
       9 -> 20         0.14355
      11 -> 24         0.13303
      13 -> 26         0.16062
      13 -> 28         0.36906
      13 -> 29         0.16779
      13 -> 31        -0.10550

 Excited State  64:      Singlet-A"    15.6637 eV   79.15 nm  f=0.0012  <S**2>=0.000
       8 -> 17        -0.16536
       9 -> 20         0.63413
      12 -> 24         0.12940
      12 -> 27         0.11854

 Excited State  65:      Singlet-A'    15.7539 eV   78.70 nm  f=0.0642  <S**2>=0.000
       7 -> 17        -0.10888
       8 -> 16        -0.26649
       9 -> 19         0.17693
       9 -> 21         0.12831
      10 -> 24         0.44504
      10 -> 27        -0.10609
      11 -> 23         0.20311
      11 -> 26        -0.12324
      12 -> 25        -0.12792
      12 -> 29         0.13914

 Excited State  66:      Singlet-A"    15.7983 eV   78.48 nm  f=0.0995  <S**2>=0.000
       7 -> 16         0.12996
       8 -> 17         0.49472
       9 -> 20         0.11545
      10 -> 25         0.14545
      11 -> 27         0.10559
      13 -> 28        -0.32794
      13 -> 31         0.10461

 Excited State  67:      Singlet-A"    15.8863 eV   78.04 nm  f=0.0239  <S**2>=0.000
       7 -> 15        -0.14988
       8 -> 17        -0.11585
      10 -> 23        -0.14158
      10 -> 25         0.58238

 Excited State  68:      Singlet-A'    15.8938 eV   78.01 nm  f=0.0197  <S**2>=0.000
       7 -> 17        -0.29429
       9 -> 18        -0.17633
       9 -> 19        -0.15812
       9 -> 21        -0.18845
       9 -> 23         0.11756
      12 -> 28         0.45768
      12 -> 29         0.12097

 Excited State  69:      Singlet-A'    15.9674 eV   77.65 nm  f=0.0802  <S**2>=0.000
       7 -> 17         0.47338
       9 -> 18        -0.10676
       9 -> 19        -0.15227
       9 -> 21         0.21819
      12 -> 25        -0.11357
      12 -> 26         0.15403
      12 -> 28         0.22161
      12 -> 29         0.21004

 Excited State  70:      Singlet-A"    16.0500 eV   77.25 nm  f=0.1210  <S**2>=0.000
       7 -> 16        -0.14798
      13 -> 28        -0.28428
      13 -> 29         0.56025

 Excited State  71:      Singlet-A'    16.3065 eV   76.03 nm  f=0.0420  <S**2>=0.000
       7 -> 17        -0.20496
       8 -> 18        -0.11353
       8 -> 19         0.20852
       9 -> 19        -0.14966
       9 -> 21         0.15050
       9 -> 23        -0.20324
      11 -> 25        -0.15293
      11 -> 26         0.46622
      12 -> 31        -0.11471

 Excited State  72:      Singlet-A'    16.3695 eV   75.74 nm  f=0.0614  <S**2>=0.000
       7 -> 17        -0.11850
       8 -> 18         0.23468
       9 -> 21         0.45188
      10 -> 24        -0.11273
      10 -> 27         0.10526
      11 -> 25         0.11990
      11 -> 26        -0.15446
      12 -> 28         0.13704
      12 -> 29        -0.28404

 Excited State  73:      Singlet-A"    16.3792 eV   75.70 nm  f=0.0112  <S**2>=0.000
       7 -> 18        -0.10225
       8 -> 20        -0.17047
      10 -> 26         0.15816
      11 -> 22        -0.10226
      11 -> 27         0.59681

 Excited State  74:      Singlet-A"    16.4539 eV   75.35 nm  f=0.0260  <S**2>=0.000
       7 -> 15        -0.10358
       7 -> 16         0.16983
       7 -> 18        -0.27619
       7 -> 19        -0.15249
       7 -> 23         0.10292
      10 -> 23        -0.11885
      10 -> 26         0.22836
      11 -> 27        -0.10985
      13 -> 28         0.12703
      13 -> 29         0.13144
      13 -> 31         0.38492
      13 -> 34        -0.10284

 Excited State  75:      Singlet-A'    16.5170 eV   75.06 nm  f=0.1075  <S**2>=0.000
       7 -> 20         0.13192
       8 -> 18         0.12227
       9 -> 21         0.12022
      10 -> 24         0.10175
      11 -> 26         0.17376
      13 -> 30         0.60420

 The electronic state is 1-A'.
 Alpha  occ. eigenvalues --  -25.23453 -10.62857 -10.55316  -1.30793  -0.85759
 Alpha  occ. eigenvalues --   -0.71533  -0.58301  -0.58168  -0.53886  -0.47619
 Alpha  occ. eigenvalues --   -0.46151  -0.41594  -0.40444
 Alpha virt. eigenvalues --    0.03983   0.06881   0.10303   0.10449   0.13082
 Alpha virt. eigenvalues --    0.14269   0.14606   0.16528   0.16981   0.18952
 Alpha virt. eigenvalues --    0.20561   0.22048   0.24163   0.24990   0.29350

 Mulliken charges:
               1
     1  C    0.140868
     2  C    0.468787
     3  F   -0.494359
     4  H    0.030417
     5  H    0.024749
     6  H    0.024749
     7  H   -0.097605
     8  H   -0.097605
 Sum of Mulliken charges =   0.00000

 Dipole moment (field-independent basis, Debye):
    X=             -1.8736    Y=              0.7438    Z=             -0.0000  Tot=              2.0158
 Quadrupole moment (field-independent basis, Debye-Ang):
   XX=            -21.0025   YY=            -18.2542   ZZ=            -18.2846
   XY=              0.3376   XZ=              0.0000   YZ=              0.0000

 Normal termination of Gaussian 16 at Mon Mar 21 20:02:16 2022.
