 Gaussian 16, Revision C.01,
 Gaussian 16:  EM64L-G16RevC.01  3-Jul-2019

 ---------------------------------------------------------------------
 #P TD(Nstates=10000) m062x/Gen SCF(maxcycles=100) Int(Grid=ultrafine)
 ---------------------------------------------------------------------

 ---------------------
 xGDB7_00001_tier4.com
 ---------------------
 Symbolic Z-matrix:
 Charge =  0 Multiplicity = 1

                         Standard orientation:
 ---------------------------------------------------------------------
 Center     Atomic      Atomic             Coordinates (Angstroms)
 Number     Number       Type             X           Y           Z
 ---------------------------------------------------------------------
      1          6           0        0.000000    0.000000   -0.524273
      2          8           0        0.000000    0.000000    0.670793
      3          1           0        0.000000    0.939221   -1.110351
      4          1           0       -0.000000   -0.939221   -1.110351
 ---------------------------------------------------------------------

 SCF Done:  E(RM062X) =  -114.369940055     A.U. after   12 cycles

 Excitation energies and oscillator strengths:

 Excited State   1:      Singlet-A2     3.7347 eV  331.98 nm  f=0.0000  <S**2>=0.000
       8 ->  9         0.70044
 This state for optimization and/or second-order correction.
 Total Energy, E(TD-HF/TD-DFT) =  -114.232693717
 Copying the excited state density for this state as the 1-particle RhoCI density.

 Excited State   2:      Singlet-B2     7.7104 eV  160.80 nm  f=0.0287  <S**2>=0.000
       8 -> 10         0.69606

 Excited State   3:      Singlet-B1     8.9861 eV  137.97 nm  f=0.0001  <S**2>=0.000
       6 ->  9         0.69875

 Excited State   4:      Singlet-B2     9.1497 eV  135.51 nm  f=0.0583  <S**2>=0.000
       8 -> 12         0.66521
       8 -> 14         0.20991

 Excited State   5:      Singlet-A1     9.2605 eV  133.88 nm  f=0.1198  <S**2>=0.000
       7 ->  9         0.10315
       8 -> 11         0.69484

 Excited State   6:      Singlet-A2     9.6523 eV  128.45 nm  f=0.0000  <S**2>=0.000
       8 -> 13         0.69796

 Excited State   7:      Singlet-A1     9.7811 eV  126.76 nm  f=0.0857  <S**2>=0.000
       7 ->  9         0.64771
       8 -> 11        -0.10018
       8 -> 16        -0.22713

 Excited State   8:      Singlet-A2    10.2391 eV  121.09 nm  f=0.0000  <S**2>=0.000
       5 ->  9         0.68805

 Excited State   9:      Singlet-B2    10.3475 eV  119.82 nm  f=0.0263  <S**2>=0.000
       8 -> 12        -0.21623
       8 -> 14         0.66410

 Excited State  10:      Singlet-B2    11.1379 eV  111.32 nm  f=0.0609  <S**2>=0.000
       8 -> 15         0.69980

 Excited State  11:      Singlet-B1    11.3078 eV  109.64 nm  f=0.0463  <S**2>=0.000
       7 -> 10         0.69460

 Excited State  12:      Singlet-A1    11.9484 eV  103.77 nm  f=0.2343  <S**2>=0.000
       6 -> 10        -0.12710
       7 ->  9         0.20771
       7 -> 13        -0.12825
       8 -> 16         0.64183

 Excited State  13:      Singlet-B1    12.2736 eV  101.02 nm  f=0.0201  <S**2>=0.000
       8 -> 17         0.69416

 Excited State  14:      Singlet-A2    12.7320 eV   97.38 nm  f=0.0000  <S**2>=0.000
       7 -> 11         0.69340

 Excited State  15:      Singlet-B1    12.8156 eV   96.74 nm  f=0.0529  <S**2>=0.000
       7 -> 12         0.67667
       7 -> 14         0.13776

 Excited State  16:      Singlet-A1    13.1066 eV   94.60 nm  f=0.0244  <S**2>=0.000
       6 -> 10         0.63268
       7 -> 13        -0.28295

 Excited State  17:      Singlet-A2    13.1198 eV   94.50 nm  f=0.0000  <S**2>=0.000
       8 -> 18         0.68372

 Excited State  18:      Singlet-A1    13.6513 eV   90.82 nm  f=0.0025  <S**2>=0.000
       6 -> 10         0.25808
       7 -> 13         0.61996
       8 -> 16         0.15298

 Excited State  19:      Singlet-B2    13.8757 eV   89.35 nm  f=0.1483  <S**2>=0.000
       5 -> 10         0.69209

 Excited State  20:      Singlet-B1    13.9463 eV   88.90 nm  f=0.0004  <S**2>=0.000
       7 -> 12        -0.13635
       7 -> 14         0.67450
       7 -> 15        -0.11420

 Excited State  21:      Singlet-A1    14.3236 eV   86.56 nm  f=0.1989  <S**2>=0.000
       6 -> 12         0.67759
       6 -> 14         0.11783

 Excited State  22:      Singlet-B2    14.3686 eV   86.29 nm  f=0.0469  <S**2>=0.000
       6 -> 11         0.69688

 Excited State  23:      Singlet-B1    14.4068 eV   86.06 nm  f=0.0274  <S**2>=0.000
       4 ->  9        -0.31438
       7 -> 15         0.60515

 Excited State  24:      Singlet-B2    14.6254 eV   84.77 nm  f=0.0115  <S**2>=0.000
       5 -> 12         0.15310
       8 -> 19         0.66576

 Excited State  25:      Singlet-A2    14.6744 eV   84.49 nm  f=0.0000  <S**2>=0.000
       7 -> 16         0.69374

 Excited State  26:      Singlet-B1    14.8055 eV   83.74 nm  f=0.0087  <S**2>=0.000
       6 -> 13         0.68546
       7 -> 15        -0.11788

 Excited State  27:      Singlet-A1    15.1468 eV   81.86 nm  f=0.2365  <S**2>=0.000
       8 -> 20         0.68921

 Excited State  28:      Singlet-B2    15.5330 eV   79.82 nm  f=0.0688  <S**2>=0.000
       5 -> 12         0.14016
       7 -> 17        -0.16723
       8 -> 19        -0.10605
       8 -> 21         0.63438
       8 -> 22        -0.12288

 Excited State  29:      Singlet-B1    15.6199 eV   79.38 nm  f=0.2795  <S**2>=0.000
       4 ->  9         0.59819
       5 -> 17        -0.10306
       6 -> 13         0.14352
       7 -> 15         0.30115
       8 -> 24        -0.10779

 Excited State  30:      Singlet-B2    15.6318 eV   79.32 nm  f=0.0009  <S**2>=0.000
       5 -> 12         0.59252
       5 -> 14         0.22236
       5 -> 15         0.11546
       8 -> 19        -0.14916
       8 -> 21        -0.16549
       8 -> 22         0.11391

 Excited State  31:      Singlet-A1    15.7194 eV   78.87 nm  f=0.0148  <S**2>=0.000
       5 -> 11        -0.26864
       6 -> 14         0.62380

 Excited State  32:      Singlet-B2    15.9356 eV   77.80 nm  f=0.0837  <S**2>=0.000
       5 -> 15         0.12947
       7 -> 17         0.65142
       8 -> 21         0.15946

 Excited State  33:      Singlet-A1    15.9861 eV   77.56 nm  f=0.0001  <S**2>=0.000
       5 -> 11         0.60890
       6 -> 14         0.24048
       6 -> 15        -0.17670

 Excited State  34:      Singlet-A2    16.1350 eV   76.84 nm  f=0.0000  <S**2>=0.000
       5 -> 13         0.69222

 Excited State  35:      Singlet-A1    16.2384 eV   76.35 nm  f=0.0126  <S**2>=0.000
       5 -> 11         0.11745
       6 -> 15         0.65644
       8 -> 23        -0.15438

 Excited State  36:      Singlet-B2    16.2717 eV   76.20 nm  f=0.0046  <S**2>=0.000
       6 -> 16         0.67351

 Excited State  37:      Singlet-B2    16.4799 eV   75.23 nm  f=0.1248  <S**2>=0.000
       5 -> 14        -0.13089
       7 -> 17        -0.10626
       8 -> 21         0.10919
       8 -> 22         0.65053

 Excited State  38:      Singlet-A1    16.7816 eV   73.88 nm  f=0.1074  <S**2>=0.000
       6 -> 15         0.12624
       8 -> 23         0.66646

 Excited State  39:      Singlet-B2    16.8991 eV   73.37 nm  f=0.1697  <S**2>=0.000
       5 -> 12        -0.22776
       5 -> 14         0.58346
       8 -> 22         0.14463
       8 -> 26         0.21693

 Excited State  40:      Singlet-A1    16.9980 eV   72.94 nm  f=0.0052  <S**2>=0.000
       4 -> 10        -0.11301
       5 -> 11        -0.11223
       5 -> 16         0.24440
       7 -> 18         0.62896

 Excited State  41:      Singlet-B1    17.0145 eV   72.87 nm  f=0.1652  <S**2>=0.000
       8 -> 24         0.68762

 Excited State  42:      Singlet-B2    17.2884 eV   71.72 nm  f=0.0880  <S**2>=0.000
       5 -> 14        -0.15326
       5 -> 15         0.37205
       8 -> 26         0.52838
       8 -> 28         0.11270

 Excited State  43:      Singlet-A2    17.4876 eV   70.90 nm  f=0.0000  <S**2>=0.000
       6 -> 17        -0.25191
       8 -> 25         0.65193

 Excited State  44:      Singlet-B2    17.5019 eV   70.84 nm  f=0.0706  <S**2>=0.000
       5 -> 12        -0.15301
       5 -> 14         0.18955
       5 -> 15         0.54278
       8 -> 21        -0.10535
       8 -> 26        -0.33359

 Excited State  45:      Singlet-A2    17.5899 eV   70.49 nm  f=0.0000  <S**2>=0.000
       6 -> 17         0.64936
       8 -> 25         0.25325

 Excited State  46:      Singlet-A1    17.7076 eV   70.02 nm  f=0.0004  <S**2>=0.000
       4 -> 10         0.50966
       5 -> 16         0.46086

 Excited State  47:      Singlet-A1    18.1580 eV   68.28 nm  f=0.0302  <S**2>=0.000
       4 -> 10         0.45444
       5 -> 16        -0.44642
       7 -> 18         0.24618

 Excited State  48:      Singlet-B1    18.2437 eV   67.96 nm  f=0.0859  <S**2>=0.000
       5 -> 17         0.23258
       6 -> 18         0.35507
       7 -> 19         0.53772

 Excited State  49:      Singlet-B1    18.3776 eV   67.46 nm  f=0.0045  <S**2>=0.000
       4 -> 13         0.14000
       6 -> 18         0.53240
       7 -> 19        -0.41540

 Excited State  50:      Singlet-A2    18.6196 eV   66.59 nm  f=0.0000  <S**2>=0.000
       7 -> 20         0.70054

 Excited State  51:      Singlet-B1    18.6521 eV   66.47 nm  f=0.1366  <S**2>=0.000
       5 -> 17         0.62868
       6 -> 18        -0.22642
       7 -> 19        -0.14251

 Excited State  52:      Singlet-B1    18.9384 eV   65.47 nm  f=0.0807  <S**2>=0.000
       7 -> 21         0.67679
       7 -> 22        -0.10414

 Excited State  53:      Singlet-A1    19.2682 eV   64.35 nm  f=0.0609  <S**2>=0.000
       4 -> 12         0.50902
       4 -> 14         0.25998
       6 -> 19        -0.23095
       8 -> 27         0.29969

 Excited State  54:      Singlet-B2    19.2747 eV   64.32 nm  f=0.0045  <S**2>=0.000
       4 -> 11         0.67208
       4 -> 16         0.14129

 Excited State  55:      Singlet-A2    19.2946 eV   64.26 nm  f=0.0000  <S**2>=0.000
       5 -> 18         0.68477

 Excited State  56:      Singlet-A1    19.7088 eV   62.91 nm  f=0.0364  <S**2>=0.000
       4 -> 12        -0.32617
       4 -> 14        -0.18842
       6 -> 19        -0.32608
       6 -> 26         0.12698
       8 -> 27         0.45292

 Excited State  57:      Singlet-B1    19.9535 eV   62.14 nm  f=0.0018  <S**2>=0.000
       4 -> 13         0.63470
       6 -> 18        -0.13513
       7 -> 21         0.10700
       7 -> 22         0.21737

 Excited State  58:      Singlet-A2    19.9700 eV   62.09 nm  f=0.0000  <S**2>=0.000
       7 -> 23         0.68931

 Excited State  59:      Singlet-A1    20.2914 eV   61.10 nm  f=0.0735  <S**2>=0.000
       4 -> 12        -0.19960
       4 -> 14         0.38958
       4 -> 15        -0.28186
       6 -> 19        -0.37169
       6 -> 21         0.11357
       7 -> 25         0.11481
       8 -> 27        -0.19808

 Excited State  60:      Singlet-B2    20.2941 eV   61.09 nm  f=0.0155  <S**2>=0.000
       4 -> 16         0.14154
       6 -> 20         0.67375

 Excited State  61:      Singlet-B1    20.3000 eV   61.08 nm  f=0.1143  <S**2>=0.000
       4 -> 13        -0.20626
       7 -> 22         0.64040
       7 -> 26        -0.13836

 Excited State  62:      Singlet-A1    20.5636 eV   60.29 nm  f=0.0195  <S**2>=0.000
       4 -> 12        -0.10053
       4 -> 14         0.33456
       4 -> 15        -0.27129
       6 -> 19         0.37691
       6 -> 21        -0.14256
       7 -> 25        -0.25287
       8 -> 27         0.22743

 Excited State  63:      Singlet-B2    20.5771 eV   60.25 nm  f=0.0606  <S**2>=0.000
       5 -> 19        -0.11852
       6 -> 20        -0.10268
       7 -> 24         0.60220
       8 -> 28         0.19235
       8 -> 29         0.20898

 Excited State  64:      Singlet-B2    20.6486 eV   60.04 nm  f=0.0018  <S**2>=0.000
       5 -> 19        -0.15389
       7 -> 24        -0.29427
       8 -> 26        -0.12306
       8 -> 28         0.55661
       8 -> 29         0.20053

 Excited State  65:      Singlet-B1    20.9110 eV   59.29 nm  f=0.0071  <S**2>=0.000
       7 -> 21         0.10921
       7 -> 26         0.65490
       7 -> 28         0.12368

 Excited State  66:      Singlet-A1    20.9162 eV   59.28 nm  f=0.0215  <S**2>=0.000
       4 -> 12         0.12898
       4 -> 14        -0.15557
       4 -> 15        -0.27814
       6 -> 21         0.56756
       6 -> 22        -0.13242
       7 -> 25        -0.10490

 Excited State  67:      Singlet-B2    20.9710 eV   59.12 nm  f=0.0696  <S**2>=0.000
       4 -> 16         0.13311
       5 -> 19         0.64116
       5 -> 21        -0.11011
       8 -> 28         0.19147

 Excited State  68:      Singlet-A1    21.1092 eV   58.73 nm  f=0.0015  <S**2>=0.000
       4 -> 12        -0.18413
       4 -> 14         0.22409
       4 -> 15         0.46641
       5 -> 20         0.16745
       6 -> 21         0.22161
       6 -> 22        -0.17574
       7 -> 25        -0.27060

 Excited State  69:      Singlet-B2    21.2020 eV   58.48 nm  f=0.0381  <S**2>=0.000
       4 -> 11        -0.14590
       4 -> 16         0.62379
       5 -> 19        -0.12153
       6 -> 20        -0.13399
       6 -> 23        -0.11403
       8 -> 28        -0.12058

 Excited State  70:      Singlet-A1    21.2782 eV   58.27 nm  f=0.0003  <S**2>=0.000
       4 -> 14        -0.15516
       5 -> 20         0.61891
       6 -> 21        -0.12592
       8 -> 30        -0.23333

 Excited State  71:      Singlet-A1    21.4959 eV   57.68 nm  f=0.0015  <S**2>=0.000
       4 -> 12        -0.11029
       4 -> 14         0.15669
       4 -> 15         0.12912
       6 -> 19         0.20349
       6 -> 21         0.15655
       6 -> 26         0.18092
       7 -> 25         0.53634
       8 -> 27         0.17830
       8 -> 30        -0.12650

 Excited State  72:      Singlet-B2    21.5607 eV   57.50 nm  f=0.0144  <S**2>=0.000
       6 -> 23         0.34733
       8 -> 28        -0.21153
       8 -> 29         0.54701

 Excited State  73:      Singlet-B2    21.6878 eV   57.17 nm  f=0.0001  <S**2>=0.000
       5 -> 19         0.12475
       5 -> 21         0.65148
       5 -> 22        -0.16660

 Excited State  74:      Singlet-A1    21.7431 eV   57.02 nm  f=0.0233  <S**2>=0.000
       4 -> 15         0.11608
       6 -> 21         0.19566
       6 -> 22         0.65010

 Excited State  75:      Singlet-A2    21.7521 eV   57.00 nm  f=0.0000  <S**2>=0.000
       8 -> 31         0.69041

 Excited State  76:      Singlet-B2    21.9044 eV   56.60 nm  f=0.0649  <S**2>=0.000
       4 -> 16         0.14454
       6 -> 23         0.56921
       8 -> 28         0.12077
       8 -> 29        -0.26334
       8 -> 32         0.14323

 Excited State  77:      Singlet-A2    21.9049 eV   56.60 nm  f=0.0000  <S**2>=0.000
       4 -> 17         0.51213
       6 -> 24        -0.45881

 Excited State  78:      Singlet-A2    22.3329 eV   55.52 nm  f=0.0000  <S**2>=0.000
       4 -> 17         0.46032
       6 -> 17        -0.10182
       6 -> 24         0.51785

 Excited State  79:      Singlet-A1    22.3403 eV   55.50 nm  f=0.1061  <S**2>=0.000
       5 -> 20         0.23972
       7 -> 25         0.11532
       8 -> 30         0.63800

 Excited State  80:      Singlet-A2    22.5862 eV   54.89 nm  f=0.0000  <S**2>=0.000
       7 -> 27         0.69156

 Excited State  81:      Singlet-B1    22.7823 eV   54.42 nm  f=0.0025  <S**2>=0.000
       4 -> 18        -0.10473
       6 -> 25         0.68424

 Excited State  82:      Singlet-B2    22.8095 eV   54.36 nm  f=0.1473  <S**2>=0.000
       5 -> 21         0.16724
       5 -> 22         0.63349
       5 -> 26         0.12478
       8 -> 28        -0.10871
       8 -> 29         0.10145
       8 -> 32         0.10637

 Excited State  83:      Singlet-B1    23.0558 eV   53.78 nm  f=0.0053  <S**2>=0.000
       4 -> 18         0.66409
       5 -> 24        -0.13834
       6 -> 25         0.12405

 Excited State  84:      Singlet-A1    23.2212 eV   53.39 nm  f=0.1494  <S**2>=0.000
       5 -> 23         0.64338
       6 -> 26        -0.15599
       7 -> 31        -0.10644

 Excited State  85:      Singlet-B2    23.3457 eV   53.11 nm  f=0.1426  <S**2>=0.000
       5 -> 22        -0.17049
       5 -> 26         0.14639
       8 -> 32         0.64827

 Excited State  86:      Singlet-B1    23.3470 eV   53.10 nm  f=0.1072  <S**2>=0.000
       4 -> 18         0.14795
       5 -> 24         0.66876

 Excited State  87:      Singlet-A1    23.7336 eV   52.24 nm  f=0.3729  <S**2>=0.000
       4 -> 19        -0.17185
       4 -> 21         0.10900
       5 -> 23         0.18455
       6 -> 26         0.57068
       6 -> 28         0.12559
       8 -> 27        -0.16711

 Excited State  88:      Singlet-A2    23.8232 eV   52.04 nm  f=0.0000  <S**2>=0.000
       5 -> 25         0.69710

 Excited State  89:      Singlet-B2    23.9813 eV   51.70 nm  f=0.0811  <S**2>=0.000
       5 -> 26         0.50627
       6 -> 27         0.43536

 Excited State  90:      Singlet-B1    24.1460 eV   51.35 nm  f=0.0003  <S**2>=0.000
       3 ->  9        -0.12603
       7 -> 26        -0.14696
       7 -> 28         0.63264
       7 -> 29         0.22738

 Excited State  91:      Singlet-B2    24.3724 eV   50.87 nm  f=0.1507  <S**2>=0.000
       5 -> 26        -0.38316
       6 -> 27         0.51732
       8 -> 32         0.14789

 Excited State  92:      Singlet-B1    24.6445 eV   50.31 nm  f=0.0333  <S**2>=0.000
       5 -> 24         0.11442
       7 -> 28         0.13346
       7 -> 29        -0.23187
       8 -> 33         0.63564

 Excited State  93:      Singlet-A1    24.8645 eV   49.86 nm  f=0.0055  <S**2>=0.000
       4 -> 19         0.62840
       4 -> 21         0.10035
       5 -> 27         0.21924
       6 -> 26         0.10236

 Excited State  94:      Singlet-B2    24.9797 eV   49.63 nm  f=0.0072  <S**2>=0.000
       4 -> 20         0.68434
       6 -> 30         0.10401

 Excited State  95:      Singlet-B1    25.2920 eV   49.02 nm  f=0.1420  <S**2>=0.000
       3 ->  9        -0.11634
       6 -> 31         0.10245
       7 -> 28        -0.20886
       7 -> 29         0.56530
       7 -> 32         0.20651
       8 -> 33         0.24294

 Excited State  96:      Singlet-A2    25.3285 eV   48.95 nm  f=0.0000  <S**2>=0.000
       7 -> 30         0.68019
       8 -> 34         0.16813

 Excited State  97:      Singlet-A2    25.4911 eV   48.64 nm  f=0.0000  <S**2>=0.000
       7 -> 30        -0.17297
       8 -> 34         0.67166

 Excited State  98:      Singlet-A1    25.4935 eV   48.63 nm  f=0.0547  <S**2>=0.000
       4 -> 21        -0.30797
       4 -> 22         0.17053
       5 -> 27        -0.10707
       6 -> 26         0.13512
       6 -> 28        -0.37716
       6 -> 29        -0.18979
       7 -> 31         0.38738

 Excited State  99:      Singlet-A1    25.7102 eV   48.22 nm  f=0.0000  <S**2>=0.000
       4 -> 21         0.51112
       4 -> 22        -0.10445
       5 -> 27         0.14321
       6 -> 28        -0.21699
       7 -> 31         0.34277

 Excited State 100:      Singlet-A1    26.0241 eV   47.64 nm  f=0.0026  <S**2>=0.000
       4 -> 19        -0.16566
       4 -> 21        -0.18044
       4 -> 22         0.11950
       5 -> 27         0.57070
       6 -> 28        -0.22745
       6 -> 29         0.12189
       7 -> 31        -0.15247

 Excited State 101:      Singlet-A1    26.3085 eV   47.13 nm  f=0.0274  <S**2>=0.000
       4 -> 22         0.31688
       5 -> 27         0.21323
       6 -> 26        -0.14888
       6 -> 28         0.43866
       6 -> 32        -0.10123
       7 -> 31         0.30851

 Excited State 102:      Singlet-B2    26.3653 eV   47.03 nm  f=0.0121  <S**2>=0.000
       4 -> 23         0.68388

 Excited State 103:      Singlet-A1    26.3773 eV   47.00 nm  f=0.0040  <S**2>=0.000
       4 -> 21         0.24104
       4 -> 22         0.55623
       5 -> 27        -0.15689
       6 -> 28        -0.14033
       6 -> 29         0.16628
       7 -> 31        -0.17893

 Excited State 104:      Singlet-B1    26.4313 eV   46.91 nm  f=0.0122  <S**2>=0.000
       3 ->  9         0.33988
       6 -> 31        -0.18025
       7 -> 32         0.57478

 Excited State 105:      Singlet-B1    26.7190 eV   46.40 nm  f=0.0183  <S**2>=0.000
       3 ->  9         0.50969
       6 -> 31         0.41971
       7 -> 29         0.11492
       7 -> 32        -0.17285

 Excited State 106:      Singlet-A2    26.8958 eV   46.10 nm  f=0.0000  <S**2>=0.000
       4 -> 24         0.69493

 Excited State 107:      Singlet-B2    27.0210 eV   45.88 nm  f=0.1013  <S**2>=0.000
       5 -> 28         0.36997
       6 -> 30         0.57590

 Excited State 108:      Singlet-B2    27.2112 eV   45.56 nm  f=0.1190  <S**2>=0.000
       5 -> 26        -0.13931
       5 -> 28         0.57612
       6 -> 30        -0.34218

 Excited State 109:      Singlet-A1    27.2145 eV   45.56 nm  f=0.3465  <S**2>=0.000
       4 -> 21        -0.11538
       4 -> 26         0.16230
       5 -> 30        -0.12378
       6 -> 29         0.59393
       7 -> 31         0.15619
       7 -> 34        -0.15224

 Excited State 110:      Singlet-B1    27.2594 eV   45.48 nm  f=0.4058  <S**2>=0.000
       3 ->  9        -0.25214
       4 -> 25        -0.30012
       6 -> 31         0.45459
       7 -> 29        -0.18188
       7 -> 32         0.27769
       8 -> 33        -0.11098

 Excited State 111:      Singlet-B1    27.6295 eV   44.87 nm  f=0.0527  <S**2>=0.000
       4 -> 25         0.63391
       6 -> 31         0.24045
       7 -> 32         0.11741

 Excited State 112:      Singlet-A1    27.9416 eV   44.37 nm  f=0.0695  <S**2>=0.000
       4 -> 26         0.51338
       5 -> 30         0.16893
       6 -> 32         0.41482

 Excited State 113:      Singlet-A1    28.0360 eV   44.22 nm  f=0.0002  <S**2>=0.000
       4 -> 22         0.11880
       4 -> 26        -0.36711
       5 -> 30        -0.18021
       6 -> 32         0.54039

 Excited State 114:      Singlet-B2    28.0775 eV   44.16 nm  f=0.0706  <S**2>=0.000
       5 -> 29        -0.42032
       6 -> 30        -0.10082
       7 -> 33         0.53982

 Excited State 115:      Singlet-B2    28.3574 eV   43.72 nm  f=0.0573  <S**2>=0.000
       5 -> 29         0.54630
       7 -> 33         0.42041

 Excited State 116:      Singlet-A2    28.6504 eV   43.27 nm  f=0.0000  <S**2>=0.000
       5 -> 31         0.68984
       8 -> 34         0.10743

 Excited State 117:      Singlet-A1    28.9578 eV   42.82 nm  f=0.0001  <S**2>=0.000
       4 -> 26        -0.21374
       5 -> 30         0.58229
       7 -> 34        -0.28062

 Excited State 118:      Singlet-A2    29.5007 eV   42.03 nm  f=0.0000  <S**2>=0.000

 The electronic state is 1-A1.
 Alpha  occ. eigenvalues --  -19.66183 -10.65916  -1.18145  -0.71863  -0.58328
 Alpha  occ. eigenvalues --   -0.54057  -0.48178  -0.34816
 Alpha virt. eigenvalues --   -0.00476   0.03759   0.09759   0.10713   0.11874
 Alpha virt. eigenvalues --    0.14572   0.17616   0.17711   0.22699   0.25978
 Alpha virt. eigenvalues --    0.30856   0.32073   0.34338   0.37416   0.38549

 Mulliken charges:
               1
     1  C    0.475443
     2  O   -0.351800
     3  H   -0.061822
     4  H   -0.061822
 Sum of Mulliken charges =  -0.00000

 Dipole moment (field-independent basis, Debye):
    X=              0.0000    Y=              0.0000    Z=             -2.4598  Tot=              2.4598
 Quadrupole moment (field-independent basis, Debye-Ang):
   XX=            -11.7178   YY=            -11.6031   ZZ=            -12.2433
   XY=              0.0000   XZ=              0.0000   YZ=              0.0000

 Normal termination of Gaussian 16 at Mon Mar 21 20:02:43 2022.
