 Gaussian 16, Revision C.01,
 Gaussian 16:  EM64L-G16RevC.01  3-Jul-2019

 ---------------------------------------------------------------------
 #P TD(Nstates=10000) m062x/Gen SCF(maxcycles=100) Int(Grid=ultrafine)
 ---------------------------------------------------------------------

 ---------------------
 xGDB7_00001_tier4.com
 ---------------------
 Symbolic Z-matrix:
 Charge =  0 Multiplicity = 1

                         Standard orientation:
 ---------------------------------------------------------------------
 Center     Atomic      Atomic             Coordinates (Angstroms)
 Number     Number       Type             X           Y           Z
 ---------------------------------------------------------------------
      1          7           0        1.106441    0.142513   -0.090982
      2          7           0       -0.080753   -0.512520    0.006066
      3          6           0       -1.148696    0.167456    0.008166
      4          1           0        1.854749   -0.409916    0.291533
      5          1           0        1.109676    1.100453    0.242713
      6          1           0       -2.089851   -0.366199    0.035249
      7          1           0       -1.162209    1.260974   -0.024080
 ---------------------------------------------------------------------

 SCF Done:  E(RM062X) =  -149.787691711     A.U. after   14 cycles

 Excitation energies and oscillator strengths:

 Excited State   1:      Singlet-A      5.5662 eV  222.74 nm  f=0.0020  <S**2>=0.000
      11 -> 13         0.65730
      11 -> 14        -0.20993
 This state for optimization and/or second-order correction.
 Total Energy, E(TD-HF/TD-DFT) =  -149.583136341
 Copying the excited state density for this state as the 1-particle RhoCI density.

 Excited State   2:      Singlet-A      6.2256 eV  199.15 nm  f=0.1601  <S**2>=0.000
      12 -> 13         0.67825
      12 -> 14         0.10900

 Excited State   3:      Singlet-A      6.5832 eV  188.33 nm  f=0.0673  <S**2>=0.000
      12 -> 13        -0.13040
      12 -> 14         0.64413
      12 -> 15         0.22377

 Excited State   4:      Singlet-A      7.4831 eV  165.69 nm  f=0.0298  <S**2>=0.000
      12 -> 14        -0.22037
      12 -> 15         0.64050
      12 -> 16         0.14890

 Excited State   5:      Singlet-A      8.0221 eV  154.55 nm  f=0.0306  <S**2>=0.000
      11 -> 13         0.19132
      11 -> 14         0.56785
      12 -> 16        -0.32991

 Excited State   6:      Singlet-A      8.0550 eV  153.92 nm  f=0.0204  <S**2>=0.000
      11 -> 13         0.10023
      11 -> 14         0.31153
      12 -> 15        -0.12033
      12 -> 16         0.58551

 Excited State   7:      Singlet-A      8.7332 eV  141.97 nm  f=0.0042  <S**2>=0.000
      11 -> 15         0.11676
      12 -> 17         0.65647
      12 -> 18         0.12530

 Excited State   8:      Singlet-A      8.8413 eV  140.23 nm  f=0.0235  <S**2>=0.000
      11 -> 14        -0.12634
      11 -> 15         0.66944
      12 -> 17        -0.11165

 Excited State   9:      Singlet-A      9.2854 eV  133.53 nm  f=0.0099  <S**2>=0.000
       9 -> 13        -0.12469
      12 -> 17        -0.12084
      12 -> 18         0.65473

 Excited State  10:      Singlet-A      9.5683 eV  129.58 nm  f=0.0118  <S**2>=0.000
       9 -> 13         0.41728
       9 -> 14        -0.14188
      10 -> 13         0.27594
      11 -> 16        -0.25461
      12 -> 19         0.35412

 Excited State  11:      Singlet-A      9.6453 eV  128.54 nm  f=0.1373  <S**2>=0.000
       9 -> 13         0.17507
      11 -> 16         0.62921
      12 -> 19         0.17891

 Excited State  12:      Singlet-A      9.8056 eV  126.44 nm  f=0.0040  <S**2>=0.000
       9 -> 13        -0.30488
      10 -> 13        -0.18950
      12 -> 18        -0.13129
      12 -> 19         0.56698

 Excited State  13:      Singlet-A     10.0776 eV  123.03 nm  f=0.0358  <S**2>=0.000
      11 -> 17         0.59169
      11 -> 18         0.30006
      12 -> 20        -0.11571

 Excited State  14:      Singlet-A     10.5566 eV  117.45 nm  f=0.0369  <S**2>=0.000
       9 -> 13         0.14510
      10 -> 13        -0.23901
      11 -> 17        -0.26626
      11 -> 18         0.54083
      11 -> 19         0.10903
      12 -> 20        -0.12765

 Excited State  15:      Singlet-A     10.6361 eV  116.57 nm  f=0.0989  <S**2>=0.000
       9 -> 13        -0.29656
      10 -> 13         0.45128
      11 -> 17        -0.16282
      11 -> 18         0.24186
      12 -> 20         0.19724
      12 -> 21         0.19664

 Excited State  16:      Singlet-A     10.7286 eV  115.56 nm  f=0.0234  <S**2>=0.000
      11 -> 18        -0.14663
      11 -> 19         0.12446
      12 -> 20        -0.39001
      12 -> 21         0.52481

 Excited State  17:      Singlet-A     10.7670 eV  115.15 nm  f=0.0669  <S**2>=0.000
       9 -> 13         0.10742
      10 -> 13        -0.20972
      11 -> 17         0.12603
      11 -> 19        -0.24177
      12 -> 20         0.42156
      12 -> 21         0.39267

 Excited State  18:      Singlet-A     10.9300 eV  113.43 nm  f=0.0538  <S**2>=0.000
      11 -> 19         0.62478
      12 -> 20         0.25146

 Excited State  19:      Singlet-A     11.1059 eV  111.64 nm  f=0.0391  <S**2>=0.000
      10 -> 14        -0.40555
      10 -> 15        -0.12221
      12 -> 22         0.52227

 Excited State  20:      Singlet-A     11.1948 eV  110.75 nm  f=0.0749  <S**2>=0.000
      10 -> 13         0.10868
      10 -> 14         0.47079
      10 -> 15         0.21211
      12 -> 22         0.44286

 Excited State  21:      Singlet-A     11.7431 eV  105.58 nm  f=0.0677  <S**2>=0.000
       9 -> 13         0.13246
       9 -> 14         0.45494
      10 -> 15        -0.13957
      11 -> 20        -0.18567
      12 -> 23         0.36387
      12 -> 24         0.21685

 Excited State  22:      Singlet-A     11.7808 eV  105.24 nm  f=0.0324  <S**2>=0.000
       9 -> 14         0.23886
      11 -> 20         0.61310
      11 -> 22         0.10580

 Excited State  23:      Singlet-A     11.8040 eV  105.04 nm  f=0.0652  <S**2>=0.000
       9 -> 14        -0.35144
      11 -> 20         0.17777
      12 -> 23         0.48668
      12 -> 24         0.20503
      12 -> 25        -0.11711

 Excited State  24:      Singlet-A     11.9447 eV  103.80 nm  f=0.0156  <S**2>=0.000
       8 -> 13         0.61076
       8 -> 14        -0.19533
      12 -> 25        -0.11789

 Excited State  25:      Singlet-A     11.9968 eV  103.35 nm  f=0.0443  <S**2>=0.000
       8 -> 13        -0.11932
      10 -> 15         0.12039
      11 -> 21         0.63712
      11 -> 22        -0.11736
      12 -> 24         0.11016

 Excited State  26:      Singlet-A     12.0892 eV  102.56 nm  f=0.0036  <S**2>=0.000
       9 -> 14        -0.10082
      10 -> 14         0.11837
      10 -> 15        -0.29350
      12 -> 23        -0.26956
      12 -> 24         0.48763
      12 -> 27         0.10271

 Excited State  27:      Singlet-A     12.1315 eV  102.20 nm  f=0.0314  <S**2>=0.000
       9 -> 14         0.14942
      10 -> 14        -0.20390
      10 -> 15         0.50234
      10 -> 16         0.12375
      11 -> 21        -0.14237
      12 -> 23        -0.12547
      12 -> 24         0.28440

 Excited State  28:      Singlet-A     12.3867 eV  100.09 nm  f=0.1059  <S**2>=0.000
      11 -> 20        -0.13041
      11 -> 21         0.11812
      11 -> 22         0.63461

 Excited State  29:      Singlet-A     12.4814 eV   99.34 nm  f=0.1056  <S**2>=0.000
      10 -> 15         0.12927
      10 -> 17        -0.10926
      12 -> 25         0.58557
      12 -> 26         0.11259
      12 -> 27         0.19244

 Excited State  30:      Singlet-A     12.5188 eV   99.04 nm  f=0.0655  <S**2>=0.000
      10 -> 16         0.37436
      12 -> 24        -0.14238
      12 -> 25        -0.22822
      12 -> 26         0.24663
      12 -> 27         0.37636
      12 -> 28         0.10721

 Excited State  31:      Singlet-A     12.7190 eV   97.48 nm  f=0.0876  <S**2>=0.000
       9 -> 15         0.55995
      10 -> 16        -0.29738
      12 -> 25        -0.10784

 Excited State  32:      Singlet-A     12.8206 eV   96.71 nm  f=0.0624  <S**2>=0.000
       9 -> 15         0.31847
      10 -> 16         0.44284
      11 -> 23        -0.11729
      12 -> 25         0.10017
      12 -> 26        -0.22538
      12 -> 27        -0.25124

 Excited State  33:      Singlet-A     12.9026 eV   96.09 nm  f=0.0197  <S**2>=0.000
      10 -> 16         0.10194
      11 -> 22        -0.10366
      11 -> 23         0.47378
      11 -> 24        -0.46661

 Excited State  34:      Singlet-A     13.0949 eV   94.68 nm  f=0.0859  <S**2>=0.000
      10 -> 17         0.11232
      12 -> 26         0.57128
      12 -> 27        -0.33543

 Excited State  35:      Singlet-A     13.3154 eV   93.11 nm  f=0.0483  <S**2>=0.000
       9 -> 16         0.13341
      10 -> 17        -0.22815
      11 -> 23         0.38479
      11 -> 24         0.44323
      12 -> 27        -0.12019

 Excited State  36:      Singlet-A     13.3802 eV   92.66 nm  f=0.0100  <S**2>=0.000
       9 -> 16        -0.24222
      10 -> 17         0.51100
      11 -> 23         0.22936
      11 -> 24         0.18913
      11 -> 25         0.11196

 Excited State  37:      Singlet-A     13.4931 eV   91.89 nm  f=0.0136  <S**2>=0.000
       7 -> 13        -0.28132
       9 -> 16         0.50153
       9 -> 17        -0.15058
      10 -> 17         0.24384
      12 -> 27         0.12655

 Excited State  38:      Singlet-A     13.6045 eV   91.13 nm  f=0.0093  <S**2>=0.000
       7 -> 13         0.56003
       7 -> 14        -0.17404
       9 -> 16         0.26010
      11 -> 25        -0.13239

 Excited State  39:      Singlet-A     13.6904 eV   90.56 nm  f=0.0190  <S**2>=0.000
       7 -> 13         0.15386
       9 -> 17        -0.13884
       9 -> 18        -0.10728
      11 -> 25         0.49661
      11 -> 26        -0.23108
      11 -> 27        -0.26299

 Excited State  40:      Singlet-A     13.9384 eV   88.95 nm  f=0.0722  <S**2>=0.000
       8 -> 14        -0.10306
      10 -> 18         0.59351
      10 -> 19         0.11716
      11 -> 26        -0.11191
      11 -> 27        -0.18639

 Excited State  41:      Singlet-A     13.9628 eV   88.80 nm  f=0.0268  <S**2>=0.000
       9 -> 16         0.12748
      10 -> 18         0.16256
      11 -> 25         0.39370
      11 -> 26         0.33567
      11 -> 27         0.32325

 Excited State  42:      Singlet-A     14.1483 eV   87.63 nm  f=0.0102  <S**2>=0.000
       8 -> 13         0.15419
       8 -> 14         0.41144
       9 -> 16        -0.13827
       9 -> 17        -0.29159
       9 -> 18        -0.34046
      10 -> 18         0.13363
      12 -> 28        -0.11611

 Excited State  43:      Singlet-A     14.2630 eV   86.93 nm  f=0.0326  <S**2>=0.000
       8 -> 13         0.12593
       8 -> 14         0.38984
       9 -> 17         0.30995
       9 -> 18         0.14350
       9 -> 19         0.10328
      10 -> 19         0.29642
      11 -> 26        -0.20230

 Excited State  44:      Singlet-A     14.3508 eV   86.40 nm  f=0.0455  <S**2>=0.000
       8 -> 14        -0.20911
       9 -> 17        -0.15710
       9 -> 18        -0.17789
      10 -> 19         0.42669
      12 -> 27        -0.10549
      12 -> 28         0.37840

 Excited State  45:      Singlet-A     14.3729 eV   86.26 nm  f=0.0377  <S**2>=0.000
       9 -> 18         0.19114
       9 -> 19         0.11702
      10 -> 18        -0.10988
      10 -> 19         0.24942
      11 -> 26         0.42548
      11 -> 27        -0.35804
      12 -> 28        -0.11153

 Excited State  46:      Singlet-A     14.4034 eV   86.08 nm  f=0.0111  <S**2>=0.000
       8 -> 14         0.16948
      10 -> 19        -0.28944
      11 -> 26         0.15065
      12 -> 28         0.47157
      12 -> 29        -0.16136

 Excited State  47:      Singlet-A     14.5401 eV   85.27 nm  f=0.0074  <S**2>=0.000
       8 -> 15         0.11684
       9 -> 17         0.14441
       9 -> 19        -0.10015
      10 -> 19        -0.12099
      10 -> 20        -0.14853
      11 -> 26         0.13916
      11 -> 27        -0.13130
      12 -> 27        -0.10537
      12 -> 29         0.53726
      12 -> 30         0.10614

 Excited State  48:      Singlet-A     14.6097 eV   84.86 nm  f=0.0189  <S**2>=0.000
       9 -> 17         0.34152
       9 -> 18        -0.32938
       9 -> 19        -0.20913
      10 -> 20        -0.13294
      11 -> 26         0.13228
      11 -> 27        -0.15168
      12 -> 29        -0.28940

 Excited State  49:      Singlet-A     14.8757 eV   83.35 nm  f=0.0654  <S**2>=0.000
       7 -> 14        -0.11956
       8 -> 15         0.16751
       9 -> 18         0.19857
       9 -> 19        -0.13020
      12 -> 30         0.55019

 Excited State  50:      Singlet-A     14.8957 eV   83.24 nm  f=0.1519  <S**2>=0.000
       7 -> 14        -0.17520
       7 -> 15        -0.12426
       8 -> 14        -0.11155
       9 -> 18        -0.19138
       9 -> 19         0.54664
      10 -> 20        -0.15559
      12 -> 30         0.11925

 Excited State  51:      Singlet-A     14.9501 eV   82.93 nm  f=0.0933  <S**2>=0.000
       7 -> 13         0.15534
       7 -> 14         0.50927
       7 -> 15         0.27692
       9 -> 15        -0.13139
       9 -> 19         0.20357
      12 -> 30         0.21271

 Excited State  52:      Singlet-A     15.0687 eV   82.28 nm  f=0.0271  <S**2>=0.000
       8 -> 15        -0.37512
       9 -> 18        -0.13476
      10 -> 20         0.46107
      12 -> 29         0.13271
      12 -> 30         0.15508
      12 -> 31         0.12133

 Excited State  53:      Singlet-A     15.2550 eV   81.27 nm  f=0.0165  <S**2>=0.000
       7 -> 16        -0.11100
       8 -> 15         0.48324
       9 -> 17         0.11032
      10 -> 20         0.34783
      12 -> 31         0.10469

 Excited State  54:      Singlet-A     15.2801 eV   81.14 nm  f=0.0301  <S**2>=0.000
      10 -> 21         0.55412
      12 -> 31         0.32415
      12 -> 32        -0.19642

 Excited State  55:      Singlet-A     15.4005 eV   80.51 nm  f=0.0820  <S**2>=0.000
      10 -> 20        -0.17594
      10 -> 21        -0.26629
      12 -> 28        -0.11121
      12 -> 31         0.53408
      12 -> 32         0.16026

 Excited State  56:      Singlet-A     15.4771 eV   80.11 nm  f=0.0539  <S**2>=0.000
      10 -> 22         0.13741
      11 -> 27        -0.11230
      11 -> 28         0.52106
      11 -> 29        -0.28849
      11 -> 30        -0.16734
      12 -> 31         0.12894

 Excited State  57:      Singlet-A     15.6044 eV   79.45 nm  f=0.0108  <S**2>=0.000
       8 -> 16        -0.26262
       9 -> 20         0.48743
       9 -> 21         0.20811
      11 -> 29         0.19445
      11 -> 30         0.19971

 Excited State  58:      Singlet-A     15.6306 eV   79.32 nm  f=0.0103  <S**2>=0.000
       8 -> 16         0.21323
      10 -> 21         0.19858
      12 -> 29        -0.14490
      12 -> 30         0.13157
      12 -> 32         0.34080
      12 -> 33         0.44077

 Excited State  59:      Singlet-A     15.7408 eV   78.77 nm  f=0.0045  <S**2>=0.000
       8 -> 16         0.42288
       9 -> 20         0.39424
      11 -> 29        -0.10740
      11 -> 30        -0.19712
      12 -> 32        -0.10126

 Excited State  60:      Singlet-A     15.7562 eV   78.69 nm  f=0.0733  <S**2>=0.000
       6 -> 13        -0.20947
       7 -> 15        -0.12190
       8 -> 16        -0.19030
       9 -> 21        -0.11576
      10 -> 22         0.31074
      11 -> 28        -0.29526
      11 -> 29        -0.12941
      12 -> 33         0.26280

 Excited State  61:      Singlet-A     15.7808 eV   78.57 nm  f=0.0337  <S**2>=0.000
       6 -> 13        -0.10191
       8 -> 16         0.26737
      10 -> 22         0.34659
      10 -> 23        -0.14681
      11 -> 28         0.11663
      11 -> 29         0.22640
      11 -> 30         0.21584
      12 -> 32        -0.22092

 Excited State  62:      Singlet-A     15.9722 eV   77.63 nm  f=0.0011  <S**2>=0.000
       9 -> 22         0.13580
       9 -> 24        -0.13312
      10 -> 22         0.37788
      10 -> 23         0.25322
      12 -> 32         0.30381
      12 -> 33        -0.22669
      12 -> 34         0.13165
      12 -> 36         0.12012

 Excited State  63:      Singlet-A     15.9836 eV   77.57 nm  f=0.0251  <S**2>=0.000
       6 -> 13         0.42101
       7 -> 14         0.17431
       7 -> 15        -0.26874
       9 -> 22        -0.16810
      10 -> 22         0.15624
      10 -> 24         0.12300
      12 -> 34        -0.20058

 Excited State  64:      Singlet-A     16.0621 eV   77.19 nm  f=0.0586  <S**2>=0.000
       7 -> 17        -0.12741
       9 -> 21         0.53267
       9 -> 23        -0.10177
      11 -> 28        -0.16915
      11 -> 29        -0.13031
      11 -> 30        -0.15079
      12 -> 32         0.10468
      12 -> 34         0.15511

 Excited State  65:      Singlet-A     16.0861 eV   77.08 nm  f=0.0517  <S**2>=0.000
       6 -> 13         0.23151
       6 -> 14        -0.10313
       7 -> 14        -0.22591
       7 -> 15         0.45700
       7 -> 17        -0.10081
      10 -> 22         0.10970
      11 -> 28        -0.11511
      11 -> 30        -0.15431
      12 -> 34        -0.14688
      12 -> 35         0.11722

 Excited State  66:      Singlet-A     16.2374 eV   76.36 nm  f=0.0500  <S**2>=0.000
       7 -> 15        -0.14954
       8 -> 17         0.10207
       9 -> 21         0.13392
       9 -> 22         0.31241
       9 -> 24        -0.16217
      10 -> 24        -0.12740
      11 -> 29         0.33477
      11 -> 30        -0.27931
      12 -> 34        -0.12520
      12 -> 35         0.11435

 Excited State  67:      Singlet-A     16.2754 eV   76.18 nm  f=0.0918  <S**2>=0.000
       9 -> 21        -0.17172
       9 -> 22        -0.22255
       9 -> 24         0.10875
      10 -> 23        -0.15861
      10 -> 24         0.12814
      11 -> 29         0.24751
      11 -> 30        -0.30219
      12 -> 34         0.36770
      12 -> 35         0.12791

 Excited State  68:      Singlet-A     16.3021 eV   76.05 nm  f=0.0130  <S**2>=0.000
      10 -> 23        -0.24199
      10 -> 25         0.11116
      11 -> 30        -0.10282
      12 -> 32         0.28830
      12 -> 33        -0.28467
      12 -> 34        -0.27382
      12 -> 35        -0.15585
      12 -> 36        -0.26862

 Excited State  69:      Singlet-A     16.3492 eV   75.83 nm  f=0.0624  <S**2>=0.000
       8 -> 17        -0.18827
       9 -> 22        -0.25481
      10 -> 23         0.40990
      10 -> 24         0.12681
      11 -> 29         0.16322
      11 -> 30        -0.21615
      12 -> 34        -0.21100

 Excited State  70:      Singlet-A     16.5055 eV   75.12 nm  f=0.1011  <S**2>=0.000
       8 -> 17         0.31535
       8 -> 18         0.23069
       9 -> 22        -0.24941
       9 -> 23         0.15568
       9 -> 24        -0.10397
      10 -> 23         0.10705
      10 -> 24        -0.23671
      12 -> 35         0.21788
      12 -> 36        -0.20030

 Excited State  71:      Singlet-A     16.5415 eV   74.95 nm  f=0.0867  <S**2>=0.000
       6 -> 13        -0.13258
       7 -> 16         0.15825
       8 -> 17         0.40168
       9 -> 23        -0.19085
       9 -> 24         0.19164
      10 -> 23         0.15195
      10 -> 24         0.27232
      12 -> 34        -0.13277

 Excited State  72:      Singlet-A     16.5988 eV   74.69 nm  f=0.1844  <S**2>=0.000
       7 -> 16        -0.18477
       8 -> 18         0.48926
       9 -> 22         0.11817
       9 -> 24        -0.15036
      10 -> 24         0.30519

 Excited State  73:      Singlet-A     16.7287 eV   74.11 nm  f=0.1091  <S**2>=0.000
       6 -> 13        -0.19057
       9 -> 22        -0.19861
      10 -> 23        -0.17432
      10 -> 25         0.12823
      11 -> 32        -0.12877
      12 -> 34        -0.19378
      12 -> 35         0.12838
      12 -> 36         0.44606

 Excited State  74:      Singlet-A     16.7824 eV   73.88 nm  f=0.1851  <S**2>=0.000
       7 -> 16        -0.14733
       8 -> 18         0.18697
       9 -> 23        -0.17827
       9 -> 24         0.14000
      10 -> 24        -0.21266
      11 -> 29         0.12664
      11 -> 31         0.36983
      12 -> 35        -0.26138
      12 -> 36         0.18851

 Excited State  75:      Singlet-A     16.7948 eV   73.82 nm  f=0.0925  <S**2>=0.000
       8 -> 18        -0.12766
       8 -> 19         0.10925
       9 -> 22         0.10237
       9 -> 23         0.26668
      10 -> 24         0.29704
      11 -> 31         0.43004
      11 -> 32        -0.17152
      12 -> 36        -0.17825

 Excited State  76:      Singlet-A     16.8298 eV   73.67 nm  f=0.1214  <S**2>=0.000
       8 -> 17        -0.18059
       8 -> 19        -0.13728
       9 -> 23        -0.19864
       9 -> 24         0.12733
      10 -> 25         0.15058
      11 -> 31         0.30116
      11 -> 32         0.18486
      12 -> 35         0.41609

 Excited State  77:      Singlet-A     16.8535 eV   73.57 nm  f=0.0573  <S**2>=0.000
       7 -> 16         0.48179
       8 -> 17        -0.13571
       8 -> 18         0.15672
      10 -> 27         0.16849
      11 -> 31         0.11277
      11 -> 32         0.24442
      12 -> 35        -0.14550

 Excited State  78:      Singlet-A     16.9947 eV   72.95 nm  f=0.0075  <S**2>=0.000
       8 -> 18         0.12701
       8 -> 19        -0.10961
       9 -> 22         0.13801
       9 -> 23         0.15517
       9 -> 24         0.24310
      10 -> 25         0.49070
      11 -> 32        -0.20608
      12 -> 34         0.10184

 Excited State  79:      Singlet-A     17.0192 eV   72.85 nm  f=0.0239  <S**2>=0.000
       7 -> 17         0.10332
       8 -> 17        -0.12380
       8 -> 19         0.61438
       9 -> 24         0.10824

 The electronic state is 1-A.
 Alpha  occ. eigenvalues --  -14.79611 -14.78929 -10.57616  -1.10102  -0.89705
 Alpha  occ. eigenvalues --   -0.69020  -0.60822  -0.57696  -0.48971  -0.46690
 Alpha  occ. eigenvalues --   -0.34319  -0.29879
 Alpha virt. eigenvalues --    0.03529   0.04852   0.07723   0.11306   0.14669
 Alpha virt. eigenvalues --    0.15415   0.16742   0.20344   0.20714   0.22192
 Alpha virt. eigenvalues --    0.24241   0.24684   0.27151   0.28644   0.31191

 Mulliken charges:
               1
     1  N    0.139768
     2  N   -0.323974
     3  C    0.632695
     4  H    0.008700
     5  H    0.018061
     6  H   -0.340203
     7  H   -0.135047
 Sum of Mulliken charges =  -0.00000

 Dipole moment (field-independent basis, Debye):
    X=              0.4010    Y=              1.6499    Z=              1.0070  Tot=              1.9741
 Quadrupole moment (field-independent basis, Debye-Ang):
   XX=            -14.8074   YY=            -18.5492   ZZ=            -20.6785
   XY=             -0.3280   XZ=              1.8376   YZ=              0.2957

 Normal termination of Gaussian 16 at Mon Mar 21 20:14:25 2022.
