 Gaussian 16, Revision C.01,
 Gaussian 16:  EM64L-G16RevC.01  3-Jul-2019

 ---------------------------------------------------------------------
 #P TD(Nstates=10000) m062x/Gen SCF(maxcycles=100) Int(Grid=ultrafine)
 ---------------------------------------------------------------------

 ---------------------
 xGDB7_00001_tier4.com
 ---------------------
 Symbolic Z-matrix:
 Charge =  0 Multiplicity = 1

                         Standard orientation:
 ---------------------------------------------------------------------
 Center     Atomic      Atomic             Coordinates (Angstroms)
 Number     Number       Type             X           Y           Z
 ---------------------------------------------------------------------
      1          6           0        0.000000    1.267731   -0.259082
      2          6           0       -0.000000   -0.000000    0.585552
      3          6           0       -0.000000   -1.267731   -0.259082
      4          1           0        0.000000    2.164308    0.363087
      5          1           0       -0.881453    1.307675   -0.903652
      6          1           0        0.881453    1.307675   -0.903652
      7          1           0       -0.874532    0.000000    1.242055
      8          1           0        0.874532   -0.000000    1.242055
      9          1           0       -0.881453   -1.307675   -0.903652
     10          1           0       -0.000000   -2.164308    0.363087
     11          1           0        0.881453   -1.307675   -0.903652
 ---------------------------------------------------------------------

 SCF Done:  E(RM062X) =  -118.979507245     A.U. after   12 cycles

 Excitation energies and oscillator strengths:

 Excited State   1:      Singlet-B1     8.9272 eV  138.88 nm  f=0.0016  <S**2>=0.000
      13 -> 14         0.68204
      13 -> 16         0.11877
 This state for optimization and/or second-order correction.
 Total Energy, E(TD-HF/TD-DFT) =  -118.651437110
 Copying the excited state density for this state as the 1-particle RhoCI density.

 Excited State   2:      Singlet-B2     9.2834 eV  133.55 nm  f=0.0408  <S**2>=0.000
      11 -> 14         0.69135

 Excited State   3:      Singlet-A1     9.3131 eV  133.13 nm  f=0.0049  <S**2>=0.000
      12 -> 14         0.68049

 Excited State   4:      Singlet-A2     9.7943 eV  126.59 nm  f=0.0000  <S**2>=0.000
      10 -> 14        -0.28365
      13 -> 15         0.63418

 Excited State   5:      Singlet-B1     9.9997 eV  123.99 nm  f=0.1503  <S**2>=0.000
      13 -> 14        -0.10802
      13 -> 16         0.67998

 Excited State   6:      Singlet-B2    10.0701 eV  123.12 nm  f=0.0106  <S**2>=0.000
       9 -> 14        -0.23656
      12 -> 15         0.64957

 Excited State   7:      Singlet-A1    10.1768 eV  121.83 nm  f=0.0223  <S**2>=0.000
       8 -> 14         0.11480
      11 -> 15         0.66546
      12 -> 16         0.14965

 Excited State   8:      Singlet-A1    10.3293 eV  120.03 nm  f=0.1678  <S**2>=0.000
      11 -> 15        -0.13441
      12 -> 14        -0.11170
      12 -> 16         0.66900

 Excited State   9:      Singlet-B2    10.4017 eV  119.20 nm  f=0.0393  <S**2>=0.000
      11 -> 16         0.69456

 Excited State  10:      Singlet-A2    10.6085 eV  116.87 nm  f=0.0000  <S**2>=0.000
      10 -> 14         0.60504
      11 -> 17        -0.14959
      13 -> 15         0.27910

 Excited State  11:      Singlet-A1    10.7587 eV  115.24 nm  f=0.1984  <S**2>=0.000
      13 -> 17         0.68296

 Excited State  12:      Singlet-B1    10.8839 eV  113.92 nm  f=0.0740  <S**2>=0.000
      10 -> 15         0.13782
      12 -> 17         0.50951
      13 -> 18         0.44611

 Excited State  13:      Singlet-B1    10.9397 eV  113.33 nm  f=0.0265  <S**2>=0.000
      10 -> 15         0.14543
      12 -> 17        -0.45154
      13 -> 18         0.48006
      13 -> 20        -0.13278

 Excited State  14:      Singlet-A2    10.9409 eV  113.32 nm  f=0.0000  <S**2>=0.000
      10 -> 14         0.12888
      11 -> 17         0.67726

 Excited State  15:      Singlet-A1    11.2264 eV  110.44 nm  f=0.0105  <S**2>=0.000
       9 -> 15         0.16924
      12 -> 18         0.65638
      12 -> 20        -0.13252

 Excited State  16:      Singlet-B2    11.2276 eV  110.43 nm  f=0.1412  <S**2>=0.000
       8 -> 15         0.10893
       9 -> 14         0.57267
      11 -> 18        -0.28716
      12 -> 15         0.22869

 Excited State  17:      Singlet-B2    11.2545 eV  110.16 nm  f=0.0992  <S**2>=0.000
       9 -> 14         0.28581
      11 -> 18         0.61081

 Excited State  18:      Singlet-B1    11.4300 eV  108.47 nm  f=0.0283  <S**2>=0.000
      10 -> 15         0.56409
      13 -> 18        -0.10799
      13 -> 20         0.35063

 Excited State  19:      Singlet-A2    11.5206 eV  107.62 nm  f=0.0000  <S**2>=0.000
      10 -> 14         0.10164
      10 -> 16         0.56316
      13 -> 21         0.37067

 Excited State  20:      Singlet-B1    11.6874 eV  106.08 nm  f=0.0351  <S**2>=0.000
      12 -> 17        -0.10308
      12 -> 19         0.67231

 Excited State  21:      Singlet-A1    11.6918 eV  106.04 nm  f=0.0129  <S**2>=0.000
      12 -> 20        -0.16047
      13 -> 19         0.65697

 Excited State  22:      Singlet-A2    11.7037 eV  105.94 nm  f=0.0000  <S**2>=0.000
      11 -> 19         0.68175

 Excited State  23:      Singlet-B1    11.8238 eV  104.86 nm  f=0.0832  <S**2>=0.000
       7 -> 14        -0.11018
      10 -> 15        -0.29307
      13 -> 18         0.16970
      13 -> 20         0.56453

 Excited State  24:      Singlet-A1    11.8738 eV  104.42 nm  f=0.0076  <S**2>=0.000
       8 -> 14         0.19879
       9 -> 15         0.49991
      12 -> 20         0.36471
      13 -> 19         0.16239

 Excited State  25:      Singlet-B2    11.8785 eV  104.38 nm  f=0.0857  <S**2>=0.000
       8 -> 15        -0.10315
       9 -> 16         0.10740
      11 -> 20         0.63489
      11 -> 24         0.13087
      12 -> 21         0.15230

 Excited State  26:      Singlet-B2    11.9690 eV  103.59 nm  f=0.1567  <S**2>=0.000
       9 -> 16         0.46815
      10 -> 17        -0.18471
      11 -> 20        -0.19529
      12 -> 21         0.40671
      13 -> 22         0.11241

 Excited State  27:      Singlet-A1    12.1527 eV  102.02 nm  f=0.0531  <S**2>=0.000
       8 -> 14        -0.30653
       9 -> 15        -0.21693
      11 -> 21        -0.15070
      12 -> 18         0.18553
      12 -> 20         0.49799
      12 -> 24         0.11183

 Excited State  28:      Singlet-A2    12.1527 eV  102.02 nm  f=0.0000  <S**2>=0.000
      10 -> 16        -0.33497
      10 -> 18        -0.27305
      12 -> 23         0.15845
      13 -> 21         0.49434

 Excited State  29:      Singlet-B2    12.2218 eV  101.45 nm  f=0.1744  <S**2>=0.000
       9 -> 16         0.23286
      10 -> 17         0.53716
      10 -> 19        -0.10870
      13 -> 22        -0.29442
      13 -> 23        -0.14298

 Excited State  30:      Singlet-A1    12.2524 eV  101.19 nm  f=0.0895  <S**2>=0.000
       8 -> 14        -0.13715
       8 -> 16        -0.16448
      11 -> 21         0.63849

 Excited State  31:      Singlet-A2    12.2964 eV  100.83 nm  f=0.0000  <S**2>=0.000
       9 -> 17         0.43979
      10 -> 16        -0.13964
      10 -> 18         0.15781
      12 -> 22        -0.40735
      12 -> 23        -0.18152
      13 -> 21         0.14727

 Excited State  32:      Singlet-B2    12.4226 eV   99.81 nm  f=0.0022  <S**2>=0.000
       9 -> 16        -0.19250
      10 -> 19         0.21719
      12 -> 21         0.28500
      13 -> 22        -0.30640
      13 -> 23         0.46053

 Excited State  33:      Singlet-A2    12.4298 eV   99.75 nm  f=0.0000  <S**2>=0.000
       7 -> 15        -0.12062
       9 -> 17        -0.23730
      10 -> 16        -0.11053
      10 -> 18         0.46078
      12 -> 22         0.17555
      13 -> 21         0.22250
      13 -> 25         0.29570

 Excited State  34:      Singlet-A1    12.4785 eV   99.36 nm  f=0.0005  <S**2>=0.000
       8 -> 14         0.53161
       8 -> 18         0.11573
       9 -> 15        -0.34665
      11 -> 25        -0.10550
      12 -> 20         0.18038

 Excited State  35:      Singlet-B1    12.4929 eV   99.24 nm  f=0.0000  <S**2>=0.000
       7 -> 14        -0.15342
       7 -> 16        -0.14474
       8 -> 17         0.13223
      10 -> 21         0.23315
      11 -> 22         0.33056
      11 -> 23         0.14544
      13 -> 20        -0.11123
      13 -> 24         0.46810

 Excited State  36:      Singlet-B2    12.5280 eV   98.97 nm  f=0.0951  <S**2>=0.000
       9 -> 16        -0.34219
       9 -> 18        -0.21332
      10 -> 17         0.10511
      10 -> 19        -0.15087
      12 -> 21         0.40778
      12 -> 25        -0.12776
      13 -> 22         0.14685
      13 -> 23        -0.28206

 Excited State  37:      Singlet-B1    12.5999 eV   98.40 nm  f=0.0107  <S**2>=0.000
       8 -> 19        -0.12272
      11 -> 22        -0.13532
      11 -> 23         0.65994

 Excited State  38:      Singlet-A2    12.6225 eV   98.22 nm  f=0.0000  <S**2>=0.000
       9 -> 19         0.20209
      10 -> 20         0.21251
      12 -> 22        -0.22087
      12 -> 23         0.50058
      13 -> 21        -0.10405
      13 -> 25         0.23788
      13 -> 27        -0.10503

 Excited State  39:      Singlet-B1    12.6237 eV   98.22 nm  f=0.0228  <S**2>=0.000
       8 -> 17         0.16461
      10 -> 21        -0.13915
      11 -> 22         0.54772
      13 -> 24        -0.34550

 Excited State  40:      Singlet-B2    12.7824 eV   97.00 nm  f=0.0027  <S**2>=0.000
       8 -> 15         0.11168
       9 -> 16         0.13154
       9 -> 18        -0.28003
      10 -> 17         0.27947
      12 -> 21        -0.12454
      12 -> 25        -0.26784
      13 -> 22         0.36090
      13 -> 23         0.27140

 Excited State  41:      Singlet-B2    12.8939 eV   96.16 nm  f=0.0680  <S**2>=0.000
       9 -> 16        -0.12656
       9 -> 18         0.36972
      10 -> 17         0.24048
      12 -> 21         0.11815
      12 -> 25         0.31126
      13 -> 22         0.36015
      13 -> 23         0.14066

 Excited State  42:      Singlet-A2    12.9197 eV   95.96 nm  f=0.0000  <S**2>=0.000
      10 -> 18        -0.25181
      10 -> 20         0.50809
      10 -> 24         0.11479
      12 -> 22         0.11219
      12 -> 23        -0.26664
      13 -> 25         0.20680
      13 -> 27        -0.10011

 Excited State  43:      Singlet-A1    12.9583 eV   95.68 nm  f=0.0037  <S**2>=0.000
       8 -> 14         0.11614
       8 -> 16        -0.16286
       9 -> 21         0.16211
      11 -> 25         0.32859
      12 -> 20        -0.11144
      12 -> 24         0.51729

 Excited State  44:      Singlet-B1    12.9887 eV   95.46 nm  f=0.1284  <S**2>=0.000
       7 -> 14         0.64297
      10 -> 15        -0.13329
      13 -> 24         0.17980

 Excited State  45:      Singlet-B2    13.0528 eV   94.99 nm  f=0.0765  <S**2>=0.000
      11 -> 20        -0.12996
      11 -> 24         0.65621

 Excited State  46:      Singlet-A2    13.1624 eV   94.20 nm  f=0.0000  <S**2>=0.000
       9 -> 17         0.44803
      10 -> 20        -0.10063
      12 -> 22         0.44236
      12 -> 23         0.13910
      13 -> 25         0.20694

 Excited State  47:      Singlet-A2    13.2295 eV   93.72 nm  f=0.0000  <S**2>=0.000
       9 -> 17        -0.14670
       9 -> 19        -0.13355
      10 -> 18        -0.22685
      10 -> 20        -0.29018
      10 -> 24        -0.15951
      12 -> 22        -0.17209
      12 -> 23        -0.10288
      13 -> 25         0.41000
      13 -> 27        -0.18738
      13 -> 30         0.15690

 Excited State  48:      Singlet-B2    13.2479 eV   93.59 nm  f=0.1113  <S**2>=0.000
       8 -> 15         0.35867
      10 -> 19         0.49544
      12 -> 25         0.11750
      13 -> 23        -0.24735

 Excited State  49:      Singlet-B2    13.2656 eV   93.46 nm  f=0.0169  <S**2>=0.000
       8 -> 15        -0.20425
       9 -> 18        -0.33039
       9 -> 20         0.33164
      11 -> 24         0.10130
      12 -> 25         0.33145
      12 -> 27        -0.28020

 Excited State  50:      Singlet-A1    13.2677 eV   93.45 nm  f=0.0005  <S**2>=0.000
       7 -> 17        -0.13766
       8 -> 16        -0.26025
      10 -> 22        -0.21460
      11 -> 25         0.41054
      12 -> 24        -0.32540
      13 -> 26         0.22778

 Excited State  51:      Singlet-B2    13.3864 eV   92.62 nm  f=0.0050  <S**2>=0.000
       8 -> 15         0.48577
       9 -> 20         0.18746
      10 -> 19        -0.34033
      12 -> 25         0.21769
      13 -> 23         0.11202

 Excited State  52:      Singlet-A1    13.4701 eV   92.04 nm  f=0.0000  <S**2>=0.000
       8 -> 16         0.53892
       9 -> 21        -0.10682
      10 -> 22        -0.18640
      11 -> 21         0.14731
      11 -> 25         0.19233
      12 -> 24         0.11563
      13 -> 26         0.23338

 Excited State  53:      Singlet-B1    13.5563 eV   91.46 nm  f=0.0154  <S**2>=0.000
       7 -> 16        -0.28158
      10 -> 21         0.51783
      13 -> 24        -0.30224
      13 -> 28        -0.10282

 Excited State  54:      Singlet-A2    13.5954 eV   91.20 nm  f=0.0000  <S**2>=0.000
       7 -> 15         0.13450
       9 -> 19        -0.27519
      10 -> 18        -0.12550
      10 -> 24         0.10888
      11 -> 26        -0.13912
      12 -> 23         0.16779
      13 -> 25         0.18821
      13 -> 27         0.50437
      13 -> 30        -0.10834

 Excited State  55:      Singlet-A2    13.6168 eV   91.05 nm  f=0.0000  <S**2>=0.000
       7 -> 15         0.11876
       9 -> 19         0.50653
      10 -> 20        -0.11199
      11 -> 26         0.18835
      11 -> 29         0.10676
      12 -> 23        -0.17681
      13 -> 25         0.17887
      13 -> 27         0.25334

 Excited State  56:      Singlet-B1    13.6279 eV   90.98 nm  f=0.0187  <S**2>=0.000
       8 -> 17        -0.16173
       9 -> 22        -0.20686
       9 -> 23         0.13510
      11 -> 22         0.10777
      12 -> 26         0.41068
      12 -> 29         0.18807
      13 -> 28         0.36246

 Excited State  57:      Singlet-A1    13.7351 eV   90.27 nm  f=0.0128  <S**2>=0.000
       8 -> 18        -0.27961
      11 -> 25        -0.14527
      11 -> 27         0.50223
      12 -> 28        -0.14710
      13 -> 26         0.14866
      13 -> 29        -0.20372

 Excited State  58:      Singlet-B1    13.8262 eV   89.67 nm  f=0.0479  <S**2>=0.000
       8 -> 17         0.30087
       9 -> 22         0.25232
       9 -> 23         0.15714
      11 -> 22        -0.11773
      12 -> 26        -0.27252
      12 -> 29         0.31476
      13 -> 28         0.29241

 Excited State  59:      Singlet-A1    13.8916 eV   89.25 nm  f=0.2485  <S**2>=0.000
       8 -> 16        -0.22560
       9 -> 21        -0.18729
      10 -> 23         0.20642
      11 -> 25        -0.18003
      12 -> 24         0.13938
      12 -> 28         0.19839
      12 -> 31        -0.10020
      13 -> 26         0.37822
      13 -> 29         0.29027

 Excited State  60:      Singlet-A2    13.9144 eV   89.10 nm  f=0.0000  <S**2>=0.000
       7 -> 15        -0.38061
       9 -> 19        -0.18768
      11 -> 26         0.48750
      11 -> 29         0.15532
      13 -> 27         0.13417

 Excited State  61:      Singlet-B2    13.9503 eV   88.88 nm  f=0.0190  <S**2>=0.000
       9 -> 18         0.25125
       9 -> 20         0.43636
       9 -> 24         0.13260
      11 -> 28        -0.23186
      12 -> 25        -0.31423
      12 -> 27        -0.19886

 Excited State  62:      Singlet-A2    13.9506 eV   88.87 nm  f=0.0000  <S**2>=0.000
       7 -> 15         0.51996
       9 -> 19        -0.16616
      10 -> 18         0.11864
      11 -> 26         0.35100
      13 -> 27        -0.13695

 Excited State  63:      Singlet-B2    14.0097 eV   88.50 nm  f=0.0570  <S**2>=0.000
       8 -> 15        -0.14151
       9 -> 18        -0.17841
       9 -> 20         0.15705
       9 -> 24         0.12783
      11 -> 28        -0.26139
      11 -> 31         0.10812
      12 -> 27         0.51109
      12 -> 30        -0.14691

 Excited State  64:      Singlet-A1    14.0387 eV   88.32 nm  f=0.0615  <S**2>=0.000
       8 -> 16         0.10333
       8 -> 20         0.15657
       9 -> 21         0.14719
      10 -> 22         0.14913
      10 -> 23         0.17147
      11 -> 25         0.13981
      11 -> 27         0.15713
      12 -> 24        -0.12494
      12 -> 28        -0.28781
      13 -> 29         0.45029

 Excited State  65:      Singlet-B1    14.0784 eV   88.07 nm  f=0.0056  <S**2>=0.000
       7 -> 16         0.57893
       8 -> 17         0.10235
      10 -> 21         0.27983
      10 -> 25        -0.12780
      12 -> 29        -0.13277

 Excited State  66:      Singlet-A2    14.1404 eV   87.68 nm  f=0.0000  <S**2>=0.000
      10 -> 24        -0.13647
      11 -> 26        -0.19898
      11 -> 29         0.63773

 Excited State  67:      Singlet-B1    14.1418 eV   87.67 nm  f=0.0217  <S**2>=0.000
       7 -> 16        -0.13004
       8 -> 17         0.50885
      10 -> 21        -0.13557
      11 -> 22        -0.13910
      12 -> 26         0.37188
      13 -> 28        -0.12111

 Excited State  68:      Singlet-A1    14.1434 eV   87.66 nm  f=0.0001  <S**2>=0.000
       7 -> 17        -0.12128
      11 -> 27         0.29286
      12 -> 28         0.49597
      13 -> 26        -0.29357
      13 -> 29         0.11111

 Excited State  69:      Singlet-A1    14.2595 eV   86.95 nm  f=0.0096  <S**2>=0.000
       7 -> 17         0.17258
       8 -> 18         0.16450
       9 -> 21         0.32692
      10 -> 22         0.33975
      11 -> 27         0.11610
      12 -> 24        -0.11785
      12 -> 28         0.19724
      13 -> 26         0.33102

 Excited State  70:      Singlet-A1    14.3357 eV   86.49 nm  f=0.0201  <S**2>=0.000
       7 -> 19        -0.11364
       8 -> 20         0.10110
       9 -> 21         0.11348
      10 -> 23         0.57826
      13 -> 29        -0.29961

 Excited State  71:      Singlet-A2    14.3376 eV   86.47 nm  f=0.0000  <S**2>=0.000
       7 -> 21        -0.12302
      10 -> 20        -0.18723
      10 -> 24         0.59568
      11 -> 29         0.13477
      13 -> 27        -0.17617

 Excited State  72:      Singlet-B1    14.3816 eV   86.21 nm  f=0.0712  <S**2>=0.000
       7 -> 18        -0.21096
       8 -> 17         0.13645
      10 -> 25         0.24073
      12 -> 29        -0.39599
      13 -> 28         0.41551

 Excited State  73:      Singlet-B2    14.5079 eV   85.46 nm  f=0.2493  <S**2>=0.000
       9 -> 20         0.22832
       9 -> 24         0.11854
      10 -> 19         0.11909
      11 -> 28         0.55966
      12 -> 25        -0.12952
      12 -> 27         0.21415

 Excited State  74:      Singlet-A1    14.5249 eV   85.36 nm  f=0.0091  <S**2>=0.000
       7 -> 17         0.15634
       8 -> 18        -0.31000
       9 -> 21         0.42706
      10 -> 22        -0.31366
      11 -> 25        -0.17289
      11 -> 27        -0.12668
      12 -> 28         0.10012

 Excited State  75:      Singlet-B1    14.5346 eV   85.30 nm  f=0.0002  <S**2>=0.000
       7 -> 18         0.17622
       8 -> 19        -0.25100
       9 -> 23         0.36325
      10 -> 25        -0.28164
      12 -> 26        -0.14961
      12 -> 29        -0.33426

 Excited State  76:      Singlet-A1    14.6452 eV   84.66 nm  f=0.0047  <S**2>=0.000
       7 -> 17         0.29900
       8 -> 18         0.39087
       9 -> 25        -0.18030
      10 -> 22        -0.37192
      11 -> 27         0.21745

 Excited State  77:      Singlet-B1    14.7265 eV   84.19 nm  f=0.1077  <S**2>=0.000
       8 -> 17        -0.14275
       9 -> 22         0.50606
       9 -> 23         0.20783
      10 -> 25         0.26680
      12 -> 26         0.22810
      12 -> 29        -0.10359

 Excited State  78:      Singlet-B1    14.8204 eV   83.66 nm  f=0.0391  <S**2>=0.000
       7 -> 18         0.10688
       7 -> 20        -0.17585
       8 -> 19        -0.19283
       9 -> 22        -0.26517
       9 -> 23         0.15611
      10 -> 25         0.39772
      10 -> 27        -0.23374
      12 -> 26        -0.12654
      13 -> 28        -0.14527
      13 -> 31         0.20562

 Excited State  79:      Singlet-B2    14.8959 eV   83.23 nm  f=0.0740  <S**2>=0.000
       8 -> 21        -0.21175
       9 -> 20        -0.21675
       9 -> 24         0.58279
      12 -> 27        -0.14159

 Excited State  80:      Singlet-A1    14.9394 eV   82.99 nm  f=0.0946  <S**2>=0.000
       7 -> 17         0.41033
       8 -> 18        -0.17807
       8 -> 20         0.34575
       9 -> 21        -0.19964
       9 -> 25         0.15402
      11 -> 25         0.17019

 Excited State  81:      Singlet-B1    14.9943 eV   82.69 nm  f=0.0682  <S**2>=0.000
       8 -> 19         0.56905
       9 -> 22        -0.12130
       9 -> 23         0.28977
      11 -> 23         0.10516
      13 -> 31         0.14318

 Excited State  82:      Singlet-B1    15.0564 eV   82.35 nm  f=0.4150  <S**2>=0.000
       7 -> 18         0.42172
       9 -> 22         0.13144
       9 -> 23        -0.28807
      12 -> 29        -0.13381
      13 -> 28         0.15373
      13 -> 31         0.36617

 Excited State  83:      Singlet-A1    15.1399 eV   81.89 nm  f=0.3804  <S**2>=0.000
       7 -> 17         0.21324
       7 -> 19        -0.15425
       8 -> 20        -0.38486
       9 -> 25         0.43434
      10 -> 23         0.11926
      11 -> 27         0.10760
      13 -> 29         0.11202

 Excited State  84:      Singlet-A2    15.2180 eV   81.47 nm  f=0.0000  <S**2>=0.000
      10 -> 20         0.12777
      13 -> 27         0.15720
      13 -> 30         0.63590

 Excited State  85:      Singlet-A1    15.2490 eV   81.31 nm  f=0.0004  <S**2>=0.000
       7 -> 17        -0.24987
       7 -> 19         0.22565
       8 -> 18         0.15423
       8 -> 20         0.16995
       9 -> 21         0.11190
       9 -> 25         0.38036
      11 -> 30         0.28039
      12 -> 31         0.19031

 Excited State  86:      Singlet-B2    15.2700 eV   81.19 nm  f=0.1733  <S**2>=0.000
       7 -> 22         0.16003
       8 -> 21         0.14378
       9 -> 24         0.11709
      10 -> 26         0.59018

 The electronic state is 1-A1.
 Alpha  occ. eigenvalues --  -10.54362 -10.53660 -10.53657  -0.87108  -0.76228
 Alpha  occ. eigenvalues --   -0.65901  -0.52750  -0.50494  -0.46258  -0.44309
 Alpha  occ. eigenvalues --   -0.39672  -0.39547  -0.38527
 Alpha virt. eigenvalues --    0.04425   0.06911   0.07839   0.11208   0.12528
 Alpha virt. eigenvalues --    0.14211   0.15142   0.15609   0.16978   0.18502
 Alpha virt. eigenvalues --    0.18890   0.20082   0.21726   0.22604   0.23531

 Mulliken charges:
               1
     1  C    0.379053
     2  C   -0.577278
     3  C    0.379053
     4  H   -0.027506
     5  H    0.004913
     6  H    0.004913
     7  H   -0.072732
     8  H   -0.072732
     9  H    0.004913
    10  H   -0.027506
    11  H    0.004913
 Sum of Mulliken charges =  -0.00000

 Dipole moment (field-independent basis, Debye):
    X=              0.0000    Y=              0.0000    Z=              0.0847  Tot=              0.0847
 Quadrupole moment (field-independent basis, Debye-Ang):
   XX=            -21.5172   YY=            -22.2789   ZZ=            -21.9974
   XY=             -0.0000   XZ=              0.0000   YZ=             -0.0000

 Normal termination of Gaussian 16 at Mon Mar 21 20:04:44 2022.
