 Gaussian 16, Revision C.01,
 Gaussian 16:  EM64L-G16RevC.01  3-Jul-2019

 ---------------------------------------------------------------------
 #P TD(Nstates=10000) m062x/Gen SCF(maxcycles=100) Int(Grid=ultrafine)
 ---------------------------------------------------------------------

 ---------------------
 xGDB7_00001_tier4.com
 ---------------------
 Symbolic Z-matrix:
 Charge =  0 Multiplicity = 1

                         Standard orientation:
 ---------------------------------------------------------------------
 Center     Atomic      Atomic             Coordinates (Angstroms)
 Number     Number       Type             X           Y           Z
 ---------------------------------------------------------------------
      1          9           0        0.000000    0.000000    0.688193
      2          9           0        0.000000    0.000000   -0.688193
 ---------------------------------------------------------------------

 SCF Done:  E(RM062X) =  -199.284082888     A.U. after   10 cycles

 Excitation energies and oscillator strengths:

 Excited state symmetry could not be determined.
 Excited State   1:      Singlet-?Sym    4.5371 eV  273.27 nm  f=0.0000  <S**2>=0.000
       8 -> 10         0.52679
       9 -> 10        -0.46017
 This state for optimization and/or second-order correction.
 Total Energy, E(TD-HF/TD-DFT) =  -199.117348341
 Copying the excited state density for this state as the 1-particle RhoCI density.

 Excited state symmetry could not be determined.
 Excited State   2:      Singlet-?Sym    4.5371 eV  273.27 nm  f=0.0000  <S**2>=0.000
       8 -> 10         0.46017
       9 -> 10         0.52679

 Excited state symmetry could not be determined.
 Excited State   3:      Singlet-?Sym    8.7197 eV  142.19 nm  f=0.0000  <S**2>=0.000
       6 -> 10        -0.12229
       7 -> 10         0.68414
       7 -> 11        -0.12511

 Excited state symmetry could not be determined.
 Excited State   4:      Singlet-?Sym    8.7197 eV  142.19 nm  f=0.0000  <S**2>=0.000
       6 -> 10         0.68414
       6 -> 11        -0.12511
       7 -> 10         0.12229

 Excited state symmetry could not be determined.
 Excited State   5:      Singlet-?Sym   13.5341 eV   91.61 nm  f=0.0000  <S**2>=0.000
       8 -> 12         0.54170
       8 -> 17        -0.11694
       9 -> 12         0.41756

 Excited state symmetry could not be determined.
 Excited State   6:      Singlet-?Sym   13.5341 eV   91.61 nm  f=0.0000  <S**2>=0.000
       8 -> 12        -0.41756
       9 -> 12         0.54170
       9 -> 17        -0.11694

 Excited State   7:      Singlet-SGU   13.5669 eV   91.39 nm  f=0.4648  <S**2>=0.000
       5 -> 10         0.51610
       8 -> 14        -0.33626
       9 -> 13        -0.33626

 Excited state symmetry could not be determined.
 Excited State   8:      Singlet-?Sym   13.7197 eV   90.37 nm  f=0.0303  <S**2>=0.000
       8 -> 11        -0.36195
       9 -> 10         0.11085
       9 -> 11         0.57891

 Excited state symmetry could not be determined.
 Excited State   9:      Singlet-?Sym   13.7197 eV   90.37 nm  f=0.0303  <S**2>=0.000
       8 -> 10         0.11085
       8 -> 11         0.57891
       9 -> 11         0.36195

 Excited state symmetry could not be determined.
 Excited State  10:      Singlet-?Sym   14.3635 eV   86.32 nm  f=0.0000  <S**2>=0.000
       8 -> 13        -0.49712
       9 -> 14         0.49712

 Excited state symmetry could not be determined.
 Excited State  11:      Singlet-?Sym   14.4949 eV   85.54 nm  f=0.0000  <S**2>=0.000
       8 -> 13         0.49805
       9 -> 14         0.49805

 Excited state symmetry could not be determined.
 Excited State  12:      Singlet-?Sym   14.4952 eV   85.53 nm  f=0.0000  <S**2>=0.000
       8 -> 14        -0.49805
       9 -> 13         0.49805

 Excited state symmetry could not be determined.
 Excited State  13:      Singlet-?Sym   16.1548 eV   76.75 nm  f=0.0000  <S**2>=0.000
       6 -> 11        -0.15037
       9 -> 12         0.12426
       9 -> 17         0.67697

 Excited state symmetry could not be determined.
 Excited State  14:      Singlet-?Sym   16.1548 eV   76.75 nm  f=0.0000  <S**2>=0.000
       7 -> 11        -0.15037
       8 -> 12         0.12426
       8 -> 17         0.67697

 Excited State  15:      Singlet-SGU   16.2494 eV   76.30 nm  f=0.2290  <S**2>=0.000
       5 -> 10         0.45321
       5 -> 11         0.17989
       8 -> 14         0.35543
       9 -> 13         0.35543

 Excited state symmetry could not be determined.
 Excited State  16:      Singlet-?Sym   16.2639 eV   76.23 nm  f=0.0000  <S**2>=0.000
       6 -> 14        -0.12975
       7 -> 13         0.12975
       8 -> 15         0.48185
       9 -> 16        -0.48185

 Excited state symmetry could not be determined.
 Excited State  17:      Singlet-?Sym   16.4288 eV   75.47 nm  f=0.0000  <S**2>=0.000
       6 -> 13         0.10861
       7 -> 14        -0.10861
       8 -> 16        -0.48723
       9 -> 15         0.48723

 Excited state symmetry could not be determined.
 Excited State  18:      Singlet-?Sym   16.4288 eV   75.47 nm  f=0.0000  <S**2>=0.000
       6 -> 14         0.10865
       7 -> 13         0.10865
       8 -> 15         0.48722
       9 -> 16         0.48722

 Excited state symmetry could not be determined.
 Excited State  19:      Singlet-?Sym   17.0423 eV   72.75 nm  f=0.0000  <S**2>=0.000
       5 -> 12        -0.12540
       8 -> 16         0.49042
       9 -> 15         0.49042

 Excited state symmetry could not be determined.
 Excited State  20:      Singlet-?Sym   17.7680 eV   69.78 nm  f=0.0966  <S**2>=0.000
       6 -> 12         0.47627
       6 -> 17        -0.10013
       7 -> 12         0.48657
       7 -> 17        -0.10230

 Excited state symmetry could not be determined.
 Excited State  21:      Singlet-?Sym   17.7680 eV   69.78 nm  f=0.0966  <S**2>=0.000
       6 -> 12         0.48657
       6 -> 17        -0.10230
       7 -> 12        -0.47627
       7 -> 17         0.10013

 Excited state symmetry could not be determined.
 Excited State  22:      Singlet-?Sym   17.9854 eV   68.94 nm  f=0.0000  <S**2>=0.000
       6 -> 10         0.11907
       6 -> 11         0.66967
       9 -> 12         0.12222
       9 -> 17         0.13502

 Excited state symmetry could not be determined.
 Excited State  23:      Singlet-?Sym   17.9854 eV   68.94 nm  f=0.0000  <S**2>=0.000
       7 -> 10         0.11907
       7 -> 11         0.66967
       8 -> 12         0.12222
       8 -> 17         0.13502

 Excited State  24:      Singlet-SGG   18.4967 eV   67.03 nm  f=0.0000  <S**2>=0.000
       5 -> 12         0.62765
       5 -> 17        -0.14424
       6 -> 13        -0.19148
       7 -> 14        -0.19148

 Excited state symmetry could not be determined.
 Excited State  25:      Singlet-?Sym   18.5728 eV   66.76 nm  f=0.0000  <S**2>=0.000
       6 -> 14        -0.48206
       7 -> 13         0.48206
       8 -> 15        -0.13074
       9 -> 16         0.13074

 Excited state symmetry could not be determined.
 Excited State  26:      Singlet-?Sym   18.6819 eV   66.37 nm  f=0.0000  <S**2>=0.000
       6 -> 14         0.48749
       7 -> 13         0.48749
       8 -> 15        -0.10936
       9 -> 16        -0.10936

 Excited state symmetry could not be determined.
 Excited State  27:      Singlet-?Sym   18.6820 eV   66.37 nm  f=0.0000  <S**2>=0.000
       6 -> 13        -0.48750
       7 -> 14         0.48750
       8 -> 16        -0.10932
       9 -> 15         0.10932

 Excited State  28:      Singlet-SGU   19.2468 eV   64.42 nm  f=0.0162  <S**2>=0.000
       5 -> 11         0.65404
       6 -> 15         0.14770
       7 -> 16         0.14770

 Excited state symmetry could not be determined.
 Excited State  29:      Singlet-?Sym   19.2827 eV   64.30 nm  f=0.0197  <S**2>=0.000
       5 -> 13        -0.24090
       5 -> 14         0.66353

 Excited state symmetry could not be determined.
 Excited State  30:      Singlet-?Sym   19.2827 eV   64.30 nm  f=0.0197  <S**2>=0.000
       5 -> 13         0.66353
       5 -> 14         0.24090

 Excited state symmetry could not be determined.
 Excited State  31:      Singlet-?Sym   19.6075 eV   63.23 nm  f=0.0000  <S**2>=0.000
       5 -> 12         0.22158
       5 -> 17        -0.18619
       6 -> 13         0.45160
       7 -> 14         0.45160

 Excited state symmetry could not be determined.
 Excited State  32:      Singlet-?Sym   20.3909 eV   60.80 nm  f=0.0547  <S**2>=0.000
       6 -> 12         0.12713
       6 -> 17         0.61844
       7 -> 17         0.30290

 Excited state symmetry could not be determined.
 Excited State  33:      Singlet-?Sym   20.3909 eV   60.80 nm  f=0.0547  <S**2>=0.000
       6 -> 17        -0.30290
       7 -> 12         0.12713
       7 -> 17         0.61844

 Excited state symmetry could not be determined.
 Excited State  34:      Singlet-?Sym   20.4862 eV   60.52 nm  f=0.0000  <S**2>=0.000
       6 -> 16        -0.49684
       7 -> 15         0.49684

 Excited state symmetry could not be determined.
 Excited State  35:      Singlet-?Sym   20.5440 eV   60.35 nm  f=0.0000  <S**2>=0.000
       6 -> 16         0.49770
       7 -> 15         0.49770

 Excited state symmetry could not be determined.
 Excited State  36:      Singlet-?Sym   20.5440 eV   60.35 nm  f=0.0000  <S**2>=0.000
       6 -> 15         0.49770
       7 -> 16        -0.49770

 Excited state symmetry could not be determined.
 Excited State  37:      Singlet-?Sym   21.0279 eV   58.96 nm  f=0.0087  <S**2>=0.000
       5 -> 10         0.10681
       5 -> 11        -0.18236
       6 -> 15         0.46991
       7 -> 16         0.46991

 Excited State  38:      Singlet-SGG   21.2130 eV   58.45 nm  f=0.0000  <S**2>=0.000
       5 -> 12         0.19951
       5 -> 17         0.66203

 Excited state symmetry could not be determined.
 Excited State  39:      Singlet-?Sym   21.2460 eV   58.36 nm  f=0.0000  <S**2>=0.000
       5 -> 15         0.31466
       5 -> 16         0.63182

 Excited state symmetry could not be determined.
 Excited State  40:      Singlet-?Sym   21.2460 eV   58.36 nm  f=0.0000  <S**2>=0.000
       5 -> 15         0.63182
       5 -> 16        -0.31466

 Excited state symmetry could not be determined.
 Excited State  41:      Singlet-?Sym   22.0755 eV   56.16 nm  f=0.0469  <S**2>=0.000
       9 -> 18         0.69774

 Excited state symmetry could not be determined.
 Excited State  42:      Singlet-?Sym   22.0755 eV   56.16 nm  f=0.0469  <S**2>=0.000
       8 -> 18         0.69774

 Excited state symmetry could not be determined.
 Excited State  43:      Singlet-?Sym   23.3229 eV   53.16 nm  f=0.0000  <S**2>=0.000
       8 -> 19         0.48018
       8 -> 20         0.13714
       9 -> 19         0.13751
       9 -> 20        -0.47889

 Excited state symmetry could not be determined.
 Excited State  44:      Singlet-?Sym   23.3229 eV   53.16 nm  f=0.0000  <S**2>=0.000
       8 -> 19        -0.13751
       8 -> 20         0.47889
       9 -> 19         0.48018
       9 -> 20         0.13714

 Excited state symmetry could not be determined.
 Excited State  45:      Singlet-?Sym   23.5639 eV   52.62 nm  f=0.0000  <S**2>=0.000
       8 -> 19         0.47883
       8 -> 20         0.13710
       9 -> 19        -0.13673
       9 -> 20         0.48012

 Excited state symmetry could not be determined.
 Excited State  46:      Singlet-?Sym   23.5639 eV   52.62 nm  f=0.0000  <S**2>=0.000
       8 -> 19        -0.13673
       8 -> 20         0.48012
       9 -> 19        -0.47883
       9 -> 20        -0.13710

 Excited state symmetry could not be determined.
 Excited State  47:      Singlet-?Sym   26.0123 eV   47.66 nm  f=0.0000  <S**2>=0.000
       6 -> 18         0.70149

 Excited state symmetry could not be determined.
 Excited State  48:      Singlet-?Sym   26.0123 eV   47.66 nm  f=0.0000  <S**2>=0.000
       7 -> 18         0.70149

 Excited State  49:      Singlet-SGG   26.0433 eV   47.61 nm  f=0.0000  <S**2>=0.000
       4 -> 10         0.68029

 Excited State  50:      Singlet-SGU   26.9320 eV   46.04 nm  f=0.1090  <S**2>=0.000
       5 -> 18         0.67394
       8 -> 22         0.14320
       9 -> 21         0.14320

 Excited state symmetry could not be determined.
 Excited State  51:      Singlet-?Sym   27.1758 eV   45.62 nm  f=0.0000  <S**2>=0.000
       8 -> 21        -0.49769
       9 -> 22         0.49769

 Excited state symmetry could not be determined.
 Excited State  52:      Singlet-?Sym   27.2512 eV   45.50 nm  f=0.0000  <S**2>=0.000
       8 -> 21         0.49772
       9 -> 22         0.49772

 Excited state symmetry could not be determined.
 Excited State  53:      Singlet-?Sym   27.2522 eV   45.50 nm  f=0.0000  <S**2>=0.000
       8 -> 22        -0.49772
       9 -> 21         0.49772

 Excited state symmetry could not be determined.
 Excited State  54:      Singlet-?Sym   27.3050 eV   45.41 nm  f=0.0000  <S**2>=0.000
       6 -> 19        -0.32122
       6 -> 20        -0.35579
       7 -> 19         0.35618
       7 -> 20        -0.32087
       8 -> 25         0.10549
       9 -> 24        -0.10547

 Excited state symmetry could not be determined.
 Excited State  55:      Singlet-?Sym   27.3050 eV   45.41 nm  f=0.0000  <S**2>=0.000
       6 -> 19         0.35618
       6 -> 20        -0.32087
       7 -> 19         0.32122
       7 -> 20         0.35579
       8 -> 24         0.10547
       9 -> 25         0.10549

 Excited state symmetry could not be determined.
 Excited State  56:      Singlet-?Sym   28.0870 eV   44.14 nm  f=0.4976  <S**2>=0.000
       6 -> 20         0.48352
       7 -> 19         0.48302
       9 -> 23         0.11614

 Excited state symmetry could not be determined.
 Excited State  57:      Singlet-?Sym   28.0870 eV   44.14 nm  f=0.4976  <S**2>=0.000
       6 -> 19        -0.48302
       7 -> 20         0.48352
       8 -> 23        -0.11614

 Excited state symmetry could not be determined.
 Excited State  58:      Singlet-?Sym   28.1433 eV   44.05 nm  f=0.0000  <S**2>=0.000
       5 -> 19         0.70624

 Excited state symmetry could not be determined.
 Excited State  59:      Singlet-?Sym   28.1435 eV   44.05 nm  f=0.0000  <S**2>=0.000
       5 -> 20         0.70624

 Excited state symmetry could not be determined.
 Excited State  60:      Singlet-?Sym   28.8407 eV   42.99 nm  f=1.1159  <S**2>=0.000
       5 -> 10        -0.11559
       5 -> 18        -0.19311
       8 -> 22         0.46162
       9 -> 21         0.46162

 Excited state symmetry could not be determined.
 Excited State  61:      Singlet-?Sym   29.5349 eV   41.98 nm  f=0.0443  <S**2>=0.000
       6 -> 26         0.11006
       8 -> 25         0.10841
       9 -> 23         0.65757
       9 -> 24         0.10787

 Excited state symmetry could not be determined.
 Excited State  62:      Singlet-?Sym   29.5349 eV   41.98 nm  f=0.0443  <S**2>=0.000
       7 -> 26         0.11006
       8 -> 23         0.65757
       8 -> 24        -0.10787
       9 -> 25         0.10841

 Excited state symmetry could not be determined.
 Excited State  63:      Singlet-?Sym   29.9304 eV   41.42 nm  f=0.0000  <S**2>=0.000
       6 -> 20        -0.10258
       7 -> 19         0.10233
       8 -> 24         0.33311
       8 -> 25        -0.34464
       9 -> 24         0.34671
       9 -> 25         0.33113

 Excited state symmetry could not be determined.
 Excited State  64:      Singlet-?Sym   29.9304 eV   41.42 nm  f=0.0000  <S**2>=0.000
       6 -> 19        -0.10233
       7 -> 20        -0.10258
       8 -> 24         0.34671
       8 -> 25         0.33113
       9 -> 24        -0.33311
       9 -> 25         0.34464

 Excited state symmetry could not be determined.
 Excited State  65:      Singlet-?Sym   30.1670 eV   41.10 nm  f=0.3043  <S**2>=0.000
       5 -> 21        -0.11427
       8 -> 24        -0.20020
       8 -> 25         0.43351
       9 -> 23        -0.14383
       9 -> 24         0.43100
       9 -> 25         0.20136

 Excited state symmetry could not be determined.
 Excited State  66:      Singlet-?Sym   30.1670 eV   41.10 nm  f=0.3043  <S**2>=0.000
       5 -> 22        -0.11427
       8 -> 23        -0.14383
       8 -> 24        -0.43100
       8 -> 25        -0.20136
       9 -> 24        -0.20020
       9 -> 25         0.43351

 Excited state symmetry could not be determined.
 Excited State  67:      Singlet-?Sym   30.7044 eV   40.38 nm  f=0.0000  <S**2>=0.000
       6 -> 22        -0.38999
       7 -> 21         0.38999
       8 -> 27         0.31202
       9 -> 28        -0.31202

 Excited state symmetry could not be determined.
 Excited State  68:      Singlet-?Sym   30.9548 eV   40.05 nm  f=0.0000  <S**2>=0.000
       6 -> 22         0.37813
       7 -> 21         0.37813
       8 -> 27         0.32577
       9 -> 28         0.32577

 Excited state symmetry could not be determined.
 Excited State  69:      Singlet-?Sym   30.9552 eV   40.05 nm  f=0.0000  <S**2>=0.000
       6 -> 21         0.37813
       7 -> 22        -0.37813
       8 -> 28        -0.32578
       9 -> 27         0.32578

 Excited state symmetry could not be determined.
 Excited State  70:      Singlet-?Sym   31.1837 eV   39.76 nm  f=0.0000  <S**2>=0.000
       6 -> 23         0.27406
       9 -> 26         0.64694

 Excited state symmetry could not be determined.
 Excited State  71:      Singlet-?Sym   31.1837 eV   39.76 nm  f=0.0000  <S**2>=0.000
       7 -> 23         0.27406
       8 -> 26         0.64694

 Excited state symmetry could not be determined.
 Excited State  72:      Singlet-?Sym   32.0273 eV   38.71 nm  f=0.0000  <S**2>=0.000
       6 -> 22         0.31135
       7 -> 21        -0.31135
       8 -> 27         0.38709
       9 -> 28        -0.38709

 Excited state symmetry could not be determined.
 Excited State  73:      Singlet-?Sym   32.2413 eV   38.46 nm  f=0.0000  <S**2>=0.000
       4 -> 10         0.15694
       4 -> 11         0.21100
       6 -> 21         0.40736
       7 -> 22         0.40736
       8 -> 28         0.21150
       9 -> 27         0.21150

 Excited state symmetry could not be determined.
 Excited State  74:      Singlet-?Sym   32.2455 eV   38.45 nm  f=0.0000  <S**2>=0.000
       6 -> 21        -0.32575
       7 -> 22         0.32575
       8 -> 28        -0.37650
       9 -> 27         0.37650

 Excited state symmetry could not be determined.
 Excited State  75:      Singlet-?Sym   32.2456 eV   38.45 nm  f=0.0000  <S**2>=0.000
       6 -> 22        -0.32574
       7 -> 21        -0.32574
       8 -> 27         0.37650
       9 -> 28         0.37650

 Excited state symmetry could not be determined.
 Excited State  76:      Singlet-?Sym   32.6455 eV   37.98 nm  f=0.4893  <S**2>=0.000
       5 -> 21         0.68121

 Excited state symmetry could not be determined.
 Excited State  77:      Singlet-?Sym   32.6455 eV   37.98 nm  f=0.4893  <S**2>=0.000
       5 -> 22         0.68121

 Excited State  78:      Singlet-SGG   32.9785 eV   37.60 nm  f=0.0000  <S**2>=0.000
       4 -> 11         0.48777
       5 -> 26         0.11563
       8 -> 28        -0.34200
       9 -> 27        -0.34200

 Excited State  79:      Singlet-SGU   32.9995 eV   37.57 nm  f=0.0105  <S**2>=0.000
       3 -> 10         0.17918
       4 -> 12         0.65969
       4 -> 17        -0.14449

 Excited State  80:      Singlet-SGG   33.4187 eV   37.10 nm  f=0.0000  <S**2>=0.000
       4 -> 11         0.45109
       6 -> 21        -0.27032
       7 -> 22        -0.27032
       8 -> 28         0.26909
       9 -> 27         0.26909

 Excited State  81:      Singlet-SGU   33.5570 eV   36.95 nm  f=0.0679  <S**2>=0.000
       3 -> 10         0.60056
       4 -> 12        -0.15091
       5 -> 23        -0.26820
       6 -> 27        -0.11736
       7 -> 28        -0.11736

 Excited state symmetry could not be determined.
 Excited State  82:      Singlet-?Sym   33.6497 eV   36.85 nm  f=0.0000  <S**2>=0.000
       4 -> 13         0.46020
       4 -> 14        -0.42691
       6 -> 24        -0.16336
       6 -> 25         0.15152
       7 -> 24        -0.15155
       7 -> 25        -0.16333

 Excited state symmetry could not be determined.
 Excited State  83:      Singlet-?Sym   33.6497 eV   36.85 nm  f=0.0000  <S**2>=0.000
       4 -> 13         0.42691
       4 -> 14         0.46020
       6 -> 24        -0.15155
       6 -> 25        -0.16333
       7 -> 24         0.16336
       7 -> 25        -0.15152

 Excited state symmetry could not be determined.
 Excited State  84:      Singlet-?Sym   33.7703 eV   36.71 nm  f=0.0000  <S**2>=0.000
       6 -> 24         0.28872
       6 -> 25         0.40666
       7 -> 24         0.40706
       7 -> 25        -0.28843

 Excited state symmetry could not be determined.
 Excited State  85:      Singlet-?Sym   33.7703 eV   36.71 nm  f=0.0000  <S**2>=0.000
       6 -> 24         0.40706
       6 -> 25        -0.28843
       7 -> 24        -0.28872
       7 -> 25        -0.40666

 Excited state symmetry could not be determined.
 Excited State  86:      Singlet-?Sym   34.0837 eV   36.38 nm  f=0.0000  <S**2>=0.000
       4 -> 13         0.27801
       4 -> 14        -0.13490
       6 -> 24         0.39477
       6 -> 25        -0.19184
       7 -> 24         0.19156
       7 -> 25         0.39536

 Excited state symmetry could not be determined.
 Excited State  87:      Singlet-?Sym   34.0837 eV   36.38 nm  f=0.0000  <S**2>=0.000
       4 -> 13         0.13490
       4 -> 14         0.27801
       6 -> 24         0.19156
       6 -> 25         0.39536
       7 -> 24        -0.39477
       7 -> 25         0.19184

 Excited state symmetry could not be determined.
 Excited State  88:      Singlet-?Sym   34.1949 eV   36.26 nm  f=0.0000  <S**2>=0.000
       6 -> 23         0.61342
       7 -> 23        -0.20166
       9 -> 26        -0.25357

 Excited state symmetry could not be determined.
 Excited State  89:      Singlet-?Sym   34.1949 eV   36.26 nm  f=0.0000  <S**2>=0.000
       6 -> 23         0.20166
       7 -> 23         0.61342
       8 -> 26        -0.25357

 Excited State  90:      Singlet-SGU   34.3765 eV   36.07 nm  f=0.0266  <S**2>=0.000
       3 -> 10         0.19554
       4 -> 17        -0.24462
       5 -> 23         0.58693
       6 -> 27        -0.14236
       7 -> 28        -0.14236

 Excited state symmetry could not be determined.
 Excited State  91:      Singlet-?Sym   34.4069 eV   36.03 nm  f=0.0000  <S**2>=0.000
       5 -> 24         0.70558

 Excited state symmetry could not be determined.
 Excited State  92:      Singlet-?Sym   34.4073 eV   36.03 nm  f=0.0000  <S**2>=0.000
       5 -> 25         0.70559

 Excited state symmetry could not be determined.
 Excited State  93:      Singlet-?Sym   35.5339 eV   34.89 nm  f=0.0000  <S**2>=0.000
       6 -> 28        -0.49145
       7 -> 27         0.49145

 Excited State  94:      Singlet-SGU   35.5378 eV   34.89 nm  f=0.0045  <S**2>=0.000
       4 -> 12         0.13630
       4 -> 17         0.63286
       5 -> 23         0.21620
       6 -> 27        -0.12143
       7 -> 28        -0.12143

 Excited state symmetry could not be determined.
 Excited State  95:      Singlet-?Sym   35.6754 eV   34.75 nm  f=0.0023  <S**2>=0.000
       4 -> 15        -0.27104
       4 -> 16         0.60873
       7 -> 26         0.19479

 Excited state symmetry could not be determined.
 Excited State  96:      Singlet-?Sym   35.6754 eV   34.75 nm  f=0.0023  <S**2>=0.000
       4 -> 15         0.60873
       4 -> 16         0.27104
       6 -> 26         0.19479

 Excited state symmetry could not be determined.
 Excited State  97:      Singlet-?Sym   35.7171 eV   34.71 nm  f=0.0000  <S**2>=0.000

 The electronic state is 1-SGG.
 Alpha  occ. eigenvalues --  -25.37481 -25.37479  -1.51007  -1.22413  -0.69486
 Alpha  occ. eigenvalues --   -0.66691  -0.66691  -0.52003  -0.52003
 Alpha virt. eigenvalues --   -0.06538   0.10527   0.12250   0.15158   0.15158
 Alpha virt. eigenvalues --    0.20500   0.20500   0.21502   0.42757   0.51804
 Alpha virt. eigenvalues --    0.51805   0.67156   0.67156   0.73378   0.73920

 Mulliken charges:
               1
     1  F    0.000000
     2  F    0.000000
 Sum of Mulliken charges =   0.00000

 Dipole moment (field-independent basis, Debye):
    X=             -0.0000    Y=              0.0000    Z=              0.0000  Tot=              0.0000
 Quadrupole moment (field-independent basis, Debye-Ang):
   XX=             -9.7240   YY=             -9.7240   ZZ=             -8.9807
   XY=              0.0000   XZ=              0.0000   YZ=              0.0000

 Normal termination of Gaussian 16 at Mon Mar 21 20:10:18 2022.
