 Gaussian 16, Revision C.01,
 Gaussian 16:  EM64L-G16RevC.01  3-Jul-2019

 ---------------------------------------------------------------------
 #P TD(Nstates=10000) m062x/Gen SCF(maxcycles=100) Int(Grid=ultrafine)
 ---------------------------------------------------------------------

 ---------------------
 xGDB7_00001_tier4.com
 ---------------------
 Symbolic Z-matrix:
 Charge =  0 Multiplicity = 1

                         Standard orientation:
 ---------------------------------------------------------------------
 Center     Atomic      Atomic             Coordinates (Angstroms)
 Number     Number       Type             X           Y           Z
 ---------------------------------------------------------------------
      1          6           0        0.000000    0.000000    0.660866
      2          6           0        0.000000    0.000000   -0.660866
      3          1           0        0.000000    0.922586    1.229258
      4          1           0       -0.000000   -0.922586    1.229258
      5          1           0        0.000000    0.922586   -1.229258
      6          1           0       -0.000000   -0.922586   -1.229258
 ---------------------------------------------------------------------

 SCF Done:  E(RM062X) =  -78.4829565926     A.U. after   10 cycles

 Excitation energies and oscillator strengths:

 Excited State   1:      Singlet-B3U    7.7229 eV  160.54 nm  f=0.0683  <S**2>=0.000
       8 -> 10         0.69886
 This state for optimization and/or second-order correction.
 Total Energy, E(TD-HF/TD-DFT) =  -78.1991441076
 Copying the excited state density for this state as the 1-particle RhoCI density.

 Excited State   2:      Singlet-B1U    7.9104 eV  156.73 nm  f=0.3670  <S**2>=0.000
       8 ->  9         0.70222

 Excited State   3:      Singlet-B1G    7.9829 eV  155.31 nm  f=0.0000  <S**2>=0.000
       7 ->  9         0.69351
       8 -> 12         0.11348

 Excited State   4:      Singlet-B2G    8.4447 eV  146.82 nm  f=0.0000  <S**2>=0.000
       8 -> 11         0.70072

 Excited State   5:      Singlet-B1G    9.2414 eV  134.16 nm  f=0.0000  <S**2>=0.000
       7 ->  9        -0.11722
       8 -> 12         0.68896
       8 -> 24         0.10338

 Excited State   6:      Singlet-B2G    9.3752 eV  132.25 nm  f=0.0000  <S**2>=0.000
       6 ->  9         0.69349

 Excited State   7:      Singlet-B3G    9.8410 eV  125.99 nm  f=0.0000  <S**2>=0.000
       7 -> 10         0.69582

 Excited State   8:      Singlet-B3U   10.2413 eV  121.06 nm  f=0.0487  <S**2>=0.000
       8 -> 13         0.69757

 Excited State   9:      Singlet-B2U   10.5511 eV  117.51 nm  f=0.1247  <S**2>=0.000
       7 -> 11         0.69540

 Excited State  10:      Singlet-AU    10.7802 eV  115.01 nm  f=0.0000  <S**2>=0.000
       5 ->  9        -0.27343
       8 -> 14         0.64478

 Excited State  11:      Singlet-AU    11.3109 eV  109.61 nm  f=0.0000  <S**2>=0.000
       5 ->  9         0.64499
       8 -> 14         0.27806

 Excited State  12:      Singlet-B3U   11.3798 eV  108.95 nm  f=0.1851  <S**2>=0.000
       4 ->  9         0.10422
       8 -> 15         0.69576

 Excited State  13:      Singlet-AG    11.6095 eV  106.80 nm  f=0.0000  <S**2>=0.000
       6 -> 10         0.31682
       7 -> 14        -0.10788
       8 -> 16         0.61325

 Excited State  14:      Singlet-B2U   11.7132 eV  105.85 nm  f=0.1084  <S**2>=0.000
       8 -> 17         0.69380

 Excited State  15:      Singlet-B1U   11.7259 eV  105.74 nm  f=0.2296  <S**2>=0.000
       7 -> 12         0.69532

 Excited State  16:      Singlet-AG    11.9885 eV  103.42 nm  f=0.0000  <S**2>=0.000
       6 -> 10         0.61834
       7 -> 14         0.14626
       8 -> 16        -0.28583

 Excited State  17:      Singlet-B2G   12.1929 eV  101.69 nm  f=0.0000  <S**2>=0.000
       8 -> 18         0.69766

 Excited State  18:      Singlet-B1G   12.2108 eV  101.54 nm  f=0.0000  <S**2>=0.000
       8 -> 19         0.69888

 Excited State  19:      Singlet-B3G   12.3857 eV  100.10 nm  f=0.0000  <S**2>=0.000
       5 -> 11         0.10651
       7 -> 13         0.68790

 Excited State  20:      Singlet-B1U   12.4765 eV   99.37 nm  f=0.2320  <S**2>=0.000
       6 -> 11         0.69736

 Excited State  21:      Singlet-B3G   13.2042 eV   93.90 nm  f=0.0000  <S**2>=0.000
       5 -> 11         0.22126
       7 -> 15         0.65790

 Excited State  22:      Singlet-B2U   13.3164 eV   93.11 nm  f=0.0151  <S**2>=0.000
       5 -> 10        -0.30445
       6 -> 12         0.61035
       7 -> 18        -0.10298

 Excited State  23:      Singlet-B2U   13.3907 eV   92.59 nm  f=0.3458  <S**2>=0.000
       5 -> 10         0.62301
       6 -> 12         0.30335

 Excited State  24:      Singlet-AU    13.4717 eV   92.03 nm  f=0.0000  <S**2>=0.000
       7 -> 16         0.69994

 Excited State  25:      Singlet-AG    13.5465 eV   91.52 nm  f=0.0000  <S**2>=0.000
       6 -> 13         0.12037
       6 -> 15         0.10469
       7 -> 14         0.66520
       8 -> 16         0.14818

 Excited State  26:      Singlet-B2G   13.6515 eV   90.82 nm  f=0.0000  <S**2>=0.000
       7 -> 17         0.57938
       8 -> 20        -0.39364

 Excited State  27:      Singlet-B2G   13.9511 eV   88.87 nm  f=0.0000  <S**2>=0.000
       7 -> 17         0.39323
       8 -> 20         0.57820

 Excited State  28:      Singlet-B3G   14.0905 eV   87.99 nm  f=0.0000  <S**2>=0.000
       5 -> 11         0.36072
       8 -> 21         0.59083

 Excited State  29:      Singlet-B1U   14.1563 eV   87.58 nm  f=0.0668  <S**2>=0.000
       7 -> 19        -0.16457
       8 -> 22         0.66536

 Excited State  30:      Singlet-B3G   14.1920 eV   87.36 nm  f=0.0000  <S**2>=0.000
       5 -> 11         0.53858
       7 -> 15        -0.22458
       8 -> 21        -0.37859

 Excited State  31:      Singlet-AG    14.2163 eV   87.21 nm  f=0.0000  <S**2>=0.000
       6 -> 13         0.67353
       6 -> 15        -0.13697

 Excited State  32:      Singlet-B2U   14.6609 eV   84.57 nm  f=0.5891  <S**2>=0.000
       6 -> 12         0.10809
       6 -> 19        -0.12136
       7 -> 18         0.67229

 Excited State  33:      Singlet-B3G   14.7903 eV   83.83 nm  f=0.0000  <S**2>=0.000
       4 -> 12        -0.11178
       6 -> 14         0.68610

 Excited State  34:      Singlet-B1U   14.8515 eV   83.48 nm  f=0.3799  <S**2>=0.000
       5 -> 14        -0.11748
       7 -> 19         0.66921
       8 -> 22         0.14751

 Excited State  35:      Singlet-B3U   14.9715 eV   82.81 nm  f=0.1057  <S**2>=0.000
       4 ->  9        -0.42799
       6 -> 16        -0.18656
       8 -> 23         0.50002

 Excited State  36:      Singlet-AG    15.0088 eV   82.61 nm  f=0.0000  <S**2>=0.000
       5 -> 12        -0.46834
       6 -> 15         0.50579

 Excited State  37:      Singlet-B3U   15.3214 eV   80.92 nm  f=0.1038  <S**2>=0.000
       4 ->  9         0.17863
       6 -> 16         0.55171
       8 -> 23         0.38140

 Excited State  38:      Singlet-B1G   15.3641 eV   80.70 nm  f=0.0000  <S**2>=0.000
       5 -> 16        -0.21854
       6 -> 17         0.51150
       7 -> 22        -0.41233
       8 -> 24        -0.11135

 Excited State  39:      Singlet-B3U   15.6272 eV   79.34 nm  f=0.0952  <S**2>=0.000
       4 ->  9         0.46964
       5 -> 17        -0.10768
       6 -> 16        -0.38630
       8 -> 23         0.30758

 Excited State  40:      Singlet-B1G   15.6931 eV   79.01 nm  f=0.0000  <S**2>=0.000
       5 -> 16         0.13660
       6 -> 17         0.43200
       7 -> 22         0.34571
       8 -> 24         0.40427

 Excited State  41:      Singlet-B2U   15.7032 eV   78.95 nm  f=0.0032  <S**2>=0.000
       5 -> 13        -0.25877
       5 -> 15        -0.24429
       6 -> 19        -0.13286
       7 -> 20         0.57930

 Excited State  42:      Singlet-B1G   15.7479 eV   78.73 nm  f=0.0000  <S**2>=0.000
       5 -> 16        -0.13830
       6 -> 17        -0.21073
       7 -> 22        -0.34253
       8 -> 24         0.55400

 Excited State  43:      Singlet-B2U   15.9626 eV   77.67 nm  f=0.0693  <S**2>=0.000
       5 -> 13         0.54983
       5 -> 15        -0.17935
       6 -> 19         0.27825
       7 -> 18         0.10892
       7 -> 20         0.25433

 Excited State  44:      Singlet-AG    15.9938 eV   77.52 nm  f=0.0000  <S**2>=0.000
       5 -> 12         0.48145
       6 -> 13         0.12878
       6 -> 15         0.43762
       8 -> 16        -0.10869
       8 -> 27        -0.15324

 Excited State  45:      Singlet-B2G   16.1322 eV   76.86 nm  f=0.0000  <S**2>=0.000
       8 -> 26         0.69891

 Excited State  46:      Singlet-B3U   16.2528 eV   76.28 nm  f=0.3555  <S**2>=0.000
       4 ->  9         0.14585
       5 -> 17         0.18148
       7 -> 21         0.64925
       8 -> 28        -0.10413

 Excited State  47:      Singlet-AG    16.2683 eV   76.21 nm  f=0.0000  <S**2>=0.000
       5 -> 12         0.12851
       8 -> 27         0.67675

 Excited State  48:      Singlet-B1U   16.2947 eV   76.09 nm  f=0.0159  <S**2>=0.000
       4 -> 10        -0.13115
       6 -> 18         0.67863

 Excited State  49:      Singlet-B1U   16.5884 eV   74.74 nm  f=0.0000  <S**2>=0.000
       4 -> 10         0.56304
       5 -> 14         0.39067
       6 -> 18         0.13043

 Excited State  50:      Singlet-AU    16.5946 eV   74.71 nm  f=0.0000  <S**2>=0.000
       8 -> 25         0.70254

 Excited State  51:      Singlet-B2U   16.7023 eV   74.23 nm  f=0.2649  <S**2>=0.000
       5 -> 13        -0.31941
       6 -> 19         0.61118

 Excited State  52:      Singlet-B1U   16.8497 eV   73.58 nm  f=0.0430  <S**2>=0.000
       4 -> 10        -0.36752
       5 -> 14         0.54925
       6 -> 20         0.18045
       8 -> 22         0.10494

 Excited State  53:      Singlet-B2U   16.8916 eV   73.40 nm  f=0.0025  <S**2>=0.000
       5 -> 15         0.63060
       7 -> 20         0.29511

 Excited State  54:      Singlet-B1G   17.1972 eV   72.10 nm  f=0.0000  <S**2>=0.000
       5 -> 16         0.64026
       7 -> 22        -0.28956

 Excited State  55:      Singlet-AG    17.2962 eV   71.68 nm  f=0.0000  <S**2>=0.000
       4 -> 11         0.68504

 Excited State  56:      Singlet-B3U   17.3639 eV   71.40 nm  f=0.0375  <S**2>=0.000
       5 -> 17         0.59788
       7 -> 21        -0.22981
       8 -> 28        -0.28106

 Excited State  57:      Singlet-B3G   17.3745 eV   71.36 nm  f=0.0000  <S**2>=0.000
       5 -> 18        -0.11451
       7 -> 23         0.68149

 Excited State  58:      Singlet-B2G   17.3746 eV   71.36 nm  f=0.0000  <S**2>=0.000
       4 -> 16         0.15501
       6 ->  9        -0.10598
       6 -> 22         0.66191

 Excited State  59:      Singlet-B1U   17.8193 eV   69.58 nm  f=0.2840  <S**2>=0.000
       4 -> 13        -0.10364
       4 -> 15        -0.15298
       5 -> 14        -0.12351
       6 -> 20         0.59809
       7 -> 24         0.25412

 Excited State  60:      Singlet-B3G   17.8462 eV   69.47 nm  f=0.0000  <S**2>=0.000
       4 -> 12         0.15118
       5 -> 18         0.66393
       7 -> 23         0.10679
       7 -> 28         0.11245

 Excited State  61:      Singlet-AG    17.9264 eV   69.16 nm  f=0.0000  <S**2>=0.000
       5 -> 19         0.65360
       7 -> 25         0.22754

 Excited State  62:      Singlet-B3U   17.9440 eV   69.09 nm  f=0.2639  <S**2>=0.000
       4 ->  9         0.13266
       5 -> 17         0.25624
       8 -> 28         0.61736
       8 -> 30         0.16841

 Excited State  63:      Singlet-B1G   18.0115 eV   68.84 nm  f=0.0000  <S**2>=0.000
       8 -> 29         0.70001

 Excited State  64:      Singlet-B3G   18.0120 eV   68.83 nm  f=0.0000  <S**2>=0.000
       4 -> 12         0.66388
       5 -> 18        -0.14270
       6 -> 14         0.11763

 Excited State  65:      Singlet-AU    18.0203 eV   68.80 nm  f=0.0000  <S**2>=0.000
       4 -> 17         0.14072
       6 -> 21         0.65734
       8 -> 32         0.17425

 Excited State  66:      Singlet-AU    18.2366 eV   67.99 nm  f=0.0000  <S**2>=0.000
       6 -> 21        -0.15130
       7 -> 27        -0.17331
       8 -> 32         0.65252

 Excited State  67:      Singlet-AU    18.3470 eV   67.58 nm  f=0.0000  <S**2>=0.000
       5 -> 22        -0.12710
       6 -> 21        -0.11223
       7 -> 27         0.66038
       8 -> 32         0.16492

 Excited State  68:      Singlet-B2G   18.3572 eV   67.54 nm  f=0.0000  <S**2>=0.000
       8 -> 33         0.68053
       8 -> 37        -0.11036

 Excited State  69:      Singlet-B3U   18.3625 eV   67.52 nm  f=0.2048  <S**2>=0.000
       5 -> 17        -0.11102
       8 -> 28        -0.11418
       8 -> 30         0.67610

 Excited State  70:      Singlet-B2U   18.4354 eV   67.25 nm  f=0.0568  <S**2>=0.000
       5 -> 23         0.12665
       7 -> 26         0.65736
       8 -> 31        -0.20269

 Excited State  71:      Singlet-B1U   18.4909 eV   67.05 nm  f=0.3675  <S**2>=0.000
       6 -> 20        -0.25299
       7 -> 24         0.64020

 Excited State  72:      Singlet-B2U   18.6910 eV   66.33 nm  f=0.1061  <S**2>=0.000
       7 -> 26         0.20943
       8 -> 31         0.65576

 Excited State  73:      Singlet-AG    18.8763 eV   65.68 nm  f=0.0000  <S**2>=0.000
       5 -> 19        -0.22344
       7 -> 25         0.66225

 Excited State  74:      Singlet-B1U   18.9580 eV   65.40 nm  f=0.0167  <S**2>=0.000
       4 -> 13         0.66746
       8 -> 34         0.12147

 Excited State  75:      Singlet-B3G   19.2790 eV   64.31 nm  f=0.0000  <S**2>=0.000
       5 -> 20         0.62220
       7 -> 28         0.29235

 Excited State  76:      Singlet-B1U   19.2802 eV   64.31 nm  f=0.0095  <S**2>=0.000
       4 -> 13        -0.13129
       8 -> 34         0.68641

 Excited State  77:      Singlet-AG    19.3261 eV   64.15 nm  f=0.0000  <S**2>=0.000
       6 -> 23         0.68233

 Excited State  78:      Singlet-AU    19.3703 eV   64.01 nm  f=0.0000  <S**2>=0.000
       5 -> 22         0.66551
       6 -> 21         0.11001
       7 -> 27         0.14443

 Excited State  79:      Singlet-B2G   19.6120 eV   63.22 nm  f=0.0000  <S**2>=0.000
       3 ->  9         0.12068
       4 -> 16        -0.11564
       5 -> 21         0.64193
       7 -> 31         0.19590

 Excited State  80:      Singlet-B2U   19.6412 eV   63.12 nm  f=0.0296  <S**2>=0.000
       4 -> 14         0.65927
       6 -> 24        -0.20530

 Excited State  81:      Singlet-B2G   19.7673 eV   62.72 nm  f=0.0000  <S**2>=0.000
       3 ->  9         0.57004
       5 -> 21        -0.14373
       8 -> 35         0.31384
       8 -> 37        -0.16083

 Excited State  82:      Singlet-B3G   19.7716 eV   62.71 nm  f=0.0000  <S**2>=0.000
       4 -> 19         0.13771
       5 -> 20        -0.27836
       7 -> 28         0.60378
       7 -> 30        -0.14078

 Excited State  83:      Singlet-B1U   19.8591 eV   62.43 nm  f=0.0322  <S**2>=0.000
       4 -> 15         0.63206
       6 -> 26         0.21044
       7 -> 24         0.10841
       7 -> 29        -0.12637

 Excited State  84:      Singlet-B2U   19.9901 eV   62.02 nm  f=0.0102  <S**2>=0.000
       4 -> 14         0.18914
       5 -> 23         0.11314
       6 -> 24         0.60015
       7 -> 33         0.25458

 Excited State  85:      Singlet-B2G   20.1806 eV   61.44 nm  f=0.0000  <S**2>=0.000
       3 ->  9        -0.12796
       4 -> 16         0.64046
       5 -> 21         0.14874
       6 -> 22        -0.15198
       8 -> 35         0.14392

 Excited State  86:      Singlet-B3U   20.2605 eV   61.19 nm  f=0.1821  <S**2>=0.000
       4 -> 22        -0.13037
       6 -> 27         0.68694

 Excited State  87:      Singlet-B1U   20.3522 eV   60.92 nm  f=0.1199  <S**2>=0.000
       4 -> 15        -0.19983
       6 -> 26         0.65949

 Excited State  88:      Singlet-AU    20.3931 eV   60.80 nm  f=0.0000  <S**2>=0.000
       4 -> 17         0.68064
       6 -> 21        -0.12995

 Excited State  89:      Singlet-B3G   20.4245 eV   60.70 nm  f=0.0000  <S**2>=0.000
       4 -> 19         0.25155
       5 -> 20         0.14635
       6 -> 25         0.44395
       7 -> 28        -0.15053
       7 -> 30        -0.41240

 Excited State  90:      Singlet-B1U   20.5923 eV   60.21 nm  f=0.0774  <S**2>=0.000
       4 -> 15         0.13115
       6 -> 20         0.11222
       7 -> 29         0.66770

 Excited State  91:      Singlet-B3G   20.6061 eV   60.17 nm  f=0.0000  <S**2>=0.000
       5 -> 26         0.11847
       6 -> 25         0.45015
       7 -> 30         0.51149

 Excited State  92:      Singlet-B2G   20.6327 eV   60.09 nm  f=0.0000  <S**2>=0.000
       3 ->  9         0.16841
       4 -> 16         0.15727
       5 -> 21        -0.12457
       7 -> 31         0.55574
       8 -> 35        -0.32443

 Excited State  93:      Singlet-AG    20.8918 eV   59.35 nm  f=0.0000  <S**2>=0.000
       4 -> 18         0.62639
       6 -> 28         0.29403

 Excited State  94:      Singlet-B2U   20.9679 eV   59.13 nm  f=0.1935  <S**2>=0.000
       5 -> 23         0.65416
       6 -> 24        -0.12294
       6 -> 29        -0.12166
       7 -> 26        -0.12213

 Excited State  95:      Singlet-B2G   20.9848 eV   59.08 nm  f=0.0000  <S**2>=0.000
       3 ->  9        -0.28471
       4 -> 16        -0.12304
       5 -> 21        -0.14037
       7 -> 31         0.37859
       8 -> 35         0.48443

 Excited State  96:      Singlet-AG    21.0888 eV   58.79 nm  f=0.0000  <S**2>=0.000
       3 -> 10        -0.17083
       4 -> 18        -0.10168
       4 -> 20         0.11103
       6 -> 28         0.12305
       6 -> 30         0.10915
       7 -> 32         0.63030

 Excited State  97:      Singlet-B1G   21.2471 eV   58.35 nm  f=0.0000  <S**2>=0.000
       5 -> 27         0.38847
       7 -> 34         0.58492

 Excited State  98:      Singlet-B3G   21.3492 eV   58.07 nm  f=0.0000  <S**2>=0.000
       4 -> 19         0.62112
       6 -> 25        -0.27009
       7 -> 30         0.10740

 Excited State  99:      Singlet-B2U   21.3618 eV   58.04 nm  f=0.2165  <S**2>=0.000
       5 -> 23        -0.13755
       6 -> 24        -0.21155
       6 -> 29        -0.23147
       7 -> 33         0.57358
       7 -> 35         0.11638

 Excited State 100:      Singlet-AG    21.6092 eV   57.38 nm  f=0.0000  <S**2>=0.000
       4 -> 18        -0.23836
       4 -> 20         0.12488
       5 -> 24         0.29381
       6 -> 28         0.53689
       7 -> 32        -0.15424

 Excited State 101:      Singlet-AG    21.7837 eV   56.92 nm  f=0.0000  <S**2>=0.000
       3 -> 10         0.65265
       6 -> 30         0.16283
       7 -> 32         0.14425

 Excited State 102:      Singlet-AG    21.8111 eV   56.84 nm  f=0.0000  <S**2>=0.000
       4 -> 18         0.11877
       4 -> 20         0.14069
       5 -> 24         0.53514
       6 -> 28        -0.23524
       6 -> 30         0.30408

 Excited State 103:      Singlet-B3G   21.9937 eV   56.37 nm  f=0.0000  <S**2>=0.000
       5 -> 26         0.64724
       6 -> 32        -0.19321
       7 -> 30        -0.15868

 Excited State 104:      Singlet-B1G   21.9951 eV   56.37 nm  f=0.0000  <S**2>=0.000
       4 -> 21         0.21723
       5 -> 27         0.51408
       6 -> 31         0.26884
       7 -> 34        -0.33743

 Excited State 105:      Singlet-B2U   22.1666 eV   55.93 nm  f=0.0767  <S**2>=0.000
       5 -> 28        -0.17734
       5 -> 30         0.11106
       6 -> 29         0.55675
       7 -> 35         0.32576
       7 -> 37        -0.10393

 Excited State 106:      Singlet-B3G   22.2411 eV   55.75 nm  f=0.0000  <S**2>=0.000
       4 -> 24         0.12183
       5 -> 26         0.17836
       6 -> 32         0.62597
       8 -> 36        -0.18727

 Excited State 107:      Singlet-B1U   22.2415 eV   55.74 nm  f=0.0258  <S**2>=0.000
       3 -> 11        -0.16006
       5 -> 25         0.67712

 Excited State 108:      Singlet-B2G   22.3394 eV   55.50 nm  f=0.0000  <S**2>=0.000
       3 ->  9         0.11705
       8 -> 35         0.16014
       8 -> 37         0.66549

 Excited State 109:      Singlet-B1G   22.3526 eV   55.47 nm  f=0.0000  <S**2>=0.000
       4 -> 21         0.28064
       5 -> 27        -0.28578
       6 -> 31         0.54744
       7 -> 34         0.18479

 Excited State 110:      Singlet-B3G   22.4259 eV   55.29 nm  f=0.0000  <S**2>=0.000
       5 -> 26         0.10218
       6 -> 32         0.15421
       8 -> 36         0.66512

 Excited State 111:      Singlet-B1U   22.4260 eV   55.29 nm  f=0.0590  <S**2>=0.000
       3 -> 11         0.61114
       5 -> 25         0.17150
       6 -> 33         0.28113

 Excited State 112:      Singlet-B3U   22.5488 eV   54.98 nm  f=0.0000  <S**2>=0.000
       4 -> 22         0.67643
       6 -> 27         0.12253

 Excited State 113:      Singlet-B2U   22.5731 eV   54.93 nm  f=0.2354  <S**2>=0.000
       5 -> 23        -0.11672
       5 -> 28        -0.21908
       6 -> 29        -0.30133
       7 -> 33        -0.24292
       7 -> 35         0.50872

 Excited State 114:      Singlet-AG    22.5814 eV   54.91 nm  f=0.0000  <S**2>=0.000
       4 -> 20         0.53000
       6 -> 28        -0.18331
       6 -> 30        -0.40523

 Excited State 115:      Singlet-AG    22.6980 eV   54.62 nm  f=0.0000  <S**2>=0.000
       3 -> 15        -0.10772
       4 -> 20         0.37324
       5 -> 24        -0.30652
       6 -> 30         0.41922
       7 -> 32        -0.14061
       8 -> 40         0.15403

 Excited State 116:      Singlet-B1U   22.8929 eV   54.16 nm  f=0.0844  <S**2>=0.000
       3 -> 11        -0.28800
       5 -> 32         0.10311
       6 -> 33         0.61505

 Excited State 117:      Singlet-B1G   22.9380 eV   54.05 nm  f=0.0000  <S**2>=0.000
       4 -> 21         0.59962
       6 -> 31        -0.34866

 Excited State 118:      Singlet-B2U   23.1757 eV   53.50 nm  f=0.0008  <S**2>=0.000
       3 -> 12        -0.25950
       5 -> 28         0.57590
       7 -> 35         0.20111
       7 -> 37        -0.20434

 Excited State 119:      Singlet-B2G   23.2628 eV   53.30 nm  f=0.0000  <S**2>=0.000
       4 -> 27         0.14990
       6 -> 34         0.68664

 Excited State 120:      Singlet-AU    23.3370 eV   53.13 nm  f=0.0000  <S**2>=0.000
       8 -> 38         0.70407

 Excited State 121:      Singlet-B2U   23.6070 eV   52.52 nm  f=0.0002  <S**2>=0.000
       3 -> 12         0.61515
       5 -> 28         0.24967
       5 -> 30         0.13723
       7 -> 35         0.13845

 Excited State 122:      Singlet-AG    23.7616 eV   52.18 nm  f=0.0000  <S**2>=0.000
       5 -> 29         0.68757

 Excited State 123:      Singlet-B1U   24.0873 eV   51.47 nm  f=0.0836  <S**2>=0.000
       4 -> 23         0.16231
       5 -> 32         0.61133
       6 -> 35         0.26820
       6 -> 37        -0.11786

 Excited State 124:      Singlet-B3U   24.1220 eV   51.40 nm  f=0.0833  <S**2>=0.000
       5 -> 31         0.65607
       7 -> 36        -0.15466
       8 -> 39        -0.19474

 The electronic state is 1-AG.
 Alpha  occ. eigenvalues --  -10.55267 -10.55155  -0.85174  -0.65479  -0.54232
 Alpha  occ. eigenvalues --   -0.48670  -0.41561  -0.33660
 Alpha virt. eigenvalues --    0.03966   0.05212   0.06853   0.12637   0.15508
 Alpha virt. eigenvalues --    0.16514   0.19444   0.20459   0.21200   0.22357
 Alpha virt. eigenvalues --    0.23919   0.28610   0.28807   0.29319   0.34096

 Mulliken charges:
               1
     1  C    0.121689
     2  C    0.121689
     3  H   -0.060845
     4  H   -0.060845
     5  H   -0.060845
     6  H   -0.060845
 Sum of Mulliken charges =  -0.00000

 Dipole moment (field-independent basis, Debye):
    X=              0.0000    Y=              0.0000    Z=              0.0000  Tot=              0.0000
 Quadrupole moment (field-independent basis, Debye-Ang):
   XX=            -15.4825   YY=            -12.4084   ZZ=            -12.3024
   XY=              0.0000   XZ=             -0.0000   YZ=             -0.0000

 Normal termination of Gaussian 16 at Mon Mar 21 20:10:32 2022.
