 Gaussian 16, Revision C.01,
 Gaussian 16:  EM64L-G16RevC.01  3-Jul-2019

 ---------------------------------------------------------------------
 #P TD(Nstates=10000) m062x/Gen SCF(maxcycles=100) Int(Grid=ultrafine)
 ---------------------------------------------------------------------

 ---------------------
 xGDB7_00001_tier4.com
 ---------------------
 Symbolic Z-matrix:
 Charge =  0 Multiplicity = 1

                         Standard orientation:
 ---------------------------------------------------------------------
 Center     Atomic      Atomic             Coordinates (Angstroms)
 Number     Number       Type             X           Y           Z
 ---------------------------------------------------------------------
      1          6           0        0.926251   -0.719055    0.000000
      2          6           0        0.000000    0.459276    0.000000
      3          8           0       -1.196998    0.387136    0.000000
      4          1           0        1.575965   -0.668678    0.877698
      5          1           0        1.575965   -0.668678   -0.877698
      6          1           0        0.366733   -1.652236    0.000000
      7          1           0        0.499813    1.451182    0.000000
 ---------------------------------------------------------------------

 SCF Done:  E(RM062X) =  -153.648781473     A.U. after   13 cycles

 Excitation energies and oscillator strengths:

 Excited State   1:      Singlet-A"     4.0600 eV  305.38 nm  f=0.0001  <S**2>=0.000
      12 -> 13         0.69847
 This state for optimization and/or second-order correction.
 Total Energy, E(TD-HF/TD-DFT) =  -153.499578480
 Copying the excited state density for this state as the 1-particle RhoCI density.

 Excited State   2:      Singlet-A'     7.6208 eV  162.69 nm  f=0.0157  <S**2>=0.000
      12 -> 14         0.66267
      12 -> 15         0.20146

 Excited State   3:      Singlet-A'     8.4333 eV  147.02 nm  f=0.0664  <S**2>=0.000
      11 -> 13        -0.11037
      12 -> 14        -0.18845
      12 -> 15         0.65688

 Excited State   4:      Singlet-A"     8.7978 eV  140.93 nm  f=0.0001  <S**2>=0.000
       7 -> 13         0.21562
       9 -> 13        -0.31202
      10 -> 13         0.58637

 Excited State   5:      Singlet-A'     9.0969 eV  136.29 nm  f=0.1112  <S**2>=0.000
      11 -> 13        -0.37497
      12 -> 17         0.52459
      12 -> 18        -0.22485
      12 -> 19        -0.11903

 Excited State   6:      Singlet-A"     9.2266 eV  134.38 nm  f=0.0097  <S**2>=0.000
       9 -> 13        -0.12233
      12 -> 16         0.67713
      12 -> 20        -0.12096

 Excited State   7:      Singlet-A'     9.3767 eV  132.23 nm  f=0.2652  <S**2>=0.000
      11 -> 13         0.51894
      12 -> 14        -0.11268
      12 -> 17         0.41710

 Excited State   8:      Singlet-A"     9.5379 eV  129.99 nm  f=0.0030  <S**2>=0.000
       7 -> 13         0.10706
       9 -> 13         0.59409
      10 -> 13         0.29121
      12 -> 16         0.13035
      12 -> 20         0.10304

 Excited State   9:      Singlet-A'     9.7936 eV  126.60 nm  f=0.0042  <S**2>=0.000
      11 -> 13        -0.20223
      12 -> 17         0.16820
      12 -> 18         0.56121
      12 -> 19         0.28497

 Excited State  10:      Singlet-A"    10.1049 eV  122.70 nm  f=0.0019  <S**2>=0.000
       9 -> 13        -0.11926
      12 -> 20         0.66631

 Excited State  11:      Singlet-A'    10.1368 eV  122.31 nm  f=0.0631  <S**2>=0.000
      12 -> 18        -0.30831
      12 -> 19         0.61783

 Excited State  12:      Singlet-A"    10.2933 eV  120.45 nm  f=0.0135  <S**2>=0.000
      11 -> 14         0.68497

 Excited State  13:      Singlet-A'    10.6286 eV  116.65 nm  f=0.0021  <S**2>=0.000
      12 -> 21         0.67459

 Excited State  14:      Singlet-A'    10.9595 eV  113.13 nm  f=0.1023  <S**2>=0.000
       8 -> 13         0.16805
      10 -> 14         0.64841
      10 -> 15        -0.14592

 Excited State  15:      Singlet-A"    11.0349 eV  112.36 nm  f=0.0105  <S**2>=0.000
       7 -> 13         0.63142
      10 -> 13        -0.23878
      11 -> 15        -0.14316

 Excited State  16:      Singlet-A"    11.1189 eV  111.51 nm  f=0.0419  <S**2>=0.000
       7 -> 13         0.12363
       8 -> 14         0.14481
      11 -> 15         0.66752

 Excited State  17:      Singlet-A'    11.3458 eV  109.28 nm  f=0.0628  <S**2>=0.000
       8 -> 13         0.64233
      10 -> 14        -0.14815
      12 -> 21        -0.10729
      12 -> 23        -0.11402

 Excited State  18:      Singlet-A"    11.4883 eV  107.92 nm  f=0.0059  <S**2>=0.000
      12 -> 22         0.68590

 Excited State  19:      Singlet-A'    11.7891 eV  105.17 nm  f=0.0947  <S**2>=0.000
       8 -> 13         0.11868
      10 -> 15         0.24938
      12 -> 23         0.33232
      12 -> 24         0.48058
      12 -> 25         0.19926

 Excited State  20:      Singlet-A'    11.9401 eV  103.84 nm  f=0.0458  <S**2>=0.000
      10 -> 14         0.13928
      10 -> 15         0.59936
      11 -> 16         0.12005
      12 -> 23        -0.11469
      12 -> 24        -0.21106

 Excited State  21:      Singlet-A"    11.9623 eV  103.65 nm  f=0.0938  <S**2>=0.000
       8 -> 14         0.25384
      11 -> 17         0.62764
      11 -> 19        -0.12017

 Excited State  22:      Singlet-A'    12.0417 eV  102.96 nm  f=0.0424  <S**2>=0.000
      11 -> 16         0.33074
      12 -> 23         0.50003
      12 -> 24        -0.31613

 Excited State  23:      Singlet-A'    12.2176 eV  101.48 nm  f=0.0701  <S**2>=0.000
      11 -> 16         0.56273
      12 -> 23        -0.23542
      12 -> 24         0.24865
      12 -> 25        -0.17340

 Excited State  24:      Singlet-A"    12.3426 eV  100.45 nm  f=0.0072  <S**2>=0.000
       8 -> 14         0.10333
       8 -> 15        -0.11277
      11 -> 18         0.62006
      11 -> 19         0.20756

 Excited State  25:      Singlet-A'    12.5615 eV   98.70 nm  f=0.0192  <S**2>=0.000
       9 -> 14        -0.30465
      11 -> 16         0.15770
      11 -> 20         0.11291
      12 -> 24        -0.14460
      12 -> 25         0.55681

 Excited State  26:      Singlet-A"    12.5765 eV   98.58 nm  f=0.0747  <S**2>=0.000
       8 -> 14         0.59243
      10 -> 16         0.13328
      11 -> 15        -0.13456
      11 -> 17        -0.25073

 Excited State  27:      Singlet-A'    12.6419 eV   98.07 nm  f=0.0018  <S**2>=0.000
       9 -> 14         0.59196
      10 -> 17        -0.12257
      11 -> 20         0.14223
      12 -> 23        -0.10938
      12 -> 25         0.24190

 Excited State  28:      Singlet-A"    12.6747 eV   97.82 nm  f=0.0012  <S**2>=0.000
       8 -> 15        -0.18443
      10 -> 16         0.49456
      10 -> 20         0.27901
      11 -> 18         0.17729
      11 -> 19        -0.27130
      11 -> 21         0.10551

 Excited State  29:      Singlet-A"    12.7992 eV   96.87 nm  f=0.0020  <S**2>=0.000
       8 -> 14        -0.11519
       8 -> 15         0.18120
      10 -> 16         0.36240
      11 -> 17         0.11416
      11 -> 19         0.52307

 Excited State  30:      Singlet-A'    12.9847 eV   95.48 nm  f=0.0403  <S**2>=0.000
       7 -> 14        -0.11790
       8 -> 16        -0.10390
       9 -> 14        -0.10491
       9 -> 15         0.10046
      10 -> 17        -0.30008
      10 -> 21         0.10218
      11 -> 20         0.53014
      12 -> 25        -0.13836

 Excited State  31:      Singlet-A'    13.0794 eV   94.79 nm  f=0.0025  <S**2>=0.000
       9 -> 15         0.14583
      10 -> 17         0.49461
      10 -> 18         0.11150
      10 -> 19        -0.30012
      11 -> 20         0.29393
      11 -> 22        -0.10897

 Excited State  32:      Singlet-A"    13.1764 eV   94.10 nm  f=0.0003  <S**2>=0.000
       8 -> 15        -0.31780
       8 -> 17         0.18845
      11 -> 18        -0.13827
      11 -> 19         0.18702
      11 -> 21         0.51917

 Excited State  33:      Singlet-A'    13.2445 eV   93.61 nm  f=0.0804  <S**2>=0.000
       9 -> 15         0.25948
      10 -> 18         0.54068
      10 -> 19         0.26874

 Excited State  34:      Singlet-A"    13.3865 eV   92.62 nm  f=0.0288  <S**2>=0.000
      10 -> 20        -0.14281
      12 -> 26         0.66420

 Excited State  35:      Singlet-A'    13.4251 eV   92.35 nm  f=0.1031  <S**2>=0.000
       9 -> 15         0.58373
       9 -> 17        -0.15438
      10 -> 18        -0.20145
      10 -> 19        -0.13537
      11 -> 20        -0.13861
      11 -> 22         0.11388

 Excited State  36:      Singlet-A"    13.5396 eV   91.57 nm  f=0.0374  <S**2>=0.000
       6 -> 13        -0.12527
       8 -> 15        -0.32157
      10 -> 16        -0.20296
      10 -> 20         0.43268
      10 -> 22        -0.14016
      11 -> 19         0.18973
      11 -> 21        -0.22826

 Excited State  37:      Singlet-A"    13.5924 eV   91.22 nm  f=0.0055  <S**2>=0.000
       8 -> 15         0.40466
       8 -> 18         0.11095
      10 -> 16        -0.15238
      10 -> 20         0.34492
      10 -> 22        -0.13047
      11 -> 18         0.10642
      11 -> 21         0.31393
      12 -> 26         0.11726

 Excited State  38:      Singlet-A'    13.6657 eV   90.73 nm  f=0.0310  <S**2>=0.000
       7 -> 14         0.25771
       7 -> 15         0.15381
       8 -> 16         0.13617
       9 -> 15         0.12147
      10 -> 17         0.16728
      10 -> 18        -0.19689
      10 -> 19         0.40949
      10 -> 21        -0.17827
      10 -> 25         0.11166
      11 -> 22        -0.19836

 Excited State  39:      Singlet-A'    13.8856 eV   89.29 nm  f=0.0119  <S**2>=0.000
       7 -> 14         0.59273
      10 -> 15        -0.12521
      10 -> 17        -0.11828
      10 -> 18         0.17085
      10 -> 19        -0.13093
      10 -> 21         0.17895

 Excited State  40:      Singlet-A"    13.9069 eV   89.15 nm  f=0.0002  <S**2>=0.000
       6 -> 13        -0.15404
       8 -> 19        -0.11263
      12 -> 27         0.64035

 Excited State  41:      Singlet-A"    14.0690 eV   88.13 nm  f=0.0143  <S**2>=0.000
       6 -> 13         0.37206
       8 -> 15        -0.15038
       8 -> 17        -0.13013
       8 -> 18         0.25306
       8 -> 19         0.23458
       9 -> 16        -0.21630
      11 -> 23        -0.26574
      12 -> 27         0.19265

 Excited State  42:      Singlet-A'    14.0702 eV   88.12 nm  f=0.0516  <S**2>=0.000
       7 -> 15        -0.12164
       7 -> 17         0.11553
       8 -> 16        -0.20642
       9 -> 17        -0.14134
      10 -> 17         0.25387
      10 -> 19         0.28174
      10 -> 21         0.37301
      11 -> 22         0.27304

 Excited State  43:      Singlet-A'    14.1085 eV   87.88 nm  f=0.0131  <S**2>=0.000
       7 -> 14        -0.10211
       9 -> 17        -0.31123
       9 -> 18         0.20019
       9 -> 19         0.14061
      11 -> 22        -0.11426
      12 -> 28         0.52018

 Excited State  44:      Singlet-A'    14.1992 eV   87.32 nm  f=0.1240  <S**2>=0.000
       7 -> 14         0.10944
       9 -> 17         0.43909
      10 -> 21        -0.14370
      11 -> 22         0.25248
      12 -> 28         0.36306

 Excited State  45:      Singlet-A"    14.2254 eV   87.16 nm  f=0.0030  <S**2>=0.000
       8 -> 18         0.19168
       9 -> 16         0.59663
      10 -> 22         0.17026
      11 -> 23        -0.16508

 Excited State  46:      Singlet-A"    14.3388 eV   86.47 nm  f=0.0017  <S**2>=0.000
       6 -> 13         0.23053
       8 -> 17        -0.30157
       8 -> 18        -0.28714
       8 -> 19         0.14707
       9 -> 16         0.13547
      11 -> 18        -0.11045
      11 -> 21         0.11655
      11 -> 23         0.31109
      11 -> 24         0.26923

 Excited State  47:      Singlet-A"    14.4742 eV   85.66 nm  f=0.0279  <S**2>=0.000
       6 -> 13        -0.31298
       8 -> 17        -0.21342
       8 -> 18         0.13453
       8 -> 21         0.17828
       9 -> 16        -0.13429
      11 -> 23        -0.10410
      11 -> 24         0.41033
      11 -> 25         0.24867

 Excited State  48:      Singlet-A'    14.5272 eV   85.35 nm  f=0.1131  <S**2>=0.000
       7 -> 15        -0.24573
       8 -> 16         0.30040
       8 -> 20         0.14485
       9 -> 17        -0.21178
       9 -> 18        -0.13694
      10 -> 21        -0.23605
      11 -> 20         0.15214
      11 -> 22         0.39227

 Excited State  49:      Singlet-A'    14.5783 eV   85.05 nm  f=0.1210  <S**2>=0.000
       7 -> 15         0.49462
       9 -> 17        -0.11102
       9 -> 18         0.27839
      11 -> 22         0.29379
      12 -> 28        -0.15367

 Excited State  50:      Singlet-A"    14.6200 eV   84.80 nm  f=0.0074  <S**2>=0.000
       7 -> 16        -0.23071
       8 -> 17        -0.15530
       9 -> 16        -0.15313
       9 -> 20        -0.27288
      10 -> 16        -0.10723
      10 -> 20         0.12781
      10 -> 22         0.50115
      11 -> 24        -0.10260

 Excited State  51:      Singlet-A'    14.6710 eV   84.51 nm  f=0.0282  <S**2>=0.000
       7 -> 15         0.23406
       8 -> 16         0.40313
       8 -> 20         0.10859
       9 -> 18        -0.24379
       9 -> 19        -0.11228
      10 -> 21         0.32257
      12 -> 28         0.10065
      12 -> 29        -0.11821

 Excited State  52:      Singlet-A"    14.6920 eV   84.39 nm  f=0.0143  <S**2>=0.000
       6 -> 13         0.16890
       8 -> 17         0.38208
       8 -> 18         0.17922
      10 -> 20         0.10271
      10 -> 22         0.21849
      11 -> 21        -0.11782
      11 -> 23         0.23052
      11 -> 24         0.32466
      11 -> 25         0.10999

 Excited State  53:      Singlet-A'    14.7946 eV   83.80 nm  f=0.0685  <S**2>=0.000
       7 -> 15        -0.13346
       8 -> 16         0.26237
       9 -> 17         0.18318
       9 -> 18         0.37742
       9 -> 19         0.25277
       9 -> 21        -0.13936
      10 -> 21         0.20625
      12 -> 28        -0.11799
      12 -> 29         0.20610

 Excited State  54:      Singlet-A"    14.9265 eV   83.06 nm  f=0.0196  <S**2>=0.000
       6 -> 13         0.10085
       8 -> 18        -0.18963
       8 -> 19        -0.25281
       8 -> 21         0.10265
       9 -> 20         0.46560
      10 -> 22         0.18498
      11 -> 23        -0.24226

 Excited State  55:      Singlet-A"    14.9525 eV   82.92 nm  f=0.0010  <S**2>=0.000
       8 -> 17        -0.27634
       8 -> 18         0.26505
       8 -> 21        -0.12063
       9 -> 20         0.25928
      11 -> 23         0.32696
      11 -> 24        -0.27966
      11 -> 25         0.19673

 Excited State  56:      Singlet-A'    15.0497 eV   82.38 nm  f=0.1201  <S**2>=0.000
       7 -> 19        -0.10062
       8 -> 20        -0.21718
       9 -> 18        -0.13739
       9 -> 21         0.11651
      10 -> 24        -0.17741
      12 -> 29         0.54155
      12 -> 32         0.12824

 Excited State  57:      Singlet-A'    15.1014 eV   82.10 nm  f=0.0089  <S**2>=0.000
       7 -> 15         0.13688
       7 -> 17        -0.11998
       7 -> 18         0.13573
       8 -> 16        -0.19433
       8 -> 20         0.33594
       9 -> 18        -0.21603
       9 -> 19         0.38217
      10 -> 23        -0.14975
      12 -> 29         0.15564

 Excited State  58:      Singlet-A'    15.1977 eV   81.58 nm  f=0.0586  <S**2>=0.000
       7 -> 15        -0.10390
       8 -> 20         0.43911
       8 -> 22        -0.11665
       9 -> 18         0.17296
       9 -> 19        -0.38557
      11 -> 22        -0.10976
      12 -> 29         0.14167

 Excited State  59:      Singlet-A"    15.2962 eV   81.06 nm  f=0.3349  <S**2>=0.000
       6 -> 13        -0.25670
       7 -> 16        -0.11054
       8 -> 18        -0.11248
       8 -> 19         0.41412
       8 -> 21        -0.13903
       9 -> 20         0.24860
      10 -> 20        -0.11745
      10 -> 22         0.15390
      11 -> 23        -0.12107
      11 -> 25        -0.22332

 Excited State  60:      Singlet-A"    15.4250 eV   80.38 nm  f=0.0155  <S**2>=0.000
       7 -> 16         0.16471
       8 -> 18        -0.24354
       8 -> 19         0.22734
       8 -> 21        -0.28283
       8 -> 23        -0.11080
       9 -> 20        -0.12956
      11 -> 23        -0.13538
      11 -> 25         0.43963

 Excited State  61:      Singlet-A'    15.4519 eV   80.24 nm  f=0.1055  <S**2>=0.000
       7 -> 17         0.46753
       7 -> 18        -0.17036
       7 -> 19        -0.23123
       8 -> 20         0.10535
       9 -> 21        -0.22650
      10 -> 23         0.16778
      10 -> 25         0.11282

 Excited State  62:      Singlet-A'    15.4801 eV   80.09 nm  f=0.0999  <S**2>=0.000
       7 -> 15        -0.10457
       7 -> 18        -0.24387
       8 -> 20         0.13937
       9 -> 19         0.19757
       9 -> 21         0.33037
      10 -> 23         0.17021
      10 -> 24        -0.29816
      10 -> 25        -0.18177
      12 -> 29        -0.13808
      12 -> 30         0.15882

 Excited State  63:      Singlet-A'    15.5467 eV   79.75 nm  f=0.1363  <S**2>=0.000
       7 -> 17        -0.13903
       7 -> 18        -0.12805
       7 -> 19        -0.10460
       9 -> 21         0.22894
      10 -> 23         0.34321
      10 -> 24         0.36559
      10 -> 25         0.29984
      12 -> 30        -0.12479

 Excited State  64:      Singlet-A"    15.6185 eV   79.38 nm  f=0.1158  <S**2>=0.000
       7 -> 16         0.59162
       9 -> 22         0.17127
      10 -> 22         0.17751
      11 -> 25        -0.15449

 Excited State  65:      Singlet-A'    15.6400 eV   79.27 nm  f=0.0792  <S**2>=0.000
      10 -> 23        -0.10823
      10 -> 24         0.17424
      12 -> 30         0.59430
      12 -> 32         0.19221

 Excited State  66:      Singlet-A"    15.8065 eV   78.44 nm  f=0.0002  <S**2>=0.000
       8 -> 17         0.17526
       8 -> 19         0.24771
       8 -> 21         0.53845
      11 -> 24        -0.20479
      11 -> 25         0.18028

 Excited State  67:      Singlet-A'    15.8395 eV   78.28 nm  f=0.0470  <S**2>=0.000
       7 -> 17        -0.20887
       7 -> 19         0.15329
       9 -> 21        -0.36511
      10 -> 18        -0.11778
      10 -> 23         0.39891
      10 -> 25        -0.22391
      12 -> 32         0.12195

 Excited State  68:      Singlet-A'    15.8672 eV   78.14 nm  f=0.0651  <S**2>=0.000
       7 -> 17        -0.25275
       7 -> 19        -0.12194
       9 -> 21        -0.19597
      10 -> 24        -0.29508
      10 -> 25         0.33906
      12 -> 30         0.11537
      12 -> 32        -0.30032

 Excited State  69:      Singlet-A'    15.9937 eV   77.52 nm  f=0.0246  <S**2>=0.000
       7 -> 18         0.19842
      10 -> 24        -0.22934
      10 -> 25         0.25066
      12 -> 29        -0.18597
      12 -> 32         0.46742

 Excited State  70:      Singlet-A"    15.9960 eV   77.51 nm  f=0.0536  <S**2>=0.000
       7 -> 16        -0.10092
      12 -> 31         0.67746

 Excited State  71:      Singlet-A'    16.1385 eV   76.83 nm  f=0.0030  <S**2>=0.000
       7 -> 17         0.23226
       7 -> 18         0.35700
       7 -> 19         0.25765
       9 -> 21         0.18542
      10 -> 23         0.24792
      11 -> 26         0.14207
      12 -> 29         0.12198
      12 -> 30         0.18181
      12 -> 32        -0.18455

 Excited State  72:      Singlet-A'    16.2626 eV   76.24 nm  f=0.1631  <S**2>=0.000
       7 -> 18         0.13477
       7 -> 19        -0.11755
       8 -> 20         0.13436
       8 -> 22         0.54989
      11 -> 27         0.29989

 Excited State  73:      Singlet-A"    16.2810 eV   76.15 nm  f=0.1845  <S**2>=0.000
       7 -> 20         0.63455
       8 -> 19         0.10360
      11 -> 25        -0.11938
      12 -> 34         0.10171

 Excited State  74:      Singlet-A"    16.3708 eV   75.73 nm  f=0.0063  <S**2>=0.000
       7 -> 16        -0.12623
       9 -> 22         0.65307

 Excited State  75:      Singlet-A'    16.4493 eV   75.37 nm  f=0.0262  <S**2>=0.000
       6 -> 14        -0.36942
       7 -> 18         0.11281
       7 -> 19        -0.15552
       9 -> 23         0.13529
       9 -> 24         0.10821
      11 -> 26         0.41374
      12 -> 33        -0.23707
      12 -> 38         0.10158

 Excited State  76:      Singlet-A'    16.4609 eV   75.32 nm  f=0.0056  <S**2>=0.000
       6 -> 14         0.44328
       7 -> 18         0.19625
       7 -> 19        -0.27382
       7 -> 21         0.13642
       8 -> 22        -0.11320
       9 -> 24        -0.10865
       9 -> 25        -0.11934
      10 -> 25        -0.14831
      12 -> 33        -0.24314

 Excited State  77:      Singlet-A'    16.5314 eV   75.00 nm  f=0.0677  <S**2>=0.000
       6 -> 14         0.24748
       7 -> 18        -0.18380
       7 -> 19         0.12639
       8 -> 22         0.10374
      10 -> 23        -0.12579
      11 -> 26         0.49714
      12 -> 33         0.22324

 Excited State  78:      Singlet-A"    16.6529 eV   74.45 nm  f=0.0006  <S**2>=0.000
       7 -> 20        -0.13829
       8 -> 23        -0.21125
       8 -> 24        -0.38583
       8 -> 25        -0.18990
      11 -> 28        -0.10115
      12 -> 34         0.43837

 Excited State  79:      Singlet-A'    16.6878 eV   74.30 nm  f=0.0122  <S**2>=0.000
       7 -> 17        -0.11633
       7 -> 18         0.18095
       7 -> 19        -0.36841
       7 -> 21        -0.17235
      10 -> 25        -0.13286
      11 -> 27        -0.20328
      12 -> 33         0.41225

 Excited State  80:      Singlet-A'    16.7681 eV   73.94 nm  f=0.0429  <S**2>=0.000
       7 -> 21         0.34528
       9 -> 23         0.45381
       9 -> 24        -0.11957
      11 -> 27        -0.30081

 Excited State  81:      Singlet-A"    16.8120 eV   73.75 nm  f=0.0003  <S**2>=0.000
       8 -> 23         0.26041
       8 -> 24         0.36593
       8 -> 25         0.12967

 The electronic state is 1-A'.
 Alpha  occ. eigenvalues --  -19.64532 -10.65251 -10.56609  -1.16885  -0.84729
 Alpha  occ. eigenvalues --   -0.66341  -0.56516  -0.52212  -0.52179  -0.47041
 Alpha  occ. eigenvalues --   -0.44025  -0.33600
 Alpha virt. eigenvalues --    0.01455   0.03914   0.06454   0.10520   0.10724
 Alpha virt. eigenvalues --    0.12729   0.13989   0.14081   0.14812   0.18336
 Alpha virt. eigenvalues --    0.20276   0.21254   0.22772   0.26674   0.28458

 Mulliken charges:
               1
     1  C    0.251335
     2  C    0.052000
     3  O   -0.361604
     4  H    0.090702
     5  H    0.090702
     6  H   -0.008332
     7  H   -0.114803
 Sum of Mulliken charges =  -0.00000

 Dipole moment (field-independent basis, Debye):
    X=              2.9057    Y=             -0.3149    Z=             -0.0000  Tot=              2.9227
 Quadrupole moment (field-independent basis, Debye-Ang):
   XX=            -21.2714   YY=            -17.8957   ZZ=            -18.0380
   XY=              0.8389   XZ=             -0.0000   YZ=              0.0000

 Normal termination of Gaussian 16 at Mon Mar 21 04:06:39 2022.
