 Gaussian 16, Revision C.01,
 Gaussian 16:  EM64L-G16RevC.01  3-Jul-2019

 ---------------------------------------------------------------------
 #P TD(Nstates=10000) m062x/Gen SCF(maxcycles=100) Int(Grid=ultrafine)
 ---------------------------------------------------------------------

 ---------------------
 xGDB7_00001_tier4.com
 ---------------------
 Symbolic Z-matrix:
 Charge =  0 Multiplicity = 1

                         Standard orientation:
 ---------------------------------------------------------------------
 Center     Atomic      Atomic             Coordinates (Angstroms)
 Number     Number       Type             X           Y           Z
 ---------------------------------------------------------------------
      1          6           0       -1.131573   -0.504386    0.000000
      2          6           0        0.000000    0.472223    0.000000
      3          6           0        1.284136    0.150792    0.000000
      4          1           0       -1.767446   -0.362776    0.877699
      5          1           0       -0.770122   -1.533458    0.000000
      6          1           0       -1.767446   -0.362776   -0.877699
      7          1           0       -0.276551    1.523465    0.000000
      8          1           0        1.608435   -0.884555    0.000000
      9          1           0        2.057749    0.908327    0.000000
 ---------------------------------------------------------------------

 SCF Done:  E(RM062X) =  -117.752947861     A.U. after   13 cycles

 Excitation energies and oscillator strengths:

 Excited State   1:      Singlet-A"     7.2829 eV  170.24 nm  f=0.0226  <S**2>=0.000
      12 -> 13         0.67267
      12 -> 16        -0.17278
 This state for optimization and/or second-order correction.
 Total Energy, E(TD-HF/TD-DFT) =  -117.485305097
 Copying the excited state density for this state as the 1-particle RhoCI density.

 Excited State   2:      Singlet-A'     7.6303 eV  162.49 nm  f=0.4066  <S**2>=0.000
      12 -> 14         0.69995

 Excited State   3:      Singlet-A"     7.9651 eV  155.66 nm  f=0.0017  <S**2>=0.000
      11 -> 14         0.29674
      12 -> 15        -0.38794
      12 -> 16         0.47974

 Excited State   4:      Singlet-A"     8.1254 eV  152.59 nm  f=0.0207  <S**2>=0.000
      11 -> 14         0.32192
      12 -> 13         0.14408
      12 -> 15         0.56004
      12 -> 16         0.20137

 Excited State   5:      Singlet-A"     8.2049 eV  151.11 nm  f=0.0061  <S**2>=0.000
      11 -> 14         0.53790
      12 -> 13        -0.10017
      12 -> 15        -0.12831
      12 -> 16        -0.41590

 Excited State   6:      Singlet-A"     8.9978 eV  137.79 nm  f=0.0007  <S**2>=0.000
       7 -> 14         0.13116
       8 -> 14        -0.23186
      10 -> 14         0.63671

 Excited State   7:      Singlet-A"     9.3203 eV  133.03 nm  f=0.0032  <S**2>=0.000
      12 -> 16        -0.10963
      12 -> 17         0.66751
      12 -> 22        -0.12125

 Excited State   8:      Singlet-A'     9.7161 eV  127.61 nm  f=0.0067  <S**2>=0.000
      11 -> 13         0.66038
      11 -> 16        -0.16429
      12 -> 18         0.12357

 Excited State   9:      Singlet-A"     9.7952 eV  126.58 nm  f=0.0370  <S**2>=0.000
      12 -> 19         0.68665

 Excited State  10:      Singlet-A'     9.8346 eV  126.07 nm  f=0.0832  <S**2>=0.000
      11 -> 13        -0.11143
      12 -> 18         0.67013
      12 -> 21         0.12068

 Excited State  11:      Singlet-A'    10.2469 eV  121.00 nm  f=0.0268  <S**2>=0.000
      10 -> 13         0.57588
      10 -> 15         0.11040
      11 -> 15         0.35719

 Excited State  12:      Singlet-A"    10.2601 eV  120.84 nm  f=0.0015  <S**2>=0.000
       8 -> 14        -0.11284
      12 -> 20         0.66063
      12 -> 22         0.17808

 Excited State  13:      Singlet-A"    10.4550 eV  118.59 nm  f=0.0001  <S**2>=0.000
       7 -> 14         0.10487
       8 -> 14         0.63018
      10 -> 14         0.21743
      12 -> 22         0.11113

 Excited State  14:      Singlet-A'    10.5060 eV  118.01 nm  f=0.1236  <S**2>=0.000
      10 -> 13        -0.31726
      10 -> 15        -0.12571
      11 -> 15         0.54164
      11 -> 16        -0.18090
      12 -> 21         0.18170

 Excited State  15:      Singlet-A'    10.5213 eV  117.84 nm  f=0.1407  <S**2>=0.000
      11 -> 13         0.16213
      11 -> 16         0.61643
      12 -> 21         0.23432

 Excited State  16:      Singlet-A'    10.6777 eV  116.12 nm  f=0.0841  <S**2>=0.000
      10 -> 13         0.14571
      11 -> 15        -0.17333
      11 -> 16        -0.18751
      12 -> 21         0.60915

 Excited State  17:      Singlet-A"    10.7953 eV  114.85 nm  f=0.0599  <S**2>=0.000
      12 -> 17         0.11080
      12 -> 20        -0.16667
      12 -> 22         0.63014
      12 -> 23        -0.16790

 Excited State  18:      Singlet-A"    11.0480 eV  112.22 nm  f=0.0050  <S**2>=0.000
      12 -> 22         0.14274
      12 -> 23         0.66098

 Excited State  19:      Singlet-A'    11.2526 eV  110.18 nm  f=0.0320  <S**2>=0.000
       8 -> 13         0.14075
      10 -> 15         0.24432
      10 -> 16         0.57474
      12 -> 24         0.22206

 Excited State  20:      Singlet-A'    11.3776 eV  108.97 nm  f=0.0380  <S**2>=0.000
       9 -> 14        -0.23257
      10 -> 13        -0.12005
      10 -> 15         0.50834
      10 -> 16        -0.31738
      12 -> 24         0.19362

 Excited State  21:      Singlet-A'    11.3940 eV  108.82 nm  f=0.0222  <S**2>=0.000
       9 -> 14         0.63627
      10 -> 15         0.22485

 Excited State  22:      Singlet-A"    11.4662 eV  108.13 nm  f=0.1165  <S**2>=0.000
       9 -> 13         0.63059
       9 -> 15         0.26500

 Excited State  23:      Singlet-A'    11.5566 eV  107.28 nm  f=0.0309  <S**2>=0.000
       9 -> 14         0.10608
      10 -> 15        -0.22948
      10 -> 16        -0.15096
      11 -> 17        -0.16787
      12 -> 24         0.57032

 Excited State  24:      Singlet-A"    11.8385 eV  104.73 nm  f=0.0001  <S**2>=0.000
       7 -> 14         0.63111
      10 -> 14        -0.14770
      11 -> 18        -0.13837
      12 -> 25        -0.14392

 Excited State  25:      Singlet-A'    11.8485 eV  104.64 nm  f=0.0689  <S**2>=0.000
       8 -> 13        -0.14782
       8 -> 15        -0.11143
      10 -> 17        -0.12959
      11 -> 17         0.59078
      11 -> 19        -0.12051
      12 -> 24         0.16608

 Excited State  26:      Singlet-A"    11.9540 eV  103.72 nm  f=0.0004  <S**2>=0.000
       7 -> 14         0.11754
       8 -> 18         0.10879
      11 -> 18         0.63510
      11 -> 21         0.12669
      12 -> 25        -0.14375

 Excited State  27:      Singlet-A'    12.0424 eV  102.96 nm  f=0.0299  <S**2>=0.000
       8 -> 13         0.62616
      11 -> 15        -0.13237
      11 -> 17         0.18102

 Excited State  28:      Singlet-A"    12.0909 eV  102.54 nm  f=0.0986  <S**2>=0.000
       7 -> 14         0.15673
       9 -> 13         0.10930
      12 -> 25         0.62901

 Excited State  29:      Singlet-A'    12.1817 eV  101.78 nm  f=0.1025  <S**2>=0.000
       8 -> 15        -0.11554
      11 -> 17         0.12239
      11 -> 19         0.64898

 Excited State  30:      Singlet-A'    12.3826 eV  100.13 nm  f=0.0497  <S**2>=0.000
       8 -> 13        -0.13170
       8 -> 16        -0.21395
      10 -> 17         0.48685
      10 -> 23        -0.10577
      11 -> 20         0.35264

 Excited State  31:      Singlet-A"    12.4344 eV   99.71 nm  f=0.0338  <S**2>=0.000
       9 -> 16        -0.20863
      10 -> 18         0.62135
      12 -> 27        -0.10574

 Excited State  32:      Singlet-A'    12.4753 eV   99.38 nm  f=0.1090  <S**2>=0.000
       8 -> 15         0.32285
       8 -> 16        -0.29894
      10 -> 17        -0.33929
      10 -> 19         0.17450
      11 -> 20         0.34107

 Excited State  33:      Singlet-A"    12.5963 eV   98.43 nm  f=0.0138  <S**2>=0.000
       9 -> 16         0.61433
       9 -> 20        -0.10694
      10 -> 18         0.16222
      12 -> 27        -0.21714

 Excited State  34:      Singlet-A"    12.6527 eV   97.99 nm  f=0.0001  <S**2>=0.000
       9 -> 16         0.19359
      10 -> 18         0.17392
      12 -> 27         0.59705
      12 -> 28        -0.19516

 Excited State  35:      Singlet-A'    12.7253 eV   97.43 nm  f=0.0235  <S**2>=0.000
       8 -> 15        -0.17989
      11 -> 20         0.19757
      11 -> 22         0.15762
      12 -> 26         0.58762

 Excited State  36:      Singlet-A"    12.8061 eV   96.82 nm  f=0.0293  <S**2>=0.000
       9 -> 13        -0.19809
       9 -> 15         0.51653
       9 -> 17        -0.19374
      11 -> 21        -0.33615

 Excited State  37:      Singlet-A'    12.8163 eV   96.74 nm  f=0.0334  <S**2>=0.000
       8 -> 15        -0.26688
       8 -> 16        -0.34529
      10 -> 19         0.37364
      11 -> 19        -0.12833
      11 -> 20        -0.23510
      11 -> 22        -0.14367
      12 -> 26         0.14501

 Excited State  38:      Singlet-A"    12.8477 eV   96.50 nm  f=0.0504  <S**2>=0.000
       9 -> 13        -0.14491
       9 -> 15         0.29066
       9 -> 17        -0.12309
      11 -> 18        -0.12631
      11 -> 21         0.56052

 Excited State  39:      Singlet-A'    12.9548 eV   95.71 nm  f=0.3039  <S**2>=0.000
       7 -> 13        -0.10550
       8 -> 15         0.46212
      10 -> 17         0.22454
      11 -> 17         0.14435
      11 -> 20        -0.24724
      11 -> 22        -0.13303
      12 -> 26         0.27552

 Excited State  40:      Singlet-A'    12.9961 eV   95.40 nm  f=0.0735  <S**2>=0.000
       8 -> 16         0.32351
      10 -> 19         0.48539
      10 -> 20        -0.23666
      11 -> 20         0.10613
      11 -> 22         0.17830

 Excited State  41:      Singlet-A"    13.1481 eV   94.30 nm  f=0.0009  <S**2>=0.000
       9 -> 17        -0.19042
       9 -> 19         0.10056
      12 -> 27         0.22209
      12 -> 28         0.58929

 Excited State  42:      Singlet-A'    13.1539 eV   94.26 nm  f=0.0253  <S**2>=0.000
       8 -> 15         0.11210
       8 -> 16        -0.23897
       8 -> 17         0.13473
      11 -> 20        -0.22509
      11 -> 22         0.55479
      11 -> 23        -0.11016

 Excited State  43:      Singlet-A"    13.3240 eV   93.05 nm  f=0.0006  <S**2>=0.000
       9 -> 17        -0.14261
       9 -> 19         0.14829
      10 -> 21         0.62518
      12 -> 28        -0.11049

 Excited State  44:      Singlet-A'    13.3827 eV   92.65 nm  f=0.0188  <S**2>=0.000
       7 -> 16         0.17850
       8 -> 16         0.18391
       9 -> 18         0.26190
      10 -> 19         0.14310
      10 -> 20         0.53268
      10 -> 23        -0.10342

 Excited State  45:      Singlet-A'    13.4506 eV   92.18 nm  f=0.0080  <S**2>=0.000
       7 -> 13         0.62927
      11 -> 23        -0.20393

 Excited State  46:      Singlet-A"    13.5394 eV   91.57 nm  f=0.0107  <S**2>=0.000
       8 -> 18        -0.17988
       9 -> 17         0.22495
      11 -> 24         0.59631

 Excited State  47:      Singlet-A'    13.6028 eV   91.15 nm  f=0.0658  <S**2>=0.000
       7 -> 13         0.18259
       8 -> 19        -0.14446
       9 -> 18        -0.14671
      10 -> 20         0.13479
      10 -> 22        -0.13419
      11 -> 22         0.11293
      11 -> 23         0.53553
      12 -> 29         0.13704

 Excited State  48:      Singlet-A"    13.6595 eV   90.77 nm  f=0.0276  <S**2>=0.000
       9 -> 15         0.15802
       9 -> 17         0.47923
       9 -> 19        -0.11913
       9 -> 23        -0.13188
      10 -> 21         0.20022
      11 -> 24        -0.28870
      12 -> 28         0.18526

 Excited State  49:      Singlet-A'    13.7679 eV   90.05 nm  f=0.1603  <S**2>=0.000
       8 -> 17         0.29358
       9 -> 18        -0.37746
      10 -> 20         0.17867
      10 -> 22         0.39426
      10 -> 23        -0.12156

 Excited State  50:      Singlet-A'    13.9838 eV   88.66 nm  f=0.0951  <S**2>=0.000
       7 -> 16        -0.12912
       8 -> 17         0.25876
       9 -> 18         0.10889
      10 -> 22        -0.19529
      12 -> 29         0.53932

 Excited State  51:      Singlet-A'    13.9995 eV   88.56 nm  f=0.1908  <S**2>=0.000
       7 -> 15         0.27289
       8 -> 17        -0.26386
      10 -> 22         0.28744
      10 -> 23         0.34716
      11 -> 23        -0.11799
      12 -> 29         0.22578

 Excited State  52:      Singlet-A'    14.1348 eV   87.72 nm  f=0.0123  <S**2>=0.000
       7 -> 15         0.23055
       7 -> 16        -0.14162
       8 -> 19         0.32066
       8 -> 20        -0.16804
       9 -> 18        -0.22662
       9 -> 21        -0.11828
      10 -> 20         0.15493
      10 -> 22        -0.20791
      11 -> 22         0.10733
      11 -> 25        -0.29882
      12 -> 29        -0.12941

 Excited State  53:      Singlet-A"    14.1786 eV   87.44 nm  f=0.0038  <S**2>=0.000
       6 -> 14         0.11936
       8 -> 18         0.33029
       8 -> 21         0.14670
       9 -> 17         0.16614
       9 -> 19         0.39618
       9 -> 20        -0.13171
       9 -> 23        -0.10889
      10 -> 21        -0.10359
      10 -> 24        -0.15963
      12 -> 30         0.21972

 Excited State  54:      Singlet-A'    14.2242 eV   87.16 nm  f=0.0962  <S**2>=0.000
       7 -> 13         0.10862
       7 -> 15         0.15810
       7 -> 16         0.23032
       8 -> 19         0.32820
       9 -> 18         0.26698
      10 -> 20        -0.14653
      10 -> 22         0.22977
      10 -> 23        -0.18696
      11 -> 23         0.21121
      11 -> 25        -0.17584

 Excited State  55:      Singlet-A"    14.2390 eV   87.07 nm  f=0.0002  <S**2>=0.000
       8 -> 18        -0.30670
       9 -> 20        -0.15297
      10 -> 24         0.16342
      12 -> 30         0.52583

 Excited State  56:      Singlet-A'    14.2846 eV   86.80 nm  f=0.0361  <S**2>=0.000
       7 -> 15         0.27707
       7 -> 16         0.24617
       8 -> 17        -0.14764
       9 -> 18        -0.20008
      10 -> 19        -0.10468
      10 -> 22        -0.14004
      10 -> 23        -0.26883
      10 -> 25        -0.13970
      11 -> 23        -0.10187
      11 -> 25         0.32112

 Excited State  57:      Singlet-A"    14.3081 eV   86.65 nm  f=0.0658  <S**2>=0.000
       6 -> 14         0.19835
       8 -> 18        -0.32104
       8 -> 21        -0.11168
       9 -> 19         0.39865
       9 -> 23        -0.11841
      10 -> 24         0.13829
      12 -> 30        -0.29105

 Excited State  58:      Singlet-A'    14.3282 eV   86.53 nm  f=0.0092  <S**2>=0.000
       7 -> 15        -0.37385
       7 -> 16         0.37578
       8 -> 17        -0.10795
       8 -> 19         0.15697
       9 -> 21        -0.11562
      10 -> 20        -0.11504
      10 -> 23         0.17120
      10 -> 25        -0.13642
      11 -> 23        -0.12031
      12 -> 29         0.15788

 Excited State  59:      Singlet-A'    14.4241 eV   85.96 nm  f=0.0078  <S**2>=0.000
       7 -> 15         0.25197
       7 -> 16         0.28661
       8 -> 17         0.31881
       9 -> 21         0.11615
      10 -> 22        -0.11884
      10 -> 23         0.30850
      11 -> 22        -0.12166
      12 -> 29        -0.19156
      12 -> 31        -0.10991

 Excited State  60:      Singlet-A"    14.5447 eV   85.24 nm  f=0.0048  <S**2>=0.000
       6 -> 14         0.18018
       7 -> 18         0.10579
       8 -> 21         0.31283
       9 -> 20         0.19373
      10 -> 24         0.42988
      11 -> 26         0.23851
      12 -> 32         0.13351

 Excited State  61:      Singlet-A"    14.5784 eV   85.05 nm  f=0.0071  <S**2>=0.000
       6 -> 14        -0.10827
       8 -> 18        -0.11259
       9 -> 16         0.12889
       9 -> 19         0.13928
       9 -> 20         0.50274
       9 -> 22        -0.15803
       9 -> 23        -0.18510
      10 -> 24        -0.12631
      12 -> 30         0.21152
      12 -> 33        -0.14123

 Excited State  62:      Singlet-A'    14.5846 eV   85.01 nm  f=0.0616  <S**2>=0.000
       8 -> 17         0.12118
       8 -> 19         0.21853
      10 -> 25        -0.10576
      11 -> 25         0.19185
      12 -> 31         0.58467

 Excited State  63:      Singlet-A'    14.6210 eV   84.80 nm  f=0.0212  <S**2>=0.000
       7 -> 16        -0.15599
       8 -> 19         0.32908
       8 -> 20         0.13916
       9 -> 21        -0.14781
      10 -> 23         0.14606
      11 -> 23         0.12250
      11 -> 25         0.35489
      12 -> 31        -0.31203

 Excited State  64:      Singlet-A'    14.7574 eV   84.02 nm  f=0.0378  <S**2>=0.000
       8 -> 17        -0.14013
       8 -> 19         0.10109
       9 -> 21         0.60124
      10 -> 25        -0.10151
      11 -> 28         0.12146

 Excited State  65:      Singlet-A"    14.8085 eV   83.72 nm  f=0.0211  <S**2>=0.000
       9 -> 19        -0.13722
       9 -> 22         0.10182
      10 -> 24        -0.21788
      12 -> 32         0.58206
      12 -> 34         0.16957

 Excited State  66:      Singlet-A"    14.8114 eV   83.71 nm  f=0.0077  <S**2>=0.000
       8 -> 18        -0.29990
       8 -> 21         0.41896
      10 -> 24        -0.28757
      11 -> 26         0.24864
      12 -> 32        -0.19154

 Excited State  67:      Singlet-A"    14.9199 eV   83.10 nm  f=0.3130  <S**2>=0.000
       6 -> 14         0.41625
       9 -> 19        -0.11749
       9 -> 20         0.17788
      10 -> 24        -0.17629
      10 -> 26        -0.10163
      12 -> 33         0.37352

 Excited State  68:      Singlet-A'    15.0643 eV   82.30 nm  f=0.1140  <S**2>=0.000
       7 -> 17        -0.12453
       8 -> 20         0.48111
      10 -> 23         0.11682
      10 -> 25        -0.26139
      11 -> 25        -0.23001
      11 -> 27         0.23663

 Excited State  69:      Singlet-A"    15.1535 eV   81.82 nm  f=0.0076  <S**2>=0.000
       6 -> 14         0.11850
       8 -> 21        -0.29222
       8 -> 24         0.15935
      10 -> 24        -0.10347
      10 -> 26        -0.11143
      11 -> 26         0.50388
      12 -> 33        -0.20092

 Excited State  70:      Singlet-A"    15.2409 eV   81.35 nm  f=0.0267  <S**2>=0.000
       6 -> 14        -0.33797
       8 -> 21        -0.10004
      11 -> 26         0.25986
      12 -> 33         0.49853

 Excited State  71:      Singlet-A'    15.3168 eV   80.95 nm  f=0.0051  <S**2>=0.000
       7 -> 16         0.13836
       7 -> 17        -0.19614
       7 -> 19         0.12868
       8 -> 19         0.14063
       8 -> 20         0.14791
       8 -> 22        -0.14687
       9 -> 18        -0.13540
       9 -> 21         0.12199
      10 -> 22        -0.14775
      10 -> 25         0.48281
      11 -> 27         0.11922

 Excited State  72:      Singlet-A"    15.3590 eV   80.72 nm  f=0.0045  <S**2>=0.000
       6 -> 14        -0.10438
       9 -> 17        -0.12850
       9 -> 22         0.55488
       9 -> 23        -0.13160
      12 -> 32        -0.13309
      12 -> 34         0.25086

 Excited State  73:      Singlet-A'    15.3820 eV   80.60 nm  f=0.2107  <S**2>=0.000
       7 -> 17         0.10840
       8 -> 20        -0.23417
       8 -> 23        -0.15180
      10 -> 28         0.10223
      11 -> 27         0.57514

 Excited State  74:      Singlet-A"    15.4324 eV   80.34 nm  f=0.0378  <S**2>=0.000
       9 -> 22        -0.20972
       9 -> 23         0.20857
      12 -> 32        -0.14492
      12 -> 34         0.58272

 Excited State  75:      Singlet-A'    15.4512 eV   80.24 nm  f=0.0205  <S**2>=0.000
       7 -> 17         0.31875
       7 -> 19        -0.10319
       8 -> 20         0.19329
       8 -> 22         0.43881
      10 -> 25         0.19919
      10 -> 27        -0.14760
      11 -> 28         0.11748

 Excited State  76:      Singlet-A'    15.5147 eV   79.91 nm  f=0.2240  <S**2>=0.000
       6 -> 13        -0.10298
       7 -> 17        -0.29597
       7 -> 19         0.14134
       8 -> 20        -0.12831
       8 -> 22         0.41667
      11 -> 27         0.14432
      11 -> 28        -0.31980

 Excited State  77:      Singlet-A"    15.6558 eV   79.19 nm  f=0.0577  <S**2>=0.000
       7 -> 18        -0.14144
       7 -> 21        -0.14415
       8 -> 24         0.33786
       9 -> 23        -0.11891
      10 -> 26         0.44159
      11 -> 29        -0.28538

 Excited State  78:      Singlet-A'    15.6778 eV   79.08 nm  f=0.2265  <S**2>=0.000
       7 -> 17         0.12592
       8 -> 23         0.60895
      10 -> 27        -0.12572
      11 -> 28        -0.11757

 Excited State  79:      Singlet-A"    15.7147 eV   78.90 nm  f=0.0332  <S**2>=0.000
       9 -> 17         0.16670
       9 -> 19         0.14682
       9 -> 20         0.25702
       9 -> 22         0.17526
       9 -> 23         0.50112
      10 -> 26         0.18359
      12 -> 36        -0.10828

 Excited State  80:      Singlet-A"    15.7843 eV   78.55 nm  f=0.0588  <S**2>=0.000
       6 -> 14         0.11616
       7 -> 18        -0.22526
       7 -> 24        -0.14161
       8 -> 21        -0.17907
       8 -> 24        -0.27088
       9 -> 23        -0.19251
      10 -> 26         0.30108
      11 -> 26         0.11879
      11 -> 29         0.34873

 Excited State  81:      Singlet-A'    15.8609 eV   78.17 nm  f=0.0693  <S**2>=0.000
       6 -> 13        -0.17601
       7 -> 17         0.38199
       8 -> 20         0.11519
       8 -> 22        -0.12878
      10 -> 27         0.30058
      11 -> 28        -0.36155

 Excited State  82:      Singlet-A"    15.9212 eV   77.87 nm  f=0.0091  <S**2>=0.000
       7 -> 18        -0.28279
      12 -> 32         0.10128
      12 -> 36         0.57494

 Excited State  83:      Singlet-A'    15.9216 eV   77.87 nm  f=0.0061  <S**2>=0.000
       6 -> 13         0.55126
       6 -> 16        -0.13684
      10 -> 28        -0.12288
      11 -> 28        -0.18933
      12 -> 35        -0.28293

 Excited State  84:      Singlet-A"    15.9601 eV   77.68 nm  f=0.0119  <S**2>=0.000
       7 -> 18         0.49339
      10 -> 26         0.27162
      11 -> 29         0.15665

 The electronic state is 1-A'.
 Alpha  occ. eigenvalues --  -10.55489 -10.54730 -10.54073  -0.87858  -0.76846
 Alpha  occ. eigenvalues --   -0.62705  -0.53842  -0.48806  -0.47976  -0.43359
 Alpha  occ. eigenvalues --   -0.40482  -0.31666
 Alpha virt. eigenvalues --    0.04865   0.05005   0.07100   0.07736   0.13040
 Alpha virt. eigenvalues --    0.14090   0.15220   0.16140   0.17533   0.18771
 Alpha virt. eigenvalues --    0.19288   0.20971   0.22780   0.25301   0.26113

 Mulliken charges:
               1
     1  C    0.553897
     2  C   -0.423365
     3  C   -0.019276
     4  H    0.034698
     5  H    0.063842
     6  H    0.034698
     7  H   -0.191648
     8  H   -0.061839
     9  H    0.008993
 Sum of Mulliken charges =  -0.00000

 Dipole moment (field-independent basis, Debye):
    X=             -0.3879    Y=             -0.0449    Z=              0.0000  Tot=              0.3905
 Quadrupole moment (field-independent basis, Debye-Ang):
   XX=            -19.1942   YY=            -19.1716   ZZ=            -21.8538
   XY=             -0.2063   XZ=              0.0000   YZ=             -0.0000

 Normal termination of Gaussian 16 at Mon Mar 21 20:13:12 2022.
