 Gaussian 16, Revision C.01,
 Gaussian 16:  EM64L-G16RevC.01  3-Jul-2019

 ---------------------------------------------------------------------
 #P TD(Nstates=10000) m062x/Gen SCF(maxcycles=100) Int(Grid=ultrafine)
 ---------------------------------------------------------------------

 ---------------------
 xGDB7_00001_tier4.com
 ---------------------
 Symbolic Z-matrix:
 Charge =  0 Multiplicity = 1

                         Standard orientation:
 ---------------------------------------------------------------------
 Center     Atomic      Atomic             Coordinates (Angstroms)
 Number     Number       Type             X           Y           Z
 ---------------------------------------------------------------------
      1          6           0        0.000000    0.000000    0.761397
      2          6           0       -0.000000   -0.000000   -0.761397
      3          1           0        0.000000    1.017110    1.157248
      4          1           0        0.880843   -0.508555    1.157248
      5          1           0       -0.880843   -0.508555    1.157248
      6          1           0        0.880843    0.508555   -1.157248
      7          1           0       -0.880843    0.508555   -1.157248
      8          1           0       -0.000000   -1.017110   -1.157248
 ---------------------------------------------------------------------

 SCF Done:  E(RM062X) =  -79.7143361686     A.U. after   11 cycles

 Excitation energies and oscillator strengths:

 Excited State   1:      Singlet-EG     9.2784 eV  133.63 nm  f=0.0000  <S**2>=0.000
       9 -> 10         0.69618
 This state for optimization and/or second-order correction.
 Total Energy, E(TD-HF/TD-DFT) =  -79.3733601845
 Copying the excited state density for this state as the 1-particle RhoCI density.

 Excited State   2:      Singlet-EG     9.2784 eV  133.63 nm  f=0.0000  <S**2>=0.000
       8 -> 10         0.69618

 Excited State   3:      Singlet-A1G   10.1083 eV  122.66 nm  f=0.0000  <S**2>=0.000
       7 -> 10         0.69844

 Excited State   4:      Singlet-EU    10.2522 eV  120.93 nm  f=0.1297  <S**2>=0.000
       5 -> 10         0.12618
       9 -> 11         0.68703

 Excited State   5:      Singlet-EU    10.2522 eV  120.93 nm  f=0.1297  <S**2>=0.000
       6 -> 10         0.12618
       8 -> 11         0.68703

 Excited State   6:      Singlet-A2U   11.0199 eV  112.51 nm  f=0.2952  <S**2>=0.000
       7 -> 11         0.69940

 Excited State   7:      Singlet-EG    11.3437 eV  109.30 nm  f=0.0000  <S**2>=0.000
       8 -> 12         0.49089
       9 -> 13        -0.49088

 Excited State   8:      Singlet-EG    11.4127 eV  108.64 nm  f=0.0783  <S**2>=0.000
       8 -> 12         0.48885
       9 -> 13         0.48885

 Excited State   9:      Singlet-EG    11.4127 eV  108.64 nm  f=0.0783  <S**2>=0.000
       8 -> 13         0.48886
       9 -> 12        -0.48884

 Excited State  10:      Singlet-EU    11.5930 eV  106.95 nm  f=0.0000  <S**2>=0.000
       8 -> 14         0.48884
       9 -> 15        -0.48884

 Excited State  11:      Singlet-EG    11.7232 eV  105.76 nm  f=0.2635  <S**2>=0.000
       8 -> 13         0.49359
       9 -> 12         0.49362

 Excited State  12:      Singlet-EU    11.8858 eV  104.31 nm  f=0.0000  <S**2>=0.000
       8 -> 14         0.49380
       9 -> 15         0.49380

 Excited State  13:      Singlet-EU    11.8858 eV  104.31 nm  f=0.0000  <S**2>=0.000
       8 -> 15         0.49388
       9 -> 14        -0.49371

 Excited State  14:      Singlet-EU    11.8989 eV  104.20 nm  f=0.0000  <S**2>=0.000
       8 -> 15         0.48185
       8 -> 18        -0.10148
       9 -> 14         0.48202
       9 -> 17        -0.10148

 Excited State  15:      Singlet-EU    11.9979 eV  103.34 nm  f=0.0003  <S**2>=0.000
       5 -> 10         0.36243
       7 -> 12         0.58123
       9 -> 21         0.10752

 Excited State  16:      Singlet-EU    11.9979 eV  103.34 nm  f=0.0003  <S**2>=0.000
       6 -> 10         0.36247
       7 -> 13         0.58120
       8 -> 21         0.10753

 Excited State  17:      Singlet-EU    12.1515 eV  102.03 nm  f=0.1528  <S**2>=0.000
       5 -> 10         0.56689
       7 -> 12        -0.37695
       9 -> 11        -0.11225

 Excited State  18:      Singlet-EU    12.1515 eV  102.03 nm  f=0.1528  <S**2>=0.000
       6 -> 10         0.56686
       7 -> 13        -0.37700
       8 -> 11        -0.11225

 Excited State  19:      Singlet-EG    12.3053 eV  100.76 nm  f=0.0000  <S**2>=0.000
       7 -> 14         0.69385

 Excited State  20:      Singlet-EG    12.3053 eV  100.76 nm  f=0.0000  <S**2>=0.000
       7 -> 15         0.69385

 Excited State  21:      Singlet-EG    12.4201 eV   99.83 nm  f=0.0000  <S**2>=0.000
       5 -> 11         0.35687
       9 -> 16         0.59432

 Excited State  22:      Singlet-EG    12.4201 eV   99.83 nm  f=0.0000  <S**2>=0.000
       6 -> 11         0.35687
       8 -> 16         0.59432

 Excited State  23:      Singlet-EU    12.9290 eV   95.90 nm  f=0.0000  <S**2>=0.000
       5 -> 13         0.20638
       6 -> 12        -0.20638
       8 -> 17        -0.44792
       9 -> 18         0.44793

 Excited State  24:      Singlet-EU    13.0465 eV   95.03 nm  f=0.0000  <S**2>=0.000
       5 -> 13         0.17925
       6 -> 11         0.10397
       6 -> 12         0.17925
       8 -> 16        -0.15607
       8 -> 17         0.43828
       9 -> 18         0.43827

 Excited State  25:      Singlet-EU    13.0465 eV   95.03 nm  f=0.0000  <S**2>=0.000
       5 -> 11         0.10396
       5 -> 12        -0.17924
       6 -> 13         0.17925
       8 -> 18         0.43828
       9 -> 16        -0.15608
       9 -> 17        -0.43827

 Excited State  26:      Singlet-EG    13.3083 eV   93.16 nm  f=0.0000  <S**2>=0.000
       5 -> 11         0.58631
       8 -> 18        -0.11437
       9 -> 16        -0.33036
       9 -> 17         0.11432

 Excited State  27:      Singlet-EG    13.3083 eV   93.16 nm  f=0.0000  <S**2>=0.000
       6 -> 11         0.58631
       8 -> 16        -0.33037
       8 -> 17        -0.11434
       9 -> 18        -0.11434

 Excited State  28:      Singlet-A1G   13.3444 eV   92.91 nm  f=0.0000  <S**2>=0.000
       5 -> 12         0.10082
       6 -> 13         0.10080
       7 -> 16         0.58945
       8 -> 18         0.24848
       9 -> 17         0.24852

 Excited State  29:      Singlet-EG    13.3837 eV   92.64 nm  f=0.0000  <S**2>=0.000
       5 -> 15        -0.21375
       6 -> 14         0.21375
       8 -> 19        -0.44191
       9 -> 20         0.44191

 Excited State  30:      Singlet-EU    13.5504 eV   91.50 nm  f=0.0014  <S**2>=0.000
       6 -> 10        -0.12906
       6 -> 16        -0.10785
       8 -> 19         0.23844
       8 -> 21         0.56741
       9 -> 20         0.23842

 Excited State  31:      Singlet-EU    13.5504 eV   91.50 nm  f=0.0014  <S**2>=0.000
       5 -> 10        -0.12907
       5 -> 16        -0.10785
       8 -> 20         0.23843
       9 -> 19        -0.23842
       9 -> 21         0.56742

 Excited State  32:      Singlet-EG    13.8362 eV   89.61 nm  f=0.0000  <S**2>=0.000
       7 -> 17         0.69782

 Excited State  33:      Singlet-EG    13.8363 eV   89.61 nm  f=0.0000  <S**2>=0.000
       7 -> 18         0.69782

 Excited State  34:      Singlet-EG    13.8578 eV   89.47 nm  f=0.1767  <S**2>=0.000
       5 -> 14        -0.17209
       6 -> 15        -0.17208
       7 -> 21         0.17176
       8 -> 20         0.44902
       9 -> 19         0.44910

 Excited State  35:      Singlet-EU    13.8749 eV   89.36 nm  f=0.0000  <S**2>=0.000
       5 -> 12        -0.18409
       6 -> 13        -0.18409
       7 -> 16        -0.27568
       8 -> 15         0.10133
       8 -> 18         0.40407
       9 -> 14         0.10132
       9 -> 17         0.40407

 Excited State  36:      Singlet-EU    13.9038 eV   89.17 nm  f=0.1734  <S**2>=0.000
       7 -> 20         0.39740
       8 -> 19         0.33875
       8 -> 21        -0.28024
       9 -> 20         0.33876

 Excited State  37:      Singlet-EU    13.9038 eV   89.17 nm  f=0.1734  <S**2>=0.000
       7 -> 19         0.39740
       8 -> 20         0.33880
       9 -> 19        -0.33871
       9 -> 21        -0.28023

 Excited State  38:      Singlet-EU    14.2778 eV   86.84 nm  f=0.0000  <S**2>=0.000
       5 -> 13        -0.44527
       6 -> 12         0.44528
       8 -> 17        -0.20660
       9 -> 18         0.20659

 Excited State  39:      Singlet-A2U   14.3368 eV   86.48 nm  f=0.0000  <S**2>=0.000
       5 -> 14         0.37115
       6 -> 15         0.37110
       7 -> 21         0.37891
       8 -> 23        -0.15317
       9 -> 22        -0.15321

 Excited State  40:      Singlet-EU    14.3520 eV   86.39 nm  f=0.0000  <S**2>=0.000
       5 -> 13         0.45827
       6 -> 12         0.45826
       8 -> 17        -0.18770
       9 -> 18        -0.18771

 Excited State  41:      Singlet-EU    14.3520 eV   86.39 nm  f=0.0000  <S**2>=0.000
       5 -> 12         0.45827
       6 -> 13        -0.45827
       8 -> 18         0.18770
       9 -> 17        -0.18770

 Excited State  42:      Singlet-EU    14.3528 eV   86.38 nm  f=0.0006  <S**2>=0.000
       5 -> 15        -0.21957
       6 -> 14        -0.21956
       7 -> 20         0.47585
       8 -> 19        -0.20424
       8 -> 21         0.14461
       8 -> 22         0.15168
       9 -> 20        -0.20425
       9 -> 23         0.15168

 Excited State  43:      Singlet-EU    14.3528 eV   86.38 nm  f=0.0006  <S**2>=0.000
       5 -> 14         0.21951
       6 -> 15        -0.21961
       7 -> 19         0.47586
       8 -> 20        -0.20426
       8 -> 23         0.15170
       9 -> 19         0.20423
       9 -> 21         0.14461
       9 -> 22        -0.15166

 Excited State  44:      Singlet-EG    14.5244 eV   85.36 nm  f=0.0000  <S**2>=0.000
       5 -> 15        -0.41302
       6 -> 14         0.41303
       8 -> 19         0.21239
       8 -> 22        -0.16662
       9 -> 20        -0.21239
       9 -> 23         0.16661

 Excited State  45:      Singlet-EG    14.8842 eV   83.30 nm  f=0.4651  <S**2>=0.000
       5 -> 14         0.42756
       6 -> 15        -0.42754
       7 -> 19        -0.26599
       9 -> 21        -0.16800

 Excited State  46:      Singlet-EG    14.8843 eV   83.30 nm  f=0.4651  <S**2>=0.000
       5 -> 15         0.42755
       6 -> 14         0.42755
       7 -> 20         0.26600
       8 -> 21         0.16800

 Excited State  47:      Singlet-EG    15.1135 eV   82.04 nm  f=0.0000  <S**2>=0.000
       5 -> 15         0.16650
       5 -> 18         0.16609
       6 -> 14        -0.16651
       6 -> 17        -0.16608
       8 -> 22        -0.43189
       9 -> 23         0.43190

 Excited State  48:      Singlet-A2U   15.1340 eV   81.92 nm  f=0.4457  <S**2>=0.000
       5 -> 14        -0.23108
       5 -> 17         0.13985
       6 -> 15        -0.23109
       6 -> 18         0.13985
       7 -> 21         0.51010
       8 -> 20        -0.18967
       9 -> 19        -0.18968

 Excited State  49:      Singlet-EU    15.1427 eV   81.88 nm  f=0.0000  <S**2>=0.000
       5 -> 12         0.44068
       6 -> 13         0.44068
       7 -> 16        -0.23165
       8 -> 18         0.10306
       9 -> 17         0.10306

 Excited State  50:      Singlet-EG    15.2502 eV   81.30 nm  f=0.2410  <S**2>=0.000
       5 -> 18         0.11116
       6 -> 17         0.11117
       7 -> 20        -0.15081
       8 -> 19         0.14321
       8 -> 22         0.44415
       9 -> 20         0.14321
       9 -> 23         0.44414

 Excited State  51:      Singlet-EG    15.2502 eV   81.30 nm  f=0.2410  <S**2>=0.000
       5 -> 17        -0.11116
       6 -> 18         0.11116
       7 -> 19        -0.15081
       8 -> 20         0.14322
       8 -> 23         0.44415
       9 -> 19        -0.14321
       9 -> 22        -0.44414

 Excited State  52:      Singlet-EG    15.3850 eV   80.59 nm  f=0.5673  <S**2>=0.000
       5 -> 14         0.13168
       5 -> 17         0.16115
       6 -> 15         0.13168
       6 -> 18         0.16115
       7 -> 21         0.14107
       8 -> 23         0.43823
       9 -> 22         0.43824

 Excited State  53:      Singlet-EU    15.4966 eV   80.01 nm  f=0.0407  <S**2>=0.000
       5 -> 16         0.65276
       7 -> 22        -0.19073

 Excited State  54:      Singlet-EU    15.4966 eV   80.01 nm  f=0.0407  <S**2>=0.000
       6 -> 16         0.65276
       7 -> 23        -0.19074

 Excited State  55:      Singlet-EU    15.9969 eV   77.51 nm  f=0.1988  <S**2>=0.000
       5 -> 18        -0.10809
       6 -> 16         0.16883
       6 -> 17        -0.10809
       7 -> 23         0.64684

 Excited State  56:      Singlet-EU    15.9969 eV   77.51 nm  f=0.1988  <S**2>=0.000
       5 -> 16         0.16883
       5 -> 17         0.10809
       6 -> 18        -0.10808
       7 -> 22         0.64685

 Excited State  57:      Singlet-EG    16.1079 eV   76.97 nm  f=0.0000  <S**2>=0.000
       5 -> 18         0.45959
       6 -> 17        -0.45959
       8 -> 22         0.17944
       9 -> 23        -0.17944

 Excited State  58:      Singlet-EG    16.1348 eV   76.84 nm  f=0.0366  <S**2>=0.000
       5 -> 18         0.43853
       6 -> 17         0.43854
       7 -> 23         0.12973
       8 -> 22        -0.12300
       8 -> 24        -0.18810
       9 -> 23        -0.12300

 Excited State  59:      Singlet-EG    16.1348 eV   76.84 nm  f=0.0366  <S**2>=0.000
       5 -> 17        -0.43853
       6 -> 18         0.43854
       7 -> 22         0.12973
       8 -> 23        -0.12300
       9 -> 22         0.12300
       9 -> 24        -0.18810

 Excited State  60:      Singlet-EG    16.2412 eV   76.34 nm  f=0.0000  <S**2>=0.000
       5 -> 19        -0.18310
       5 -> 21         0.59320
       5 -> 36        -0.10853
       6 -> 20         0.18311
       9 -> 25        -0.19086

 Excited State  61:      Singlet-EG    16.2412 eV   76.34 nm  f=0.0000  <S**2>=0.000
       5 -> 20         0.18312
       6 -> 19         0.18311
       6 -> 21         0.59319
       6 -> 36        -0.10853
       8 -> 25        -0.19085

 Excited State  62:      Singlet-EG    16.2736 eV   76.19 nm  f=0.0023  <S**2>=0.000
       5 -> 17         0.42126
       6 -> 18         0.42131
       7 -> 21        -0.16730
       7 -> 24         0.23109
       7 -> 36        -0.10397
       8 -> 23        -0.13759
       9 -> 22        -0.13757

 Excited State  63:      Singlet-EU    16.2778 eV   76.17 nm  f=0.0000  <S**2>=0.000
       5 -> 20        -0.47972
       6 -> 19         0.47973

 Excited State  64:      Singlet-EU    16.3408 eV   75.87 nm  f=0.0712  <S**2>=0.000
       5 -> 17        -0.12102
       6 -> 18         0.12084
       9 -> 21        -0.10652
       9 -> 24         0.66199

 Excited State  65:      Singlet-EU    16.3408 eV   75.87 nm  f=0.0712  <S**2>=0.000
       5 -> 18         0.12094
       6 -> 17         0.12094
       8 -> 21        -0.10651
       8 -> 24         0.66199

 Excited State  66:      Singlet-EU    16.5134 eV   75.08 nm  f=0.0000  <S**2>=0.000
       5 -> 19         0.48785
       6 -> 20         0.48782

 Excited State  67:      Singlet-EU    16.5971 eV   74.70 nm  f=0.0000  <S**2>=0.000
       5 -> 20         0.44887
       6 -> 19         0.44886
       6 -> 21        -0.23689

 Excited State  68:      Singlet-EU    16.5971 eV   74.70 nm  f=0.0000  <S**2>=0.000
       5 -> 19        -0.44886
       5 -> 21        -0.23687
       6 -> 20         0.44888

 Excited State  69:      Singlet-EG    16.7945 eV   73.82 nm  f=0.0000  <S**2>=0.000
       5 -> 21         0.20827
       9 -> 25         0.65899

 Excited State  70:      Singlet-EG    16.7945 eV   73.82 nm  f=0.0000  <S**2>=0.000
       6 -> 21         0.20826
       8 -> 25         0.65900

 Excited State  71:      Singlet-A2U   17.0557 eV   72.69 nm  f=0.2110  <S**2>=0.000
       4 -> 10        -0.39024
       5 -> 17        -0.11344
       6 -> 18        -0.11344
       7 -> 24         0.54163

 Excited State  72:      Singlet-EU    17.2743 eV   71.77 nm  f=0.0096  <S**2>=0.000
       8 -> 26         0.69723

 Excited State  73:      Singlet-EU    17.2743 eV   71.77 nm  f=0.0096  <S**2>=0.000
       9 -> 26         0.69723

 Excited State  74:      Singlet-A1G   17.4693 eV   70.97 nm  f=0.0000  <S**2>=0.000
       5 -> 22         0.10210
       6 -> 23         0.10211
       7 -> 25         0.65631

 Excited State  75:      Singlet-A2U   17.5535 eV   70.63 nm  f=0.0887  <S**2>=0.000
       4 -> 10         0.56522
       7 -> 24         0.36204
       7 -> 36         0.11795

 Excited State  76:      Singlet-EU    17.8741 eV   69.37 nm  f=0.0000  <S**2>=0.000
       5 -> 23         0.45544
       6 -> 22         0.45539
       8 -> 28        -0.15338
       9 -> 29        -0.15337

 Excited State  77:      Singlet-EU    17.8741 eV   69.37 nm  f=0.0000  <S**2>=0.000
       5 -> 22         0.45542
       6 -> 23        -0.45541
       8 -> 29         0.15337
       9 -> 28        -0.15337

 Excited State  78:      Singlet-EU    17.8790 eV   69.35 nm  f=0.0000  <S**2>=0.000
       5 -> 23        -0.45123
       6 -> 22         0.45128
       8 -> 28        -0.16412
       9 -> 29         0.16410

 Excited State  79:      Singlet-A1U   18.0103 eV   68.84 nm  f=0.0000  <S**2>=0.000
       7 -> 26         0.70588

 Excited State  80:      Singlet-EU    18.0112 eV   68.84 nm  f=0.0000  <S**2>=0.000
       5 -> 23         0.18444
       6 -> 22        -0.18446
       8 -> 28        -0.44077
       9 -> 29         0.44078

 Excited State  81:      Singlet-EU    18.0431 eV   68.72 nm  f=0.0000  <S**2>=0.000
       5 -> 22         0.46384
       6 -> 23         0.46384
       7 -> 25        -0.12007
       8 -> 29        -0.14430
       9 -> 28        -0.14430

 Excited State  82:      Singlet-EU    18.0449 eV   68.71 nm  f=0.0872  <S**2>=0.000
       5 -> 25         0.20630
       9 -> 27         0.64087

 Excited State  83:      Singlet-EU    18.0449 eV   68.71 nm  f=0.0872  <S**2>=0.000
       6 -> 25         0.20630
       8 -> 27         0.64086

 Excited State  84:      Singlet-A1G   18.1744 eV   68.22 nm  f=0.0000  <S**2>=0.000
       4 -> 11         0.57295
       7 -> 25         0.16103
       8 -> 29        -0.24878
       9 -> 28        -0.24878

 Excited State  85:      Singlet-EG    18.1868 eV   68.17 nm  f=0.0000  <S**2>=0.000
       8 -> 30         0.48542
       9 -> 31        -0.48541

 Excited State  86:      Singlet-EU    18.2907 eV   67.79 nm  f=0.0000  <S**2>=0.000
       5 -> 23         0.15358
       6 -> 22         0.15359
       7 -> 29         0.34033
       8 -> 28         0.37139
       9 -> 29         0.37138

 Excited State  87:      Singlet-EU    18.2907 eV   67.79 nm  f=0.0000  <S**2>=0.000
       5 -> 22        -0.15358
       6 -> 23         0.15359
       7 -> 28         0.34035
       8 -> 29         0.37139
       9 -> 28        -0.37137

 Excited State  88:      Singlet-EG    18.4733 eV   67.12 nm  f=0.0000  <S**2>=0.000
       4 -> 12        -0.11496
       5 -> 21         0.10253
       7 -> 28         0.55530
       7 -> 33        -0.12224
       8 -> 29        -0.21988
       9 -> 28         0.21993
       9 -> 32        -0.18750

 Excited State  89:      Singlet-EG    18.4733 eV   67.12 nm  f=0.0000  <S**2>=0.000
       4 -> 13        -0.11497
       6 -> 21         0.10255
       7 -> 29         0.55531
       7 -> 34        -0.12224
       8 -> 28        -0.21989
       8 -> 32        -0.18748
       9 -> 29        -0.21990

 Excited State  90:      Singlet-EG    18.4913 eV   67.05 nm  f=0.0953  <S**2>=0.000
       7 -> 31         0.26195
       8 -> 27         0.12139
       8 -> 30         0.44382
       9 -> 31         0.44383

 Excited State  91:      Singlet-EG    18.4913 eV   67.05 nm  f=0.0952  <S**2>=0.000
       7 -> 30         0.26195
       8 -> 31         0.44385
       9 -> 27         0.12136
       9 -> 30        -0.44382

 Excited State  92:      Singlet-EU    18.5629 eV   66.79 nm  f=0.0000  <S**2>=0.000
       4 -> 11         0.36767
       5 -> 22         0.11949
       6 -> 23         0.11949
       8 -> 29         0.38298
       9 -> 28         0.38297

 Excited State  93:      Singlet-EG    18.6007 eV   66.66 nm  f=0.0000  <S**2>=0.000
       5 -> 24        -0.35222
       9 -> 32         0.57563

 Excited State  94:      Singlet-EG    18.6007 eV   66.66 nm  f=0.0000  <S**2>=0.000
       6 -> 24        -0.35222
       8 -> 32         0.57564

 Excited State  95:      Singlet-EG    18.7616 eV   66.08 nm  f=0.2953  <S**2>=0.000
       8 -> 31         0.48209
       9 -> 30         0.48211

 Excited State  96:      Singlet-EU    18.8024 eV   65.94 nm  f=0.0254  <S**2>=0.000
       6 -> 25         0.18425
       7 -> 31         0.42874
       8 -> 27        -0.16994
       8 -> 30        -0.10884
       8 -> 36         0.45074
       9 -> 31        -0.10884

 Excited State  97:      Singlet-EU    18.8024 eV   65.94 nm  f=0.0254  <S**2>=0.000
       5 -> 25         0.18424
       7 -> 30         0.42874
       8 -> 31        -0.10884
       9 -> 27        -0.16994
       9 -> 30         0.10888
       9 -> 36         0.45072

 Excited State  98:      Singlet-A2U   18.9076 eV   65.57 nm  f=0.0049  <S**2>=0.000
       7 -> 27         0.69449

 Excited State  99:      Singlet-EG    19.0788 eV   64.99 nm  f=0.0000  <S**2>=0.000
       4 -> 12        -0.22649
       5 -> 21        -0.11188
       5 -> 24         0.53804
       8 -> 29        -0.12015
       9 -> 28         0.12014
       9 -> 32         0.29234

 Excited State 100:      Singlet-EG    19.0788 eV   64.99 nm  f=0.0000  <S**2>=0.000
       4 -> 13        -0.22650
       6 -> 21        -0.11188
       6 -> 24         0.53804
       8 -> 28        -0.12016
       8 -> 32         0.29233
       9 -> 29        -0.12016

 Excited State 101:      Singlet-EU    19.2462 eV   64.42 nm  f=0.1093  <S**2>=0.000
       4 -> 14        -0.17349
       5 -> 25        -0.23778
       7 -> 30         0.44348
       8 -> 31        -0.12257
       9 -> 30         0.12254
       9 -> 36        -0.37772

 Excited State 102:      Singlet-EU    19.2462 eV   64.42 nm  f=0.1093  <S**2>=0.000
       4 -> 15        -0.17351
       6 -> 25        -0.23778
       7 -> 31         0.44348
       8 -> 30        -0.12257
       8 -> 36        -0.37770
       9 -> 31        -0.12257

 Excited State 103:      Singlet-A1G   19.2596 eV   64.38 nm  f=0.0000  <S**2>=0.000
       7 -> 32         0.61892
       8 -> 34         0.22129
       9 -> 33         0.22128

 The electronic state is 1-A1G.
 Alpha  occ. eigenvalues --  -10.53853 -10.53827  -0.84089  -0.69226  -0.50262
 Alpha  occ. eigenvalues --   -0.50262  -0.42940  -0.40217  -0.40217
 Alpha virt. eigenvalues --    0.04483   0.07393   0.12937   0.12937   0.14596
 Alpha virt. eigenvalues --    0.14596   0.18236   0.18734   0.18734   0.22097
 Alpha virt. eigenvalues --    0.22097   0.22861   0.26582   0.26582   0.31403

 Mulliken charges:
               1
     1  C    0.035599
     2  C    0.035599
     3  H   -0.011866
     4  H   -0.011866
     5  H   -0.011866
     6  H   -0.011866
     7  H   -0.011866
     8  H   -0.011866
 Sum of Mulliken charges =   0.00000

 Dipole moment (field-independent basis, Debye):
    X=              0.0000    Y=             -0.0000    Z=              0.0000  Tot=              0.0000
 Quadrupole moment (field-independent basis, Debye-Ang):
   XX=            -14.9227   YY=            -14.9227   ZZ=            -15.6144
   XY=             -0.0000   XZ=             -0.0000   YZ=             -0.0000

 Normal termination of Gaussian 16 at Mon Mar 21 20:02:32 2022.
