 Gaussian 16, Revision C.01,
 Gaussian 16:  EM64L-G16RevC.01  3-Jul-2019

 ---------------------------------------------------------------------
 #P TD(Nstates=10000) m062x/Gen SCF(maxcycles=100) Int(Grid=ultrafine)
 ---------------------------------------------------------------------

 ---------------------
 xGDB7_00001_tier4.com
 ---------------------
 Symbolic Z-matrix:
 Charge =  0 Multiplicity = 1

                         Standard orientation:
 ---------------------------------------------------------------------
 Center     Atomic      Atomic             Coordinates (Angstroms)
 Number     Number       Type             X           Y           Z
 ---------------------------------------------------------------------
      1          6           0       -1.208422   -0.239069   -0.021917
      2          6           0        0.083893    0.553452    0.046734
      3          8           0        1.233467   -0.256002   -0.105864
      4          1           0       -2.071999    0.425135    0.051700
      5          1           0       -1.270670   -0.957756    0.799731
      6          1           0       -1.270625   -0.788280   -0.962327
      7          1           0        0.130030    1.119197    0.986112
      8          1           0        0.125951    1.277026   -0.768547
      9          1           0        1.236751   -0.913605    0.591341
 ---------------------------------------------------------------------

 SCF Done:  E(RM062X) =  -154.855295473     A.U. after   12 cycles

 Excitation energies and oscillator strengths:

 Excited State   1:      Singlet-A      7.2637 eV  170.69 nm  f=0.0072  <S**2>=0.000
      13 -> 14         0.63218
      13 -> 15         0.26248
 This state for optimization and/or second-order correction.
 Total Energy, E(TD-HF/TD-DFT) =  -154.588360729
 Copying the excited state density for this state as the 1-particle RhoCI density.

 Excited State   2:      Singlet-A      8.5495 eV  145.02 nm  f=0.0182  <S**2>=0.000
      12 -> 14        -0.16011
      13 -> 14        -0.24343
      13 -> 15         0.57802
      13 -> 16        -0.23866

 Excited State   3:      Singlet-A      8.7830 eV  141.16 nm  f=0.0145  <S**2>=0.000
      12 -> 14         0.65076
      12 -> 15         0.11206
      13 -> 15         0.13736

 Excited State   4:      Singlet-A      9.0252 eV  137.38 nm  f=0.0251  <S**2>=0.000
      13 -> 14        -0.11913
      13 -> 15         0.20023
      13 -> 16         0.62623
      13 -> 17         0.10978
      13 -> 19        -0.14048

 Excited State   5:      Singlet-A      9.3108 eV  133.16 nm  f=0.0604  <S**2>=0.000
      13 -> 16        -0.11274
      13 -> 17         0.66971

 Excited State   6:      Singlet-A      9.6516 eV  128.46 nm  f=0.0128  <S**2>=0.000
      10 -> 14         0.13835
      11 -> 14         0.24208
      12 -> 14        -0.13120
      12 -> 15         0.59573
      13 -> 17        -0.10409

 Excited State   7:      Singlet-A     10.0423 eV  123.46 nm  f=0.0114  <S**2>=0.000
      10 -> 14         0.14182
      11 -> 14         0.16408
      12 -> 16         0.18547
      13 -> 18        -0.40640
      13 -> 19         0.40808
      13 -> 21        -0.12533
      13 -> 22        -0.10865

 Excited State   8:      Singlet-A     10.0907 eV  122.87 nm  f=0.0803  <S**2>=0.000
      10 -> 14         0.16289
      12 -> 16         0.61086
      13 -> 18         0.20449
      13 -> 19        -0.11520

 Excited State   9:      Singlet-A     10.1443 eV  122.22 nm  f=0.0629  <S**2>=0.000
      10 -> 14         0.11185
      11 -> 14         0.14689
      12 -> 15        -0.11949
      12 -> 16        -0.12389
      13 -> 18         0.45721
      13 -> 19         0.36575
      13 -> 20         0.17548

 Excited State  10:      Singlet-A     10.1657 eV  121.96 nm  f=0.0608  <S**2>=0.000
      11 -> 14         0.58290
      12 -> 15        -0.22112
      13 -> 19        -0.22284

 Excited State  11:      Singlet-A     10.4812 eV  118.29 nm  f=0.0116  <S**2>=0.000
      10 -> 14         0.56496
      11 -> 15         0.19508
      12 -> 15        -0.15632
      12 -> 16        -0.17139
      12 -> 17         0.14424
      13 -> 19        -0.15337

 Excited State  12:      Singlet-A     10.5027 eV  118.05 nm  f=0.0086  <S**2>=0.000
      12 -> 17         0.29108
      13 -> 18        -0.17355
      13 -> 20         0.56693
      13 -> 23         0.10325

 Excited State  13:      Singlet-A     10.6056 eV  116.90 nm  f=0.0640  <S**2>=0.000
      10 -> 14        -0.12406
      12 -> 17         0.58401
      13 -> 20        -0.24175

 Excited State  14:      Singlet-A     10.9537 eV  113.19 nm  f=0.0094  <S**2>=0.000
      10 -> 16        -0.11391
      11 -> 15         0.12136
      13 -> 19         0.18941
      13 -> 20        -0.17840
      13 -> 21         0.47540
      13 -> 22         0.24609
      13 -> 23         0.21970

 Excited State  15:      Singlet-A     10.9994 eV  112.72 nm  f=0.0178  <S**2>=0.000
       8 -> 14        -0.12905
      10 -> 14        -0.18366
      11 -> 15         0.57663
      12 -> 18        -0.14422
      12 -> 19         0.11851
      13 -> 21        -0.13843

 Excited State  16:      Singlet-A     11.1564 eV  111.13 nm  f=0.0293  <S**2>=0.000
      10 -> 15        -0.29404
      12 -> 18         0.12157
      13 -> 21        -0.29711
      13 -> 23         0.47363
      13 -> 24        -0.13308

 Excited State  17:      Singlet-A     11.2368 eV  110.34 nm  f=0.0184  <S**2>=0.000
      11 -> 15         0.11651
      11 -> 16         0.33558
      12 -> 18         0.43917
      12 -> 19        -0.33311

 Excited State  18:      Singlet-A     11.2575 eV  110.14 nm  f=0.0602  <S**2>=0.000
      10 -> 15         0.29549
      10 -> 16         0.15854
      11 -> 16         0.22999
      12 -> 18        -0.29051
      12 -> 19        -0.21737
      13 -> 22        -0.20562
      13 -> 23         0.32500

 Excited State  19:      Singlet-A     11.3328 eV  109.40 nm  f=0.0122  <S**2>=0.000
      10 -> 15         0.27160
      12 -> 19        -0.21645
      13 -> 21        -0.25778
      13 -> 22         0.50409

 Excited State  20:      Singlet-A     11.4251 eV  108.52 nm  f=0.1036  <S**2>=0.000
      10 -> 15        -0.11415
      10 -> 16        -0.16750
      11 -> 15        -0.19302
      11 -> 16         0.49315
      12 -> 18        -0.23299
      13 -> 22         0.21484
      13 -> 23        -0.16814

 Excited State  21:      Singlet-A     11.5106 eV  107.71 nm  f=0.0695  <S**2>=0.000
      10 -> 15         0.38995
      10 -> 16        -0.11097
      11 -> 16         0.15404
      12 -> 18         0.26708
      12 -> 19         0.38915

 Excited State  22:      Singlet-A     11.6902 eV  106.06 nm  f=0.0515  <S**2>=0.000
       9 -> 14        -0.14077
      10 -> 15        -0.14448
      10 -> 16         0.54281
      12 -> 19         0.18860
      12 -> 21        -0.14417
      12 -> 22        -0.10665
      13 -> 22         0.16741

 Excited State  23:      Singlet-A     11.8352 eV  104.76 nm  f=0.0060  <S**2>=0.000
      11 -> 17        -0.13417
      12 -> 20         0.50105
      13 -> 23        -0.13271
      13 -> 24        -0.23053
      13 -> 25         0.24079
      13 -> 26         0.11604

 Excited State  24:      Singlet-A     11.8730 eV  104.42 nm  f=0.0080  <S**2>=0.000
       9 -> 14        -0.28972
      10 -> 16        -0.19314
      12 -> 20         0.38853
      13 -> 19        -0.12406
      13 -> 24         0.25072
      13 -> 25        -0.12118
      13 -> 26        -0.17998

 Excited State  25:      Singlet-A     11.9505 eV  103.75 nm  f=0.0878  <S**2>=0.000
      11 -> 17         0.61981
      11 -> 18         0.13712
      11 -> 21         0.12031

 Excited State  26:      Singlet-A     12.0758 eV  102.67 nm  f=0.0336  <S**2>=0.000
       9 -> 14         0.51533
      12 -> 20         0.13236
      12 -> 22        -0.10081
      13 -> 24         0.31508
      13 -> 25        -0.11043
      13 -> 26        -0.12477

 Excited State  27:      Singlet-A     12.1832 eV  101.77 nm  f=0.0486  <S**2>=0.000
       9 -> 15         0.11797
      10 -> 16         0.10874
      10 -> 17        -0.39990
      10 -> 21        -0.10840
      12 -> 21         0.46973
      12 -> 22         0.10792

 Excited State  28:      Singlet-A     12.2242 eV  101.43 nm  f=0.0108  <S**2>=0.000
       9 -> 14         0.17140
      10 -> 16         0.11836
      10 -> 17         0.32198
      10 -> 18         0.13298
      12 -> 19         0.10814
      12 -> 21         0.16540
      12 -> 22         0.32684
      13 -> 21         0.11006
      13 -> 24        -0.15057
      13 -> 25        -0.26510

 Excited State  29:      Singlet-A     12.2603 eV  101.13 nm  f=0.0167  <S**2>=0.000
       8 -> 14         0.15414
      10 -> 17         0.19296
      11 -> 18         0.14381
      12 -> 22         0.19160
      12 -> 23         0.15737
      13 -> 24         0.28819
      13 -> 25         0.40631

 Excited State  30:      Singlet-A     12.3654 eV  100.27 nm  f=0.0422  <S**2>=0.000
      10 -> 17        -0.16229
      11 -> 18         0.27538
      12 -> 21        -0.18047
      12 -> 22        -0.13615
      12 -> 23         0.49001
      13 -> 25        -0.11437

 Excited State  31:      Singlet-A     12.4979 eV   99.20 nm  f=0.0127  <S**2>=0.000
       8 -> 14         0.44981
      10 -> 17        -0.16657
      11 -> 18         0.10579
      11 -> 19         0.22465
      12 -> 22         0.14329
      12 -> 23        -0.21493
      13 -> 24        -0.17793

 Excited State  32:      Singlet-A     12.5589 eV   98.72 nm  f=0.0099  <S**2>=0.000
       8 -> 14        -0.20637
       9 -> 15        -0.12394
      10 -> 17        -0.24746
      10 -> 18        -0.14361
      11 -> 17        -0.13646
      12 -> 21        -0.27959
      12 -> 22         0.41665
      13 -> 26         0.11810

 Excited State  33:      Singlet-A     12.6169 eV   98.27 nm  f=0.0232  <S**2>=0.000
      11 -> 18        -0.37042
      11 -> 19         0.42629
      11 -> 20         0.20492
      12 -> 23         0.21328
      13 -> 27         0.11535

 Excited State  34:      Singlet-A     12.6414 eV   98.08 nm  f=0.1084  <S**2>=0.000
       8 -> 14        -0.24529
      10 -> 18        -0.10021
      11 -> 17        -0.10584
      11 -> 18         0.35257
      11 -> 19         0.32772
      11 -> 23        -0.12395
      11 -> 25        -0.11439
      12 -> 22        -0.13578
      12 -> 23        -0.16191

 Excited State  35:      Singlet-A     12.7048 eV   97.59 nm  f=0.0035  <S**2>=0.000
       8 -> 14        -0.23496
      10 -> 18         0.36385
      10 -> 23        -0.13615
      11 -> 19         0.14309
      11 -> 20        -0.22294
      12 -> 23        -0.10690
      13 -> 24        -0.12621
      13 -> 25         0.18489
      13 -> 26        -0.16713
      13 -> 27        -0.13293
      13 -> 28        -0.12963

 Excited State  36:      Singlet-A     12.7824 eV   97.00 nm  f=0.0231  <S**2>=0.000
       9 -> 15         0.11699
      10 -> 18         0.28875
      10 -> 19        -0.25185
      10 -> 23        -0.11991
      13 -> 24         0.19588
      13 -> 26         0.34463
      13 -> 28         0.21036

 Excited State  37:      Singlet-A     12.8366 eV   96.59 nm  f=0.0118  <S**2>=0.000
       9 -> 15         0.29168
      10 -> 18         0.20294
      10 -> 19         0.17568
      10 -> 21        -0.10462
      11 -> 19        -0.15241
      11 -> 20         0.38897
      12 -> 21        -0.16813
      12 -> 24         0.12130
      13 -> 27        -0.10315

 Excited State  38:      Singlet-A     12.9092 eV   96.04 nm  f=0.0043  <S**2>=0.000
      10 -> 19         0.47850
      10 -> 21        -0.12682
      10 -> 25        -0.12912
      11 -> 20        -0.23068
      13 -> 25        -0.12351
      13 -> 26         0.12938
      13 -> 27         0.23631
      13 -> 28         0.10600

 Excited State  39:      Singlet-A     12.9707 eV   95.59 nm  f=0.0400  <S**2>=0.000
       9 -> 15         0.43635
      10 -> 18        -0.21561
      10 -> 20         0.26467
      11 -> 20        -0.24393
      13 -> 27        -0.17795
      13 -> 28         0.11151

 Excited State  40:      Singlet-A     13.0266 eV   95.18 nm  f=0.0129  <S**2>=0.000
       9 -> 15         0.13829
      10 -> 18         0.12144
      10 -> 19        -0.19693
      10 -> 20         0.11861
      12 -> 24         0.17682
      12 -> 25        -0.21576
      13 -> 26        -0.20164
      13 -> 27         0.44930

 Excited State  41:      Singlet-A     13.1324 eV   94.41 nm  f=0.0458  <S**2>=0.000
       9 -> 15        -0.22555
       9 -> 16         0.22632
      10 -> 20         0.31815
      11 -> 20         0.13010
      12 -> 24         0.33324
      12 -> 26        -0.11853
      13 -> 27        -0.17531
      13 -> 28         0.13073

 Excited State  42:      Singlet-A     13.1785 eV   94.08 nm  f=0.0707  <S**2>=0.000
       8 -> 16         0.12406
       9 -> 16         0.16278
      10 -> 20        -0.13756
      10 -> 22         0.14510
      11 -> 21         0.11213
      11 -> 22         0.24118
      12 -> 24        -0.12299
      12 -> 25         0.21251
      13 -> 25        -0.11173
      13 -> 26        -0.26492
      13 -> 28         0.31404

 Excited State  43:      Singlet-A     13.2985 eV   93.23 nm  f=0.0494  <S**2>=0.000
       8 -> 15         0.20552
       8 -> 16        -0.11775
       9 -> 15        -0.14912
       9 -> 16        -0.26671
      10 -> 22        -0.10321
      11 -> 21        -0.17777
      13 -> 26        -0.21334
      13 -> 27        -0.11503
      13 -> 28         0.38084

 Excited State  44:      Singlet-A     13.3253 eV   93.04 nm  f=0.0615  <S**2>=0.000
       8 -> 15         0.25482
       8 -> 16        -0.12240
       9 -> 16         0.44219
      10 -> 21         0.16463
      11 -> 21        -0.17644
      11 -> 22        -0.24960
      12 -> 25         0.10760
      12 -> 26         0.10004

 Excited State  45:      Singlet-A     13.4068 eV   92.48 nm  f=0.0009  <S**2>=0.000
       8 -> 15         0.24247
       9 -> 16        -0.20608
      10 -> 18         0.13011
      10 -> 20         0.35594
      11 -> 21        -0.12514
      11 -> 22         0.11174
      12 -> 25         0.28068
      13 -> 28        -0.10509

 Excited State  46:      Singlet-A     13.4104 eV   92.45 nm  f=0.0383  <S**2>=0.000
       8 -> 17        -0.14150
       9 -> 17         0.14994
      10 -> 20        -0.19921
      10 -> 21         0.13979
      11 -> 20        -0.13727
      11 -> 21        -0.21774
      11 -> 22         0.31934
      12 -> 24         0.35063
      12 -> 26        -0.12134
      13 -> 28        -0.10242

 Excited State  47:      Singlet-A     13.4869 eV   91.93 nm  f=0.0614  <S**2>=0.000
       8 -> 15         0.18664
       9 -> 16         0.21288
      10 -> 20         0.14539
      10 -> 21        -0.15720
      10 -> 22        -0.17194
      11 -> 22         0.34239
      12 -> 24        -0.22382
      12 -> 25        -0.28458

 Excited State  48:      Singlet-A     13.5322 eV   91.62 nm  f=0.0255  <S**2>=0.000
       8 -> 15         0.43712
       9 -> 17        -0.12414
      10 -> 20        -0.11876
      10 -> 22         0.14367
      11 -> 21         0.37264
      12 -> 24         0.17312

 Excited State  49:      Singlet-A     13.6967 eV   90.52 nm  f=0.0260  <S**2>=0.000
      10 -> 19         0.15274
      10 -> 21         0.45294
      10 -> 22         0.17292
      11 -> 23         0.17855
      12 -> 25        -0.30355

 Excited State  50:      Singlet-A     13.7498 eV   90.17 nm  f=0.0227  <S**2>=0.000
       8 -> 16        -0.35144
       9 -> 18         0.11317
      10 -> 21        -0.13850
      10 -> 23         0.20941
      11 -> 18         0.10279
      11 -> 23         0.35798
      12 -> 26        -0.16130
      12 -> 27        -0.16013
      13 -> 29        -0.12995

 Excited State  51:      Singlet-A     13.8350 eV   89.62 nm  f=0.0178  <S**2>=0.000
       9 -> 17         0.53491
       9 -> 19        -0.14304
       9 -> 21         0.10501
      10 -> 23        -0.16674
      11 -> 21         0.17781

 Excited State  52:      Singlet-A     13.9398 eV   88.94 nm  f=0.0272  <S**2>=0.000
       7 -> 14         0.41432
       9 -> 18         0.13243
      10 -> 22         0.15074
      11 -> 23        -0.23397
      12 -> 26        -0.10242
      12 -> 27        -0.29842
      13 -> 29        -0.15767

 Excited State  53:      Singlet-A     13.9714 eV   88.74 nm  f=0.1118  <S**2>=0.000
       7 -> 14         0.24329
       8 -> 16         0.21906
       9 -> 17         0.21427
      10 -> 21        -0.22531
      10 -> 22         0.23197
      10 -> 23         0.21335
      11 -> 24        -0.20226
      12 -> 27         0.21156

 Excited State  54:      Singlet-A     13.9909 eV   88.62 nm  f=0.0269  <S**2>=0.000
       7 -> 14         0.33736
       8 -> 16        -0.32822
       9 -> 17        -0.11388
       9 -> 18        -0.14521
      11 -> 21         0.16452
      11 -> 22         0.15736
      12 -> 24         0.10781
      12 -> 25         0.12544
      12 -> 26         0.12629
      12 -> 27         0.19970

 Excited State  55:      Singlet-A     14.0655 eV   88.15 nm  f=0.0186  <S**2>=0.000
       8 -> 16        -0.22649
      10 -> 22         0.12428
      10 -> 23         0.13814
      11 -> 22         0.10115
      11 -> 23        -0.24099
      12 -> 27        -0.11772
      13 -> 29         0.46974

 Excited State  56:      Singlet-A     14.1403 eV   87.68 nm  f=0.0286  <S**2>=0.000
       7 -> 14         0.14877
       8 -> 16         0.24318
       9 -> 17        -0.10896
       9 -> 19        -0.18493
      10 -> 20         0.10240
      10 -> 22        -0.15853
      10 -> 23         0.13643
      11 -> 23         0.24191
      12 -> 27        -0.21129
      13 -> 27         0.12042
      13 -> 29         0.24475
      13 -> 30         0.20653

 Excited State  57:      Singlet-A     14.1678 eV   87.51 nm  f=0.0214  <S**2>=0.000
      10 -> 18         0.15883
      10 -> 21         0.10535
      10 -> 22        -0.23228
      10 -> 23         0.40968
      11 -> 18        -0.11044
      11 -> 21         0.12454
      11 -> 23        -0.23126
      13 -> 29        -0.23544

 Excited State  58:      Singlet-A     14.2609 eV   86.94 nm  f=0.0938  <S**2>=0.000
       9 -> 18         0.13394
      10 -> 21        -0.10642
      10 -> 22         0.10370
      10 -> 23         0.12914
      12 -> 24         0.14202
      12 -> 26         0.56844
      12 -> 27        -0.12156
      13 -> 30        -0.10870

 Excited State  59:      Singlet-A     14.3371 eV   86.48 nm  f=0.0485  <S**2>=0.000
       7 -> 14        -0.11861
       8 -> 17         0.18550
       9 -> 17        -0.10081
      10 -> 22         0.27841
      11 -> 21        -0.15348
      12 -> 27         0.10044
      13 -> 25         0.10256
      13 -> 29        -0.19212
      13 -> 30         0.41606

 Excited State  60:      Singlet-A     14.4113 eV   86.03 nm  f=0.1344  <S**2>=0.000
       8 -> 17        -0.29139
       8 -> 20        -0.13899
      10 -> 23         0.12325
      11 -> 24         0.39957
      11 -> 25        -0.15961
      11 -> 26        -0.10169
      12 -> 27         0.24900

 Excited State  61:      Singlet-A     14.4997 eV   85.51 nm  f=0.0235  <S**2>=0.000
       9 -> 18         0.44484
       9 -> 19        -0.21736
      10 -> 24         0.10323
      11 -> 24        -0.16999
      11 -> 25         0.16045
      12 -> 27         0.20587
      12 -> 28        -0.16859
      13 -> 29         0.14095

 Excited State  62:      Singlet-A     14.5552 eV   85.18 nm  f=0.0213  <S**2>=0.000
       8 -> 17         0.47768
       8 -> 18         0.17020
       9 -> 18         0.11888
       9 -> 19        -0.12746
      10 -> 23         0.10346
      11 -> 24         0.21269
      12 -> 26        -0.10464
      12 -> 28         0.12671
      13 -> 30        -0.18275

 Excited State  63:      Singlet-A     14.5825 eV   85.02 nm  f=0.0303  <S**2>=0.000
       8 -> 15        -0.10005
       8 -> 18        -0.16218
       8 -> 19        -0.13191
      10 -> 23         0.12061
      11 -> 19         0.10993
      11 -> 25         0.28905
      11 -> 27        -0.10217
      12 -> 27        -0.12783
      12 -> 28         0.45344

 Excited State  64:      Singlet-A     14.6342 eV   84.72 nm  f=0.0845  <S**2>=0.000
       7 -> 14         0.10779
       8 -> 17         0.10733
       8 -> 19        -0.23926
       9 -> 19         0.21576
      10 -> 22        -0.12515
      10 -> 24        -0.15638
      11 -> 24         0.10160
      11 -> 25         0.35942
      12 -> 28        -0.21565
      13 -> 30         0.16587

 Excited State  65:      Singlet-A     14.7232 eV   84.21 nm  f=0.0482  <S**2>=0.000
       7 -> 15         0.14569
       8 -> 17        -0.10604
       8 -> 18         0.16854
       9 -> 18         0.26590
       9 -> 19         0.16550
       9 -> 20         0.27863
      10 -> 24        -0.24290
      11 -> 24        -0.19041
      12 -> 28         0.19348

 Excited State  66:      Singlet-A     14.7707 eV   83.94 nm  f=0.1033  <S**2>=0.000
       7 -> 14        -0.10998
       7 -> 15         0.25850
       9 -> 18        -0.14164
       9 -> 19        -0.23479
       9 -> 20         0.33169
      11 -> 25         0.15772
      12 -> 28        -0.18663
      12 -> 30        -0.11064
      13 -> 30        -0.16348

 Excited State  67:      Singlet-A     14.8496 eV   83.49 nm  f=0.0698  <S**2>=0.000
       7 -> 15         0.47464
       7 -> 16        -0.19493
       7 -> 17         0.10697
       9 -> 19         0.10202
       9 -> 20        -0.22199
      10 -> 25        -0.14387
      11 -> 27        -0.11238
      13 -> 32         0.13689

 The electronic state is 1-A.
 Alpha  occ. eigenvalues --  -19.63445 -10.59812 -10.54630  -1.12965  -0.83848
 Alpha  occ. eigenvalues --   -0.70792  -0.58173  -0.52940  -0.50946  -0.45191
 Alpha  occ. eigenvalues --   -0.44009  -0.39439  -0.35029
 Alpha virt. eigenvalues --    0.03472   0.06378   0.07276   0.09732   0.12299
 Alpha virt. eigenvalues --    0.13123   0.14325   0.15552   0.16181   0.17320
 Alpha virt. eigenvalues --    0.20260   0.20740   0.23110   0.23640   0.25012

 Mulliken charges:
               1
     1  C    0.274306
     2  C    0.208886
     3  O   -0.465185
     4  H    0.032986
     5  H   -0.021956
     6  H    0.007028
     7  H   -0.080723
     8  H   -0.153340
     9  H    0.198000
 Sum of Mulliken charges =  -0.00000

 Dipole moment (field-independent basis, Debye):
    X=             -1.3354    Y=             -0.1556    Z=              1.1569  Tot=              1.7737
 Quadrupole moment (field-independent basis, Debye-Ang):
   XX=            -22.5660   YY=            -18.7591   ZZ=            -19.3965
   XY=             -0.9570   XZ=              1.7498   YZ=             -1.4714

 Normal termination of Gaussian 16 at Mon Mar 21 20:08:53 2022.
