 Gaussian 16, Revision C.01,
 Gaussian 16:  EM64L-G16RevC.01  3-Jul-2019

 ---------------------------------------------------------------------
 #P TD(Nstates=10000) m062x/Gen SCF(maxcycles=100) Int(Grid=ultrafine)
 ---------------------------------------------------------------------

 ---------------------
 xGDB7_00001_tier4.com
 ---------------------
 Symbolic Z-matrix:
 Charge =  0 Multiplicity = 1

                         Standard orientation:
 ---------------------------------------------------------------------
 Center     Atomic      Atomic             Coordinates (Angstroms)
 Number     Number       Type             X           Y           Z
 ---------------------------------------------------------------------
      1          6           0        0.000000    0.000000   -1.173653
      2          6           0        0.000000    0.000000    0.280989
      3          7           0        0.000000    0.000000    1.427442
      4          1           0        0.000000    1.024088   -1.545371
      5          1           0       -0.886886   -0.512044   -1.545371
      6          1           0        0.886886   -0.512044   -1.545371
 ---------------------------------------------------------------------

 SCF Done:  E(RM062X) =  -132.596840441     A.U. after   13 cycles

 Excitation energies and oscillator strengths:

 Excited state symmetry could not be determined.
 Excited State   1:      Singlet-?Sym    7.2346 eV  171.38 nm  f=0.0000  <S**2>=0.000
      10 -> 13         0.46578
      10 -> 17         0.14033
      11 -> 14         0.46578
      11 -> 16         0.14033
 This state for optimization and/or second-order correction.
 Total Energy, E(TD-HF/TD-DFT) =  -132.330972655
 Copying the excited state density for this state as the 1-particle RhoCI density.

 Excited state symmetry could not be determined.
 Excited State   2:      Singlet-?Sym    8.4875 eV  146.08 nm  f=0.0017  <S**2>=0.000
      10 -> 14         0.47820
      10 -> 16         0.12001
      11 -> 13         0.47820
      11 -> 17         0.12001

 Excited state symmetry could not be determined.
 Excited State   3:      Singlet-?Sym    8.4875 eV  146.08 nm  f=0.0017  <S**2>=0.000
      10 -> 13         0.47820
      10 -> 17         0.12001
      11 -> 14        -0.47820
      11 -> 16        -0.12000

 Excited State   4:      Singlet-E      8.8925 eV  139.42 nm  f=0.0020  <S**2>=0.000
      11 -> 12         0.68187
      11 -> 15         0.15851

 Excited State   5:      Singlet-E      8.8926 eV  139.42 nm  f=0.0020  <S**2>=0.000
      10 -> 12         0.68187
      10 -> 15         0.15850

 Excited State   6:      Singlet-E      9.3363 eV  132.80 nm  f=0.0151  <S**2>=0.000
       9 -> 13         0.66628
       9 -> 17         0.18893

 Excited State   7:      Singlet-E      9.3363 eV  132.80 nm  f=0.0151  <S**2>=0.000
       9 -> 14         0.66628
       9 -> 16         0.18893

 Excited State   8:      Singlet-A1    10.1852 eV  121.73 nm  f=0.0281  <S**2>=0.000
       9 -> 12         0.66545
       9 -> 15         0.21566

 Excited State   9:      Singlet-E     10.6462 eV  116.46 nm  f=0.0787  <S**2>=0.000
      11 -> 12        -0.15618
      11 -> 15         0.67729

 Excited State  10:      Singlet-E     10.6462 eV  116.46 nm  f=0.0787  <S**2>=0.000
      10 -> 12        -0.15618
      10 -> 15         0.67729

 Excited state symmetry could not be determined.
 Excited State  11:      Singlet-?Sym   11.1750 eV  110.95 nm  f=0.6797  <S**2>=0.000
       9 -> 15         0.14772
      10 -> 14        -0.42982
      10 -> 16         0.17732
      10 -> 18        -0.10525
      11 -> 13         0.42982
      11 -> 17        -0.17733
      11 -> 19         0.10526

 Excited state symmetry could not be determined.
 Excited State  12:      Singlet-?Sym   11.6617 eV  106.32 nm  f=0.0000  <S**2>=0.000
       7 -> 14        -0.14010
       8 -> 13        -0.14010
      10 -> 13        -0.16565
      10 -> 17         0.40235
      10 -> 19        -0.18775
      11 -> 14        -0.16564
      11 -> 16         0.40230
      11 -> 18        -0.18776

 Excited state symmetry could not be determined.
 Excited State  13:      Singlet-?Sym   11.7774 eV  105.27 nm  f=0.0279  <S**2>=0.000
      10 -> 13         0.12892
      10 -> 17        -0.44883
      10 -> 19         0.12857
      11 -> 14        -0.12894
      11 -> 16         0.44889
      11 -> 18        -0.12858

 Excited state symmetry could not be determined.
 Excited State  14:      Singlet-?Sym   11.7774 eV  105.27 nm  f=0.0279  <S**2>=0.000
      10 -> 14        -0.12893
      10 -> 16         0.44885
      10 -> 18        -0.12857
      11 -> 13        -0.12892
      11 -> 17         0.44887
      11 -> 19        -0.12856

 Excited State  15:      Singlet-A1    11.9469 eV  103.78 nm  f=0.0010  <S**2>=0.000
       9 -> 12        -0.20371
       9 -> 15         0.61418
      10 -> 16        -0.15933
      11 -> 17         0.15928

 Excited state symmetry could not be determined.
 Excited State  16:      Singlet-?Sym   12.2403 eV  101.29 nm  f=0.0000  <S**2>=0.000
      10 -> 17         0.22046
      10 -> 19         0.43135
      11 -> 16         0.22049
      11 -> 18         0.43151

 Excited State  17:      Singlet-E     12.2630 eV  101.10 nm  f=0.0650  <S**2>=0.000
       7 -> 12         0.31126
      10 -> 19         0.14568
      11 -> 18        -0.14564
      11 -> 20         0.54374

 Excited State  18:      Singlet-E     12.2631 eV  101.10 nm  f=0.0650  <S**2>=0.000
       8 -> 12         0.31121
      10 -> 18         0.14572
      10 -> 20         0.54374
      11 -> 19         0.14572

 Excited State  19:      Singlet-E     12.3185 eV  100.65 nm  f=0.0644  <S**2>=0.000
       8 -> 12         0.59409
      10 -> 18        -0.19430
      10 -> 20        -0.22593
      11 -> 19        -0.19422

 Excited State  20:      Singlet-E     12.3185 eV  100.65 nm  f=0.0643  <S**2>=0.000
       7 -> 12         0.59408
      10 -> 19        -0.19425
      11 -> 18         0.19420
      11 -> 20        -0.22603

 Excited state symmetry could not be determined.
 Excited State  21:      Singlet-?Sym   12.4151 eV   99.87 nm  f=0.0064  <S**2>=0.000
      10 -> 16         0.26089
      10 -> 18         0.41438
      11 -> 17        -0.26037
      11 -> 19        -0.41265

 Excited state symmetry could not be determined.
 Excited State  22:      Singlet-?Sym   12.4206 eV   99.82 nm  f=0.0002  <S**2>=0.000
       8 -> 12         0.14468
      10 -> 16         0.11389
      10 -> 18         0.40446
      10 -> 20        -0.31670
      11 -> 17         0.11502
      11 -> 19         0.40627

 Excited state symmetry could not be determined.
 Excited State  23:      Singlet-?Sym   12.4206 eV   99.82 nm  f=0.0002  <S**2>=0.000
       7 -> 12         0.14462
      10 -> 17         0.11451
      10 -> 19         0.40547
      11 -> 16        -0.11445
      11 -> 18        -0.40534
      11 -> 20        -0.31663

 Excited state symmetry could not be determined.
 Excited State  24:      Singlet-?Sym   12.6195 eV   98.25 nm  f=0.6037  <S**2>=0.000
       7 -> 13        -0.13521
       8 -> 14         0.13521
       9 -> 15         0.16522
       9 -> 24        -0.14647
      10 -> 14         0.19138
      10 -> 16         0.32247
      10 -> 18        -0.23106
      11 -> 13        -0.19139
      11 -> 17        -0.32247
      11 -> 19         0.23104

 Excited state symmetry could not be determined.
 Excited State  25:      Singlet-?Sym   12.7518 eV   97.23 nm  f=0.0000  <S**2>=0.000
       7 -> 14         0.46289
       8 -> 13         0.46289
      10 -> 17         0.11309
      10 -> 19        -0.12476
      11 -> 16         0.11310
      11 -> 18        -0.12472

 Excited state symmetry could not be determined.
 Excited State  26:      Singlet-?Sym   13.0484 eV   95.02 nm  f=0.0263  <S**2>=0.000
       6 -> 13        -0.13768
       7 -> 14        -0.46486
       8 -> 13         0.46486

 Excited state symmetry could not be determined.
 Excited State  27:      Singlet-?Sym   13.0484 eV   95.02 nm  f=0.0263  <S**2>=0.000
       6 -> 14         0.13768
       7 -> 13         0.46486
       8 -> 14         0.46487

 Excited State  28:      Singlet-E     13.2278 eV   93.73 nm  f=0.0096  <S**2>=0.000
       9 -> 14        -0.20089
       9 -> 16         0.61267
       9 -> 18        -0.22081

 Excited State  29:      Singlet-E     13.2278 eV   93.73 nm  f=0.0096  <S**2>=0.000
       9 -> 13        -0.20089
       9 -> 17         0.61266
       9 -> 19        -0.22081

 Excited State  30:      Singlet-A1    13.5734 eV   91.34 nm  f=0.0448  <S**2>=0.000
       6 -> 12         0.64713
       7 -> 13         0.12281
       8 -> 14        -0.12280

 Excited State  31:      Singlet-A1    13.6944 eV   90.54 nm  f=0.3444  <S**2>=0.000
       6 -> 12        -0.15964
       6 -> 15         0.10745
       7 -> 13         0.15840
       8 -> 14        -0.15839
       9 -> 15         0.11444
       9 -> 20         0.59027
       9 -> 23         0.13573

 Excited State  32:      Singlet-E     13.7863 eV   89.93 nm  f=0.0002  <S**2>=0.000
       9 -> 17         0.23022
       9 -> 19         0.64876
       9 -> 22        -0.11451

 Excited State  33:      Singlet-E     13.7863 eV   89.93 nm  f=0.0002  <S**2>=0.000
       9 -> 16         0.23022
       9 -> 18         0.64876
       9 -> 21        -0.11451

 Excited state symmetry could not be determined.
 Excited State  34:      Singlet-?Sym   13.7908 eV   89.90 nm  f=0.0184  <S**2>=0.000
       6 -> 12        -0.16393
       7 -> 13         0.38895
       8 -> 14        -0.38894
       9 -> 20        -0.29214
       9 -> 24        -0.12908

 Excited state symmetry could not be determined.
 Excited State  35:      Singlet-?Sym   14.0401 eV   88.31 nm  f=0.0000  <S**2>=0.000
      10 -> 22         0.47499
      11 -> 21         0.47460

 Excited State  36:      Singlet-E     14.0417 eV   88.30 nm  f=0.0122  <S**2>=0.000
       6 -> 14        -0.11364
       8 -> 15         0.61153
      10 -> 21         0.11276
      10 -> 24        -0.22371
      11 -> 22         0.11277

 Excited State  37:      Singlet-E     14.0417 eV   88.30 nm  f=0.0122  <S**2>=0.000
       6 -> 13         0.11368
       7 -> 15         0.61153
      10 -> 22         0.11211
      11 -> 21        -0.11332
      11 -> 24        -0.22374

 Excited State  38:      Singlet-E     14.1526 eV   87.61 nm  f=0.0238  <S**2>=0.000
       6 -> 14         0.52812
       8 -> 15         0.15576
      10 -> 20        -0.14079
      10 -> 21         0.16551
      10 -> 24         0.26464
      11 -> 22         0.16551

 Excited State  39:      Singlet-E     14.1526 eV   87.61 nm  f=0.0238  <S**2>=0.000
       6 -> 13         0.52813
       7 -> 15        -0.15585
      10 -> 22        -0.16543
      11 -> 20         0.14080
      11 -> 21         0.16549
      11 -> 24        -0.26463

 Excited state symmetry could not be determined.
 Excited State  40:      Singlet-?Sym   14.1930 eV   87.36 nm  f=0.0000  <S**2>=0.000
       6 -> 13        -0.17531
       7 -> 15         0.22150
      10 -> 22        -0.43578
      11 -> 21         0.43586

 Excited state symmetry could not be determined.
 Excited State  41:      Singlet-?Sym   14.1930 eV   87.36 nm  f=0.0000  <S**2>=0.000
       6 -> 14        -0.17539
       8 -> 15        -0.22157
      10 -> 21         0.43573
      11 -> 22         0.43585

 Excited State  42:      Singlet-E     14.6077 eV   84.88 nm  f=0.0003  <S**2>=0.000
       6 -> 13         0.28806
       7 -> 15         0.13542
       7 -> 18         0.13150
       8 -> 19        -0.13151
      11 -> 24         0.55703

 Excited State  43:      Singlet-E     14.6077 eV   84.88 nm  f=0.0003  <S**2>=0.000
       6 -> 14        -0.28806
       7 -> 19        -0.13150
       8 -> 15         0.13542
       8 -> 18        -0.13150
      10 -> 24         0.55704

 Excited state symmetry could not be determined.
 Excited State  44:      Singlet-?Sym   14.8131 eV   83.70 nm  f=0.0000  <S**2>=0.000
       7 -> 16         0.47086
       7 -> 18        -0.11982
       8 -> 17         0.47088
       8 -> 19        -0.11982

 Excited state symmetry could not be determined.
 Excited State  45:      Singlet-?Sym   14.8387 eV   83.55 nm  f=0.0154  <S**2>=0.000
       6 -> 15         0.15952
       6 -> 20         0.14327
       9 -> 23        -0.15916
      10 -> 21         0.42407
      11 -> 22        -0.42392

 Excited State  46:      Singlet-E     14.8997 eV   83.21 nm  f=0.0354  <S**2>=0.000
       7 -> 17         0.30691
       8 -> 16         0.30693
       8 -> 20        -0.16867
      10 -> 23         0.50163

 Excited State  47:      Singlet-E     14.8997 eV   83.21 nm  f=0.0354  <S**2>=0.000
       7 -> 16        -0.30697
       7 -> 20        -0.16866
       8 -> 17         0.30694
      11 -> 23         0.50159

 Excited State  48:      Singlet-E     14.9808 eV   82.76 nm  f=0.0124  <S**2>=0.000
       7 -> 16         0.37060
       7 -> 20        -0.12448
       8 -> 17        -0.37061
      11 -> 23         0.40190
      11 -> 24         0.12646

 Excited State  49:      Singlet-E     14.9808 eV   82.76 nm  f=0.0124  <S**2>=0.000
       7 -> 17        -0.37064
       8 -> 16        -0.37063
       8 -> 20        -0.12445
      10 -> 23         0.40187
      10 -> 24         0.12644

 Excited state symmetry could not be determined.
 Excited State  50:      Singlet-?Sym   15.1859 eV   81.64 nm  f=0.0000  <S**2>=0.000
       7 -> 16         0.11689
       7 -> 18         0.45943
       8 -> 17         0.11689
       8 -> 19         0.45944
      10 -> 26         0.11855
      11 -> 25         0.11859

 Excited State  51:      Singlet-E     15.2598 eV   81.25 nm  f=0.0328  <S**2>=0.000
       9 -> 21         0.65756
       9 -> 29         0.13450
       9 -> 32        -0.10106

 Excited State  52:      Singlet-E     15.2598 eV   81.25 nm  f=0.0328  <S**2>=0.000
       9 -> 22         0.65756
       9 -> 28         0.13450
       9 -> 33        -0.10106

 Excited state symmetry could not be determined.
 Excited State  53:      Singlet-?Sym   15.3379 eV   80.84 nm  f=0.0012  <S**2>=0.000
       6 -> 15        -0.27326
       6 -> 20         0.10919
       7 -> 17         0.30031
       7 -> 19        -0.30392
       8 -> 16        -0.30031
       8 -> 18         0.30395
      10 -> 25         0.10458
      11 -> 26        -0.10459

 Excited State  54:      Singlet-E     15.4621 eV   80.19 nm  f=0.0158  <S**2>=0.000
       6 -> 17         0.14096
       7 -> 18         0.17657
       7 -> 20         0.54914
       7 -> 24         0.13875
       8 -> 19        -0.17658
      11 -> 23         0.21951

 Excited State  55:      Singlet-E     15.4621 eV   80.19 nm  f=0.0158  <S**2>=0.000
       6 -> 16        -0.14097
       7 -> 19        -0.17663
       8 -> 18        -0.17653
       8 -> 20         0.54914
       8 -> 24         0.13874
      10 -> 23         0.21949

 Excited State  56:      Singlet-A1    15.4876 eV   80.05 nm  f=0.0017  <S**2>=0.000
       6 -> 15         0.44622
       7 -> 17        -0.15104
       7 -> 19        -0.33421
       8 -> 16         0.15104
       8 -> 18         0.33424

 Excited state symmetry could not be determined.
 Excited State  57:      Singlet-?Sym   15.9619 eV   77.68 nm  f=0.3457  <S**2>=0.000
       6 -> 13        -0.14995
       6 -> 17         0.33987
       7 -> 18         0.34187
       7 -> 20        -0.30007
       8 -> 19        -0.34187

 Excited state symmetry could not be determined.
 Excited State  58:      Singlet-?Sym   15.9619 eV   77.68 nm  f=0.3457  <S**2>=0.000
       6 -> 14        -0.14995
       6 -> 16         0.33986
       7 -> 19         0.34185
       8 -> 18         0.34189
       8 -> 20         0.30008

 Excited State  59:      Singlet-A1    15.9787 eV   77.59 nm  f=0.0936  <S**2>=0.000
       6 -> 15         0.27191
       7 -> 17         0.18329
       8 -> 16        -0.18326
       9 -> 20        -0.15868
       9 -> 23         0.49054
      10 -> 25        -0.13518
      11 -> 26         0.13515

 Excited State  60:      Singlet-A1    16.0934 eV   77.04 nm  f=0.0610  <S**2>=0.000
       6 -> 15         0.19278
       7 -> 17         0.17088
       7 -> 19         0.11796
       8 -> 16        -0.17089
       8 -> 18        -0.11789
       9 -> 24         0.47387
      10 -> 21        -0.12519
      10 -> 25         0.18907
      11 -> 22         0.12519
      11 -> 26        -0.18912

 Excited State  61:      Singlet-E     16.1939 eV   76.56 nm  f=0.0102  <S**2>=0.000
       6 -> 17         0.49966
       6 -> 19        -0.14706
       7 -> 18        -0.23154
       8 -> 19         0.23145
      10 -> 26        -0.21243
      11 -> 25         0.21272

 Excited State  62:      Singlet-E     16.1939 eV   76.56 nm  f=0.0102  <S**2>=0.000
       6 -> 16         0.49967
       6 -> 18        -0.14706
       7 -> 19        -0.23148
       8 -> 18        -0.23150
      10 -> 25         0.21258
      11 -> 26         0.21257

 Excited state symmetry could not be determined.
 Excited State  63:      Singlet-?Sym   16.3040 eV   76.05 nm  f=0.0000  <S**2>=0.000
       7 -> 18        -0.12059
       8 -> 19        -0.12078
      10 -> 26         0.47506
      11 -> 25         0.47512

 Excited State  64:      Singlet-A1    16.3742 eV   75.72 nm  f=0.0144  <S**2>=0.000
       6 -> 15        -0.16989
       7 -> 17        -0.19389
       8 -> 16         0.19389
       9 -> 23         0.39303
       9 -> 24         0.13273
      10 -> 21         0.10580
      10 -> 25         0.27204
      11 -> 22        -0.10579
      11 -> 26        -0.27201

 Excited State  65:      Singlet-A1    16.5048 eV   75.12 nm  f=0.0128  <S**2>=0.000
       6 -> 15        -0.12216
       7 -> 19        -0.13449
       8 -> 18         0.13451
       9 -> 23         0.13783
       9 -> 24         0.33006
      10 -> 25        -0.28213
      10 -> 29         0.21594
      11 -> 26         0.28217
      11 -> 28        -0.21596

 Excited State  66:      Singlet-E     16.7365 eV   74.08 nm  f=0.1632  <S**2>=0.000
       6 -> 16         0.28112
       6 -> 18         0.44875
      10 -> 25        -0.28207
      11 -> 26        -0.28206

 Excited State  67:      Singlet-E     16.7366 eV   74.08 nm  f=0.1627  <S**2>=0.000
       6 -> 17         0.28110
       6 -> 19         0.44930
      10 -> 26         0.28178
      11 -> 25        -0.28162

 Excited State  68:      Singlet-E     16.7554 eV   74.00 nm  f=0.3488  <S**2>=0.000
       6 -> 14        -0.10182
       6 -> 18         0.46246
       9 -> 25         0.12503
      10 -> 25         0.30677
      11 -> 26         0.30674

 Excited State  69:      Singlet-E     16.7554 eV   74.00 nm  f=0.3494  <S**2>=0.000
       6 -> 13        -0.10191
       6 -> 19         0.46192
       9 -> 26         0.12495
      10 -> 26        -0.30720
      11 -> 25         0.30702

 Excited state symmetry could not be determined.
 Excited State  70:      Singlet-?Sym   17.0309 eV   72.80 nm  f=0.0000  <S**2>=0.000
       7 -> 21        -0.11927
       8 -> 22        -0.11927
      10 -> 28         0.45761
      10 -> 33        -0.10454
      11 -> 29         0.45759
      11 -> 32        -0.10455

 Excited State  71:      Singlet-E     17.2057 eV   72.06 nm  f=0.0072  <S**2>=0.000
      11 -> 27         0.66918

 Excited State  72:      Singlet-E     17.2057 eV   72.06 nm  f=0.0074  <S**2>=0.000
      10 -> 27         0.66988

 Excited state symmetry could not be determined.
 Excited State  73:      Singlet-?Sym   17.2123 eV   72.03 nm  f=0.1006  <S**2>=0.000
       6 -> 19        -0.12461
       7 -> 21        -0.13339
       8 -> 22         0.13339
      10 -> 28        -0.42776
      11 -> 27         0.17244
      11 -> 29         0.42779

 Excited state symmetry could not be determined.
 Excited State  74:      Singlet-?Sym   17.2124 eV   72.03 nm  f=0.1004  <S**2>=0.000
       6 -> 18        -0.12460
       7 -> 22        -0.13365
       8 -> 21        -0.13355
      10 -> 27        -0.16970
      10 -> 29         0.42812
      11 -> 28         0.42821

 Excited State  75:      Singlet-E     17.4191 eV   71.18 nm  f=0.0002  <S**2>=0.000
       6 -> 19        -0.13628
       9 -> 26         0.66513

 Excited State  76:      Singlet-E     17.4191 eV   71.18 nm  f=0.0002  <S**2>=0.000
       6 -> 18        -0.13628
       9 -> 25         0.66513

 Excited State  77:      Singlet-E     17.5858 eV   70.50 nm  f=0.0185  <S**2>=0.000
      11 -> 30         0.65306
      11 -> 34        -0.11886
      11 -> 35        -0.10344

 Excited State  78:      Singlet-E     17.5858 eV   70.50 nm  f=0.0185  <S**2>=0.000
      10 -> 30         0.65307
      10 -> 34        -0.11885
      10 -> 35        -0.10343

 Excited State  79:      Singlet-A1    17.6335 eV   70.31 nm  f=0.4204  <S**2>=0.000
       6 -> 20         0.54781
       7 -> 22         0.23990
       8 -> 21        -0.23994
      10 -> 29         0.11331
      11 -> 28        -0.11323

 Excited State  80:      Singlet-E     17.9254 eV   69.17 nm  f=0.0009  <S**2>=0.000
      11 -> 31         0.69925

 Excited State  81:      Singlet-E     17.9254 eV   69.17 nm  f=0.0009  <S**2>=0.000
      10 -> 31         0.69925

 Excited state symmetry could not be determined.
 Excited State  82:      Singlet-?Sym   18.0303 eV   68.76 nm  f=0.0181  <S**2>=0.000
       7 -> 21        -0.44470
       8 -> 22         0.44470
      10 -> 28         0.16385
      10 -> 33         0.11357
      11 -> 29        -0.16384
      11 -> 32        -0.11356

 Excited state symmetry could not be determined.
 Excited State  83:      Singlet-?Sym   18.0303 eV   68.76 nm  f=0.0181  <S**2>=0.000
       7 -> 22         0.44473
       8 -> 21         0.44469
      10 -> 29         0.16388
      10 -> 32         0.11358
      11 -> 28         0.16380
      11 -> 33         0.11353

 Excited state symmetry could not be determined.
 Excited State  84:      Singlet-?Sym   18.0435 eV   68.71 nm  f=0.0000  <S**2>=0.000
       7 -> 21         0.31251
       8 -> 22         0.31250
      10 -> 28         0.15843
      10 -> 33         0.34806
      11 -> 29         0.15842
      11 -> 32         0.34807

 Excited State  85:      Singlet-A1    18.0533 eV   68.68 nm  f=0.0034  <S**2>=0.000
       6 -> 20         0.28082
       7 -> 22        -0.23781
       8 -> 21         0.23798
       9 -> 24         0.16430
      10 -> 29        -0.25752
      10 -> 32        -0.22520
      11 -> 28         0.25747
      11 -> 33         0.22513

 Excited state symmetry could not be determined.
 Excited State  86:      Singlet-?Sym   18.1840 eV   68.18 nm  f=0.0000  <S**2>=0.000
       7 -> 21         0.36356

 The electronic state is 1-A1.
 Alpha  occ. eigenvalues --  -14.76241 -10.60724 -10.59590  -1.00895  -0.86702
 Alpha  occ. eigenvalues --   -0.58624  -0.53774  -0.53774  -0.44017  -0.40120
 Alpha  occ. eigenvalues --   -0.40120
 Alpha virt. eigenvalues --    0.02440   0.07322   0.07322   0.08255   0.13482
 Alpha virt. eigenvalues --    0.13482   0.15512   0.15512   0.16996   0.23859
 Alpha virt. eigenvalues --    0.23859   0.25681   0.26997   0.31956   0.31956

 Mulliken charges:
               1
     1  C    0.255597
     2  C   -0.338163
     3  N   -0.075971
     4  H    0.052846
     5  H    0.052846
     6  H    0.052846
 Sum of Mulliken charges =  -0.00000

 Dipole moment (field-independent basis, Debye):
    X=             -0.0000    Y=              0.0000    Z=             -3.9856  Tot=              3.9856
 Quadrupole moment (field-independent basis, Debye-Ang):
   XX=            -17.6269   YY=            -17.6269   ZZ=            -20.8094
   XY=             -0.0000   XZ=              0.0000   YZ=             -0.0000

 Normal termination of Gaussian 16 at Mon Mar 21 20:11:50 2022.
