 Gaussian 16, Revision C.01,
 Gaussian 16:  EM64L-G16RevC.01  3-Jul-2019

 ---------------------------------------------------------------------
 #P TD(Nstates=10000) m062x/Gen SCF(maxcycles=100) Int(Grid=ultrafine)
 ---------------------------------------------------------------------

 ---------------------
 xGDB7_00001_tier4.com
 ---------------------
 Symbolic Z-matrix:
 Charge =  0 Multiplicity = 1

                         Standard orientation:
 ---------------------------------------------------------------------
 Center     Atomic      Atomic             Coordinates (Angstroms)
 Number     Number       Type             X           Y           Z
 ---------------------------------------------------------------------
      1          9           0       -1.139724   -0.269725    0.000000
      2          6           0        0.000000    0.430281    0.000000
      3          6           0        1.180852   -0.148760    0.000000
      4          1           0       -0.180450    1.498331    0.000000
      5          1           0        1.283634   -1.225170    0.000000
      6          1           0        2.069222    0.465238    0.000000
 ---------------------------------------------------------------------

 SCF Done:  E(RM062X) =  -177.623944585     A.U. after   14 cycles

 Excitation energies and oscillator strengths:

 Excited State   1:      Singlet-A"     7.4756 eV  165.85 nm  f=0.0443  <S**2>=0.000
      12 -> 14         0.69084
 This state for optimization and/or second-order correction.
 Total Energy, E(TD-HF/TD-DFT) =  -177.349223011
 Copying the excited state density for this state as the 1-particle RhoCI density.

 Excited State   2:      Singlet-A'     7.8327 eV  158.29 nm  f=0.3309  <S**2>=0.000
      12 -> 13         0.69977

 Excited State   3:      Singlet-A"     8.1166 eV  152.75 nm  f=0.0081  <S**2>=0.000
      12 -> 15         0.67128
      12 -> 17         0.14890

 Excited State   4:      Singlet-A"     8.8854 eV  139.54 nm  f=0.0006  <S**2>=0.000
      11 -> 13         0.50483
      12 -> 16        -0.43071
      12 -> 17         0.14448

 Excited State   5:      Singlet-A"     8.9913 eV  137.89 nm  f=0.0014  <S**2>=0.000
      11 -> 13         0.46014
      12 -> 15         0.14279
      12 -> 16         0.39913
      12 -> 17        -0.25071
      12 -> 21         0.11009

 Excited State   6:      Singlet-A"     9.3489 eV  132.62 nm  f=0.0016  <S**2>=0.000
      10 -> 13         0.19728
      12 -> 15        -0.12431
      12 -> 16         0.29228
      12 -> 17         0.56008
      12 -> 18        -0.13625

 Excited State   7:      Singlet-A"     9.8947 eV  125.30 nm  f=0.0004  <S**2>=0.000
      10 -> 13         0.64673
      12 -> 16        -0.13927
      12 -> 17        -0.16820
      12 -> 18        -0.11621

 Excited State   8:      Singlet-A"    10.1850 eV  121.73 nm  f=0.0078  <S**2>=0.000
      10 -> 13         0.16247
      12 -> 18         0.65688

 Excited State   9:      Singlet-A'    10.3996 eV  119.22 nm  f=0.0024  <S**2>=0.000
      11 -> 14        -0.10328
      12 -> 19         0.68857

 Excited State  10:      Singlet-A'    10.7378 eV  115.46 nm  f=0.0084  <S**2>=0.000
      11 -> 14         0.62936
      11 -> 15        -0.20542
      12 -> 19         0.11256

 Excited State  11:      Singlet-A"    10.8714 eV  114.05 nm  f=0.1276  <S**2>=0.000
       8 -> 13         0.13392
      12 -> 20         0.59063
      12 -> 21         0.34893

 Excited State  12:      Singlet-A"    11.1490 eV  111.21 nm  f=0.0061  <S**2>=0.000
      12 -> 16        -0.16546
      12 -> 17         0.16690
      12 -> 20        -0.32466
      12 -> 21         0.54938

 Excited State  13:      Singlet-A'    11.3485 eV  109.25 nm  f=0.0798  <S**2>=0.000
      10 -> 14         0.45694
      10 -> 15         0.14298
      11 -> 14        -0.20979
      11 -> 15        -0.42188
      11 -> 16         0.12341

 Excited State  14:      Singlet-A'    11.5874 eV  107.00 nm  f=0.0589  <S**2>=0.000
      11 -> 15        -0.11924
      11 -> 16         0.14303
      12 -> 22         0.65972

 Excited State  15:      Singlet-A'    11.7748 eV  105.30 nm  f=0.1642  <S**2>=0.000
      10 -> 14         0.42324
      11 -> 14         0.10150
      11 -> 15         0.48387
      11 -> 16         0.20830

 Excited State  16:      Singlet-A"    11.9025 eV  104.17 nm  f=0.0015  <S**2>=0.000
       8 -> 13        -0.13741
      12 -> 23         0.67235

 Excited State  17:      Singlet-A'    12.0608 eV  102.80 nm  f=0.1529  <S**2>=0.000
      10 -> 14        -0.16849
      10 -> 15        -0.31637
      10 -> 16         0.10559
      10 -> 17        -0.12242
      11 -> 14        -0.14689
      11 -> 16         0.43340
      11 -> 17        -0.23053
      11 -> 21         0.12511
      12 -> 22        -0.13297

 Excited State  18:      Singlet-A"    12.2337 eV  101.35 nm  f=0.0407  <S**2>=0.000
       8 -> 13         0.65825
      12 -> 23         0.14589

 Excited State  19:      Singlet-A'    12.3324 eV  100.54 nm  f=0.0514  <S**2>=0.000
      10 -> 14        -0.24489
      10 -> 15         0.58363
      11 -> 16         0.22016

 Excited State  20:      Singlet-A'    12.8024 eV   96.84 nm  f=0.0042  <S**2>=0.000
       9 -> 13         0.53716
      10 -> 16         0.10076
      11 -> 16        -0.13662
      11 -> 17        -0.18696
      11 -> 18         0.14290
      12 -> 24         0.27815
      12 -> 26        -0.11074

 Excited State  21:      Singlet-A'    12.9181 eV   95.98 nm  f=0.1008  <S**2>=0.000
       9 -> 13         0.35304
      10 -> 18         0.10179
      11 -> 16         0.28673
      11 -> 17         0.44904
      12 -> 24        -0.14244

 Excited State  22:      Singlet-A'    13.0582 eV   94.95 nm  f=0.0687  <S**2>=0.000
       8 -> 14         0.12450
       9 -> 13        -0.18036
      10 -> 16         0.11113
      10 -> 17         0.26481
      11 -> 16         0.14775
      11 -> 17         0.16395
      11 -> 21        -0.10675
      12 -> 24         0.53217

 Excited State  23:      Singlet-A"    13.2920 eV   93.28 nm  f=0.0001  <S**2>=0.000
       7 -> 13        -0.16803
      10 -> 19         0.13456
      11 -> 19         0.61551
      12 -> 25         0.21203

 Excited State  24:      Singlet-A'    13.3200 eV   93.08 nm  f=0.1553  <S**2>=0.000
      10 -> 16         0.50252
      10 -> 17        -0.28195
      10 -> 18        -0.10553
      11 -> 17         0.23730
      11 -> 18         0.19968
      12 -> 26        -0.10146

 Excited State  25:      Singlet-A"    13.3337 eV   92.99 nm  f=0.0349  <S**2>=0.000
      11 -> 19        -0.22350
      12 -> 25         0.56180
      12 -> 27         0.30653

 Excited State  26:      Singlet-A"    13.5184 eV   91.72 nm  f=0.0002  <S**2>=0.000
       7 -> 13         0.28090
       9 -> 14         0.24499
       9 -> 15        -0.11266
       9 -> 16         0.16572
       9 -> 17        -0.10604
      12 -> 21        -0.10440
      12 -> 25        -0.27686
      12 -> 27         0.42491

 Excited State  27:      Singlet-A'    13.5834 eV   91.28 nm  f=0.0047  <S**2>=0.000
       8 -> 14         0.15845
       8 -> 15        -0.12709
      10 -> 16         0.29057
      10 -> 17         0.32233
      11 -> 17        -0.13966
      11 -> 18        -0.26809
      11 -> 20         0.28144
      12 -> 24        -0.20212
      12 -> 26        -0.15156

 Excited State  28:      Singlet-A"    13.6148 eV   91.07 nm  f=0.0776  <S**2>=0.000
       7 -> 13        -0.32750
       9 -> 14         0.49422
       9 -> 15        -0.21496
       9 -> 16         0.13609
      11 -> 19        -0.15485
      12 -> 27        -0.17090

 Excited State  29:      Singlet-A'    13.6339 eV   90.94 nm  f=0.0868  <S**2>=0.000
      10 -> 17         0.22478
      11 -> 18         0.56497
      11 -> 20         0.18273
      12 -> 24        -0.12862

 Excited State  30:      Singlet-A"    13.6813 eV   90.62 nm  f=0.0017  <S**2>=0.000
       7 -> 13         0.51878
       9 -> 14         0.20716
      12 -> 25         0.20171
      12 -> 27        -0.32504

 Excited State  31:      Singlet-A'    13.9500 eV   88.88 nm  f=0.0085  <S**2>=0.000
       8 -> 14        -0.37883
      10 -> 16         0.13285
      11 -> 20         0.27662
      12 -> 26         0.45708

 Excited State  32:      Singlet-A'    14.0596 eV   88.18 nm  f=0.1006  <S**2>=0.000
       8 -> 14         0.37540
      10 -> 16        -0.14124
      10 -> 17        -0.34201
      10 -> 20         0.11994
      11 -> 20         0.37099
      11 -> 21        -0.10022
      12 -> 24         0.11017

 Excited State  33:      Singlet-A'    14.1265 eV   87.77 nm  f=0.0061  <S**2>=0.000
       8 -> 14         0.33594
      10 -> 16         0.13317
      10 -> 18         0.24610
      11 -> 16        -0.15977
      11 -> 20        -0.21358
      11 -> 21         0.10966
      12 -> 26         0.41494

 Excited State  34:      Singlet-A"    14.3501 eV   86.40 nm  f=0.0067  <S**2>=0.000
      10 -> 19         0.62182
      10 -> 22         0.10411
      11 -> 19        -0.11100
      11 -> 22        -0.24538

 Excited State  35:      Singlet-A'    14.3739 eV   86.26 nm  f=0.1756  <S**2>=0.000
      10 -> 16        -0.10777
      10 -> 18        -0.39874
      11 -> 17         0.14780
      11 -> 20         0.10871
      11 -> 21         0.48354
      12 -> 26         0.11985

 Excited State  36:      Singlet-A'    14.5279 eV   85.34 nm  f=0.0733  <S**2>=0.000
       8 -> 14        -0.10496
       8 -> 15         0.34267
      10 -> 18         0.38894
      10 -> 20        -0.11732
      11 -> 18        -0.10801
      11 -> 20         0.22775
      11 -> 21         0.25986
      12 -> 26        -0.11601

 Excited State  37:      Singlet-A"    14.6544 eV   84.61 nm  f=0.0013  <S**2>=0.000
       9 -> 14         0.31962
       9 -> 15         0.45494
       9 -> 16        -0.13394
       9 -> 17         0.28628
      11 -> 22        -0.18607

 Excited State  38:      Singlet-A'    14.7168 eV   84.25 nm  f=0.0343  <S**2>=0.000
       8 -> 14         0.11477
       8 -> 15         0.50075
       8 -> 17         0.15385
      10 -> 18        -0.17649
      10 -> 20        -0.11630
      10 -> 21        -0.17677
      11 -> 17        -0.10127
      11 -> 21        -0.19902
      12 -> 26         0.13740

 Excited State  39:      Singlet-A"    14.7719 eV   83.93 nm  f=0.0018  <S**2>=0.000
       9 -> 15         0.31146
       9 -> 16         0.15421
      10 -> 19         0.17626
      11 -> 22         0.54422

 Excited State  40:      Singlet-A'    14.8632 eV   83.42 nm  f=0.0398  <S**2>=0.000
       7 -> 14        -0.12996
       8 -> 15         0.21153
      10 -> 20         0.57063
      10 -> 21         0.20011

 Excited State  41:      Singlet-A"    14.8701 eV   83.38 nm  f=0.0026  <S**2>=0.000
       9 -> 14        -0.11226
       9 -> 15         0.26313
       9 -> 16         0.45164
       9 -> 17        -0.15607
       9 -> 20        -0.11655
       9 -> 21         0.10816
       9 -> 27         0.11194
      10 -> 19        -0.10023
      11 -> 22        -0.27763
      12 -> 27        -0.14718

 Excited State  42:      Singlet-A"    14.9416 eV   82.98 nm  f=0.0104  <S**2>=0.000
       6 -> 13        -0.12096
       9 -> 16         0.16555
      12 -> 27         0.11418
      12 -> 28         0.59031
      12 -> 29         0.24994

 Excited State  43:      Singlet-A'    15.3203 eV   80.93 nm  f=0.0399  <S**2>=0.000
       7 -> 14        -0.28293
       8 -> 16         0.34404
       8 -> 17        -0.22675
       8 -> 21         0.10291
      10 -> 16        -0.10384
      10 -> 18        -0.13754
      10 -> 20        -0.18550
      11 -> 21        -0.13914
      11 -> 23         0.26382

 Excited State  44:      Singlet-A'    15.3362 eV   80.84 nm  f=0.0927  <S**2>=0.000
       8 -> 16        -0.17431
       8 -> 17         0.13097
       9 -> 19         0.11536
      10 -> 21        -0.18082
      10 -> 23         0.13226
      11 -> 21         0.10105
      11 -> 23         0.56410

 Excited State  45:      Singlet-A"    15.4227 eV   80.39 nm  f=0.0570  <S**2>=0.000
       6 -> 13         0.13481
      10 -> 22         0.63772
      12 -> 29        -0.14139

 Excited State  46:      Singlet-A'    15.4870 eV   80.06 nm  f=0.0336  <S**2>=0.000
       7 -> 14         0.54932
       8 -> 17        -0.26607
      10 -> 21         0.12353
      11 -> 23         0.18545

 Excited State  47:      Singlet-A"    15.6316 eV   79.32 nm  f=0.0009  <S**2>=0.000
       9 -> 15        -0.13816
       9 -> 16         0.26763
       9 -> 17         0.27701
       9 -> 20         0.12526
      12 -> 28        -0.27146
      12 -> 29         0.28937
      12 -> 30         0.31221

 Excited State  48:      Singlet-A'    15.6517 eV   79.21 nm  f=0.0108  <S**2>=0.000
       7 -> 14         0.17317
       8 -> 16         0.48767
       8 -> 17         0.33521
       8 -> 18        -0.10576
      12 -> 32         0.14714

 Excited State  49:      Singlet-A"    15.6980 eV   78.98 nm  f=0.1062  <S**2>=0.000
       9 -> 16        -0.20099
       9 -> 17        -0.17597
       9 -> 20        -0.12969
      10 -> 22         0.12214
      12 -> 28        -0.13185
      12 -> 29         0.55256
      12 -> 30        -0.16620

 Excited State  50:      Singlet-A'    15.7600 eV   78.67 nm  f=0.1098  <S**2>=0.000
       7 -> 16         0.12251
       8 -> 17         0.21737
       9 -> 19         0.18053
      10 -> 20        -0.14827
      10 -> 21         0.51743
      12 -> 32        -0.21243

 Excited State  51:      Singlet-A"    15.8219 eV   78.36 nm  f=0.0006  <S**2>=0.000
       6 -> 13        -0.16671
       9 -> 16        -0.17460
       9 -> 17        -0.25779
       9 -> 18        -0.11254
      12 -> 30         0.54919
      12 -> 31        -0.11540

 Excited State  52:      Singlet-A'    15.9925 eV   77.53 nm  f=0.1465  <S**2>=0.000
       8 -> 16        -0.14372
       8 -> 17         0.11147
      10 -> 21         0.17560
      10 -> 23        -0.18586
      12 -> 32         0.59312

 Excited State  53:      Singlet-A"    16.0333 eV   77.33 nm  f=0.0246  <S**2>=0.000
       8 -> 19        -0.28853
       8 -> 24        -0.11495
      10 -> 19         0.12333
      10 -> 24        -0.13778
      11 -> 24         0.56028
      11 -> 26        -0.15410

 Excited State  54:      Singlet-A'    16.0855 eV   77.08 nm  f=0.1265  <S**2>=0.000
       7 -> 15        -0.32852
       8 -> 17        -0.17255
       9 -> 19         0.12536
      10 -> 23         0.47789
      11 -> 23        -0.11982
      12 -> 32         0.20182

 Excited State  55:      Singlet-A'    16.2655 eV   76.23 nm  f=0.1130  <S**2>=0.000
       7 -> 15         0.15189
       7 -> 16        -0.20948
       7 -> 17         0.11685
       8 -> 17         0.10764
       8 -> 18         0.25473
       8 -> 20        -0.11117
       9 -> 19         0.43718
      11 -> 23        -0.13938
      11 -> 25         0.21057
      11 -> 27         0.12186

 Excited State  56:      Singlet-A"    16.2873 eV   76.12 nm  f=0.0045  <S**2>=0.000
       6 -> 13        -0.31291
       9 -> 17         0.14772
       9 -> 20        -0.10423
      12 -> 31         0.57688

 Excited State  57:      Singlet-A'    16.2909 eV   76.11 nm  f=0.0850  <S**2>=0.000
       7 -> 14         0.12146
       7 -> 15         0.49052
       7 -> 16         0.13961
       8 -> 18         0.11791
       9 -> 19        -0.20555
      10 -> 23         0.34348
      12 -> 32         0.10846

 Excited State  58:      Singlet-A"    16.4209 eV   75.50 nm  f=0.0390  <S**2>=0.000
       6 -> 13         0.42422
       9 -> 17        -0.19036
       9 -> 18         0.10228
       9 -> 20         0.15134
      12 -> 30         0.14028
      12 -> 31         0.32290
      12 -> 33         0.27682

 Excited State  59:      Singlet-A'    16.5429 eV   74.95 nm  f=0.1318  <S**2>=0.000
       7 -> 16         0.50771
       7 -> 17        -0.14161
       8 -> 18         0.26975
       9 -> 19         0.14117
      10 -> 23        -0.17786
      11 -> 25         0.12434

 Excited State  60:      Singlet-A"    16.5564 eV   74.89 nm  f=0.0006  <S**2>=0.000
       8 -> 19         0.25023
       9 -> 18         0.41868
       9 -> 20        -0.21573
       9 -> 21         0.20916
       9 -> 23         0.10554
      10 -> 24        -0.29882

 Excited State  61:      Singlet-A"    16.5980 eV   74.70 nm  f=0.0013  <S**2>=0.000
       8 -> 19        -0.32845
       9 -> 18         0.36191
       9 -> 21         0.13182
      10 -> 24         0.40237
      10 -> 26        -0.11141

 Excited State  62:      Singlet-A'    16.6259 eV   74.57 nm  f=0.0834  <S**2>=0.000
       7 -> 15        -0.21561
       8 -> 17         0.17848
       8 -> 20        -0.19331
       9 -> 19        -0.27977
      11 -> 25         0.35113
      11 -> 27         0.31983

 Excited State  63:      Singlet-A'    16.7157 eV   74.17 nm  f=0.0026  <S**2>=0.000
       7 -> 15        -0.12940
       7 -> 16        -0.14857
       8 -> 17         0.13644
       8 -> 18         0.48396
       8 -> 20         0.17121
       8 -> 21         0.16508
       9 -> 19        -0.21267
      11 -> 25        -0.22865

 Excited State  64:      Singlet-A"    16.8264 eV   73.68 nm  f=0.0147  <S**2>=0.000
       8 -> 19         0.45739
      10 -> 24         0.36274
      10 -> 26        -0.11659
      11 -> 24         0.31778

 Excited State  65:      Singlet-A"    16.8548 eV   73.56 nm  f=0.0712  <S**2>=0.000
       6 -> 13        -0.20193
       9 -> 17        -0.26415
       9 -> 18         0.28196
       9 -> 20         0.45029
       9 -> 21        -0.13205
      11 -> 26        -0.12750
      12 -> 33        -0.19095

 Excited State  66:      Singlet-A"    17.0019 eV   72.92 nm  f=0.0323  <S**2>=0.000
       8 -> 22         0.23841
      11 -> 24         0.16446
      11 -> 26         0.59052
      12 -> 33        -0.13194

 Excited State  67:      Singlet-A'    17.0246 eV   72.83 nm  f=0.0325  <S**2>=0.000
       8 -> 18        -0.14352
       8 -> 20         0.20546
      10 -> 27         0.10192
      11 -> 25        -0.29448
      11 -> 27         0.48577

 Excited State  68:      Singlet-A"    17.0649 eV   72.65 nm  f=0.1113  <S**2>=0.000
       6 -> 13        -0.22878
       9 -> 21        -0.27706
      12 -> 30        -0.10807
      12 -> 31        -0.11695
      12 -> 33         0.53279

 Excited State  69:      Singlet-A'    17.1696 eV   72.21 nm  f=0.0042  <S**2>=0.000
       6 -> 14         0.19579
       8 -> 20         0.46062
       8 -> 21         0.12300
      10 -> 25        -0.28988
      11 -> 25         0.30039

 Excited State  70:      Singlet-A'    17.3064 eV   71.64 nm  f=0.0102  <S**2>=0.000
       6 -> 14         0.41003
       6 -> 15        -0.10840
       7 -> 20         0.11616
       8 -> 16        -0.12404
       8 -> 21         0.26187
      10 -> 25         0.34848

 Excited State  71:      Singlet-A'    17.3959 eV   71.27 nm  f=0.0000  <S**2>=0.000
       6 -> 14        -0.19137
       7 -> 16        -0.14068
       7 -> 17        -0.32698
       8 -> 20         0.21375
      10 -> 25         0.40444
      11 -> 25         0.19092
      12 -> 34        -0.12395

 Excited State  72:      Singlet-A"    17.4602 eV   71.01 nm  f=0.1020  <S**2>=0.000
       6 -> 13        -0.13663
       9 -> 17         0.13702
       9 -> 18        -0.13815
       9 -> 20         0.32896
       9 -> 21         0.50605
      12 -> 33         0.20605

 Excited State  73:      Singlet-A'    17.5958 eV   70.46 nm  f=0.0038  <S**2>=0.000
       6 -> 14         0.18755
       7 -> 17         0.10572
       8 -> 18         0.13657
       8 -> 21        -0.41462
      10 -> 25         0.16501
      12 -> 34         0.41957

 Excited State  74:      Singlet-A'    17.6561 eV   70.22 nm  f=0.0000  <S**2>=0.000
       6 -> 14        -0.30054
       6 -> 15         0.14436
       7 -> 16         0.22103
       7 -> 17         0.31607
       8 -> 20         0.21540
       9 -> 22        -0.14777
      10 -> 25         0.11948
      10 -> 27         0.19821
      11 -> 25         0.11352
      11 -> 27        -0.14774
      11 -> 28        -0.13138

 Excited State  75:      Singlet-A"    17.7799 eV   69.73 nm  f=0.0005  <S**2>=0.000
       7 -> 19        -0.11016
       8 -> 22        -0.29191
      10 -> 26        -0.22740
      11 -> 26         0.11907
      12 -> 35         0.54014

 Excited State  76:      Singlet-A"    17.8267 eV   69.55 nm  f=0.0746  <S**2>=0.000
       7 -> 19         0.34544
       8 -> 22         0.22168
      10 -> 26         0.35564
      11 -> 26        -0.16985
      12 -> 35         0.36551

 Excited State  77:      Singlet-A"    17.9383 eV   69.12 nm  f=0.1025  <S**2>=0.000
       7 -> 19         0.56238
       8 -> 22        -0.22536
      10 -> 24        -0.20664
      10 -> 26        -0.20147
      12 -> 35        -0.10834

 Excited State  78:      Singlet-A'    17.9542 eV   69.06 nm  f=0.1100  <S**2>=0.000
       7 -> 17        -0.28898
       8 -> 20        -0.10133
       8 -> 21         0.29694
      10 -> 27         0.22837
      12 -> 34         0.44585

 Excited State  79:      Singlet-A'    18.0753 eV   68.59 nm  f=0.0689  <S**2>=0.000
       6 -> 14         0.10227
       7 -> 17        -0.15618
       7 -> 18        -0.20087
       7 -> 20        -0.14500
       8 -> 21        -0.20326
       9 -> 22        -0.10385
      10 -> 25        -0.11817
      10 -> 27         0.44092
      10 -> 28        -0.13250
      11 -> 30        -0.10421
      12 -> 34        -0.23273

 Excited State  80:      Singlet-A"    18.0871 eV   68.55 nm  f=0.0023  <S**2>=0.000
       7 -> 22         0.11685
       8 -> 22         0.46462
      10 -> 26        -0.43583
      11 -> 26        -0.15774
      12 -> 35         0.10078

 Excited State  81:      Singlet-A'    18.1275 eV   68.40 nm  f=0.0082  <S**2>=0.000
       7 -> 18         0.24614
       9 -> 22         0.56765

 The electronic state is 1-A'.
 Alpha  occ. eigenvalues --  -25.27025 -10.64387 -10.55779  -1.35273  -0.86790
 Alpha  occ. eigenvalues --   -0.69962  -0.62178  -0.56878  -0.56551  -0.48504
 Alpha  occ. eigenvalues --   -0.45574  -0.33494
 Alpha virt. eigenvalues --    0.04183   0.04435   0.06282   0.11067   0.12909
 Alpha virt. eigenvalues --    0.14418   0.14764   0.17144   0.19257   0.20436
 Alpha virt. eigenvalues --    0.20743   0.25334   0.26673   0.28470   0.29503

 Mulliken charges:
               1
     1  F   -0.463856
     2  C    0.622054
     3  C    0.027401
     4  H   -0.094235
     5  H   -0.103305
     6  H    0.011941
 Sum of Mulliken charges =  -0.00000

 Dipole moment (field-independent basis, Debye):
    X=              1.2267    Y=              0.8042    Z=              0.0000  Tot=              1.4668
 Quadrupole moment (field-independent basis, Debye-Ang):
   XX=            -17.7138   YY=            -15.6239   ZZ=            -19.0726
   XY=             -0.9052   XZ=              0.0000   YZ=              0.0000

 Normal termination of Gaussian 16 at Mon Mar 21 20:16:16 2022.
