 Gaussian 16, Revision C.01,
 Gaussian 16:  EM64L-G16RevC.01  3-Jul-2019

 ---------------------------------------------------------------------
 #P TD(Nstates=10000) m062x/Gen SCF(maxcycles=100) Int(Grid=ultrafine)
 ---------------------------------------------------------------------

 ---------------------
 xGDB7_00001_tier4.com
 ---------------------
 Symbolic Z-matrix:
 Charge =  0 Multiplicity = 1

                         Standard orientation:
 ---------------------------------------------------------------------
 Center     Atomic      Atomic             Coordinates (Angstroms)
 Number     Number       Type             X           Y           Z
 ---------------------------------------------------------------------
      1          6           0        0.000284   -0.018657   -1.236532
      2          6           0       -0.000055    0.003295    0.218717
      3          6           0       -0.000323    0.021367    1.415619
      4          1           0        0.273656    0.958689   -1.636635
      5          1           0       -0.987794   -0.279414   -1.618263
      6          1           0        0.715256   -0.752703   -1.610700
      7          1           0       -0.000556    0.037402    2.478776
 ---------------------------------------------------------------------

 SCF Done:  E(RM062X) =  -116.510867821     A.U. after   14 cycles

 Excitation energies and oscillator strengths:

 Excited State   1:      Singlet-A      6.1912 eV  200.26 nm  f=0.0000  <S**2>=0.000
      10 -> 14         0.34750
      10 -> 15        -0.33114
      11 -> 14        -0.33115
      11 -> 15        -0.34750
 This state for optimization and/or second-order correction.
 Total Energy, E(TD-HF/TD-DFT) =  -116.283346867
 Copying the excited state density for this state as the 1-particle RhoCI density.

 Excited State   2:      Singlet-A      7.3004 eV  169.83 nm  f=0.0010  <S**2>=0.000
      10 -> 14         0.28801
      10 -> 15         0.39591
      11 -> 14        -0.39591
      11 -> 15         0.28802

 Excited State   3:      Singlet-A      7.3005 eV  169.83 nm  f=0.0010  <S**2>=0.000
      10 -> 14         0.39591
      10 -> 15        -0.28801
      11 -> 14         0.28801
      11 -> 15         0.39591

 Excited State   4:      Singlet-A      7.4620 eV  166.15 nm  f=0.0186  <S**2>=0.000
      10 -> 12         0.40717
      11 -> 12         0.55415

 Excited State   5:      Singlet-A      7.4620 eV  166.15 nm  f=0.0186  <S**2>=0.000
      10 -> 12         0.55416
      11 -> 12        -0.40717

 Excited State   6:      Singlet-A      8.4329 eV  147.02 nm  f=0.0192  <S**2>=0.000
      11 -> 13         0.67439
      11 -> 16        -0.18562

 Excited State   7:      Singlet-A      8.4329 eV  147.02 nm  f=0.0192  <S**2>=0.000
      10 -> 13         0.67439
      10 -> 16        -0.18562

 Excited State   8:      Singlet-A      9.1364 eV  135.70 nm  f=0.0535  <S**2>=0.000
      10 -> 16         0.29690
      11 -> 12        -0.11773
      11 -> 13         0.15753
      11 -> 16         0.58734

 Excited State   9:      Singlet-A      9.1365 eV  135.70 nm  f=0.0535  <S**2>=0.000
      10 -> 12        -0.11772
      10 -> 13         0.15753
      10 -> 16         0.58734
      11 -> 16        -0.29691

 Excited State  10:      Singlet-A      9.7604 eV  127.03 nm  f=0.9261  <S**2>=0.000
      10 -> 14         0.31355
      10 -> 15         0.32904
      10 -> 17         0.17258
      11 -> 14         0.32904
      11 -> 15        -0.31355
      11 -> 18        -0.17259

 Excited State  11:      Singlet-A     10.3987 eV  119.23 nm  f=0.0000  <S**2>=0.000
      10 -> 18         0.45493
      10 -> 20        -0.14117
      11 -> 17         0.45522
      11 -> 19         0.14125

 Excited State  12:      Singlet-A     10.4429 eV  118.73 nm  f=0.0065  <S**2>=0.000
      10 -> 17        -0.29732
      10 -> 18         0.36811
      11 -> 17        -0.36792
      11 -> 18        -0.29735

 Excited State  13:      Singlet-A     10.4429 eV  118.73 nm  f=0.0065  <S**2>=0.000
      10 -> 17         0.36802
      10 -> 18         0.29743
      11 -> 17        -0.29723
      11 -> 18         0.36801

 Excited State  14:      Singlet-A     10.8804 eV  113.95 nm  f=0.0000  <S**2>=0.000
      10 -> 18        -0.14178
      10 -> 19        -0.15471
      10 -> 20        -0.43350
      11 -> 17        -0.14180
      11 -> 19         0.43363
      11 -> 20        -0.15482

 Excited State  15:      Singlet-A     10.8836 eV  113.92 nm  f=0.3772  <S**2>=0.000
      10 -> 14        -0.11581
      10 -> 15        -0.12148
      10 -> 17         0.43424
      10 -> 19         0.13154
      11 -> 14        -0.12148
      11 -> 15         0.11582
      11 -> 18        -0.43422
      11 -> 20         0.13166

 Excited State  16:      Singlet-A     10.9607 eV  113.12 nm  f=0.0000  <S**2>=0.000
      10 -> 17        -0.10250
      10 -> 19         0.37334
      10 -> 21         0.34229
      11 -> 18        -0.10250
      11 -> 20        -0.37296
      11 -> 21         0.20139

 Excited State  17:      Singlet-A     10.9608 eV  113.12 nm  f=0.0000  <S**2>=0.000
      10 -> 18         0.10254
      10 -> 20         0.37305
      10 -> 21         0.20140
      11 -> 17        -0.10252
      11 -> 19         0.37313
      11 -> 21        -0.34241

 Excited State  18:      Singlet-A     11.0755 eV  111.94 nm  f=0.0051  <S**2>=0.000
      10 -> 17        -0.15145
      10 -> 19         0.44142
      10 -> 20        -0.15823
      11 -> 18         0.15150
      11 -> 19         0.15780
      11 -> 20         0.44210

 Excited State  19:      Singlet-A     11.1103 eV  111.59 nm  f=0.0195  <S**2>=0.000
      10 -> 20         0.28102
      10 -> 21        -0.20313
      11 -> 19         0.28100
      11 -> 21         0.51730

 Excited State  20:      Singlet-A     11.1103 eV  111.59 nm  f=0.0195  <S**2>=0.000
      10 -> 19        -0.28115
      10 -> 21         0.51739
      11 -> 20         0.28068
      11 -> 21         0.20315

 Excited State  21:      Singlet-A     11.7559 eV  105.47 nm  f=0.1189  <S**2>=0.000
       9 -> 12         0.66373
       9 -> 13        -0.19435

 Excited State  22:      Singlet-A     11.7560 eV  105.46 nm  f=0.1189  <S**2>=0.000
       8 -> 12         0.66373
       8 -> 13        -0.19435

 Excited State  23:      Singlet-A     11.8461 eV  104.66 nm  f=0.0000  <S**2>=0.000
      10 -> 22        -0.32055
      10 -> 23         0.35291
      11 -> 22        -0.35291
      11 -> 23        -0.32065

 Excited State  24:      Singlet-A     12.0206 eV  103.14 nm  f=0.0122  <S**2>=0.000
      10 -> 22         0.31822
      10 -> 23         0.35425
      11 -> 22         0.35430
      11 -> 23        -0.31819

 Excited State  25:      Singlet-A     12.0207 eV  103.14 nm  f=0.0122  <S**2>=0.000
      10 -> 22         0.35433
      10 -> 23        -0.31820
      11 -> 22        -0.31819
      11 -> 23        -0.35426

 Excited State  26:      Singlet-A     12.0830 eV  102.61 nm  f=0.0022  <S**2>=0.000
       7 -> 14         0.50975
       7 -> 15        -0.26578
      11 -> 24         0.32729

 Excited State  27:      Singlet-A     12.0830 eV  102.61 nm  f=0.0022  <S**2>=0.000
       7 -> 14         0.26579
       7 -> 15         0.50974
      10 -> 24         0.32726

 Excited State  28:      Singlet-A     12.3042 eV  100.77 nm  f=0.0000  <S**2>=0.000
       8 -> 14        -0.40103
       8 -> 15         0.26864
       9 -> 14         0.26874
       9 -> 15         0.40114

 Excited State  29:      Singlet-A     12.3386 eV  100.48 nm  f=0.0200  <S**2>=0.000
       7 -> 12         0.65894

 Excited State  30:      Singlet-A     12.4525 eV   99.57 nm  f=0.0002  <S**2>=0.000
       7 -> 14        -0.24885
       8 -> 15         0.21173
       9 -> 14        -0.21176
      10 -> 24         0.20372
      11 -> 24         0.48889

 Excited State  31:      Singlet-A     12.4526 eV   99.56 nm  f=0.0002  <S**2>=0.000
       7 -> 15        -0.24894
       8 -> 14         0.21176
       9 -> 15         0.21168
      10 -> 24         0.48888
      11 -> 24        -0.20370

 Excited State  32:      Singlet-A     12.6894 eV   97.71 nm  f=0.0289  <S**2>=0.000
       7 -> 15         0.22122
       8 -> 14         0.31577
       8 -> 15        -0.28024
       9 -> 14         0.28018
       9 -> 15         0.31568
      10 -> 24        -0.17519
      11 -> 24         0.15516

 Excited State  33:      Singlet-A     12.6894 eV   97.71 nm  f=0.0289  <S**2>=0.000
       7 -> 14        -0.22133
       8 -> 14        -0.28016
       8 -> 15        -0.31567
       9 -> 14         0.31571
       9 -> 15        -0.28022
      10 -> 24         0.15518
      11 -> 24         0.17520

 Excited State  34:      Singlet-A     12.8658 eV   96.37 nm  f=0.2092  <S**2>=0.000
       6 -> 13        -0.13948
       7 -> 12        -0.20443
       7 -> 13        -0.12206
      10 -> 22         0.31399
      10 -> 23         0.28528
      11 -> 22        -0.28523
      11 -> 23         0.31401

 Excited State  35:      Singlet-A     13.1416 eV   94.34 nm  f=0.0304  <S**2>=0.000
       7 -> 13        -0.17537
       7 -> 16        -0.12182
       8 -> 14         0.24692
       8 -> 15         0.36861
       9 -> 14         0.36851
       9 -> 15        -0.24687

 Excited State  36:      Singlet-A     13.2637 eV   93.48 nm  f=0.0002  <S**2>=0.000
       9 -> 12         0.15205
       9 -> 13         0.51453
       9 -> 16         0.43013

 Excited State  37:      Singlet-A     13.2638 eV   93.48 nm  f=0.0002  <S**2>=0.000
       8 -> 12         0.15205
       8 -> 13         0.51453
       8 -> 16         0.43014

 Excited State  38:      Singlet-A     13.7570 eV   90.12 nm  f=0.0000  <S**2>=0.000
      10 -> 25         0.15972
      10 -> 26         0.44845
      11 -> 25         0.44856
      11 -> 26        -0.16002

 Excited State  39:      Singlet-A     13.7636 eV   90.08 nm  f=0.0079  <S**2>=0.000
       6 -> 12         0.14561
       7 -> 13         0.57284
       7 -> 16         0.11602
      10 -> 25        -0.16190
      11 -> 26         0.16192

 Excited State  40:      Singlet-A     13.8394 eV   89.59 nm  f=0.0506  <S**2>=0.000
       7 -> 13         0.19911
       7 -> 16         0.15057
      10 -> 25         0.39755
      10 -> 26        -0.14151
      11 -> 25        -0.14158
      11 -> 26        -0.39731

 Excited State  41:      Singlet-A     13.9056 eV   89.16 nm  f=0.1101  <S**2>=0.000
       6 -> 14        -0.12744
       6 -> 15         0.23985
       9 -> 13         0.14076
       9 -> 16        -0.12231
      10 -> 25         0.24620
      10 -> 26         0.31708
      11 -> 25        -0.31673
      11 -> 26         0.24628
      11 -> 27         0.10126

 Excited State  42:      Singlet-A     13.9057 eV   89.16 nm  f=0.1101  <S**2>=0.000
       6 -> 14        -0.23985
       6 -> 15        -0.12750
       8 -> 13         0.14061
       8 -> 16        -0.12211
      10 -> 25         0.31689
      10 -> 26        -0.24617
      10 -> 27         0.10129
      11 -> 25         0.24639
      11 -> 26         0.31697

 Excited State  43:      Singlet-A     13.9799 eV   88.69 nm  f=0.0330  <S**2>=0.000
       6 -> 14        -0.10360
       9 -> 12        -0.11619
       9 -> 13        -0.39203
       9 -> 16         0.48888
       9 -> 21        -0.14552
      10 -> 25         0.10816
      11 -> 26         0.10815

 Excited State  44:      Singlet-A     13.9800 eV   88.69 nm  f=0.0329  <S**2>=0.000
       6 -> 15        -0.10355
       8 -> 12        -0.11622
       8 -> 13        -0.39209
       8 -> 16         0.48894
       8 -> 21        -0.14553
      10 -> 26        -0.10800
      11 -> 25         0.10805

 Excited State  45:      Singlet-A     14.1962 eV   87.34 nm  f=0.2562  <S**2>=0.000
       6 -> 13        -0.14246
       7 -> 13        -0.13244
       7 -> 16         0.62003
      10 -> 29         0.10735
      11 -> 28         0.10736

 Excited State  46:      Singlet-A     14.2524 eV   86.99 nm  f=0.0000  <S**2>=0.000
       8 -> 18         0.44527
       9 -> 17         0.44604
      10 -> 28        -0.13723
      10 -> 29        -0.10928
      11 -> 28        -0.10923
      11 -> 29         0.13719

 Excited State  47:      Singlet-A     14.2777 eV   86.84 nm  f=0.0412  <S**2>=0.000
       6 -> 15        -0.19299
       7 -> 18         0.11874
       8 -> 18        -0.24656
       9 -> 17         0.24634
      10 -> 27        -0.29514
      11 -> 27         0.40589

 Excited State  48:      Singlet-A     14.2777 eV   86.84 nm  f=0.0412  <S**2>=0.000
       6 -> 14         0.19307
       7 -> 17        -0.11876
       8 -> 17        -0.24635
       9 -> 18        -0.24624
      10 -> 27         0.40598
      11 -> 27         0.29521

 Excited State  49:      Singlet-A     14.3051 eV   86.67 nm  f=0.0000  <S**2>=0.000
       8 -> 18         0.19448
       9 -> 17         0.19412
      10 -> 28         0.33865
      10 -> 29         0.26951
      11 -> 28         0.26972
      11 -> 29        -0.33854

 Excited State  50:      Singlet-A     14.3860 eV   86.18 nm  f=0.0123  <S**2>=0.000
       8 -> 17         0.33061
       9 -> 18         0.33062
      10 -> 27         0.25173
      10 -> 28         0.15555
      10 -> 29        -0.19962
      11 -> 27         0.18347
      11 -> 28         0.19942
      11 -> 29         0.15588

 Excited State  51:      Singlet-A     14.3861 eV   86.18 nm  f=0.0123  <S**2>=0.000
       8 -> 18         0.33082
       9 -> 17        -0.33051
      10 -> 27        -0.18367
      10 -> 28         0.19923
      10 -> 29         0.15550
      11 -> 27         0.25202
      11 -> 28        -0.15559
      11 -> 29         0.19916

 Excited State  52:      Singlet-A     14.4557 eV   85.77 nm  f=0.0113  <S**2>=0.000
       6 -> 15         0.15397
       8 -> 17        -0.10573
       8 -> 18        -0.20607
       9 -> 17         0.20596
       9 -> 18        -0.10577
      10 -> 28         0.35591
      10 -> 29         0.16395
      11 -> 27        -0.11165
      11 -> 28        -0.16389
      11 -> 29         0.35586

 Excited State  53:      Singlet-A     14.4557 eV   85.77 nm  f=0.0113  <S**2>=0.000
       6 -> 14         0.15420
       8 -> 17         0.20627
       8 -> 18        -0.10583
       9 -> 17         0.10576
       9 -> 18         0.20629
      10 -> 27         0.11192
      10 -> 28        -0.16375
      10 -> 29         0.35570
      11 -> 28        -0.35568
      11 -> 29        -0.16375

 Excited State  54:      Singlet-A     14.7502 eV   84.06 nm  f=0.0000  <S**2>=0.000
       8 -> 19        -0.23200
       8 -> 20        -0.41032
       9 -> 19         0.41038
       9 -> 20        -0.23202

 Excited State  55:      Singlet-A     14.7609 eV   83.99 nm  f=0.1327  <S**2>=0.000
       6 -> 15        -0.15524
       7 -> 17         0.27990
       7 -> 18         0.47468
       7 -> 20        -0.13835
      10 -> 26         0.11720
      11 -> 25        -0.11722
      11 -> 27        -0.18369

 Excited State  56:      Singlet-A     14.7609 eV   83.99 nm  f=0.1327  <S**2>=0.000
       6 -> 14        -0.15513
       7 -> 17         0.47469
       7 -> 18        -0.27990
       7 -> 19         0.13835
      10 -> 25        -0.11714
      10 -> 27         0.18371
      11 -> 26        -0.11715

 Excited State  57:      Singlet-A     14.8957 eV   83.23 nm  f=0.0001  <S**2>=0.000
       6 -> 12         0.49463
       6 -> 13         0.11669
       7 -> 13        -0.19433
       8 -> 17        -0.16226
       8 -> 19        -0.20147
       8 -> 20         0.11392
       9 -> 18         0.16224
       9 -> 19        -0.11395
       9 -> 20        -0.20154

 Excited State  58:      Singlet-A     14.9267 eV   83.06 nm  f=0.0067  <S**2>=0.000
       6 -> 12         0.36424
       6 -> 13         0.11483
       8 -> 17         0.20474
       8 -> 19         0.28153
       8 -> 20        -0.15921
       9 -> 18        -0.20468
       9 -> 19         0.15926
       9 -> 20         0.28175

 Excited State  59:      Singlet-A     15.0297 eV   82.49 nm  f=0.0022  <S**2>=0.000
       6 -> 14        -0.21539
       6 -> 15         0.20153
       6 -> 18        -0.10159
       7 -> 18         0.27269
       8 -> 19        -0.15305
       8 -> 20         0.29676
       9 -> 19         0.29666
       9 -> 20         0.15303
      11 -> 27         0.13872

 Excited State  60:      Singlet-A     15.0297 eV   82.49 nm  f=0.0022  <S**2>=0.000
       6 -> 14         0.20152
       6 -> 15         0.21543
       6 -> 17        -0.10159
       7 -> 17         0.27269
       8 -> 19         0.29679
       8 -> 20         0.15302
       9 -> 19         0.15303
       9 -> 20        -0.29660
      10 -> 27        -0.13871

 Excited State  61:      Singlet-A     15.0757 eV   82.24 nm  f=0.0721  <S**2>=0.000
       6 -> 12         0.17619
       7 -> 16        -0.11971
       8 -> 17         0.21805
       8 -> 19        -0.12731
       9 -> 18        -0.21800
       9 -> 20        -0.12723
      10 -> 28        -0.20680
      10 -> 29         0.25971
      10 -> 32         0.11037
      11 -> 28         0.25968
      11 -> 29         0.20678
      11 -> 31        -0.11037

 Excited State  62:      Singlet-A     15.3945 eV   80.54 nm  f=0.0373  <S**2>=0.000
       7 -> 21         0.12936
       7 -> 24        -0.10346
       8 -> 17         0.31161
       8 -> 19        -0.19939
       8 -> 20         0.11274
       9 -> 18        -0.31157
       9 -> 19        -0.11273
       9 -> 20        -0.19939
      10 -> 28         0.12707
      10 -> 29        -0.15959
      11 -> 28        -0.15959
      11 -> 29        -0.12708

 Excited State  63:      Singlet-A     15.4752 eV   80.12 nm  f=0.2476  <S**2>=0.000
       6 -> 14         0.26440
       6 -> 15        -0.13691
       7 -> 18        -0.14679
       8 -> 19        -0.16860
       8 -> 20         0.18077
       9 -> 16         0.11436
       9 -> 19         0.18075
       9 -> 20         0.16852
       9 -> 21         0.21828
       9 -> 24         0.12755
      11 -> 27        -0.11757
      11 -> 30         0.28024
      11 -> 34        -0.12068
      11 -> 35         0.14084

 Excited State  64:      Singlet-A     15.4753 eV   80.12 nm  f=0.2477  <S**2>=0.000
       6 -> 14         0.13689
       6 -> 15         0.26437
       7 -> 17         0.14679
       8 -> 16         0.11434
       8 -> 19        -0.18077
       8 -> 20        -0.16862
       8 -> 21         0.21822
       8 -> 24         0.12752
       9 -> 19        -0.16858
       9 -> 20         0.18078
      10 -> 27        -0.11758
      10 -> 30         0.28030
      10 -> 34        -0.12070
      10 -> 35         0.14086

 Excited State  65:      Singlet-A     15.5580 eV   79.69 nm  f=0.0077  <S**2>=0.000
       7 -> 17        -0.14499
       7 -> 19         0.60309
       8 -> 21        -0.19146
       9 -> 21        -0.10055
      10 -> 30         0.12276

 Excited State  66:      Singlet-A     15.5580 eV   79.69 nm  f=0.0077  <S**2>=0.000
       7 -> 18         0.14498
       7 -> 20         0.60306
       8 -> 21         0.10038
       9 -> 21        -0.19159
      11 -> 30         0.12286

 Excited State  67:      Singlet-A     15.6476 eV   79.24 nm  f=0.0000  <S**2>=0.000
       7 -> 20         0.26404
       8 -> 21        -0.16587
       9 -> 16         0.10969
       9 -> 21         0.36397
       9 -> 24         0.15392
      10 -> 31        -0.13629
      11 -> 30        -0.33810
      11 -> 32         0.13626

 Excited State  68:      Singlet-A     15.6476 eV   79.24 nm  f=0.0000  <S**2>=0.000
       7 -> 19         0.26394
       8 -> 16         0.10975
       8 -> 21         0.36408
       8 -> 24         0.15399
       9 -> 21         0.16585
      10 -> 30        -0.33802
      10 -> 32        -0.13627
      11 -> 31        -0.13635

 Excited State  69:      Singlet-A     15.7236 eV   78.85 nm  f=0.0104  <S**2>=0.000
       6 -> 12        -0.13674
       6 -> 13         0.53402
       6 -> 16        -0.21409
       7 -> 16         0.12059
      10 -> 32         0.21109
      11 -> 31        -0.21104

 Excited State  70:      Singlet-A     15.8110 eV   78.42 nm  f=0.0000  <S**2>=0.000
      10 -> 31         0.47465
      10 -> 32        -0.10111
      11 -> 31         0.10105
      11 -> 32         0.47455

 Excited State  71:      Singlet-A     15.8478 eV   78.23 nm  f=0.4894  <S**2>=0.000
       6 -> 14        -0.19784
       8 -> 19         0.15010
       8 -> 21         0.13454
       9 -> 20        -0.15009
       9 -> 21         0.12739
      10 -> 30         0.38873
      10 -> 32        -0.19124
      11 -> 30         0.25864
      11 -> 31        -0.19131

 Excited State  72:      Singlet-A     15.8478 eV   78.23 nm  f=0.4896  <S**2>=0.000
       6 -> 15         0.19786
       8 -> 20        -0.15019
       8 -> 21        -0.12757
       9 -> 19        -0.15016
       9 -> 21         0.13473
      10 -> 30        -0.25863
      10 -> 31        -0.19090
      11 -> 30         0.38871
      11 -> 32         0.19122

 Excited State  73:      Singlet-A     15.9798 eV   77.59 nm  f=0.0933  <S**2>=0.000
       8 -> 19         0.11254
       8 -> 21         0.15346
       9 -> 20        -0.11252
       9 -> 21         0.19258
      10 -> 31         0.12416
      10 -> 32         0.40485
      11 -> 31         0.40487
      11 -> 32        -0.12407

 Excited State  74:      Singlet-A     15.9798 eV   77.59 nm  f=0.0931  <S**2>=0.000
       8 -> 20        -0.11244
       8 -> 21        -0.19258
       9 -> 19        -0.11241
       9 -> 21         0.15339
      10 -> 31         0.40498
      10 -> 32        -0.12409
      11 -> 31        -0.12414
      11 -> 32        -0.40495

 Excited State  75:      Singlet-A     16.3107 eV   76.01 nm  f=0.0114  <S**2>=0.000
       6 -> 14        -0.15605
      10 -> 35         0.29153
      10 -> 36        -0.11190

 The electronic state is 1-A.
 Alpha  occ. eigenvalues --  -10.57352 -10.55452 -10.54045  -0.87087  -0.78457
 Alpha  occ. eigenvalues --   -0.59672  -0.51946  -0.50126  -0.50126  -0.33175
 Alpha  occ. eigenvalues --   -0.33175
 Alpha virt. eigenvalues --    0.03785   0.06919   0.08225   0.08225   0.09741
 Alpha virt. eigenvalues --    0.14810   0.14810   0.17286   0.17286   0.18296
 Alpha virt. eigenvalues --    0.22388   0.22388   0.24467   0.29540   0.29540

 Mulliken charges:
               1
     1  C    0.419050
     2  C    0.874292
     3  C   -1.174914
     4  H   -0.013647
     5  H   -0.013652
     6  H   -0.013653
     7  H   -0.077475
 Sum of Mulliken charges =  -0.00000

 Dipole moment (field-independent basis, Debye):
    X=              0.0002    Y=             -0.0118    Z=             -0.7783  Tot=              0.7784
 Quadrupole moment (field-independent basis, Debye-Ang):
   XX=            -19.6146   YY=            -19.6133   ZZ=            -14.1078
   XY=             -0.0000   XZ=             -0.0012   YZ=              0.0831

 Normal termination of Gaussian 16 at Mon Mar 21 20:14:00 2022.
