 Gaussian 16, Revision C.01,
 Gaussian 16:  EM64L-G16RevC.01  3-Jul-2019

 ---------------------------------------------------------------------
 #P TD(Nstates=10000) m062x/Gen SCF(maxcycles=100) Int(Grid=ultrafine)
 ---------------------------------------------------------------------

 ---------------------
 xGDB7_00001_tier4.com
 ---------------------
 Symbolic Z-matrix:
 Charge =  0 Multiplicity = 1

                         Standard orientation:
 ---------------------------------------------------------------------
 Center     Atomic      Atomic             Coordinates (Angstroms)
 Number     Number       Type             X           Y           Z
 ---------------------------------------------------------------------
      1          8           0       -1.023805   -0.438791    0.000000
      2          6           0       -0.000000    0.418952    0.000000
      3          8           0        1.152985    0.109982   -0.000000
      4          1           0       -0.656943   -1.333011    0.000000
      5          1           0       -0.376498    1.449770    0.000000
 ---------------------------------------------------------------------

 SCF Done:  E(RM062X) =  -189.557326899     A.U. after   14 cycles

 Excitation energies and oscillator strengths:

 Excited State   1:      Singlet-A"     5.6446 eV  219.65 nm  f=0.0009  <S**2>=0.000
      12 -> 14         0.69779
 This state for optimization and/or second-order correction.
 Total Energy, E(TD-HF/TD-DFT) =  -189.349891201
 Copying the excited state density for this state as the 1-particle RhoCI density.

 Excited State   2:      Singlet-A'     8.2661 eV  149.99 nm  f=0.0257  <S**2>=0.000
      11 -> 14        -0.38594
      12 -> 13         0.56750

 Excited State   3:      Singlet-A"     8.8811 eV  139.60 nm  f=0.0024  <S**2>=0.000
      11 -> 13         0.66931
      11 -> 15        -0.13421

 Excited State   4:      Singlet-A'     8.9476 eV  138.57 nm  f=0.1847  <S**2>=0.000
      11 -> 14         0.46969
      12 -> 13         0.34096
      12 -> 15         0.33288
      12 -> 16        -0.16624

 Excited State   5:      Singlet-A'     9.1138 eV  136.04 nm  f=0.0855  <S**2>=0.000
      11 -> 14        -0.29879
      12 -> 13        -0.16332
      12 -> 15         0.60560

 Excited State   6:      Singlet-A"     9.3254 eV  132.95 nm  f=0.0000  <S**2>=0.000
       8 -> 14         0.11523
      10 -> 14         0.68973

 Excited State   7:      Singlet-A"    10.0324 eV  123.58 nm  f=0.0040  <S**2>=0.000
      11 -> 13         0.14516
      11 -> 15         0.67949

 Excited State   8:      Singlet-A"    10.1572 eV  122.07 nm  f=0.0095  <S**2>=0.000
      12 -> 17         0.68288
      12 -> 20         0.14987

 Excited State   9:      Singlet-A'    10.2290 eV  121.21 nm  f=0.0898  <S**2>=0.000
      12 -> 13         0.11863
      12 -> 16         0.63602
      12 -> 18        -0.15760
      12 -> 19         0.13528

 Excited State  10:      Singlet-A"    11.0583 eV  112.12 nm  f=0.0365  <S**2>=0.000
       9 -> 13         0.10168
      11 -> 16         0.67771

 Excited State  11:      Singlet-A'    11.0872 eV  111.83 nm  f=0.0356  <S**2>=0.000
      10 -> 13         0.38351
      11 -> 17        -0.31665
      12 -> 16        -0.14542
      12 -> 18        -0.33694
      12 -> 21        -0.26765

 Excited State  12:      Singlet-A'    11.2106 eV  110.60 nm  f=0.0331  <S**2>=0.000
      10 -> 13         0.23608
      11 -> 17         0.54460
      12 -> 19         0.29109
      12 -> 21        -0.17751

 Excited State  13:      Singlet-A'    11.2781 eV  109.93 nm  f=0.0282  <S**2>=0.000
      10 -> 13         0.42842
      11 -> 17        -0.14231
      12 -> 18         0.35205
      12 -> 19         0.11671
      12 -> 21         0.32842

 Excited State  14:      Singlet-A'    11.3725 eV  109.02 nm  f=0.0137  <S**2>=0.000
       9 -> 14        -0.13499
      10 -> 13        -0.21530
      11 -> 17        -0.15836
      12 -> 18        -0.20152
      12 -> 19         0.53993
      12 -> 21         0.22481

 Excited State  15:      Singlet-A'    11.5028 eV  107.79 nm  f=0.0055  <S**2>=0.000
      10 -> 13         0.13561
      11 -> 17         0.20545
      12 -> 18        -0.40087
      12 -> 19        -0.19278
      12 -> 21         0.44613
      12 -> 22         0.10985

 Excited State  16:      Singlet-A"    11.6896 eV  106.06 nm  f=0.0004  <S**2>=0.000
       8 -> 14        -0.18740
      11 -> 18         0.48525
      11 -> 19        -0.14038
      11 -> 21         0.36030
      11 -> 22         0.12060

 Excited State  17:      Singlet-A"    11.7386 eV  105.62 nm  f=0.0101  <S**2>=0.000
       7 -> 14         0.14479
       8 -> 14         0.13299
      12 -> 17        -0.14477
      12 -> 20         0.64582

 Excited State  18:      Singlet-A"    12.0181 eV  103.16 nm  f=0.0103  <S**2>=0.000
       8 -> 14         0.61909
      10 -> 14        -0.11548
      11 -> 18         0.23655
      12 -> 20        -0.15572

 Excited State  19:      Singlet-A'    12.0656 eV  102.76 nm  f=0.1586  <S**2>=0.000
       9 -> 14         0.47162
      10 -> 15         0.44190
      12 -> 19         0.18023

 Excited State  20:      Singlet-A"    12.1015 eV  102.45 nm  f=0.0013  <S**2>=0.000
       8 -> 14        -0.12166
       9 -> 13         0.20559
       9 -> 15        -0.14439
      11 -> 18         0.30721
      11 -> 19         0.52705
      11 -> 21        -0.17314

 Excited State  21:      Singlet-A'    12.3390 eV  100.48 nm  f=0.0184  <S**2>=0.000
       9 -> 14        -0.44212
      10 -> 13         0.10026
      10 -> 15         0.51278

 Excited State  22:      Singlet-A"    12.3816 eV  100.14 nm  f=0.0053  <S**2>=0.000
       7 -> 14         0.51260
      11 -> 18        -0.21702
      11 -> 19         0.21942
      11 -> 21         0.30356
      12 -> 20        -0.13156

 Excited State  23:      Singlet-A"    12.4805 eV   99.34 nm  f=0.0032  <S**2>=0.000
       7 -> 14        -0.41877
       8 -> 14         0.10699
      11 -> 18        -0.14601
      11 -> 19         0.21810
      11 -> 21         0.44548

 Excited State  24:      Singlet-A'    12.6480 eV   98.03 nm  f=0.0611  <S**2>=0.000
      11 -> 20        -0.16687
      12 -> 21        -0.10394
      12 -> 22         0.65584

 Excited State  25:      Singlet-A"    12.6719 eV   97.84 nm  f=0.0335  <S**2>=0.000
       9 -> 13         0.58841
       9 -> 18        -0.10563
      11 -> 19        -0.28374
      11 -> 22        -0.13329

 Excited State  26:      Singlet-A'    12.9626 eV   95.65 nm  f=0.0008  <S**2>=0.000
      10 -> 16        -0.27454
      11 -> 20         0.61052
      12 -> 22         0.14563

 Excited State  27:      Singlet-A"    13.0842 eV   94.76 nm  f=0.0015  <S**2>=0.000
      10 -> 17        -0.45348
      12 -> 23         0.51534

 Excited State  28:      Singlet-A"    13.3139 eV   93.12 nm  f=0.0010  <S**2>=0.000
      10 -> 17         0.50574
      11 -> 22        -0.14729
      12 -> 23         0.43648

 Excited State  29:      Singlet-A'    13.3200 eV   93.08 nm  f=0.0353  <S**2>=0.000
       8 -> 13        -0.29438
      10 -> 16         0.50851
      10 -> 21        -0.16444
      11 -> 20         0.23369
      12 -> 24         0.13959

 Excited State  30:      Singlet-A"    13.4124 eV   92.44 nm  f=0.0191  <S**2>=0.000
       9 -> 13         0.22809
       9 -> 15         0.26545
      10 -> 17         0.14229
      11 -> 22         0.55614

 Excited State  31:      Singlet-A'    13.5849 eV   91.27 nm  f=0.0322  <S**2>=0.000
      10 -> 16        -0.12919
      12 -> 16         0.10272
      12 -> 24         0.64584

 Excited State  32:      Singlet-A"    13.6179 eV   91.05 nm  f=0.0084  <S**2>=0.000
       9 -> 15         0.61063
      11 -> 22        -0.30164

 Excited State  33:      Singlet-A'    13.8747 eV   89.36 nm  f=0.0009  <S**2>=0.000
       8 -> 13         0.51471
       8 -> 15        -0.17116
      10 -> 16         0.23532
      10 -> 18        -0.18812
      10 -> 19        -0.21341
      11 -> 23        -0.17399

 Excited State  34:      Singlet-A'    14.0791 eV   88.06 nm  f=0.1073  <S**2>=0.000
       8 -> 16        -0.11693
       9 -> 17         0.10474
      10 -> 18         0.51305
      10 -> 21         0.19829
      11 -> 23        -0.32948

 Excited State  35:      Singlet-A'    14.2491 eV   87.01 nm  f=0.0017  <S**2>=0.000
       7 -> 13         0.25546
       8 -> 13         0.13929
      10 -> 16         0.16142
      10 -> 18         0.22965
      11 -> 23         0.52501
      12 -> 27        -0.10406

 Excited State  36:      Singlet-A"    14.2969 eV   86.72 nm  f=0.0262  <S**2>=0.000
       9 -> 16         0.22581
      11 -> 21         0.10809
      11 -> 24         0.60522
      11 -> 27         0.12032

 Excited State  37:      Singlet-A'    14.3825 eV   86.20 nm  f=0.0768  <S**2>=0.000
       8 -> 13         0.24914
       8 -> 15         0.22298
      10 -> 18         0.14643
      10 -> 19         0.45967
      10 -> 21        -0.31923

 Excited State  38:      Singlet-A'    14.6313 eV   84.74 nm  f=0.0193  <S**2>=0.000
       7 -> 13         0.52795
       9 -> 17        -0.27279
      10 -> 21        -0.12526
      11 -> 23        -0.12754
      12 -> 25         0.23205

 Excited State  39:      Singlet-A'    14.7600 eV   84.00 nm  f=0.0946  <S**2>=0.000
       8 -> 15         0.12002
       8 -> 16         0.12504
      10 -> 16         0.10716
      10 -> 18        -0.16344
      10 -> 19         0.29063
      10 -> 21         0.44843
      12 -> 25         0.30718

 Excited State  40:      Singlet-A'    14.7721 eV   83.93 nm  f=0.0194  <S**2>=0.000
       7 -> 13        -0.18037
       7 -> 15         0.12209
       8 -> 15         0.16719
       8 -> 16        -0.11327
       9 -> 17        -0.20003
      10 -> 18         0.11591
      10 -> 19        -0.25928
      10 -> 22        -0.10256
      12 -> 25         0.45839
      12 -> 27        -0.11417

 Excited State  41:      Singlet-A"    14.8152 eV   83.69 nm  f=0.0175  <S**2>=0.000
       8 -> 17         0.26693
       9 -> 16         0.17609
      10 -> 20         0.60852

 Excited State  42:      Singlet-A'    14.8333 eV   83.58 nm  f=0.0716  <S**2>=0.000
       8 -> 15         0.56014
       9 -> 17        -0.10261
      10 -> 18        -0.17082
      10 -> 19        -0.16940
      12 -> 25        -0.23771

 Excited State  43:      Singlet-A"    14.8608 eV   83.43 nm  f=0.0158  <S**2>=0.000
       9 -> 16         0.60771
      10 -> 20        -0.17779
      11 -> 24        -0.23077

 Excited State  44:      Singlet-A'    15.0094 eV   82.60 nm  f=0.0296  <S**2>=0.000
       7 -> 15        -0.21650
       8 -> 15         0.14640
       9 -> 17         0.53252
      10 -> 16        -0.10302
      10 -> 21        -0.23229
      12 -> 25         0.21676

 Excited State  45:      Singlet-A"    15.3091 eV   80.99 nm  f=0.0488  <S**2>=0.000
       6 -> 14         0.13395
       9 -> 18        -0.35258
       9 -> 19         0.13003
       9 -> 21        -0.30519
       9 -> 22        -0.10472
      11 -> 22         0.10036
      11 -> 25         0.38232
      11 -> 27         0.12134

 Excited State  46:      Singlet-A'    15.4146 eV   80.43 nm  f=0.0577  <S**2>=0.000
       7 -> 13         0.18869
       7 -> 15         0.62156
       9 -> 17         0.18733

 Excited State  47:      Singlet-A"    15.5093 eV   79.94 nm  f=0.0091  <S**2>=0.000
      10 -> 23        -0.16518
      12 -> 26         0.66959

 Excited State  48:      Singlet-A'    15.5423 eV   79.77 nm  f=0.1554  <S**2>=0.000
       8 -> 15         0.10935
       8 -> 16         0.16009
      10 -> 19        -0.13532
      10 -> 21        -0.10338
      10 -> 22         0.27175
      11 -> 23         0.11756
      12 -> 27         0.51021

 Excited State  49:      Singlet-A"    15.5540 eV   79.71 nm  f=0.0194  <S**2>=0.000
       9 -> 18         0.34678
       9 -> 19         0.10640
       9 -> 21         0.10705
      11 -> 24         0.13559
      11 -> 25         0.51976
      11 -> 27        -0.13410
      11 -> 28         0.10333

 Excited State  50:      Singlet-A'    15.6776 eV   79.08 nm  f=0.0211  <S**2>=0.000
       8 -> 16         0.13141
       8 -> 18        -0.18149
      10 -> 22         0.51978
      12 -> 27        -0.32937

 Excited State  51:      Singlet-A"    15.7749 eV   78.60 nm  f=0.0399  <S**2>=0.000
       9 -> 19         0.44139
       9 -> 21        -0.23581
      11 -> 25        -0.20100
      11 -> 27        -0.36025
      11 -> 28         0.15779

 Excited State  52:      Singlet-A"    15.8932 eV   78.01 nm  f=0.0003  <S**2>=0.000
       9 -> 18         0.36127
       9 -> 19         0.29818
       9 -> 21        -0.15827
       9 -> 22         0.10484
      11 -> 22        -0.10527
      11 -> 27         0.35261
      11 -> 28        -0.14938
      11 -> 32         0.17745

 Excited State  53:      Singlet-A'    15.9499 eV   77.73 nm  f=0.0131  <S**2>=0.000
       8 -> 16         0.57689
       8 -> 21        -0.14562
      10 -> 18         0.15051
      10 -> 22        -0.22731
      10 -> 24        -0.11600

 Excited State  54:      Singlet-A"    15.9683 eV   77.64 nm  f=0.0001  <S**2>=0.000
       8 -> 17         0.63099
      10 -> 20        -0.27278

 Excited State  55:      Singlet-A"    16.1766 eV   76.64 nm  f=0.0015  <S**2>=0.000
       7 -> 17         0.27203
      10 -> 23         0.59848
      12 -> 26         0.17200

 Excited State  56:      Singlet-A'    16.1961 eV   76.55 nm  f=0.0021  <S**2>=0.000
       7 -> 16         0.10811
       9 -> 20         0.20108
      11 -> 26         0.11521
      12 -> 27         0.12889
      12 -> 28         0.55621
      12 -> 30        -0.17564
      12 -> 32        -0.14271
      12 -> 35         0.10135

 Excited State  57:      Singlet-A"    16.2431 eV   76.33 nm  f=0.0554  <S**2>=0.000
       6 -> 14        -0.15239
       9 -> 18        -0.24458
       9 -> 19         0.39415
       9 -> 21         0.46006
      11 -> 27         0.11496

 Excited State  58:      Singlet-A'    16.4532 eV   75.36 nm  f=0.0222  <S**2>=0.000
       9 -> 20         0.33190
      11 -> 26         0.55306
      12 -> 28        -0.15339
      12 -> 30         0.12079

 Excited State  59:      Singlet-A'    16.5101 eV   75.10 nm  f=0.0377  <S**2>=0.000
       8 -> 21         0.10719
       9 -> 20         0.54262
      10 -> 24         0.20542
      11 -> 26        -0.33362

 Excited State  60:      Singlet-A"    16.5293 eV   75.01 nm  f=0.0109  <S**2>=0.000
       6 -> 14        -0.10409
       7 -> 17         0.62630
      10 -> 23        -0.27912

 Excited State  61:      Singlet-A'    16.5914 eV   74.73 nm  f=0.0490  <S**2>=0.000
       7 -> 16         0.43985
       7 -> 18        -0.10309
       7 -> 21        -0.12622
      10 -> 24        -0.41939
      11 -> 26        -0.17775
      12 -> 28        -0.11149

 Excited State  62:      Singlet-A'    16.6862 eV   74.30 nm  f=0.0211  <S**2>=0.000
       7 -> 16         0.43660
       8 -> 19         0.28526
       9 -> 20        -0.10250
      10 -> 24         0.36347
      10 -> 27         0.11708

 Excited State  63:      Singlet-A'    16.8119 eV   73.75 nm  f=0.0163  <S**2>=0.000
       8 -> 16         0.13107
       8 -> 18         0.52611
       8 -> 21         0.27163
      10 -> 22         0.14726
      12 -> 30        -0.15420

 Excited State  64:      Singlet-A'    16.9348 eV   73.21 nm  f=0.0839  <S**2>=0.000
       7 -> 16        -0.22178
       7 -> 18        -0.18122
       7 -> 19         0.13333
       7 -> 21        -0.20239
       8 -> 18         0.11123
       8 -> 19         0.42774
       8 -> 21        -0.23358
      10 -> 25        -0.10761
      12 -> 32        -0.12531

 Excited State  65:      Singlet-A"    16.9757 eV   73.04 nm  f=0.0155  <S**2>=0.000
       9 -> 18        -0.12126
       9 -> 22         0.52204
      11 -> 27        -0.18640
      11 -> 28        -0.34420

 Excited State  66:      Singlet-A'    16.9951 eV   72.95 nm  f=0.0087  <S**2>=0.000
       8 -> 18        -0.19915
       8 -> 21         0.18677
      12 -> 28        -0.12935
      12 -> 29         0.57650
      12 -> 30        -0.16666

 Excited State  67:      Singlet-A"    17.1154 eV   72.44 nm  f=0.0241  <S**2>=0.000
       6 -> 14        -0.41188
       8 -> 20         0.14990
       9 -> 21        -0.12253
       9 -> 22        -0.18391
      12 -> 31         0.45313

 Excited State  68:      Singlet-A'    17.1703 eV   72.21 nm  f=0.0282  <S**2>=0.000
       8 -> 18        -0.26329
       8 -> 19         0.27622
       8 -> 21         0.38600
      12 -> 29        -0.31643
      12 -> 30        -0.23442

 Excited State  69:      Singlet-A'    17.3406 eV   71.50 nm  f=0.0060  <S**2>=0.000
       7 -> 18         0.32263
       7 -> 21         0.26937
       8 -> 16        -0.10560
       8 -> 21        -0.27038
      12 -> 27         0.10599
      12 -> 28        -0.22058
      12 -> 29        -0.10200
      12 -> 30        -0.27276
      12 -> 32        -0.17001

 Excited State  70:      Singlet-A"    17.3419 eV   71.49 nm  f=0.0222  <S**2>=0.000
       6 -> 14        -0.12426
       8 -> 20         0.18912
       9 -> 22         0.33089
      11 -> 27         0.20836
      11 -> 28         0.48699

 Excited State  71:      Singlet-A'    17.3596 eV   71.42 nm  f=0.0382  <S**2>=0.000
       7 -> 18         0.31203
       7 -> 21         0.17409
       8 -> 19         0.31099
       9 -> 23        -0.14172
      10 -> 24        -0.18276
      12 -> 28         0.12679
      12 -> 29         0.10531
      12 -> 30         0.35854

 Excited State  72:      Singlet-A"    17.4296 eV   71.13 nm  f=0.0017  <S**2>=0.000
       8 -> 20         0.63732
      11 -> 28        -0.11715
      12 -> 31        -0.19757

 Excited State  73:      Singlet-A"    17.5127 eV   70.80 nm  f=0.1596  <S**2>=0.000
       6 -> 14         0.38070
       9 -> 21         0.19819
       9 -> 24         0.19852
      11 -> 30         0.15133
      12 -> 31         0.43406

 Excited State  74:      Singlet-A'    17.6561 eV   70.22 nm  f=0.0105  <S**2>=0.000
       7 -> 18        -0.15071
       8 -> 19         0.12285
       8 -> 22         0.13620
       9 -> 23         0.36344
      10 -> 25         0.47282
      12 -> 32         0.13042

 Excited State  75:      Singlet-A"    17.7134 eV   69.99 nm  f=0.0847  <S**2>=0.000
       6 -> 14        -0.23170
       9 -> 24         0.28861
      11 -> 27        -0.18860
      11 -> 30         0.43634
      11 -> 32         0.22386
      12 -> 31        -0.17335

 Excited State  76:      Singlet-A'    17.7276 eV   69.94 nm  f=0.0024  <S**2>=0.000
       7 -> 18         0.28540
       7 -> 19         0.50010
       7 -> 21        -0.29672
      10 -> 25         0.12934

 Excited State  77:      Singlet-A'    17.8378 eV   69.51 nm  f=0.0949  <S**2>=0.000
       7 -> 18         0.11328
       9 -> 23         0.51899
      10 -> 24        -0.12328
      10 -> 25        -0.38305

 Excited State  78:      Singlet-A'    17.9661 eV   69.01 nm  f=0.0057  <S**2>=0.000
       7 -> 18         0.10919
       7 -> 19        -0.21388
       7 -> 21        -0.23129
       8 -> 22         0.21217
      10 -> 25        -0.16754
      10 -> 27        -0.21895
      10 -> 28         0.15019
      12 -> 30        -0.22107
      12 -> 32         0.34935

 Excited State  79:      Singlet-A"    18.0382 eV   68.73 nm  f=0.0000  <S**2>=0.000
       9 -> 24         0.12752
      11 -> 29         0.65384
      11 -> 30        -0.13413

 Excited State  80:      Singlet-A'    18.0690 eV   68.62 nm  f=0.0083  <S**2>=0.000
       7 -> 16         0.11695
       7 -> 18        -0.26391
       7 -> 19         0.36291
       7 -> 21         0.35536
      10 -> 25        -0.12967
      10 -> 27        -0.23404
      10 -> 28         0.10361
      12 -> 32         0.13532
      12 -> 33        -0.11273

 Excited State  81:      Singlet-A"    18.1055 eV   68.48 nm  f=0.0131  <S**2>=0.000
       9 -> 24         0.50802
      11 -> 28        -0.17130
      11 -> 29        -0.13969
      11 -> 30        -0.19006
      11 -> 32        -0.32148

 Excited State  82:      Singlet-A'    18.2185 eV   68.05 nm  f=0.0754  <S**2>=0.000
       6 -> 13        -0.19502
       8 -> 22         0.19635
       9 -> 23        -0.14485
      10 -> 24        -0.11347
      10 -> 27         0.39088
      10 -> 32         0.13650
      11 -> 31        -0.28984
      12 -> 30        -0.10275
      12 -> 32         0.21800

 Excited State  83:      Singlet-A"    18.2457 eV   67.95 nm  f=0.0009  <S**2>=0.000
       7 -> 20         0.67950

 Excited State  84:      Singlet-A'    18.3518 eV   67.56 nm  f=0.0868  <S**2>=0.000
       8 -> 22         0.57764
      11 -> 31         0.13256
      12 -> 30         0.11771
      12 -> 32        -0.26772

 Excited State  85:      Singlet-A"    18.3648 eV   67.51 nm  f=0.0021  <S**2>=0.000
       9 -> 24        -0.10845
      11 -> 27         0.18731
      11 -> 29         0.13895
      11 -> 30         0.44185
      11 -> 32        -0.41380
      11 -> 33         0.17501

 Excited State  86:      Singlet-A'    18.4251 eV   67.29 nm  f=0.1512  <S**2>=0.000
       6 -> 13        -0.37944
      11 -> 31         0.53127
      12 -> 32         0.13014

 Excited State  87:      Singlet-A"    18.5186 eV   66.95 nm  f=0.1464  <S**2>=0.000
       7 -> 20        -0.10349
       7 -> 23         0.14390
       8 -> 23         0.16184
      10 -> 26         0.63370

 Excited State  88:      Singlet-A'    18.6273 eV   66.56 nm  f=0.0203  <S**2>=0.000
       6 -> 13         0.40839
       7 -> 22         0.23532
      10 -> 27         0.17866
      11 -> 31         0.17919
      12 -> 32         0.18541
      12 -> 33         0.27289

 Excited State  89:      Singlet-A'    18.7894 eV   65.99 nm  f=0.0438  <S**2>=0.000
       6 -> 13        -0.21318
       8 -> 24         0.27280
      10 -> 27        -0.10210
      11 -> 31        -0.16821
      12 -> 33         0.51495

 Excited State  90:      Singlet-A"    18.8849 eV   65.65 nm  f=0.0065  <S**2>=0.000
       7 -> 23        -0.19439

 The electronic state is 1-A'.
 Alpha  occ. eigenvalues --  -19.70379 -19.65146 -10.70669  -1.24340  -1.14881
 Alpha  occ. eigenvalues --   -0.76305  -0.61615  -0.58802  -0.54906  -0.49695
 Alpha  occ. eigenvalues --   -0.41743  -0.38033
 Alpha virt. eigenvalues --    0.02822   0.03061   0.05100   0.09280   0.09624
 Alpha virt. eigenvalues --    0.12750   0.13115   0.14799   0.15572   0.18174
 Alpha virt. eigenvalues --    0.22462   0.23235   0.26587   0.29456   0.30923

 Mulliken charges:
               1
     1  O   -0.283710
     2  C    0.678823
     3  O   -0.370781
     4  H    0.185283
     5  H   -0.209615
 Sum of Mulliken charges =  -0.00000

 Dipole moment (field-independent basis, Debye):
    X=             -1.5297    Y=             -0.2576    Z=             -0.0000  Tot=              1.5512
 Quadrupole moment (field-independent basis, Debye-Ang):
   XX=            -22.3712   YY=            -12.8673   ZZ=            -17.1881
   XY=             -0.0646   XZ=              0.0000   YZ=             -0.0000

 Normal termination of Gaussian 16 at Mon Mar 21 20:04:37 2022.
