 Gaussian 16, Revision C.01,
 Gaussian 16:  EM64L-G16RevC.01  3-Jul-2019

 ---------------------------------------------------------------------
 #P TD(Nstates=10000) m062x/Gen SCF(maxcycles=100) Int(Grid=ultrafine)
 ---------------------------------------------------------------------

 ---------------------
 xGDB7_00001_tier4.com
 ---------------------
 Symbolic Z-matrix:
 Charge =  0 Multiplicity = 1

                         Standard orientation:
 ---------------------------------------------------------------------
 Center     Atomic      Atomic             Coordinates (Angstroms)
 Number     Number       Type             X           Y           Z
 ---------------------------------------------------------------------
      1          7           0       -0.000002   -0.000000   -0.110463
      2          1           0       -0.147185    0.930214    0.257758
      3          1           0       -0.731998   -0.592574    0.257757
      4          1           0        0.879196   -0.337638    0.257728
 ---------------------------------------------------------------------

 SCF Done:  E(RM062X) =  -56.4859430181     A.U. after   11 cycles

 Excitation energies and oscillator strengths:

 Excited State   1:      Singlet-A      7.1518 eV  173.36 nm  f=0.0746  <S**2>=0.000
       5 ->  6         0.70066
 This state for optimization and/or second-order correction.
 Total Energy, E(TD-HF/TD-DFT) =  -56.2231178516
 Copying the excited state density for this state as the 1-particle RhoCI density.

 Excited State   2:      Singlet-A      9.1092 eV  136.11 nm  f=0.0140  <S**2>=0.000
       5 ->  7         0.66083
       5 ->  8        -0.19828
       5 -> 17        -0.11692

 Excited State   3:      Singlet-A      9.1094 eV  136.11 nm  f=0.0140  <S**2>=0.000
       5 ->  7         0.19828
       5 ->  8         0.66084
       5 -> 18        -0.11691

 Excited State   4:      Singlet-A     10.7697 eV  115.12 nm  f=0.0006  <S**2>=0.000
       5 ->  9         0.69311

 Excited State   5:      Singlet-A     10.7697 eV  115.12 nm  f=0.0006  <S**2>=0.000
       5 -> 10         0.69311

 Excited State   6:      Singlet-A     11.7013 eV  105.96 nm  f=0.0208  <S**2>=0.000
       3 ->  7         0.10204
       4 ->  8        -0.10205
       5 -> 11         0.68387

 Excited State   7:      Singlet-A     12.3678 eV  100.25 nm  f=0.0619  <S**2>=0.000
       4 ->  6         0.64595
       5 -> 12         0.16600
       5 -> 13        -0.19941

 Excited State   8:      Singlet-A     12.3678 eV  100.25 nm  f=0.0619  <S**2>=0.000
       3 ->  6         0.64593
       5 -> 12        -0.19946
       5 -> 13        -0.16601

 Excited State   9:      Singlet-A     12.6661 eV   97.89 nm  f=0.2148  <S**2>=0.000
       3 ->  6         0.13341
       4 ->  6        -0.22439
       5 -> 12         0.63011
       5 -> 13        -0.14597

 Excited State  10:      Singlet-A     12.6662 eV   97.89 nm  f=0.2148  <S**2>=0.000
       3 ->  6         0.22441
       4 ->  6         0.13336
       5 -> 12         0.14595
       5 -> 13         0.63012

 Excited State  11:      Singlet-A     12.7817 eV   97.00 nm  f=0.2006  <S**2>=0.000
       5 -> 14         0.68414

 Excited State  12:      Singlet-A     14.2705 eV   86.88 nm  f=0.0000  <S**2>=0.000
       3 ->  7        -0.21538
       3 ->  8         0.43913
       4 ->  7         0.43922
       4 ->  8         0.21541

 Excited State  13:      Singlet-A     14.5799 eV   85.04 nm  f=0.0658  <S**2>=0.000
       3 ->  8         0.48371
       4 ->  7        -0.48364

 Excited State  14:      Singlet-A     14.5800 eV   85.04 nm  f=0.0658  <S**2>=0.000
       3 ->  7         0.48368
       4 ->  8         0.48367

 Excited State  15:      Singlet-A     15.8191 eV   78.38 nm  f=0.0149  <S**2>=0.000
       5 -> 15         0.67038

 Excited State  16:      Singlet-A     15.8629 eV   78.16 nm  f=0.0000  <S**2>=0.000
       3 ->  9        -0.37192
       3 -> 10         0.32190
       4 ->  9         0.32193
       4 -> 10         0.37195

 Excited State  17:      Singlet-A     16.1306 eV   76.86 nm  f=0.0000  <S**2>=0.000
       5 -> 16         0.70655

 Excited State  18:      Singlet-A     16.1454 eV   76.79 nm  f=0.0098  <S**2>=0.000
       3 ->  9         0.16597
       3 -> 10        -0.12489
       3 -> 11         0.21965
       4 ->  9         0.12559
       4 -> 10         0.16530
       4 -> 11         0.46881
       5 -> 17        -0.30683
       5 -> 18         0.15726

 Excited State  19:      Singlet-A     16.1454 eV   76.79 nm  f=0.0098  <S**2>=0.000
       3 ->  9        -0.12506
       3 -> 10        -0.16548
       3 -> 11         0.46877
       4 ->  9         0.16582
       4 -> 10        -0.12536
       4 -> 11        -0.21972
       5 -> 17        -0.15733
       5 -> 18        -0.30682

 Excited State  20:      Singlet-A     16.1510 eV   76.77 nm  f=0.0579  <S**2>=0.000
       3 ->  7         0.28287
       3 ->  8         0.13871
       3 ->  9        -0.22272
       3 -> 10        -0.25777
       4 ->  7         0.13875
       4 ->  8        -0.28286
       4 ->  9        -0.25726
       4 -> 10         0.22304
       5 -> 11        -0.12293
       5 -> 15         0.18945

 Excited State  21:      Singlet-A     16.3426 eV   75.87 nm  f=0.0210  <S**2>=0.000
       3 ->  7         0.29873
       3 ->  8         0.14652
       3 ->  9         0.23284
       3 -> 10         0.26907
       4 ->  7         0.14651
       4 ->  8        -0.29872
       4 ->  9         0.26907
       4 -> 10        -0.23293

 Excited State  22:      Singlet-A     16.3802 eV   75.69 nm  f=0.1059  <S**2>=0.000
       3 -> 10         0.13562
       3 -> 11         0.30753
       4 ->  9        -0.13570
       4 -> 11         0.32798
       5 -> 17         0.46731

 Excited State  23:      Singlet-A     16.3803 eV   75.69 nm  f=0.1059  <S**2>=0.000
       3 ->  9         0.13582
       3 -> 11         0.32801
       4 -> 10         0.13572
       4 -> 11        -0.30746
       5 -> 18         0.46727

 Excited State  24:      Singlet-A     16.7392 eV   74.07 nm  f=0.2822  <S**2>=0.000
       3 ->  9         0.25439
       3 -> 10        -0.31505
       4 ->  9         0.31501
       4 -> 10         0.25440
       4 -> 14         0.12229
       5 -> 17         0.34776

 Excited State  25:      Singlet-A     16.7392 eV   74.07 nm  f=0.2822  <S**2>=0.000
       3 ->  9        -0.31502
       3 -> 10        -0.25439
       3 -> 14         0.12229
       4 ->  9         0.25436
       4 -> 10        -0.31498
       5 -> 18         0.34785

 Excited State  26:      Singlet-A     17.7483 eV   69.86 nm  f=0.0038  <S**2>=0.000
       3 -> 12        -0.31822
       3 -> 13         0.35300
       4 -> 12         0.35321
       4 -> 13         0.31838
       4 -> 14         0.17472

 Excited State  27:      Singlet-A     17.7483 eV   69.86 nm  f=0.0038  <S**2>=0.000
       3 -> 12         0.35311
       3 -> 13         0.31823
       3 -> 14        -0.17468
       4 -> 12         0.31837
       4 -> 13        -0.35311

 Excited State  28:      Singlet-A     17.8412 eV   69.49 nm  f=0.0000  <S**2>=0.000
       3 -> 12         0.35664
       3 -> 13        -0.34172
       4 -> 12         0.34147
       4 -> 13         0.35654

 Excited State  29:      Singlet-A     17.9929 eV   68.91 nm  f=0.2658  <S**2>=0.000
       3 -> 12        -0.33878
       3 -> 13        -0.35357
       4 -> 12         0.35372
       4 -> 13        -0.33876

 Excited State  30:      Singlet-A     18.0039 eV   68.87 nm  f=0.1082  <S**2>=0.000
       3 -> 13        -0.11223
       3 -> 14         0.12074
       4 -> 11         0.13296
       4 -> 12        -0.11167
       4 -> 14         0.63511

 Excited State  31:      Singlet-A     18.0040 eV   68.86 nm  f=0.1082  <S**2>=0.000
       3 -> 11         0.13296
       3 -> 12         0.11211
       3 -> 14         0.63512
       4 -> 13        -0.11174
       4 -> 14        -0.12075

 Excited State  32:      Singlet-A     19.1426 eV   64.77 nm  f=0.0750  <S**2>=0.000
       5 -> 19        -0.15342
       5 -> 20         0.67163

 Excited State  33:      Singlet-A     19.1426 eV   64.77 nm  f=0.0750  <S**2>=0.000
       5 -> 19         0.67163
       5 -> 20         0.15342

 Excited State  34:      Singlet-A     20.9364 eV   59.22 nm  f=0.0085  <S**2>=0.000
       4 -> 15         0.62971
       5 -> 22        -0.18952
       5 -> 23         0.23027

 Excited State  35:      Singlet-A     20.9364 eV   59.22 nm  f=0.0085  <S**2>=0.000
       3 -> 15         0.62967
       5 -> 22         0.23036
       5 -> 23         0.18953

 Excited State  36:      Singlet-A     21.1842 eV   58.53 nm  f=0.1200  <S**2>=0.000
       3 -> 15        -0.11080
       4 -> 15         0.28235
       5 -> 22         0.54531
       5 -> 23        -0.27648

 Excited State  37:      Singlet-A     21.1842 eV   58.53 nm  f=0.1200  <S**2>=0.000
       3 -> 15        -0.28240
       4 -> 15        -0.11072
       5 -> 22         0.27644
       5 -> 23         0.54532

 Excited State  38:      Singlet-A     21.4020 eV   57.93 nm  f=0.0017  <S**2>=0.000
       4 -> 16         0.70367

 Excited State  39:      Singlet-A     21.4021 eV   57.93 nm  f=0.0017  <S**2>=0.000
       3 -> 16         0.70367

 Excited State  40:      Singlet-A     21.4410 eV   57.83 nm  f=0.2846  <S**2>=0.000
       5 -> 21         0.66549

 Excited State  41:      Singlet-A     21.6200 eV   57.35 nm  f=0.0000  <S**2>=0.000
       3 -> 17        -0.29763
       3 -> 18         0.38439
       4 -> 17         0.38443
       4 -> 18         0.29765

 Excited State  42:      Singlet-A     22.2341 eV   55.76 nm  f=0.1492  <S**2>=0.000
       3 -> 18         0.47441
       4 -> 17        -0.47438
       5 -> 23        -0.11846

 Excited State  43:      Singlet-A     22.2341 eV   55.76 nm  f=0.1492  <S**2>=0.000
       3 -> 17         0.47440
       4 -> 18         0.47440
       5 -> 22        -0.11844

 Excited State  44:      Singlet-A     23.1048 eV   53.66 nm  f=0.0619  <S**2>=0.000
       2 ->  6         0.46056
       3 -> 17         0.27678
       3 -> 18         0.21431
       4 -> 17         0.21428
       4 -> 18        -0.27676
       5 -> 21        -0.15153

 Excited State  45:      Singlet-A     24.3073 eV   51.01 nm  f=0.0000  <S**2>=0.000
       3 -> 19         0.30431
       3 -> 20         0.39094
       4 -> 19         0.39102
       4 -> 20        -0.30436

 Excited State  46:      Singlet-A     24.4173 eV   50.78 nm  f=0.1082  <S**2>=0.000
       2 ->  6         0.48134
       3 -> 17        -0.21429
       3 -> 18        -0.16593
       3 -> 19        -0.15259
       3 -> 20         0.11880
       4 -> 17        -0.16591
       4 -> 18         0.21429
       4 -> 19         0.11880
       4 -> 20         0.15269
       5 -> 27         0.10025

 Excited State  47:      Singlet-A     24.5841 eV   50.43 nm  f=0.0491  <S**2>=0.000
       3 -> 19        -0.28630
       3 -> 20         0.39152
       4 -> 19        -0.39151
       4 -> 20        -0.28635

 Excited State  48:      Singlet-A     24.5841 eV   50.43 nm  f=0.0491  <S**2>=0.000
       3 -> 19         0.39155
       3 -> 20         0.28635
       4 -> 19        -0.28630
       4 -> 20         0.39148

 Excited State  49:      Singlet-A     24.9413 eV   49.71 nm  f=0.0344  <S**2>=0.000
       2 ->  6         0.20370
       3 -> 17        -0.10712
       3 -> 19         0.35597
       3 -> 20        -0.27709
       4 -> 18         0.10711
       4 -> 19        -0.27705
       4 -> 20        -0.35593

 Excited State  50:      Singlet-A     25.6452 eV   48.35 nm  f=0.0369  <S**2>=0.000
       2 ->  7         0.63023
       2 ->  8        -0.22496
       4 -> 21         0.10036

 Excited State  51:      Singlet-A     25.6452 eV   48.35 nm  f=0.0369  <S**2>=0.000
       2 ->  7         0.22496
       2 ->  8         0.63023
       3 -> 21         0.10036

 Excited State  52:      Singlet-A     25.9471 eV   47.78 nm  f=0.0002  <S**2>=0.000
       3 -> 23         0.18294
       4 -> 21         0.64394
       4 -> 22         0.18298

 Excited State  53:      Singlet-A     25.9471 eV   47.78 nm  f=0.0002  <S**2>=0.000
       3 -> 21         0.64394
       3 -> 22        -0.18296
       4 -> 23         0.18297

 Excited State  54:      Singlet-A     26.2144 eV   47.30 nm  f=0.0000  <S**2>=0.000
       3 -> 22         0.33082
       3 -> 23        -0.37131
       4 -> 22         0.37132
       4 -> 23         0.33082

 Excited State  55:      Singlet-A     26.9303 eV   46.04 nm  f=0.3643  <S**2>=0.000
       2 -> 11        -0.20005
       3 -> 22         0.33988
       3 -> 23         0.30282
       4 -> 22        -0.30286
       4 -> 23         0.33994
       5 -> 24         0.10415

 Excited State  56:      Singlet-A     27.1273 eV   45.70 nm  f=0.2378  <S**2>=0.000
       2 ->  9         0.48220
       3 -> 22         0.24321
       3 -> 23        -0.21372
       4 -> 21         0.10639
       4 -> 22        -0.21372
       4 -> 23        -0.24318

 Excited State  57:      Singlet-A     27.1273 eV   45.70 nm  f=0.2378  <S**2>=0.000
       2 -> 10         0.48221
       3 -> 21         0.10638
       3 -> 22         0.21374
       3 -> 23         0.24322
       4 -> 22         0.24315
       4 -> 23        -0.21369

 Excited State  58:      Singlet-A     27.3246 eV   45.37 nm  f=0.0003  <S**2>=0.000
       2 -> 11         0.42726
       5 -> 24         0.55048

 Excited State  59:      Singlet-A     27.3585 eV   45.32 nm  f=0.1450  <S**2>=0.000
       2 ->  7         0.12789
       2 ->  9         0.49357
       3 -> 22        -0.19509
       3 -> 23         0.21204
       4 -> 21        -0.15916
       4 -> 22         0.21202
       4 -> 23         0.19509

 Excited State  60:      Singlet-A     27.3585 eV   45.32 nm  f=0.1450  <S**2>=0.000
       2 ->  8         0.12789
       2 -> 10         0.49356
       3 -> 21        -0.15916
       3 -> 22        -0.21203
       3 -> 23        -0.19511
       4 -> 22        -0.19509
       4 -> 23         0.21203

 Excited State  61:      Singlet-A     27.7838 eV   44.62 nm  f=0.0257  <S**2>=0.000
       2 -> 11         0.51986
       3 -> 22         0.10316
       4 -> 23         0.10313
       5 -> 24        -0.41125

 Excited State  62:      Singlet-A     28.9290 eV   42.86 nm  f=0.0083  <S**2>=0.000
       2 -> 12         0.69606

 Excited State  63:      Singlet-A     28.9290 eV   42.86 nm  f=0.0083  <S**2>=0.000
       2 -> 13         0.69606

 Excited State  64:      Singlet-A     29.2945 eV   42.32 nm  f=0.0115  <S**2>=0.000
       2 -> 14         0.68805

 Excited State  65:      Singlet-A     31.3194 eV   39.59 nm  f=0.0049  <S**2>=0.000
       5 -> 25         0.69344

 Excited State  66:      Singlet-A     31.3197 eV   39.59 nm  f=0.0049  <S**2>=0.000
       5 -> 26         0.69344

 Excited State  67:      Singlet-A     32.3524 eV   38.32 nm  f=0.0203  <S**2>=0.000
       2 -> 15         0.67368
       5 -> 27        -0.19813

 Excited State  68:      Singlet-A     32.4376 eV   38.22 nm  f=0.0000  <S**2>=0.000
       2 -> 16         0.70591

 Excited State  69:      Singlet-A     33.0010 eV   37.57 nm  f=0.0030  <S**2>=0.000
       2 -> 17         0.58190
       2 -> 18        -0.10349
       3 -> 24         0.23375
       4 -> 24         0.25812

 Excited State  70:      Singlet-A     33.0011 eV   37.57 nm  f=0.0030  <S**2>=0.000
       2 -> 17         0.10350
       2 -> 18         0.58186
       3 -> 24         0.25814
       4 -> 24        -0.23380

 Excited State  71:      Singlet-A     33.4435 eV   37.07 nm  f=0.1085  <S**2>=0.000
       2 -> 17        -0.33509
       2 -> 18         0.13448
       3 -> 24         0.30416
       4 -> 24         0.51869

 Excited State  72:      Singlet-A     33.4436 eV   37.07 nm  f=0.1085  <S**2>=0.000
       2 -> 17        -0.13446
       2 -> 18        -0.33513
       3 -> 24         0.51868
       4 -> 24        -0.30413

 Excited State  73:      Singlet-A     34.9358 eV   35.49 nm  f=0.0054  <S**2>=0.000
       2 -> 15         0.14944
       3 -> 25         0.18133
       3 -> 26         0.17271
       4 -> 25         0.17270
       4 -> 26        -0.18136
       5 -> 27         0.57345

 Excited State  74:      Singlet-A     35.5767 eV   34.85 nm  f=0.0007  <S**2>=0.000
       2 -> 19         0.69178
       2 -> 20         0.10435

 Excited State  75:      Singlet-A     35.5767 eV   34.85 nm  f=0.0007  <S**2>=0.000
       2 -> 19        -0.10435
       2 -> 20         0.69178

 Excited State  76:      Singlet-A     36.6833 eV   33.80 nm  f=0.0000  <S**2>=0.000
       3 -> 25        -0.34267
       3 -> 26         0.35978
       4 -> 25         0.35984
       4 -> 26         0.34266

 Excited State  77:      Singlet-A     37.1966 eV   33.33 nm  f=0.0288  <S**2>=0.000
       2 -> 21         0.70026

 Excited State  78:      Singlet-A     37.2549 eV   33.28 nm  f=0.0081  <S**2>=0.000
       2 -> 23         0.30126
       3 -> 26         0.41926
       4 -> 25        -0.41924
       5 -> 28        -0.11339

 Excited State  79:      Singlet-A     37.2550 eV   33.28 nm  f=0.0081  <S**2>=0.000
       2 -> 22         0.30135
       3 -> 25         0.41921
       4 -> 26         0.41922
       5 -> 29        -0.11339

 Excited State  80:      Singlet-A     37.5816 eV   32.99 nm  f=0.0286  <S**2>=0.000
       2 -> 23         0.61819
       3 -> 26        -0.20242
       4 -> 25         0.20242

 Excited State  81:      Singlet-A     37.5816 eV   32.99 nm  f=0.0286  <S**2>=0.000
       2 -> 22         0.61815
       3 -> 25        -0.20248
       4 -> 26        -0.20249

 Excited State  82:      Singlet-A     38.8962 eV   31.88 nm  f=0.0000  <S**2>=0.000
       3 -> 27         0.36130
       4 -> 27         0.57504
       5 -> 28         0.14176

 Excited State  83:      Singlet-A     38.8965 eV   31.88 nm  f=0.0000  <S**2>=0.000
       3 -> 27         0.57488
       4 -> 27        -0.36122
       5 -> 29         0.14243

 Excited State  84:      Singlet-A     39.0219 eV   31.77 nm  f=0.0752  <S**2>=0.000
       4 -> 27        -0.13957
       5 -> 28         0.62864
       5 -> 29        -0.22872

 Excited State  85:      Singlet-A     39.0220 eV   31.77 nm  f=0.0752  <S**2>=0.000
       3 -> 27        -0.14019
       5 -> 28         0.22868
       5 -> 29         0.62849

 Excited State  86:      Singlet-A     39.8995 eV   31.07 nm  f=0.0274  <S**2>=0.000
       2 -> 15         0.11085
       2 -> 24         0.13917
       3 -> 25        -0.29700
       3 -> 26        -0.28288
       3 -> 28         0.11332
       4 -> 25        -0.28283
       4 -> 26         0.29702
       4 -> 29        -0.11332
       5 -> 27         0.26576

 Excited State  87:      Singlet-A     42.6857 eV   29.05 nm  f=0.0328  <S**2>=0.000
       5 -> 30         0.69906

 Excited State  88:      Singlet-A     44.0451 eV   28.15 nm  f=0.0524  <S**2>=0.000
       2 -> 24         0.62406
       3 -> 28        -0.17142
       3 -> 29        -0.14151
       4 -> 28        -0.14152
       4 -> 29         0.17146

 Excited State  89:      Singlet-A     44.2117 eV   28.04 nm  f=0.0000  <S**2>=0.000
       3 -> 28        -0.31758
       3 -> 29         0.38467
       4 -> 28         0.38475
       4 -> 29         0.31754

 Excited State  90:      Singlet-A     44.7460 eV   27.71 nm  f=0.0280  <S**2>=0.000
       3 -> 29         0.49157
       4 -> 28        -0.49150

 Excited State  91:      Singlet-A     44.7461 eV   27.71 nm  f=0.0280  <S**2>=0.000
       3 -> 28         0.49153
       4 -> 29         0.49154

 Excited State  92:      Singlet-A     47.8256 eV   25.92 nm  f=0.0551  <S**2>=0.000
       2 -> 24         0.28124
       3 -> 28         0.31944
       3 -> 29         0.26369
       4 -> 28         0.26367
       4 -> 29        -0.31943
       5 -> 27        -0.17294

 Excited State  93:      Singlet-A     48.0139 eV   25.82 nm  f=0.0245  <S**2>=0.000
       2 -> 25         0.69543
       2 -> 26        -0.10086

 Excited State  94:      Singlet-A     48.0141 eV   25.82 nm  f=0.0245  <S**2>=0.000
       2 -> 25         0.10085
       2 -> 26         0.69542

 Excited State  95:      Singlet-A     48.1757 eV   25.74 nm  f=0.0001  <S**2>=0.000
       3 -> 30         0.11037
       4 -> 30         0.69410

 Excited State  96:      Singlet-A     48.1758 eV   25.74 nm  f=0.0001  <S**2>=0.000
       3 -> 30         0.69409
       4 -> 30        -0.11036

 Excited State  97:      Singlet-A     50.0188 eV   24.79 nm  f=0.0684  <S**2>=0.000
       2 -> 27         0.70484

 Excited State  98:      Singlet-A     51.4631 eV   24.09 nm  f=0.0000  <S**2>=0.000
       5 -> 31         0.70694

 Excited State  99:      Singlet-A     51.7500 eV   23.96 nm  f=0.0424  <S**2>=0.000
       5 -> 32         0.49396
       5 -> 33         0.49695

 Excited State 100:      Singlet-A     51.7501 eV   23.96 nm  f=0.0424  <S**2>=0.000
       5 -> 32         0.49695
       5 -> 33        -0.49396

 Excited State 101:      Singlet-A     55.5549 eV   22.32 nm  f=0.0663  <S**2>=0.000
       2 -> 28         0.66387
       2 -> 29        -0.21122

 Excited State 102:      Singlet-A     55.5551 eV   22.32 nm  f=0.0663  <S**2>=0.000
       2 -> 28         0.21122
       2 -> 29         0.66387

 Excited State 103:      Singlet-A     56.9241 eV   21.78 nm  f=0.0137  <S**2>=0.000
       3 -> 33        -0.12135
       4 -> 32         0.12135
       5 -> 34         0.66850

 Excited State 104:      Singlet-A     56.9762 eV   21.76 nm  f=0.0000  <S**2>=0.000
       3 -> 32         0.38603
       3 -> 33        -0.31662
       4 -> 32         0.31673
       4 -> 33         0.38607

 Excited State 105:      Singlet-A     57.1296 eV   21.70 nm  f=0.0154  <S**2>=0.000
       3 -> 31        -0.21051
       3 -> 32         0.12266
       4 -> 31         0.64652
       4 -> 33        -0.12250

 Excited State 106:      Singlet-A     57.1296 eV   21.70 nm  f=0.0154  <S**2>=0.000
       3 -> 31         0.64652
       3 -> 33         0.12257
       4 -> 31         0.21050
       4 -> 32         0.12264

 Excited State 107:      Singlet-A     57.2853 eV   21.64 nm  f=0.0724  <S**2>=0.000
       3 -> 31        -0.14170
       3 -> 32         0.12637
       3 -> 33         0.44976
       4 -> 31        -0.10849
       4 -> 32         0.44968
       4 -> 33        -0.12657
       5 -> 35         0.14216

 Excited State 108:      Singlet-A     57.2854 eV   21.64 nm  f=0.0725  <S**2>=0.000
       3 -> 31         0.10847

 The electronic state is 1-A.
 Alpha  occ. eigenvalues --  -14.73759  -0.94242  -0.53226  -0.53226  -0.33609
 Alpha virt. eigenvalues --    0.05589   0.13371   0.13371   0.19501   0.19501
 Alpha virt. eigenvalues --    0.21145   0.25412   0.25412   0.26304   0.37699
 Alpha virt. eigenvalues --    0.37715   0.42515   0.42515   0.50610   0.50610

 Mulliken charges:
               1
     1  N    0.018585
     2  H   -0.006193
     3  H   -0.006197
     4  H   -0.006195
 Sum of Mulliken charges =   0.00000

 Dipole moment (field-independent basis, Debye):
    X=              0.0000    Y=              0.0000    Z=              1.5300  Tot=              1.5300
 Quadrupole moment (field-independent basis, Debye-Ang):
   XX=             -6.3074   YY=             -6.3074   ZZ=             -9.2029
   XY=              0.0000   XZ=             -0.0001   YZ=              0.0000

 Normal termination of Gaussian 16 at Mon Mar 21 20:12:58 2022.
