 Gaussian 16, Revision C.01,
 Gaussian 16:  EM64L-G16RevC.01  3-Jul-2019

 ----------------------------------------------------------------------
 #P TD(Nstates=10000) wB97XD/Gen SCF(maxcycles=100) Int(Grid=ultrafine)
 ----------------------------------------------------------------------

 ---------------------
 xGDB7_00001_tier4.com
 ---------------------
 Symbolic Z-matrix:
 Charge =  0 Multiplicity = 1

                         Standard orientation:
 ---------------------------------------------------------------------
 Center     Atomic      Atomic             Coordinates (Angstroms)
 Number     Number       Type             X           Y           Z
 ---------------------------------------------------------------------
      1          6           0       -0.000001    0.000006    0.000000
      2          1           0       -0.991926    0.448073    0.033817
      3          1           0        0.066172   -0.671147   -0.854975
      4          1           0        0.176250   -0.561167    0.916416
      5          1           0        0.749514    0.784204   -0.095260
 ---------------------------------------------------------------------

 SCF Done:  E(RwB97XD) =  -40.5194645769     A.U. after    9 cycles

 Excitation energies and oscillator strengths:

 Excited State   1:      Singlet-A     10.3704 eV  119.56 nm  f=0.1393  <S**2>=0.000
       5 ->  6         0.69932
 This state for optimization and/or second-order correction.
 Total Energy, E(TD-HF/TD-DFT) =  -40.1383609800
 Copying the excited state density for this state as the 1-particle RhoCI density.

 Excited State   2:      Singlet-A     10.3705 eV  119.55 nm  f=0.1393  <S**2>=0.000
       4 ->  6         0.69926

 Excited State   3:      Singlet-A     10.3705 eV  119.55 nm  f=0.1393  <S**2>=0.000
       3 ->  6         0.69926

 Excited State   4:      Singlet-A     12.4878 eV   99.28 nm  f=0.0868  <S**2>=0.000
       3 ->  7         0.20829
       4 ->  9         0.40843
       5 ->  7         0.11037
       5 ->  8         0.44169
       5 ->  9         0.23444

 Excited State   5:      Singlet-A     12.4878 eV   99.28 nm  f=0.0868  <S**2>=0.000
       3 ->  7         0.44009
       4 ->  9        -0.26232
       5 ->  7        -0.14668
       5 ->  8        -0.13798
       5 ->  9         0.39497

 Excited State   6:      Singlet-A     12.4879 eV   99.28 nm  f=0.0868  <S**2>=0.000
       3 ->  8         0.46880
       4 ->  7        -0.43765
       4 ->  8         0.18776
       5 ->  9        -0.11561

 Excited State   7:      Singlet-A     12.6785 eV   97.79 nm  f=0.0000  <S**2>=0.000
       3 ->  9        -0.25088
       4 ->  9         0.37677
       4 -> 10        -0.12493
       5 ->  7        -0.34379
       5 ->  8        -0.29749
       5 ->  9         0.10063
       5 -> 12        -0.12341

 Excited State   8:      Singlet-A     12.6786 eV   97.79 nm  f=0.0000  <S**2>=0.000
       3 ->  8         0.12687
       3 ->  9         0.36165
       3 -> 10        -0.12229
       4 ->  9         0.24740
       5 ->  7         0.30909
       5 ->  8        -0.34305
       5 -> 11        -0.12093

 Excited State   9:      Singlet-A     12.6787 eV   97.79 nm  f=0.0000  <S**2>=0.000
       3 ->  7         0.10746
       3 ->  8         0.42791
       3 ->  9        -0.14565
       3 -> 11         0.13822
       4 ->  7         0.44277
       4 ->  8        -0.12610
       4 -> 12         0.14168

 Excited State  10:      Singlet-A     12.7217 eV   97.46 nm  f=0.0000  <S**2>=0.000
       3 ->  7         0.13083
       3 ->  9         0.31480
       4 ->  7         0.18728
       4 ->  8         0.36173
       5 ->  7        -0.29680
       5 ->  8         0.14385
       5 ->  9        -0.26218

 Excited State  11:      Singlet-A     12.7217 eV   97.46 nm  f=0.0000  <S**2>=0.000
       3 ->  7         0.22363
       3 ->  8        -0.13580
       3 ->  9        -0.35019
       4 ->  8         0.36337
       5 ->  7         0.33004
       5 ->  9        -0.13000

 Excited State  12:      Singlet-A     12.9315 eV   95.88 nm  f=0.0000  <S**2>=0.000
       3 -> 10        -0.13033
       4 ->  9         0.14465
       4 -> 10         0.43868
       5 ->  8        -0.12889
       5 -> 11         0.36654
       5 -> 12         0.27870
       5 -> 13        -0.11480

 Excited State  13:      Singlet-A     12.9315 eV   95.88 nm  f=0.0000  <S**2>=0.000
       3 ->  9         0.14410
       3 -> 10         0.43632
       4 -> 10         0.13053
       4 -> 14         0.12975
       5 ->  7         0.13249
       5 -> 11         0.27363
       5 -> 12        -0.36866

 Excited State  14:      Singlet-A     12.9316 eV   95.88 nm  f=0.0000  <S**2>=0.000
       3 ->  8        -0.14578
       3 -> 11         0.42777
       3 -> 12         0.16291
       3 -> 13         0.11342
       4 ->  7        -0.14912
       4 -> 11        -0.15951
       4 -> 12         0.43247

 Excited State  15:      Singlet-A     12.9899 eV   95.45 nm  f=0.0000  <S**2>=0.000
       3 -> 10         0.42507
       4 -> 11        -0.18322
       4 -> 12        -0.14589
       5 -> 10        -0.24904
       5 -> 11        -0.20326
       5 -> 12         0.34837

 Excited State  16:      Singlet-A     12.9900 eV   95.45 nm  f=0.0000  <S**2>=0.000
       3 -> 10         0.16896
       3 -> 11        -0.15694
       3 -> 12         0.27719
       4 ->  8         0.10335
       4 -> 11         0.46020
       4 -> 12         0.19525
       5 -> 10         0.18467
       5 -> 12         0.22917

 Excited State  17:      Singlet-A     13.0863 eV   94.74 nm  f=0.0000  <S**2>=0.000
       3 ->  7         0.24819
       3 -> 11        -0.10727
       3 -> 12         0.29293
       4 ->  8        -0.24304
       4 -> 11        -0.29103
       4 -> 12        -0.11027
       5 ->  9        -0.25049
       5 -> 10         0.30976

 Excited State  18:      Singlet-A     13.6263 eV   90.99 nm  f=0.1256  <S**2>=0.000
       3 -> 14        -0.16175
       4 -> 10         0.44265
       5 -> 10         0.16616
       5 -> 11        -0.42912
       5 -> 12        -0.15323

 Excited State  19:      Singlet-A     13.6263 eV   90.99 nm  f=0.1256  <S**2>=0.000
       3 -> 10         0.15488
       3 -> 11         0.20207
       3 -> 12        -0.38825
       4 -> 10        -0.13655
       4 -> 13         0.19110
       5 -> 10         0.42103
       5 -> 12         0.16822

 Excited State  20:      Singlet-A     13.6264 eV   90.99 nm  f=0.1256  <S**2>=0.000
       3 -> 11         0.40926
       3 -> 12         0.23781
       4 -> 11         0.22279
       4 -> 12        -0.40489
       5 -> 14        -0.17572

 Excited State  21:      Singlet-A     13.7929 eV   89.89 nm  f=0.0000  <S**2>=0.000
       3 ->  7        -0.29983
       3 -> 12         0.23821
       4 ->  8         0.29359
       4 -> 11        -0.23646
       5 ->  9         0.30264
       5 -> 10         0.25165

 Excited State  22:      Singlet-A     14.2148 eV   87.22 nm  f=0.0000  <S**2>=0.000
       3 -> 13        -0.14723
       3 -> 14        -0.29609
       5 -> 13         0.59238

 Excited State  23:      Singlet-A     14.2149 eV   87.22 nm  f=0.0000  <S**2>=0.000
       3 -> 13        -0.18703
       4 -> 13         0.17929
       4 -> 14         0.60087
       5 -> 14         0.20394

 Excited State  24:      Singlet-A     14.2149 eV   87.22 nm  f=0.0000  <S**2>=0.000
       3 -> 13         0.49851
       3 -> 14        -0.27769
       4 -> 13         0.11144
       4 -> 14         0.24412
       5 -> 14        -0.27381

 Excited State  25:      Singlet-A     14.3705 eV   86.28 nm  f=0.3959  <S**2>=0.000
       3 -> 11         0.12136
       3 -> 13         0.29300
       3 -> 14        -0.12057
       4 -> 12        -0.12053
       5 -> 14         0.56458

 Excited State  26:      Singlet-A     14.3706 eV   86.28 nm  f=0.3959  <S**2>=0.000
       3 -> 12         0.11559
       3 -> 14         0.13227
       4 -> 13         0.59786
       4 -> 14        -0.17819
       5 -> 10        -0.12020
       5 -> 13         0.16201

 Excited State  27:      Singlet-A     14.3706 eV   86.28 nm  f=0.3959  <S**2>=0.000
       3 -> 13         0.26233
       3 -> 14         0.49838
       4 -> 10         0.12771
       4 -> 13        -0.16970
       5 -> 11        -0.12366
       5 -> 13         0.27941

 Excited State  28:      Singlet-A     16.0522 eV   77.24 nm  f=0.0802  <S**2>=0.000
       5 -> 15         0.68939
       5 -> 16        -0.13073

 Excited State  29:      Singlet-A     16.0523 eV   77.24 nm  f=0.0802  <S**2>=0.000
       4 -> 15         0.68802
       4 -> 16        -0.13047

 Excited State  30:      Singlet-A     16.0524 eV   77.24 nm  f=0.0802  <S**2>=0.000
       3 -> 15         0.68802
       3 -> 16        -0.13047

 Excited State  31:      Singlet-A     17.2830 eV   71.74 nm  f=0.0612  <S**2>=0.000
       5 -> 15         0.12884
       5 -> 16         0.68287

 Excited State  32:      Singlet-A     17.2831 eV   71.74 nm  f=0.0612  <S**2>=0.000
       4 -> 15         0.12881
       4 -> 16         0.68273

 Excited State  33:      Singlet-A     17.2832 eV   71.74 nm  f=0.0612  <S**2>=0.000
       3 -> 15         0.12882
       3 -> 16         0.68277

 Excited State  34:      Singlet-A     17.4290 eV   71.14 nm  f=0.0000  <S**2>=0.000
       3 -> 17        -0.28389
       3 -> 18        -0.12517
       4 -> 17         0.34263
       4 -> 18         0.15146
       5 -> 17        -0.19535
       5 -> 18         0.41470
       5 -> 19         0.16696

 Excited State  35:      Singlet-A     17.4291 eV   71.14 nm  f=0.0000  <S**2>=0.000
       3 -> 17         0.36155
       3 -> 18         0.10064
       4 -> 17         0.31128
       5 -> 18        -0.16159
       5 -> 19         0.44599

 Excited State  36:      Singlet-A     17.4292 eV   71.14 nm  f=0.0000  <S**2>=0.000
       3 -> 18         0.24138
       3 -> 19         0.41551
       4 -> 18         0.40991
       4 -> 19        -0.23467
       5 -> 19         0.10034

 Excited State  37:      Singlet-A     17.5336 eV   70.71 nm  f=0.0000  <S**2>=0.000
       3 -> 17         0.34031
       3 -> 18         0.14017
       3 -> 19         0.12689
       4 -> 17         0.19898
       4 -> 18        -0.14917
       4 -> 19        -0.19890
       4 -> 21         0.10030
       5 -> 17        -0.29992
       5 -> 18         0.16190
       5 -> 19        -0.29716

 Excited State  38:      Singlet-A     17.5336 eV   70.71 nm  f=0.0000  <S**2>=0.000
       3 -> 17         0.15435
       3 -> 18         0.33241
       3 -> 19        -0.13943
       4 -> 17        -0.18526
       4 -> 18         0.17668
       4 -> 19         0.37142
       5 -> 18         0.30824

 Excited State  39:      Singlet-A     18.1035 eV   68.49 nm  f=0.0000  <S**2>=0.000
       4 -> 20         0.47331
       4 -> 21        -0.10314
       5 -> 20         0.10535
       5 -> 21         0.47672

 Excited State  40:      Singlet-A     18.1035 eV   68.49 nm  f=0.0000  <S**2>=0.000
       3 -> 20        -0.47502
       5 -> 22         0.48362

 Excited State  41:      Singlet-A     18.1036 eV   68.49 nm  f=0.0000  <S**2>=0.000
       3 -> 21         0.48037
       4 -> 22         0.48361

 Excited State  42:      Singlet-A     18.1240 eV   68.41 nm  f=0.0000  <S**2>=0.000
       3 -> 20         0.41554
       4 -> 21        -0.24069
       4 -> 22        -0.10624
       5 -> 20        -0.16850
       5 -> 22         0.43366

 Excited State  43:      Singlet-A     18.1240 eV   68.41 nm  f=0.0000  <S**2>=0.000
       3 -> 20         0.24651
       3 -> 22         0.26099
       4 -> 21         0.49076
       5 -> 20         0.23049
       5 -> 22         0.19096

 Excited State  44:      Singlet-A     18.2498 eV   67.94 nm  f=0.3827  <S**2>=0.000
       3 -> 18         0.10763
       4 -> 17        -0.33989
       4 -> 18        -0.24347
       4 -> 19        -0.12391
       5 -> 17        -0.33301
       5 -> 19         0.34234

 Excited State  45:      Singlet-A     18.2499 eV   67.94 nm  f=0.3827  <S**2>=0.000
       3 -> 17         0.25927
       3 -> 18        -0.32131
       3 -> 19         0.19934
       4 -> 17        -0.15525
       5 -> 17         0.27253
       5 -> 18         0.32930
       5 -> 19         0.11446

 Excited State  46:      Singlet-A     18.2500 eV   67.94 nm  f=0.3827  <S**2>=0.000
       3 -> 17        -0.15507
       3 -> 18         0.16448
       3 -> 19         0.40379
       4 -> 17         0.11882
       4 -> 18        -0.34505
       4 -> 19         0.28747

 Excited State  47:      Singlet-A     18.2706 eV   67.86 nm  f=0.0000  <S**2>=0.000
       2 ->  6         0.32218
       3 -> 17        -0.11079
       3 -> 18         0.27895
       3 -> 19        -0.17447
       4 -> 18        -0.15162
       4 -> 19        -0.29822
       5 -> 17         0.31465
       5 -> 18         0.13882

 Excited State  48:      Singlet-A     18.2737 eV   67.85 nm  f=0.0000  <S**2>=0.000
       3 -> 24         0.17668
       4 -> 20        -0.44750
       4 -> 25        -0.18340
       5 -> 21         0.45912

 Excited State  49:      Singlet-A     18.2738 eV   67.85 nm  f=0.0000  <S**2>=0.000
       3 -> 22        -0.44329
       3 -> 23        -0.17751
       4 -> 20        -0.12517
       5 -> 20         0.44547
       5 -> 25        -0.18067

 Excited State  50:      Singlet-A     18.2738 eV   67.85 nm  f=0.0000  <S**2>=0.000
       3 -> 21         0.44537
       3 -> 22         0.13351
       4 -> 22        -0.44097
       4 -> 23         0.18079
       5 -> 24         0.17663

 Excited State  51:      Singlet-A     18.4712 eV   67.12 nm  f=0.0000  <S**2>=0.000
       3 -> 22         0.40346
       4 -> 21        -0.39797
       5 -> 20         0.39433

 Excited State  52:      Singlet-A     18.5831 eV   66.72 nm  f=0.0000  <S**2>=0.000
       3 -> 23        -0.38244
       3 -> 25        -0.13650
       4 -> 24         0.31570
       5 -> 23         0.17287
       5 -> 25         0.43675

 Excited State  53:      Singlet-A     18.5832 eV   66.72 nm  f=0.0000  <S**2>=0.000
       3 -> 23         0.31806
       3 -> 25        -0.24591
       4 -> 24         0.47138
       5 -> 23         0.22622
       5 -> 25        -0.23215

 Excited State  54:      Singlet-A     18.6650 eV   66.43 nm  f=0.0000  <S**2>=0.000
       3 -> 21        -0.17231
       4 -> 22         0.17467
       4 -> 23         0.44640
       5 -> 24         0.45386

 Excited State  55:      Singlet-A     18.6651 eV   66.43 nm  f=0.0000  <S**2>=0.000
       3 -> 22        -0.17581
       3 -> 23         0.44945
       5 -> 20         0.17701
       5 -> 25         0.45371

 Excited State  56:      Singlet-A     18.6651 eV   66.43 nm  f=0.0000  <S**2>=0.000
       3 -> 24         0.45667
       4 -> 20         0.17756
       4 -> 25        -0.45446
       5 -> 21        -0.17843

 Excited State  57:      Singlet-A     18.6835 eV   66.36 nm  f=0.0000  <S**2>=0.000
       2 ->  6         0.10297
       3 -> 25         0.39309
       4 -> 24         0.39309
       5 -> 23        -0.38709

 Excited State  58:      Singlet-A     18.7707 eV   66.05 nm  f=0.0021  <S**2>=0.000
       4 -> 23        -0.46684
       5 -> 23        -0.12779
       5 -> 24         0.48941

 Excited State  59:      Singlet-A     18.7708 eV   66.05 nm  f=0.0021  <S**2>=0.000
       3 -> 25         0.48466
       4 -> 23        -0.15688
       5 -> 23         0.47191

 Excited State  60:      Singlet-A     18.7709 eV   66.05 nm  f=0.0021  <S**2>=0.000
       3 -> 24         0.49029
       4 -> 25         0.48038

 Excited State  61:      Singlet-A     19.3656 eV   64.02 nm  f=0.0000  <S**2>=0.000
       2 ->  6         0.60894
       3 -> 18        -0.14332
       4 -> 19         0.15369
       5 -> 17        -0.16275

 Excited State  62:      Singlet-A     21.1141 eV   58.72 nm  f=0.0000  <S**2>=0.000
       3 -> 26        -0.19771
       3 -> 27        -0.27523
       4 -> 27         0.14278
       5 -> 26         0.58887

 Excited State  63:      Singlet-A     21.1142 eV   58.72 nm  f=0.0000  <S**2>=0.000
       3 -> 26         0.44715
       3 -> 27        -0.26322
       4 -> 27        -0.29361
       5 -> 26         0.10654
       5 -> 27        -0.33964

 Excited State  64:      Singlet-A     21.1142 eV   58.72 nm  f=0.0000  <S**2>=0.000
       3 -> 26         0.29346
       3 -> 27        -0.12602
       4 -> 26         0.17904
       4 -> 27         0.58287

 Excited State  65:      Singlet-A     21.2197 eV   58.43 nm  f=0.1220  <S**2>=0.000
       2 ->  7         0.46122
       3 -> 26         0.22701
       5 -> 27         0.42703

 Excited State  66:      Singlet-A     21.2197 eV   58.43 nm  f=0.1220  <S**2>=0.000
       2 ->  7         0.11882
       2 ->  8         0.45263
       2 ->  9        -0.11244
       4 -> 26         0.46849
       4 -> 27        -0.10656

 Excited State  67:      Singlet-A     21.2197 eV   58.43 nm  f=0.1219  <S**2>=0.000
       2 ->  8         0.13184
       2 ->  9         0.45772
       3 -> 26        -0.17508
       3 -> 27        -0.39849
       5 -> 26        -0.22494

 Excited State  68:      Singlet-A     21.5906 eV   57.43 nm  f=0.0789  <S**2>=0.000
       2 ->  7         0.48654
       3 -> 26        -0.19493
       3 -> 30        -0.10141
       4 -> 26        -0.15228
       5 -> 27        -0.37556

 Excited State  69:      Singlet-A     21.5906 eV   57.42 nm  f=0.0789  <S**2>=0.000
       2 ->  8         0.49366
       3 -> 26         0.11777
       4 -> 26        -0.42063
       5 -> 27         0.13899

 Excited State  70:      Singlet-A     21.5907 eV   57.42 nm  f=0.0789  <S**2>=0.000
       2 ->  9         0.48634
       3 -> 26         0.14372
       3 -> 27         0.37804
       5 -> 26         0.22480

 Excited State  71:      Singlet-A     21.8097 eV   56.85 nm  f=0.0197  <S**2>=0.000
       2 -> 10         0.67918
       2 -> 12        -0.11697

 Excited State  72:      Singlet-A     21.8098 eV   56.85 nm  f=0.0197  <S**2>=0.000
       2 -> 11        -0.46920
       2 -> 12         0.49875

 Excited State  73:      Singlet-A     21.8098 eV   56.85 nm  f=0.0197  <S**2>=0.000
       2 -> 11         0.50479
       2 -> 12         0.46114

 Excited State  74:      Singlet-A     22.3177 eV   55.55 nm  f=0.0000  <S**2>=0.000
       2 -> 14        -0.15602
       3 -> 28        -0.24566
       3 -> 29         0.24336
       3 -> 30         0.16062
       4 -> 30         0.32903
       5 -> 28         0.41409
       5 -> 30        -0.17334

 Excited State  75:      Singlet-A     22.3177 eV   55.55 nm  f=0.0000  <S**2>=0.000
       2 -> 13        -0.15603
       3 -> 29         0.39004
       4 -> 28        -0.22860
       4 -> 30        -0.36972
       5 -> 28         0.10020
       5 -> 29         0.30435

 Excited State  76:      Singlet-A     22.5850 eV   54.90 nm  f=0.0000  <S**2>=0.000
       4 -> 28         0.18750
       4 -> 29        -0.37144
       4 -> 30        -0.26620
       5 -> 28         0.29199
       5 -> 29        -0.12417
       5 -> 30         0.37878

 Excited State  77:      Singlet-A     22.5850 eV   54.90 nm  f=0.0000  <S**2>=0.000
       3 -> 28        -0.21218
       3 -> 29         0.37325
       3 -> 30         0.24468
       5 -> 28        -0.34735
       5 -> 29        -0.30688
       5 -> 30         0.16792

 Excited State  78:      Singlet-A     22.5851 eV   54.90 nm  f=0.0000  <S**2>=0.000
       3 -> 28         0.28606
       3 -> 30         0.39153
       4 -> 28        -0.34531
       4 -> 29        -0.30254
       4 -> 30         0.18014

 Excited State  79:      Singlet-A     22.8711 eV   54.21 nm  f=0.0950  <S**2>=0.000
       2 -> 10         0.10242
       3 -> 28        -0.11142
       4 -> 28        -0.23709
       4 -> 29         0.32702
       4 -> 30         0.12402
       5 -> 28         0.13688
       5 -> 29         0.11647
       5 -> 30         0.45779

 Excited State  80:      Singlet-A     22.8712 eV   54.21 nm  f=0.0950  <S**2>=0.000
       3 -> 28        -0.34215
       3 -> 29        -0.18635
       3 -> 30         0.22385
       4 -> 28         0.12205
       4 -> 29        -0.16269
       5 -> 28        -0.18973
       5 -> 29         0.40034

 Excited State  81:      Singlet-A     22.8712 eV   54.21 nm  f=0.0950  <S**2>=0.000
       3 -> 28         0.24980
       3 -> 30         0.38747
       4 -> 28         0.34811
       4 -> 29         0.29643
       4 -> 30        -0.10315

 Excited State  82:      Singlet-A     22.9134 eV   54.11 nm  f=0.0000  <S**2>=0.000
       2 -> 13         0.67865
       4 -> 30        -0.11839

 Excited State  83:      Singlet-A     22.9135 eV   54.11 nm  f=0.0000  <S**2>=0.000
       2 -> 14         0.67865
       5 -> 28         0.10452

 Excited State  84:      Singlet-A     23.7378 eV   52.23 nm  f=0.0000  <S**2>=0.000
       2 ->  6        -0.10421
       2 -> 15         0.31524
       3 -> 28        -0.24056
       3 -> 29        -0.21765
       3 -> 30         0.12333
       4 -> 28        -0.21003
       4 -> 30        -0.26356
       5 -> 28         0.13584
       5 -> 29        -0.25729
       5 -> 30        -0.18909

 Excited State  85:      Singlet-A     25.0372 eV   49.52 nm  f=0.0000  <S**2>=0.000
       2 -> 15         0.61692
       3 -> 28         0.10962
       4 -> 30         0.12010
       5 -> 29         0.11725

 Excited State  86:      Singlet-A     26.1004 eV   47.50 nm  f=0.0000  <S**2>=0.000
       2 -> 16         0.68461

 Excited State  87:      Singlet-A     26.1877 eV   47.34 nm  f=0.0067  <S**2>=0.000
       2 -> 17        -0.30541
       2 -> 18        -0.11643
       5 -> 31         0.61447

 Excited State  88:      Singlet-A     26.1879 eV   47.34 nm  f=0.0067  <S**2>=0.000
       2 -> 18         0.21228
       2 -> 19         0.23298
       3 -> 31        -0.15285
       4 -> 31         0.59511

 Excited State  89:      Singlet-A     26.1879 eV   47.34 nm  f=0.0067  <S**2>=0.000
       2 -> 18        -0.21996
       2 -> 19         0.22933
       3 -> 31         0.59624
       4 -> 31         0.15354

 The electronic state is 1-A.
 Alpha  occ. eigenvalues --  -10.26265  -0.79160  -0.47682  -0.47682  -0.47681
 Alpha virt. eigenvalues --    0.07373   0.16238   0.16238   0.16238   0.18908
 Alpha virt. eigenvalues --    0.18908   0.18908   0.22882   0.22882   0.28415
 Alpha virt. eigenvalues --    0.32583   0.35405   0.35405   0.35405   0.37161

 Mulliken charges:
               1
     1  C   -1.057496
     2  H    0.264376
     3  H    0.264378
     4  H    0.264380
     5  H    0.264362
 Sum of Mulliken charges =  -0.00000

 Dipole moment (field-independent basis, Debye):
    X=              0.0000    Y=             -0.0000    Z=              0.0000  Tot=              0.0000
 Quadrupole moment (field-independent basis, Debye-Ang):
   XX=             -8.3669   YY=             -8.3670   ZZ=             -8.3671
   XY=              0.0000   XZ=              0.0000   YZ=             -0.0000

 Normal termination of Gaussian 16 at Sun Feb 27 06:37:24 2022.
