 Gaussian 16, Revision C.01,
 Gaussian 16:  EM64L-G16RevC.01  3-Jul-2019

 ----------------------------------------------------------------------
 #P TD(Nstates=10000) wB97XD/Gen SCF(maxcycles=100) Int(Grid=ultrafine)
 ----------------------------------------------------------------------

 ---------------------
 xGDB7_00001_tier4.com
 ---------------------
 Symbolic Z-matrix:
 Charge =  0 Multiplicity = 1

                         Standard orientation:
 ---------------------------------------------------------------------
 Center     Atomic      Atomic             Coordinates (Angstroms)
 Number     Number       Type             X           Y           Z
 ---------------------------------------------------------------------
      1          7           0        1.078471   -0.156900   -0.000001
      2          6           0       -0.161963    0.384944   -0.000002
      3          8           0       -1.189170   -0.245458    0.000001
      4          1           0        1.898427    0.419427    0.000004
      5          1           0        1.178124   -1.157073    0.000005
      6          1           0       -0.140706    1.489948    0.000007
 ---------------------------------------------------------------------

 SCF Done:  E(RwB97XD) =  -169.913396210     A.U. after   12 cycles

 Excitation energies and oscillator strengths:

 Excited State   1:      Singlet-A      5.6984 eV  217.58 nm  f=0.0007  <S**2>=0.000
      12 -> 14         0.70178
 This state for optimization and/or second-order correction.
 Total Energy, E(TD-HF/TD-DFT) =  -169.703984030
 Copying the excited state density for this state as the 1-particle RhoCI density.

 Excited State   2:      Singlet-A      7.1578 eV  173.22 nm  f=0.0015  <S**2>=0.000
      11 -> 14        -0.27612
      12 -> 13         0.62416

 Excited State   3:      Singlet-A      7.2110 eV  171.94 nm  f=0.0183  <S**2>=0.000
      11 -> 13         0.68060
      11 -> 15         0.12171

 Excited State   4:      Singlet-A      7.7224 eV  160.55 nm  f=0.1327  <S**2>=0.000
      11 -> 14        -0.42495
      12 -> 13        -0.10934
      12 -> 15         0.52687
      12 -> 19         0.11028

 Excited State   5:      Singlet-A      8.0439 eV  154.13 nm  f=0.2190  <S**2>=0.000
      11 -> 14         0.41787
      12 -> 13         0.20710
      12 -> 15         0.40094
      12 -> 16         0.31342

 Excited State   6:      Singlet-A      8.1483 eV  152.16 nm  f=0.0027  <S**2>=0.000
      11 -> 13        -0.10370
      11 -> 15         0.64539
      11 -> 16         0.21326

 Excited State   7:      Singlet-A      8.4499 eV  146.73 nm  f=0.1096  <S**2>=0.000
      11 -> 14        -0.18559
      12 -> 13        -0.19883
      12 -> 15        -0.17476
      12 -> 16         0.60551

 Excited State   8:      Singlet-A      8.7897 eV  141.06 nm  f=0.0136  <S**2>=0.000
      11 -> 16         0.20701
      12 -> 17         0.66001

 Excited State   9:      Singlet-A      8.8191 eV  140.59 nm  f=0.0052  <S**2>=0.000
      11 -> 15        -0.20077
      11 -> 16         0.58238
      11 -> 18        -0.16759
      12 -> 17        -0.23885

 Excited State  10:      Singlet-A      9.4490 eV  131.21 nm  f=0.0022  <S**2>=0.000
      11 -> 17         0.58962
      12 -> 18         0.31804
      12 -> 19        -0.15387

 Excited State  11:      Singlet-A      9.5281 eV  130.12 nm  f=0.0134  <S**2>=0.000
      11 -> 17        -0.32659
      12 -> 18         0.60339

 Excited State  12:      Singlet-A      9.6505 eV  128.48 nm  f=0.0002  <S**2>=0.000
      11 -> 16         0.10204
      11 -> 18         0.54982
      11 -> 19        -0.15523
      11 -> 20        -0.34402
      11 -> 22         0.11890

 Excited State  13:      Singlet-A      9.7263 eV  127.47 nm  f=0.0046  <S**2>=0.000
      12 -> 18         0.12321
      12 -> 19         0.51079
      12 -> 20         0.42305

 Excited State  14:      Singlet-A      9.8438 eV  125.95 nm  f=0.0141  <S**2>=0.000
      12 -> 19        -0.42433
      12 -> 20         0.54346

 Excited State  15:      Singlet-A     10.0220 eV  123.71 nm  f=0.0026  <S**2>=0.000
       9 -> 14        -0.14165
      11 -> 16         0.12887
      11 -> 18         0.18064
      11 -> 19         0.61570
      11 -> 22        -0.11924

 Excited State  16:      Singlet-A     10.1763 eV  121.84 nm  f=0.0061  <S**2>=0.000
       9 -> 14         0.61581
      11 -> 19         0.17848
      11 -> 20        -0.26191

 Excited State  17:      Singlet-A     10.3285 eV  120.04 nm  f=0.0193  <S**2>=0.000
       9 -> 14         0.29954
      11 -> 16         0.13935
      11 -> 18         0.27819
      11 -> 20         0.52123
      11 -> 23         0.11301

 Excited State  18:      Singlet-A     10.9379 eV  113.35 nm  f=0.0089  <S**2>=0.000
      12 -> 21         0.64754
      12 -> 24        -0.22376
      12 -> 27         0.11514

 Excited State  19:      Singlet-A     10.9483 eV  113.25 nm  f=0.0170  <S**2>=0.000
      11 -> 21         0.14394
      12 -> 23         0.65607
      12 -> 25         0.10633

 Excited State  20:      Singlet-A     11.0576 eV  112.13 nm  f=0.0721  <S**2>=0.000
       9 -> 13         0.10419
      10 -> 14        -0.36130
      11 -> 21         0.52387
      12 -> 22         0.21899

 Excited State  21:      Singlet-A     11.1446 eV  111.25 nm  f=0.0080  <S**2>=0.000
      10 -> 14         0.19031
      11 -> 21        -0.10723
      12 -> 22         0.64905

 Excited State  22:      Singlet-A     11.1837 eV  110.86 nm  f=0.0466  <S**2>=0.000
      10 -> 13         0.66525
      11 -> 22        -0.12389

 Excited State  23:      Singlet-A     11.3361 eV  109.37 nm  f=0.0255  <S**2>=0.000
      11 -> 19         0.11197
      11 -> 22         0.47382
      11 -> 23        -0.45645

 Excited State  24:      Singlet-A     11.3531 eV  109.21 nm  f=0.0670  <S**2>=0.000
       9 -> 13        -0.28805
      10 -> 14         0.43095
      11 -> 21         0.36862
      11 -> 24        -0.12720
      12 -> 23        -0.11984

 Excited State  25:      Singlet-A     11.4511 eV  108.27 nm  f=0.0011  <S**2>=0.000
      10 -> 13         0.13272
      11 -> 18        -0.15128
      11 -> 22         0.41211
      11 -> 23         0.46039
      12 -> 24         0.18307

 Excited State  26:      Singlet-A     11.5082 eV  107.74 nm  f=0.0091  <S**2>=0.000
      11 -> 22        -0.15780
      11 -> 23        -0.11777
      12 -> 21         0.23123
      12 -> 24         0.61883

 Excited State  27:      Singlet-A     11.5721 eV  107.14 nm  f=0.0882  <S**2>=0.000
       9 -> 13         0.60526
      10 -> 14         0.29524

 Excited State  28:      Singlet-A     11.8801 eV  104.36 nm  f=0.0215  <S**2>=0.000
      11 -> 21         0.12729
      11 -> 24         0.66178

 Excited State  29:      Singlet-A     11.9455 eV  103.79 nm  f=0.0000  <S**2>=0.000
       8 -> 14         0.26129
      10 -> 15         0.60286
      10 -> 16         0.15996
      11 -> 19         0.12369

 Excited State  30:      Singlet-A     12.1380 eV  102.15 nm  f=0.0043  <S**2>=0.000
       8 -> 14         0.63628
      10 -> 15        -0.26736

 Excited State  31:      Singlet-A     12.2198 eV  101.46 nm  f=0.0614  <S**2>=0.000
       9 -> 15         0.66891
       9 -> 16         0.11865

 Excited State  32:      Singlet-A     12.3399 eV  100.47 nm  f=0.0786  <S**2>=0.000
       9 -> 16        -0.17304
      12 -> 25         0.64797

 Excited State  33:      Singlet-A     12.5996 eV   98.40 nm  f=0.0147  <S**2>=0.000
      10 -> 16        -0.23851
      11 -> 25         0.63604

 Excited State  34:      Singlet-A     12.6321 eV   98.15 nm  f=0.0121  <S**2>=0.000
       8 -> 13        -0.24884
       9 -> 15        -0.10938
       9 -> 16         0.57308
      12 -> 25         0.16448
      12 -> 26         0.12063

 Excited State  35:      Singlet-A     12.6791 eV   97.79 nm  f=0.0853  <S**2>=0.000
      10 -> 15        -0.14224
      10 -> 16         0.59577
      10 -> 18        -0.11354
      10 -> 20        -0.14277
      11 -> 25         0.23309

 Excited State  36:      Singlet-A     13.0566 eV   94.96 nm  f=0.0274  <S**2>=0.000
       8 -> 13        -0.24648
       9 -> 16        -0.17421
      10 -> 17        -0.30707
      12 -> 26         0.50065
      12 -> 29         0.11499

 Excited State  37:      Singlet-A     13.1204 eV   94.50 nm  f=0.0242  <S**2>=0.000
       9 -> 17         0.67833
      12 -> 27         0.15273

 Excited State  38:      Singlet-A     13.1892 eV   94.00 nm  f=0.0139  <S**2>=0.000
      10 -> 19         0.14728
      11 -> 26         0.66225

 Excited State  39:      Singlet-A     13.1910 eV   93.99 nm  f=0.0174  <S**2>=0.000
       8 -> 13         0.14806
      10 -> 17         0.53835
      11 -> 24        -0.10014
      12 -> 26         0.34028
      12 -> 28         0.11391
      12 -> 29         0.11133

 Excited State  40:      Singlet-A     13.2501 eV   93.57 nm  f=0.0927  <S**2>=0.000
       8 -> 13         0.53201
       9 -> 16         0.17978
       9 -> 18         0.15780
      10 -> 17        -0.26888
      12 -> 26         0.16337

 Excited State  41:      Singlet-A     13.2858 eV   93.32 nm  f=0.0009  <S**2>=0.000
       9 -> 17        -0.16190
      12 -> 24         0.11138
      12 -> 27         0.65956

 Excited State  42:      Singlet-A     13.5846 eV   91.27 nm  f=0.0502  <S**2>=0.000
      10 -> 18         0.55725
      10 -> 19        -0.10285
      10 -> 20        -0.33092

 Excited State  43:      Singlet-A     13.6144 eV   91.07 nm  f=0.0301  <S**2>=0.000
       8 -> 13        -0.13671
       8 -> 15         0.43986
       9 -> 16        -0.12060
       9 -> 18         0.35811
       9 -> 19        -0.27441
      12 -> 28         0.16344

 Excited State  44:      Singlet-A     13.7729 eV   90.02 nm  f=0.0194  <S**2>=0.000
      10 -> 21        -0.10875
      11 -> 27         0.64165
      12 -> 29         0.19262

 Excited State  45:      Singlet-A     13.8460 eV   89.54 nm  f=0.0760  <S**2>=0.000
       8 -> 15        -0.14968
       8 -> 16        -0.14770
       9 -> 18         0.41741
      11 -> 27        -0.16840
      12 -> 28        -0.41556
      12 -> 29         0.17931

 Excited State  46:      Singlet-A     13.8667 eV   89.41 nm  f=0.0492  <S**2>=0.000
       8 -> 15        -0.18884
       8 -> 16        -0.15358
       9 -> 18         0.30464
       9 -> 19         0.32885
       9 -> 20         0.14204
      12 -> 28         0.29088
      12 -> 29        -0.30695

 Excited State  47:      Singlet-A     13.9152 eV   89.10 nm  f=0.0154  <S**2>=0.000
      10 -> 16         0.12468
      10 -> 18         0.20207
      10 -> 19         0.56065
      10 -> 20         0.15820
      11 -> 28         0.15005
      11 -> 29        -0.17765
      11 -> 30        -0.10144

 Excited State  48:      Singlet-A     13.9747 eV   88.72 nm  f=0.1159  <S**2>=0.000
       8 -> 15         0.38638
       9 -> 18        -0.11961
       9 -> 19         0.25845
       9 -> 20         0.34339
      12 -> 28        -0.26841
      12 -> 29        -0.18207

 Excited State  49:      Singlet-A     14.0476 eV   88.26 nm  f=0.0294  <S**2>=0.000
      10 -> 18         0.17021
      10 -> 19        -0.29203
      10 -> 20         0.48808
      10 -> 23         0.13913
      11 -> 28         0.28219

 Excited State  50:      Singlet-A     14.1493 eV   87.63 nm  f=0.0319  <S**2>=0.000
       8 -> 15         0.18142
       9 -> 19         0.40868
      11 -> 27        -0.11959
      12 -> 26        -0.14537
      12 -> 28         0.16376
      12 -> 29         0.43214

 Excited State  51:      Singlet-A     14.2173 eV   87.21 nm  f=0.0317  <S**2>=0.000
      10 -> 18        -0.24361
      10 -> 20        -0.23568
      11 -> 28         0.57256

 Excited State  52:      Singlet-A     14.2261 eV   87.15 nm  f=0.0199  <S**2>=0.000
       8 -> 15        -0.10609
       9 -> 19        -0.20433
       9 -> 20         0.54709
      12 -> 28         0.18658
      12 -> 29         0.18983

 Excited State  53:      Singlet-A     14.2542 eV   86.98 nm  f=0.0257  <S**2>=0.000
      10 -> 19         0.16303
      11 -> 29         0.64706

 Excited State  54:      Singlet-A     14.3532 eV   86.38 nm  f=0.0079  <S**2>=0.000
       7 -> 14         0.62579
      11 -> 28         0.11250
      12 -> 31        -0.27658

 Excited State  55:      Singlet-A     14.5294 eV   85.33 nm  f=0.0211  <S**2>=0.000
       7 -> 14         0.27872
      12 -> 31         0.62983

 Excited State  56:      Singlet-A     14.6391 eV   84.69 nm  f=0.0005  <S**2>=0.000
       8 -> 16        -0.27101
      12 -> 29         0.14814
      12 -> 30         0.56068
      12 -> 33        -0.12544
      12 -> 35         0.10520

 Excited State  57:      Singlet-A     14.6914 eV   84.39 nm  f=0.0046  <S**2>=0.000
       8 -> 15        -0.12001
       8 -> 16         0.52725
       8 -> 18        -0.12785
       8 -> 19        -0.10100
       8 -> 20        -0.13484
       9 -> 18         0.11618
      12 -> 30         0.30066

 Excited State  58:      Singlet-A     14.7537 eV   84.04 nm  f=0.0130  <S**2>=0.000
      11 -> 29        -0.10960
      11 -> 30         0.64722

 Excited State  59:      Singlet-A     14.8449 eV   83.52 nm  f=0.0460  <S**2>=0.000
      10 -> 21        -0.24117
      10 -> 24        -0.14808
      11 -> 31         0.62672

 Excited State  60:      Singlet-A     14.9285 eV   83.05 nm  f=0.0010  <S**2>=0.000
       8 -> 17         0.54791
       8 -> 21         0.12114
       9 -> 21         0.38622

 Excited State  61:      Singlet-A     14.9333 eV   83.03 nm  f=0.0539  <S**2>=0.000
       7 -> 13         0.59605
       7 -> 15         0.15798
      10 -> 21        -0.20756
      11 -> 31        -0.11386

 Excited State  62:      Singlet-A     15.0560 eV   82.35 nm  f=0.0472  <S**2>=0.000
       7 -> 13         0.20025
       9 -> 22         0.13888
      10 -> 21         0.55081
      10 -> 24        -0.18330
      11 -> 27         0.11619
      11 -> 31         0.14990
      12 -> 32         0.10149

 Excited State  63:      Singlet-A     15.0670 eV   82.29 nm  f=0.0030  <S**2>=0.000
      10 -> 22         0.21872
      10 -> 23         0.56149
      11 -> 32        -0.25371

 Excited State  64:      Singlet-A     15.1492 eV   81.84 nm  f=0.0065  <S**2>=0.000
      10 -> 22         0.58205
      10 -> 23        -0.25829
      11 -> 32        -0.14917
      11 -> 33        -0.15256

 Excited State  65:      Singlet-A     15.2920 eV   81.08 nm  f=0.0331  <S**2>=0.000
       8 -> 18         0.24646
       8 -> 19        -0.17526
       8 -> 20        -0.10156
       9 -> 22         0.19257
       9 -> 23         0.45924
      12 -> 32        -0.27721
      12 -> 33        -0.14610

 Excited State  66:      Singlet-A     15.3282 eV   80.89 nm  f=0.0243  <S**2>=0.000
       8 -> 18         0.16108
       8 -> 19        -0.23800
       8 -> 20        -0.12196
       9 -> 22         0.33848
      10 -> 21        -0.17192
      12 -> 32         0.40253
      12 -> 33         0.19933

 Excited State  67:      Singlet-A     15.4031 eV   80.49 nm  f=0.1214  <S**2>=0.000
       8 -> 18        -0.14404
       9 -> 22         0.40773
       9 -> 23        -0.33660
      12 -> 28         0.10025
      12 -> 32        -0.19538
      12 -> 33        -0.29681

 Excited State  68:      Singlet-A     15.4037 eV   80.49 nm  f=0.0059  <S**2>=0.000
       8 -> 17        -0.39653
       9 -> 21         0.53886
       9 -> 24        -0.17029

 Excited State  69:      Singlet-A     15.4751 eV   80.12 nm  f=0.0512  <S**2>=0.000
       9 -> 22         0.15949
      12 -> 30         0.14464
      12 -> 32        -0.35266
      12 -> 33         0.50556
      12 -> 36        -0.13742

 Excited State  70:      Singlet-A     15.6323 eV   79.31 nm  f=0.0397  <S**2>=0.000
       8 -> 18        -0.22455
       8 -> 20         0.18919
       9 -> 23         0.22052
      10 -> 24         0.51028
      11 -> 31         0.14189
      12 -> 32         0.12575

 Excited State  71:      Singlet-A     15.7087 eV   78.93 nm  f=0.0127  <S**2>=0.000
       8 -> 18         0.34886
       8 -> 19        -0.14104
       8 -> 20        -0.22317
       9 -> 22        -0.14479
       9 -> 23        -0.23664
      10 -> 21         0.14554
      10 -> 24         0.35113
      11 -> 31         0.12345
      12 -> 35         0.10189

 Excited State  72:      Singlet-A     15.7388 eV   78.78 nm  f=0.0002  <S**2>=0.000
       9 -> 24         0.20681
      10 -> 25        -0.10303
      11 -> 32        -0.30080
      11 -> 33         0.22897
      12 -> 34         0.50642

 Excited State  73:      Singlet-A     15.7673 eV   78.63 nm  f=0.0082  <S**2>=0.000
      10 -> 22         0.13905
      10 -> 23         0.13226
      10 -> 25         0.12115
      11 -> 32         0.44117
      11 -> 33        -0.18173
      12 -> 34         0.42939

 Excited State  74:      Singlet-A     15.8272 eV   78.34 nm  f=0.0017  <S**2>=0.000
       9 -> 21         0.11076
       9 -> 24         0.41290
      10 -> 22         0.16050
      11 -> 32         0.27342
      11 -> 33         0.37645
      12 -> 34        -0.18589

 Excited State  75:      Singlet-A     15.8344 eV   78.30 nm  f=0.0008  <S**2>=0.000
       9 -> 24         0.46396
      10 -> 22        -0.12849
      11 -> 32        -0.14324
      11 -> 33        -0.42294

 Excited State  76:      Singlet-A     15.9345 eV   77.81 nm  f=0.0207  <S**2>=0.000
       7 -> 13         0.14634
       7 -> 15        -0.33740
       8 -> 19         0.43000
       8 -> 20        -0.15003
       9 -> 22         0.26747
      10 -> 24         0.11723

 Excited State  77:      Singlet-A     16.0201 eV   77.39 nm  f=0.0177  <S**2>=0.000
       7 -> 15         0.44989
       7 -> 16         0.15475
       7 -> 19        -0.10226
       8 -> 16         0.10182
       8 -> 18         0.26008
       8 -> 19         0.33224

 Excited State  78:      Singlet-A     16.0548 eV   77.23 nm  f=0.0059  <S**2>=0.000
       7 -> 15        -0.23354
       7 -> 16        -0.12426
       8 -> 16         0.14048
       8 -> 18         0.25632
       8 -> 20         0.50214
       8 -> 23         0.13771
       9 -> 25        -0.12289
      12 -> 35        -0.10605

 Excited State  79:      Singlet-A     16.2459 eV   76.32 nm  f=0.1543  <S**2>=0.000
       8 -> 20         0.12048
      12 -> 35         0.57409
      12 -> 36        -0.26160

 Excited State  80:      Singlet-A     16.3209 eV   75.97 nm  f=0.0052  <S**2>=0.000
      10 -> 23        -0.12450
      10 -> 25         0.45189
      11 -> 33         0.18845
      11 -> 35         0.37704
      11 -> 36        -0.20880

 Excited State  81:      Singlet-A     16.4204 eV   75.51 nm  f=0.0243  <S**2>=0.000
      10 -> 25         0.46397
      11 -> 35        -0.44883
      11 -> 36         0.13747
      11 -> 39         0.12147

 Excited State  82:      Singlet-A     16.4236 eV   75.49 nm  f=0.0024  <S**2>=0.000
      12 -> 33         0.14952
      12 -> 35         0.27179
      12 -> 36         0.58413

 Excited State  83:      Singlet-A     16.4622 eV   75.31 nm  f=0.0089  <S**2>=0.000
      11 -> 34         0.65032

 Excited State  84:      Singlet-A     16.5946 eV   74.71 nm  f=0.0003  <S**2>=0.000
       6 -> 14        -0.37067
       8 -> 21        -0.17331
      11 -> 36         0.19585
      12 -> 37         0.48683

 Excited State  85:      Singlet-A     16.6569 eV   74.43 nm  f=0.0338  <S**2>=0.000
       6 -> 14         0.39590
       8 -> 21        -0.21530
      10 -> 26         0.20888
      11 -> 35        -0.10479
      11 -> 36        -0.19441
      12 -> 37         0.38064

 Excited State  86:      Singlet-A     16.6846 eV   74.31 nm  f=0.0256  <S**2>=0.000
       8 -> 20         0.11481
       9 -> 25         0.62930
      12 -> 38         0.13052

 Excited State  87:      Singlet-A     16.7578 eV   73.99 nm  f=0.0167  <S**2>=0.000
       6 -> 14         0.24191
      10 -> 26         0.20767
      10 -> 28         0.11670
      11 -> 35         0.19619
      11 -> 36         0.55789

 Excited State  88:      Singlet-A     16.8480 eV   73.59 nm  f=0.0180  <S**2>=0.000
       7 -> 15        -0.14340
       7 -> 16         0.51243
       7 -> 18        -0.25324
       7 -> 20        -0.10366
       8 -> 23        -0.10109
       9 -> 26         0.10329
      11 -> 37         0.16876
      12 -> 36        -0.11953

 Excited State  89:      Singlet-A     16.8925 eV   73.40 nm  f=0.0016  <S**2>=0.000
       8 -> 21         0.60158
       9 -> 27        -0.10646
      12 -> 37         0.26918

 Excited State  90:      Singlet-A     17.0637 eV   72.66 nm  f=0.0229  <S**2>=0.000
       6 -> 13        -0.12260
       7 -> 18         0.11519
       7 -> 19        -0.10595
       8 -> 22         0.41589
       8 -> 23        -0.37895
       9 -> 26        -0.10813
      11 -> 37         0.16996

 Excited State  91:      Singlet-A     17.0987 eV   72.51 nm  f=0.0044  <S**2>=0.000
       6 -> 13         0.55428
       9 -> 26         0.10800
      11 -> 37         0.34882

 Excited State  92:      Singlet-A     17.1006 eV   72.50 nm  f=0.0596  <S**2>=0.000
       6 -> 14        -0.27495
      10 -> 26         0.57918
      12 -> 37        -0.11275

 Excited State  93:      Singlet-A     17.1142 eV   72.45 nm  f=0.0633  <S**2>=0.000
       6 -> 13        -0.32142
       7 -> 16        -0.14706
       8 -> 22        -0.19802
       8 -> 23         0.15550
      10 -> 27         0.12936
      11 -> 37         0.48366
      12 -> 38        -0.15931

 Excited State  94:      Singlet-A     17.1366 eV   72.35 nm  f=0.0014  <S**2>=0.000
       7 -> 17         0.43314
       7 -> 21         0.17101
       8 -> 24         0.46482
       9 -> 24        -0.11945

 Excited State  95:      Singlet-A     17.2295 eV   71.96 nm  f=0.1201  <S**2>=0.000
       6 -> 13        -0.11160
       7 -> 18         0.10369
       7 -> 20        -0.11054
       8 -> 22         0.33594
       8 -> 23         0.28905
       9 -> 26         0.42453
      12 -> 39        -0.12941

 Excited State  96:      Singlet-A     17.2872 eV   71.72 nm  f=0.0259  <S**2>=0.000
       8 -> 22         0.17756
       8 -> 23         0.21521
       9 -> 26        -0.13810
      11 -> 37         0.13798
      12 -> 38         0.51362
      12 -> 39         0.19325
      12 -> 43        -0.11647

 The electronic state is 1-A.
 Alpha  occ. eigenvalues --  -19.22303 -14.46731 -10.39163  -1.14877  -1.02000
 Alpha  occ. eigenvalues --   -0.72798  -0.65656  -0.57806  -0.51091  -0.50597
 Alpha  occ. eigenvalues --   -0.36928  -0.35212
 Alpha virt. eigenvalues --    0.05963   0.08372   0.08847   0.10956   0.12981
 Alpha virt. eigenvalues --    0.14470   0.15336   0.16866   0.20204   0.20895
 Alpha virt. eigenvalues --    0.21902   0.23345   0.25317   0.28596   0.29844

 Mulliken charges:
               1
     1  N   -0.375273
     2  C    0.229498
     3  O   -0.601508
     4  H    0.216536
     5  H    0.241742
     6  H    0.289005
 Sum of Mulliken charges =  -0.00000

 Dipole moment (field-independent basis, Debye):
    X=              3.8752    Y=              0.9054    Z=              0.0000  Tot=              3.9796
 Quadrupole moment (field-independent basis, Debye-Ang):
   XX=            -17.9714   YY=            -15.2671   ZZ=            -18.8756
   XY=             -1.2620   XZ=              0.0000   YZ=             -0.0000

 Normal termination of Gaussian 16 at Sun Feb 27 06:39:57 2022.
