 Gaussian 16, Revision C.01,
 Gaussian 16:  EM64L-G16RevC.01  3-Jul-2019

 ----------------------------------------------------------------------
 #P TD(Nstates=10000) wB97XD/Gen SCF(maxcycles=100) Int(Grid=ultrafine)
 ----------------------------------------------------------------------

 ---------------------
 xGDB7_00001_tier4.com
 ---------------------
 Symbolic Z-matrix:
 Charge =  0 Multiplicity = 1

                         Standard orientation:
 ---------------------------------------------------------------------
 Center     Atomic      Atomic             Coordinates (Angstroms)
 Number     Number       Type             X           Y           Z
 ---------------------------------------------------------------------
      1          9           0        0.000000    0.000000    0.091801
      2          1           0        0.000000    0.000000   -0.826212
 ---------------------------------------------------------------------

 SCF Done:  E(RwB97XD) =  -100.465542766     A.U. after   11 cycles

 Excitation energies and oscillator strengths:

 Excited state symmetry could not be determined.
 Excited State   1:      Singlet-?Sym   10.2412 eV  121.06 nm  f=0.0333  <S**2>=0.000
       4 ->  6        -0.48620
       5 ->  6         0.48860
 This state for optimization and/or second-order correction.
 Total Energy, E(TD-HF/TD-DFT) =  -100.089185802
 Copying the excited state density for this state as the 1-particle RhoCI density.

 Excited state symmetry could not be determined.
 Excited State   2:      Singlet-?Sym   10.2412 eV  121.06 nm  f=0.0333  <S**2>=0.000
       4 ->  6         0.48860
       5 ->  6         0.48620

 Excited state symmetry could not be determined.
 Excited State   3:      Singlet-?Sym   13.0263 eV   95.18 nm  f=0.0000  <S**2>=0.000
       4 ->  9         0.49575
       5 ->  8         0.49575

 Excited state symmetry could not be determined.
 Excited State   4:      Singlet-?Sym   13.0263 eV   95.18 nm  f=0.0000  <S**2>=0.000
       4 ->  8         0.49575
       5 ->  9        -0.49575

 Excited state symmetry could not be determined.
 Excited State   5:      Singlet-?Sym   13.0900 eV   94.72 nm  f=0.0000  <S**2>=0.000
       4 ->  9        -0.49621
       5 ->  8         0.49621

 Excited state symmetry could not be determined.
 Excited State   6:      Singlet-?Sym   13.1123 eV   94.56 nm  f=0.0219  <S**2>=0.000
       4 ->  6        -0.10635
       4 ->  7         0.68898
       4 -> 12         0.10916

 Excited state symmetry could not be determined.
 Excited State   7:      Singlet-?Sym   13.1123 eV   94.56 nm  f=0.0219  <S**2>=0.000
       5 ->  6        -0.10635
       5 ->  7         0.68898
       5 -> 12         0.10916

 Excited state symmetry could not be determined.
 Excited State   8:      Singlet-?Sym   13.4810 eV   91.97 nm  f=0.0418  <S**2>=0.000
       3 ->  6         0.33201
       4 ->  8         0.43684
       5 ->  9         0.43684

 Excited State   9:      Singlet-SG    14.6367 eV   84.71 nm  f=0.1084  <S**2>=0.000
       3 ->  6         0.59041
       3 ->  7         0.14955
       4 ->  8        -0.23370
       5 ->  9        -0.23370

 Excited state symmetry could not be determined.
 Excited State  10:      Singlet-?Sym   15.7329 eV   78.81 nm  f=0.0726  <S**2>=0.000
       4 -> 12         0.61141
       4 -> 13        -0.12674
       5 -> 12         0.29380

 Excited state symmetry could not be determined.
 Excited State  11:      Singlet-?Sym   15.7329 eV   78.81 nm  f=0.0726  <S**2>=0.000
       4 -> 12        -0.29380
       5 -> 12         0.61141
       5 -> 13        -0.12674

 Excited state symmetry could not be determined.
 Excited State  12:      Singlet-?Sym   16.1503 eV   76.77 nm  f=0.0000  <S**2>=0.000
       4 -> 10         0.49514
       5 -> 11        -0.49514

 Excited state symmetry could not be determined.
 Excited State  13:      Singlet-?Sym   16.1503 eV   76.77 nm  f=0.0000  <S**2>=0.000
       4 -> 11         0.49514
       5 -> 10         0.49514

 Excited state symmetry could not be determined.
 Excited State  14:      Singlet-?Sym   16.2662 eV   76.22 nm  f=0.0000  <S**2>=0.000
       4 -> 11        -0.49592
       5 -> 10         0.49592

 Excited state symmetry could not be determined.
 Excited State  15:      Singlet-?Sym   16.3334 eV   75.91 nm  f=0.1626  <S**2>=0.000
       3 ->  7        -0.17081
       3 -> 12        -0.10714
       4 -> 10         0.47279
       5 -> 11         0.47279

 Excited state symmetry could not be determined.
 Excited State  16:      Singlet-?Sym   16.8214 eV   73.71 nm  f=0.0008  <S**2>=0.000
       3 ->  8         0.57641
       3 ->  9        -0.39732

 Excited state symmetry could not be determined.
 Excited State  17:      Singlet-?Sym   16.8214 eV   73.71 nm  f=0.0008  <S**2>=0.000
       3 ->  8         0.39732
       3 ->  9         0.57641

 Excited State  18:      Singlet-SG    17.0317 eV   72.80 nm  f=0.0098  <S**2>=0.000
       3 ->  6        -0.16916
       3 ->  7         0.66500
       4 -> 10         0.10602
       5 -> 11         0.10602

 Excited state symmetry could not be determined.
 Excited State  19:      Singlet-?Sym   17.2032 eV   72.07 nm  f=0.0209  <S**2>=0.000
       4 -> 12         0.13575
       4 -> 13         0.62072
       5 -> 13         0.28354

 Excited state symmetry could not be determined.
 Excited State  20:      Singlet-?Sym   17.2032 eV   72.07 nm  f=0.0209  <S**2>=0.000
       4 -> 13        -0.28354
       5 -> 12         0.13575
       5 -> 13         0.62072

 Excited state symmetry could not be determined.
 Excited State  21:      Singlet-?Sym   19.8674 eV   62.41 nm  f=0.0506  <S**2>=0.000
       3 -> 10         0.55288
       3 -> 11        -0.42799

 Excited state symmetry could not be determined.
 Excited State  22:      Singlet-?Sym   19.8674 eV   62.41 nm  f=0.0506  <S**2>=0.000
       3 -> 10         0.42799
       3 -> 11         0.55288

 Excited State  23:      Singlet-SG    20.0970 eV   61.69 nm  f=0.0514  <S**2>=0.000
       3 -> 12         0.67109
       3 -> 13         0.17887

 Excited State  24:      Singlet-SG    21.5698 eV   57.48 nm  f=0.0854  <S**2>=0.000
       3 -> 12        -0.15852
       3 -> 13         0.66979

 Excited state symmetry could not be determined.
 Excited State  25:      Singlet-?Sym   22.4875 eV   55.13 nm  f=0.0000  <S**2>=0.000
       4 -> 14         0.18836
       4 -> 15        -0.46322
       5 -> 14         0.46322
       5 -> 15         0.18836

 Excited state symmetry could not be determined.
 Excited State  26:      Singlet-?Sym   22.4875 eV   55.13 nm  f=0.0000  <S**2>=0.000
       4 -> 14         0.46322
       4 -> 15         0.18836
       5 -> 14        -0.18836
       5 -> 15         0.46322

 Excited state symmetry could not be determined.
 Excited State  27:      Singlet-?Sym   23.2325 eV   53.37 nm  f=0.0887  <S**2>=0.000
       4 -> 15        -0.30844
       4 -> 16        -0.12644
       5 -> 14        -0.30844
       5 -> 16         0.52756

 Excited state symmetry could not be determined.
 Excited State  28:      Singlet-?Sym   23.2325 eV   53.37 nm  f=0.0887  <S**2>=0.000
       4 -> 14         0.30844
       4 -> 16         0.52756
       5 -> 15        -0.30844
       5 -> 16         0.12644

 Excited state symmetry could not be determined.
 Excited State  29:      Singlet-?Sym   23.5045 eV   52.75 nm  f=0.3704  <S**2>=0.000
       4 -> 14         0.13813
       4 -> 15         0.35742
       4 -> 16        -0.16041
       5 -> 14         0.35742
       5 -> 15        -0.13813
       5 -> 16         0.41508

 Excited state symmetry could not be determined.
 Excited State  30:      Singlet-?Sym   23.5045 eV   52.75 nm  f=0.3704  <S**2>=0.000
       4 -> 14        -0.35742
       4 -> 15         0.13813
       4 -> 16         0.41508
       5 -> 14         0.13813
       5 -> 15         0.35742
       5 -> 16         0.16041

 Excited state symmetry could not be determined.
 Excited State  31:      Singlet-?Sym   25.8610 eV   47.94 nm  f=0.0000  <S**2>=0.000
       3 -> 14        -0.21922
       4 -> 17         0.47274
       5 -> 18        -0.47274

 Excited state symmetry could not be determined.
 Excited State  32:      Singlet-?Sym   25.8610 eV   47.94 nm  f=0.0000  <S**2>=0.000
       3 -> 15         0.21921
       4 -> 18         0.47274
       5 -> 17         0.47274

 Excited state symmetry could not be determined.
 Excited State  33:      Singlet-?Sym   26.3058 eV   47.13 nm  f=0.0000  <S**2>=0.000
       4 -> 18        -0.49783
       5 -> 17         0.49783

 Excited state symmetry could not be determined.
 Excited State  34:      Singlet-?Sym   26.3495 eV   47.05 nm  f=0.0813  <S**2>=0.000
       3 -> 16         0.34849
       4 -> 17         0.42920
       5 -> 18         0.42920

 Excited state symmetry could not be determined.
 Excited State  35:      Singlet-?Sym   26.7753 eV   46.31 nm  f=0.0000  <S**2>=0.000
       3 -> 14         0.67197
       4 -> 17         0.15542
       5 -> 18        -0.15542

 Excited state symmetry could not be determined.
 Excited State  36:      Singlet-?Sym   26.7753 eV   46.31 nm  f=0.0000  <S**2>=0.000
       3 -> 15         0.67197
       4 -> 18        -0.15542
       5 -> 17        -0.15542

 Excited State  37:      Singlet-SG    28.1059 eV   44.11 nm  f=0.6097  <S**2>=0.000
       3 -> 16         0.60809
       4 -> 17        -0.24484
       5 -> 18        -0.24484

 Excited state symmetry could not be determined.
 Excited State  38:      Singlet-?Sym   28.9070 eV   42.89 nm  f=0.0000  <S**2>=0.000
       4 -> 20         0.49751
       5 -> 21         0.49751

 Excited state symmetry could not be determined.
 Excited State  39:      Singlet-?Sym   28.9070 eV   42.89 nm  f=0.0000  <S**2>=0.000
       4 -> 21        -0.49751
       5 -> 20         0.49751

 Excited state symmetry could not be determined.
 Excited State  40:      Singlet-?Sym   29.0861 eV   42.63 nm  f=0.0000  <S**2>=0.000
       4 -> 20         0.49776
       5 -> 21        -0.49776

 Excited state symmetry could not be determined.
 Excited State  41:      Singlet-?Sym   29.5126 eV   42.01 nm  f=0.0000  <S**2>=0.000
       3 -> 18         0.12119
       4 -> 19        -0.25350
       5 -> 19         0.64529

 Excited state symmetry could not be determined.
 Excited State  42:      Singlet-?Sym   29.5126 eV   42.01 nm  f=0.0000  <S**2>=0.000
       3 -> 17         0.12119
       4 -> 19         0.64529
       5 -> 19         0.25350

 Excited state symmetry could not be determined.
 Excited State  43:      Singlet-?Sym   29.9837 eV   41.35 nm  f=0.2163  <S**2>=0.000
       3 -> 17         0.56287
       3 -> 18         0.39037
       4 -> 19        -0.10658

 Excited state symmetry could not be determined.
 Excited State  44:      Singlet-?Sym   29.9837 eV   41.35 nm  f=0.2163  <S**2>=0.000
       3 -> 17        -0.39037
       3 -> 18         0.56287
       5 -> 19        -0.10658

 Excited State  45:      Singlet-SG    31.3103 eV   39.60 nm  f=0.0115  <S**2>=0.000
       2 ->  6         0.37733
       2 ->  7         0.11486
       3 -> 19         0.20958
       3 -> 22        -0.13735
       4 -> 21        -0.36473
       5 -> 20        -0.36473

 Excited State  46:      Singlet-SG    32.6723 eV   37.95 nm  f=0.0021  <S**2>=0.000
       2 ->  6         0.51037
       3 -> 19        -0.43372
       4 -> 21         0.12524
       5 -> 20         0.12524

 Excited state symmetry could not be determined.
 Excited State  47:      Singlet-?Sym   32.9908 eV   37.58 nm  f=0.0154  <S**2>=0.000
       3 -> 20        -0.47125
       3 -> 21         0.50699

 Excited state symmetry could not be determined.
 Excited State  48:      Singlet-?Sym   32.9908 eV   37.58 nm  f=0.0154  <S**2>=0.000
       3 -> 20         0.50699
       3 -> 21         0.47125

 Excited state symmetry could not be determined.
 Excited State  49:      Singlet-?Sym   33.4127 eV   37.11 nm  f=0.0474  <S**2>=0.000
       4 -> 22         0.69667

 Excited state symmetry could not be determined.
 Excited State  50:      Singlet-?Sym   33.4127 eV   37.11 nm  f=0.0474  <S**2>=0.000
       5 -> 22         0.69667

 Excited State  51:      Singlet-SG    34.3420 eV   36.10 nm  f=0.0364  <S**2>=0.000
       2 ->  6         0.28969
       2 ->  7        -0.25523
       3 -> 19         0.47197
       3 -> 22         0.20360
       4 -> 21         0.18954
       5 -> 20         0.18954

 Excited state symmetry could not be determined.
 Excited State  52:      Singlet-?Sym   34.9975 eV   35.43 nm  f=0.0003  <S**2>=0.000
       2 ->  8         0.67476
       2 ->  9         0.17517

 Excited state symmetry could not be determined.
 Excited State  53:      Singlet-?Sym   34.9975 eV   35.43 nm  f=0.0003  <S**2>=0.000
       2 ->  8        -0.17517
       2 ->  9         0.67476

 Excited State  54:      Singlet-SG    35.1269 eV   35.30 nm  f=0.0137  <S**2>=0.000
       2 ->  7         0.63070
       3 -> 19         0.15806
       3 -> 22         0.20885

 Excited State  55:      Singlet-SG    37.6850 eV   32.90 nm  f=0.0105  <S**2>=0.000
       2 ->  7        -0.10066
       2 -> 12         0.69296

 Excited state symmetry could not be determined.
 Excited State  56:      Singlet-?Sym   37.9305 eV   32.69 nm  f=0.0033  <S**2>=0.000
       2 -> 10         0.20962
       2 -> 11         0.66857

 Excited state symmetry could not be determined.
 Excited State  57:      Singlet-?Sym   37.9305 eV   32.69 nm  f=0.0033  <S**2>=0.000
       2 -> 10         0.66857
       2 -> 11        -0.20962

 Excited state symmetry could not be determined.
 Excited State  58:      Singlet-?Sym   38.0836 eV   32.56 nm  f=0.0664  <S**2>=0.000
       4 -> 23         0.35876
       5 -> 23         0.60659

 Excited state symmetry could not be determined.
 Excited State  59:      Singlet-?Sym   38.0836 eV   32.56 nm  f=0.0664  <S**2>=0.000
       4 -> 23         0.60659
       5 -> 23        -0.35876

 Excited State  60:      Singlet-SG    38.9549 eV   31.83 nm  f=0.0137  <S**2>=0.000
       2 -> 13         0.53483
       3 -> 22         0.43367

 Excited State  61:      Singlet-SG    40.3523 eV   30.73 nm  f=0.0206  <S**2>=0.000
       2 -> 13        -0.39669
       3 -> 19        -0.10460
       3 -> 22         0.39943
       3 -> 23         0.31694
       4 -> 21        -0.14773
       5 -> 20        -0.14773

 Excited State  62:      Singlet-SG    42.2790 eV   29.33 nm  f=0.0001  <S**2>=0.000
       2 -> 13         0.19289
       3 -> 22        -0.17941
       3 -> 23         0.62583

 Excited state symmetry could not be determined.
 Excited State  63:      Singlet-?Sym   44.8054 eV   27.67 nm  f=0.0000  <S**2>=0.000
       2 -> 14         0.70675

 Excited state symmetry could not be determined.
 Excited State  64:      Singlet-?Sym   44.8054 eV   27.67 nm  f=0.0000  <S**2>=0.000
       2 -> 15         0.70675

 Excited State  65:      Singlet-SG    45.5726 eV   27.21 nm  f=0.0065  <S**2>=0.000
       2 -> 16         0.69490

 Excited state symmetry could not be determined.
 Excited State  66:      Singlet-?Sym   48.2133 eV   25.72 nm  f=0.0000  <S**2>=0.000
       2 -> 17         0.64454
       2 -> 18        -0.28653

 Excited state symmetry could not be determined.
 Excited State  67:      Singlet-?Sym   48.2133 eV   25.72 nm  f=0.0000  <S**2>=0.000
       2 -> 17         0.28653
       2 -> 18         0.64454

 Excited state symmetry could not be determined.
 Excited State  68:      Singlet-?Sym   51.2839 eV   24.18 nm  f=0.0801  <S**2>=0.000
       2 -> 20         0.68653
       2 -> 21        -0.16132

 Excited state symmetry could not be determined.
 Excited State  69:      Singlet-?Sym   51.2839 eV   24.18 nm  f=0.0801  <S**2>=0.000
       2 -> 20         0.16132
       2 -> 21         0.68653

 Excited State  70:      Singlet-SG    51.7924 eV   23.94 nm  f=0.0269  <S**2>=0.000
       2 -> 19         0.70057

 Excited State  71:      Singlet-SG    55.8170 eV   22.21 nm  f=0.0595  <S**2>=0.000
       2 -> 22         0.68104
       4 -> 24         0.11579
       5 -> 25         0.11579

 Excited state symmetry could not be determined.
 Excited State  72:      Singlet-?Sym   55.9925 eV   22.14 nm  f=0.0000  <S**2>=0.000
       4 -> 24        -0.49985
       5 -> 25         0.49985

 Excited state symmetry could not be determined.
 Excited State  73:      Singlet-?Sym   55.9925 eV   22.14 nm  f=0.0000  <S**2>=0.000
       4 -> 25         0.49985
       5 -> 24         0.49985

 Excited state symmetry could not be determined.
 Excited State  74:      Singlet-?Sym   56.3452 eV   22.00 nm  f=0.0000  <S**2>=0.000
       4 -> 25        -0.49980
       5 -> 24         0.49980

 Excited state symmetry could not be determined.
 Excited State  75:      Singlet-?Sym   57.1736 eV   21.69 nm  f=0.1330  <S**2>=0.000
       2 -> 22        -0.15534
       3 -> 26         0.12919
       4 -> 24         0.47541
       5 -> 25         0.47541

 Excited state symmetry could not be determined.
 Excited State  76:      Singlet-?Sym   60.1931 eV   20.60 nm  f=0.0887  <S**2>=0.000
       3 -> 24         0.36889
       3 -> 25         0.58656

 Excited state symmetry could not be determined.
 Excited State  77:      Singlet-?Sym   60.1931 eV   20.60 nm  f=0.0887  <S**2>=0.000
       3 -> 24         0.58656
       3 -> 25        -0.36889

 Excited State  78:      Singlet-SG    60.7339 eV   20.41 nm  f=0.0374  <S**2>=0.000
       2 -> 23         0.69687

 Excited state symmetry could not be determined.
 Excited State  79:      Singlet-?Sym   62.1455 eV   19.95 nm  f=0.0185  <S**2>=0.000
       4 -> 26        -0.40320
       5 -> 26         0.56094

 Excited state symmetry could not be determined.
 Excited State  80:      Singlet-?Sym   62.1455 eV   19.95 nm  f=0.0185  <S**2>=0.000
       4 -> 26         0.56094
       5 -> 26         0.40320

 Excited State  81:      Singlet-SG    67.1610 eV   18.46 nm  f=0.1147  <S**2>=0.000
       3 -> 26         0.68306

 Excited state symmetry could not be determined.
 Excited State  82:      Singlet-?Sym   68.3897 eV   18.13 nm  f=0.0000  <S**2>=0.000
       4 -> 27         0.46672
       4 -> 28         0.17935
       5 -> 27        -0.17935
       5 -> 28         0.46672

 Excited state symmetry could not be determined.
 Excited State  83:      Singlet-?Sym   68.3897 eV   18.13 nm  f=0.0000  <S**2>=0.000
       4 -> 27         0.17935
       4 -> 28        -0.46672
       5 -> 27         0.46672
       5 -> 28         0.17935

 Excited state symmetry could not be determined.
 Excited State  84:      Singlet-?Sym   72.5205 eV   17.10 nm  f=0.0000  <S**2>=0.000
       3 -> 27         0.70661

 Excited state symmetry could not be determined.
 Excited State  85:      Singlet-?Sym   72.5205 eV   17.10 nm  f=0.0000  <S**2>=0.000
       3 -> 28         0.70661

 Excited state symmetry could not be determined.
 Excited State  86:      Singlet-?Sym   72.8961 eV   17.01 nm  f=0.5750  <S**2>=0.000
       3 -> 29         0.15901
       3 -> 30         0.14630
       4 -> 27         0.34274
       4 -> 28        -0.31534
       5 -> 27        -0.31534
       5 -> 28        -0.34274

 Excited state symmetry could not be determined.
 Excited State  87:      Singlet-?Sym   72.8961 eV   17.01 nm  f=0.5750  <S**2>=0.000
       3 -> 29         0.14630
       3 -> 30        -0.15901
       4 -> 27         0.31534
       4 -> 28         0.34274
       5 -> 27         0.34274
       5 -> 28        -0.31534

 Excited state symmetry could not be determined.
 Excited State  88:      Singlet-?Sym   75.8073 eV   16.36 nm  f=0.0000  <S**2>=0.000
       4 -> 29        -0.49957
       5 -> 30         0.49957

 Excited state symmetry could not be determined.
 Excited State  89:      Singlet-?Sym   75.8073 eV   16.36 nm  f=0.0000  <S**2>=0.000
       4 -> 30         0.49957
       5 -> 29         0.49957

 Excited state symmetry could not be determined.
 Excited State  90:      Singlet-?Sym   75.9901 eV   16.32 nm  f=0.0000  <S**2>=0.000
       4 -> 30        -0.49984
       5 -> 29         0.49984

 Excited state symmetry could not be determined.
 Excited State  91:      Singlet-?Sym   78.1181 eV   15.87 nm  f=0.0094  <S**2>=0.000
       2 -> 24         0.66999
       2 -> 25         0.21312

 Excited state symmetry could not be determined.
 Excited State  92:      Singlet-?Sym   78.1181 eV   15.87 nm  f=0.0094  <S**2>=0.000
       2 -> 24        -0.21312
       2 -> 25         0.66999

 Excited state symmetry could not be determined.
 Excited State  93:      Singlet-?Sym   79.2695 eV   15.64 nm  f=0.3800  <S**2>=0.000
       3 -> 26         0.11286
       3 -> 31        -0.26020
       4 -> 29         0.45396
       5 -> 30         0.45396

 Excited state symmetry could not be determined.
 Excited State  94:      Singlet-?Sym   79.8990 eV   15.52 nm  f=0.0029  <S**2>=0.000
       3 -> 29         0.22652
       4 -> 31         0.61850
       5 -> 31         0.23738

 Excited state symmetry could not be determined.
 Excited State  95:      Singlet-?Sym   79.8990 eV   15.52 nm  f=0.0029  <S**2>=0.000
       3 -> 30         0.22652
       4 -> 31        -0.23738
       5 -> 31         0.61850

 Excited state symmetry could not be determined.
 Excited State  96:      Singlet-?Sym   81.9570 eV   15.13 nm  f=0.4491  <S**2>=0.000
       3 -> 29         0.54202
       3 -> 30        -0.30530
       4 -> 27        -0.13124
       4 -> 31        -0.20990
       5 -> 28         0.13124
       5 -> 31         0.11823

 Excited state symmetry could not be determined.
 Excited State  97:      Singlet-?Sym   81.9570 eV   15.13 nm  f=0.4491  <S**2>=0.000
       3 -> 29         0.30530
       3 -> 30         0.54202
       4 -> 28         0.13124
       4 -> 31        -0.11823
       5 -> 27         0.13124
       5 -> 31        -0.20990

 Excited State  98:      Singlet-SG    83.5883 eV   14.83 nm  f=0.1441  <S**2>=0.000
       3 -> 31         0.65458
       4 -> 29         0.17684
       5 -> 30         0.17684

 Excited State  99:      Singlet-SG    84.6053 eV   14.65 nm  f=0.0117  <S**2>=0.000
       2 -> 26         0.70495

 Excited state symmetry could not be determined.
 Excited State 100:      Singlet-?Sym   91.3735 eV   13.57 nm  f=0.0000  <S**2>=0.000
       2 -> 27         0.70468

 Excited state symmetry could not be determined.
 Excited State 101:      Singlet-?Sym   91.3736 eV   13.57 nm  f=0.0000  <S**2>=0.000
       2 -> 28         0.70468

 Excited state symmetry could not be determined.
 Excited State 102:      Singlet-?Sym   92.0222 eV   13.47 nm  f=0.0455  <S**2>=0.000
       4 -> 32         0.14436
       5 -> 32         0.68932

 Excited state symmetry could not be determined.
 Excited State 103:      Singlet-?Sym   92.0222 eV   13.47 nm  f=0.0455  <S**2>=0.000
       4 -> 32         0.68932
       5 -> 32        -0.14436

 Excited State 104:      Singlet-SG    96.2181 eV   12.89 nm  f=0.1341  <S**2>=0.000
       3 -> 32         0.65768
       4 -> 33         0.17343
       5 -> 34         0.17343

 Excited state symmetry could not be determined.
 Excited State 105:      Singlet-?Sym   97.4206 eV   12.73 nm  f=0.0000  <S**2>=0.000
       4 -> 33         0.49830
       5 -> 34        -0.49830

 Excited state symmetry could not be determined.
 Excited State 106:      Singlet-?Sym   97.4206 eV   12.73 nm  f=0.0000  <S**2>=0.000
       4 -> 34         0.49830
       5 -> 33         0.49830

 Excited state symmetry could not be determined.
 Excited State 107:      Singlet-?Sym   97.8258 eV   12.67 nm  f=0.0000  <S**2>=0.000
       4 -> 34        -0.49993
       5 -> 33         0.49993

 Excited state symmetry could not be determined.
 Excited State 108:      Singlet-?Sym   98.4061 eV   12.60 nm  f=0.0000  <S**2>=0.000
       2 -> 29         0.56562
       2 -> 30        -0.41385

 Excited state symmetry could not be determined.
 Excited State 109:      Singlet-?Sym   98.4061 eV   12.60 nm  f=0.0000  <S**2>=0.000
       2 -> 29         0.41385
       2 -> 30         0.56562

 The electronic state is 1-SG.
 Alpha  occ. eigenvalues --  -24.80502  -1.30655  -0.64425  -0.50769  -0.50769
 Alpha virt. eigenvalues --    0.07468   0.15589   0.15765   0.15765   0.27765
 Alpha virt. eigenvalues --    0.27765   0.28227   0.32472   0.57152   0.57152
 Alpha virt. eigenvalues --    0.57190   0.68768   0.68768   0.81113   0.81438

 Mulliken charges:
               1
     1  F   -0.416122
     2  H    0.416122
 Sum of Mulliken charges =   0.00000

 Dipole moment (field-independent basis, Debye):
    X=              0.0000    Y=              0.0000    Z=             -1.8108  Tot=              1.8108
 Quadrupole moment (field-independent basis, Debye-Ang):
   XX=             -5.8265   YY=             -5.8265   ZZ=             -3.6722
   XY=              0.0000   XZ=              0.0000   YZ=              0.0000

 Normal termination of Gaussian 16 at Sun Feb 27 06:37:10 2022.
