 Gaussian 16, Revision C.01,
 Gaussian 16:  EM64L-G16RevC.01  3-Jul-2019

 ----------------------------------------------------------------------
 #P TD(Nstates=10000) wB97XD/Gen SCF(maxcycles=100) Int(Grid=ultrafine)
 ----------------------------------------------------------------------

 ---------------------
 xGDB7_00001_tier4.com
 ---------------------
 Symbolic Z-matrix:
 Charge =  0 Multiplicity = 1

                         Standard orientation:
 ---------------------------------------------------------------------
 Center     Atomic      Atomic             Coordinates (Angstroms)
 Number     Number       Type             X           Y           Z
 ---------------------------------------------------------------------
      1          6           0        0.000000    0.000000    0.597322
      2          6           0        0.000000    0.000000   -0.597322
      3          1           0        0.000000    0.000000    1.661338
      4          1           0        0.000000    0.000000   -1.661338
 ---------------------------------------------------------------------

 SCF Done:  E(RwB97XD) =  -77.3283712348     A.U. after    9 cycles

 Excitation energies and oscillator strengths:

 Excited state symmetry could not be determined.
 Excited State   1:      Singlet-?Sym    6.7712 eV  183.11 nm  f=0.0000  <S**2>=0.000
       6 -> 10         0.49273
       7 -> 11        -0.49273
 This state for optimization and/or second-order correction.
 Total Energy, E(TD-HF/TD-DFT) =  -77.0795344867
 Copying the excited state density for this state as the 1-particle RhoCI density.

 Excited state symmetry could not be determined.
 Excited State   2:      Singlet-?Sym    7.0179 eV  176.67 nm  f=0.0000  <S**2>=0.000
       6 -> 10         0.49472
       7 -> 11         0.49472

 Excited state symmetry could not be determined.
 Excited State   3:      Singlet-?Sym    7.0179 eV  176.67 nm  f=0.0000  <S**2>=0.000
       6 -> 11        -0.49472
       7 -> 10         0.49472

 Excited state symmetry could not be determined.
 Excited State   4:      Singlet-?Sym    8.1223 eV  152.65 nm  f=0.1119  <S**2>=0.000
       6 ->  8         0.69709

 Excited state symmetry could not be determined.
 Excited State   5:      Singlet-?Sym    8.1223 eV  152.65 nm  f=0.1119  <S**2>=0.000
       7 ->  8         0.69709

 Excited state symmetry could not be determined.
 Excited State   6:      Singlet-?Sym    8.6379 eV  143.54 nm  f=0.0000  <S**2>=0.000
       6 ->  9         0.68902

 Excited state symmetry could not be determined.
 Excited State   7:      Singlet-?Sym    8.6379 eV  143.54 nm  f=0.0000  <S**2>=0.000
       7 ->  9         0.68902

 Excited state symmetry could not be determined.
 Excited State   8:      Singlet-?Sym    9.7381 eV  127.32 nm  f=0.0397  <S**2>=0.000
       6 -> 12         0.49260
       7 -> 12         0.48167

 Excited state symmetry could not be determined.
 Excited State   9:      Singlet-?Sym    9.7381 eV  127.32 nm  f=0.0397  <S**2>=0.000
       6 -> 12        -0.48167
       7 -> 12         0.49260

 Excited state symmetry could not be determined.
 Excited State  10:      Singlet-?Sym   10.0312 eV  123.60 nm  f=0.7494  <S**2>=0.000
       6 -> 11         0.47660
       6 -> 19         0.14528
       7 -> 10         0.47660
       7 -> 18         0.14528

 Excited state symmetry could not be determined.
 Excited State  11:      Singlet-?Sym   11.2554 eV  110.16 nm  f=0.0000  <S**2>=0.000
       6 -> 13         0.67208
       6 -> 21         0.12453
       6 -> 25        -0.10467

 Excited state symmetry could not be determined.
 Excited State  12:      Singlet-?Sym   11.2554 eV  110.16 nm  f=0.0000  <S**2>=0.000
       7 -> 13         0.67208
       7 -> 21         0.12453
       7 -> 25        -0.10467

 Excited state symmetry could not be determined.
 Excited State  13:      Singlet-?Sym   11.4017 eV  108.74 nm  f=0.0000  <S**2>=0.000
       6 -> 14         0.49316
       7 -> 15        -0.49316

 Excited state symmetry could not be determined.
 Excited State  14:      Singlet-?Sym   11.4018 eV  108.74 nm  f=0.0000  <S**2>=0.000
       6 -> 15         0.49316
       7 -> 14         0.49316

 Excited state symmetry could not be determined.
 Excited State  15:      Singlet-?Sym   11.5292 eV  107.54 nm  f=0.0000  <S**2>=0.000
       6 -> 15        -0.49529
       7 -> 14         0.49529

 Excited state symmetry could not be determined.
 Excited State  16:      Singlet-?Sym   12.1441 eV  102.09 nm  f=0.0000  <S**2>=0.000
       6 -> 16         0.31970
       6 -> 17         0.38423
       7 -> 16         0.38423
       7 -> 17        -0.31970

 Excited state symmetry could not be determined.
 Excited State  17:      Singlet-?Sym   12.1441 eV  102.09 nm  f=0.0000  <S**2>=0.000
       6 -> 16         0.38423
       6 -> 17        -0.31970
       7 -> 16        -0.31970
       7 -> 17        -0.38423

 Excited state symmetry could not be determined.
 Excited State  18:      Singlet-?Sym   12.2304 eV  101.37 nm  f=0.0000  <S**2>=0.000
       5 -> 12        -0.12617
       6 -> 14         0.48305
       7 -> 15         0.48305

 Excited state symmetry could not be determined.
 Excited State  19:      Singlet-?Sym   12.6154 eV   98.28 nm  f=0.3259  <S**2>=0.000
       4 -> 10         0.10927
       6 -> 16         0.47131
       6 -> 17         0.13414
       7 -> 16        -0.13414
       7 -> 17         0.47131

 Excited state symmetry could not be determined.
 Excited State  20:      Singlet-?Sym   12.6154 eV   98.28 nm  f=0.3259  <S**2>=0.000
       4 -> 11         0.10927
       6 -> 16         0.13414
       6 -> 17        -0.47131
       7 -> 16         0.47131
       7 -> 17         0.13414

 Excited state symmetry could not be determined.
 Excited State  21:      Singlet-?Sym   12.7780 eV   97.03 nm  f=0.0000  <S**2>=0.000
       5 -> 10        -0.46331
       5 -> 11         0.50935

 Excited state symmetry could not be determined.
 Excited State  22:      Singlet-?Sym   12.7780 eV   97.03 nm  f=0.0000  <S**2>=0.000
       5 -> 10         0.50935
       5 -> 11         0.46331

 Excited state symmetry could not be determined.
 Excited State  23:      Singlet-?Sym   12.9056 eV   96.07 nm  f=0.0000  <S**2>=0.000
       6 -> 19        -0.49303
       7 -> 18         0.49303

 Excited state symmetry could not be determined.
 Excited State  24:      Singlet-?Sym   12.9056 eV   96.07 nm  f=0.0000  <S**2>=0.000
       6 -> 18         0.49303
       7 -> 19         0.49303

 Excited state symmetry could not be determined.
 Excited State  25:      Singlet-?Sym   12.9418 eV   95.80 nm  f=0.0000  <S**2>=0.000
       6 -> 18         0.49104
       7 -> 19        -0.49104

 Excited state symmetry could not be determined.
 Excited State  26:      Singlet-?Sym   13.6266 eV   90.99 nm  f=0.0918  <S**2>=0.000
       7 -> 20         0.69298

 Excited state symmetry could not be determined.
 Excited State  27:      Singlet-?Sym   13.6266 eV   90.99 nm  f=0.0918  <S**2>=0.000
       6 -> 20         0.69298

 Excited State  28:      Singlet-SGG   13.8257 eV   89.68 nm  f=0.0000  <S**2>=0.000
       4 ->  9        -0.11251
       5 ->  8         0.68193

 Excited State  29:      Singlet-SGU   13.9418 eV   88.93 nm  f=0.4682  <S**2>=0.000
       4 ->  8        -0.20188
       5 ->  9         0.60623
       6 -> 19         0.18608
       7 -> 18         0.18608

 Excited state symmetry could not be determined.
 Excited State  30:      Singlet-?Sym   14.0211 eV   88.43 nm  f=0.0000  <S**2>=0.000
       6 -> 21         0.49456
       7 -> 21         0.46753

 Excited state symmetry could not be determined.
 Excited State  31:      Singlet-?Sym   14.0211 eV   88.43 nm  f=0.0000  <S**2>=0.000
       6 -> 21        -0.46753
       7 -> 21         0.49456

 Excited state symmetry could not be determined.
 Excited State  32:      Singlet-?Sym   14.6016 eV   84.91 nm  f=0.0201  <S**2>=0.000
       5 ->  9        -0.29194
       5 -> 13         0.10721
       6 -> 11        -0.12035
       6 -> 19         0.41983
       7 -> 10        -0.12035
       7 -> 18         0.41983

 Excited state symmetry could not be determined.
 Excited State  33:      Singlet-?Sym   14.7321 eV   84.16 nm  f=0.0224  <S**2>=0.000
       4 -> 11        -0.22694
       6 -> 12        -0.11120
       6 -> 22         0.65491

 Excited state symmetry could not be determined.
 Excited State  34:      Singlet-?Sym   14.7321 eV   84.16 nm  f=0.0224  <S**2>=0.000
       4 -> 10        -0.22694
       7 -> 12        -0.11120
       7 -> 22         0.65491

 Excited State  35:      Singlet-SGG   15.2084 eV   81.52 nm  f=0.0000  <S**2>=0.000
       4 ->  9         0.20574
       5 -> 12         0.47096
       6 -> 26        -0.32249
       7 -> 27        -0.32249

 Excited state symmetry could not be determined.
 Excited State  36:      Singlet-?Sym   15.3308 eV   80.87 nm  f=0.0000  <S**2>=0.000
       6 -> 26         0.49351
       7 -> 27        -0.49351

 Excited state symmetry could not be determined.
 Excited State  37:      Singlet-?Sym   15.3308 eV   80.87 nm  f=0.0000  <S**2>=0.000
       6 -> 27         0.49351
       7 -> 26         0.49351

 Excited state symmetry could not be determined.
 Excited State  38:      Singlet-?Sym   15.4143 eV   80.43 nm  f=0.0000  <S**2>=0.000
       6 -> 24         0.49720
       7 -> 23         0.49721

 Excited state symmetry could not be determined.
 Excited State  39:      Singlet-?Sym   15.4143 eV   80.43 nm  f=0.0000  <S**2>=0.000
       6 -> 23         0.49721
       7 -> 24        -0.49720

 Excited state symmetry could not be determined.
 Excited State  40:      Singlet-?Sym   15.5247 eV   79.86 nm  f=0.0000  <S**2>=0.000
       6 -> 23         0.45422
       6 -> 24        -0.13700
       7 -> 23         0.13699
       7 -> 24         0.45423
       7 -> 25        -0.18679

 Excited state symmetry could not be determined.
 Excited State  41:      Singlet-?Sym   15.5247 eV   79.86 nm  f=0.0000  <S**2>=0.000
       6 -> 23         0.13699
       6 -> 24         0.45423
       6 -> 25         0.18679
       7 -> 23        -0.45422
       7 -> 24         0.13700

 Excited state symmetry could not be determined.
 Excited State  42:      Singlet-?Sym   15.5949 eV   79.50 nm  f=0.0000  <S**2>=0.000
       6 -> 27        -0.49586
       7 -> 26         0.49586

 Excited state symmetry could not be determined.
 Excited State  43:      Singlet-?Sym   15.8310 eV   78.32 nm  f=0.0000  <S**2>=0.000
       6 -> 24        -0.13562
       6 -> 25         0.62374
       7 -> 23         0.13562
       7 -> 25        -0.22848

 Excited state symmetry could not be determined.
 Excited State  44:      Singlet-?Sym   15.8310 eV   78.32 nm  f=0.0000  <S**2>=0.000
       6 -> 23         0.13562
       6 -> 25         0.22848
       7 -> 24         0.13562
       7 -> 25         0.62374

 Excited state symmetry could not be determined.
 Excited State  45:      Singlet-?Sym   15.8863 eV   78.04 nm  f=0.4621  <S**2>=0.000
       4 -> 10         0.34489
       4 -> 11         0.54998
       6 -> 22         0.19179
       7 -> 22         0.12027

 Excited state symmetry could not be determined.
 Excited State  46:      Singlet-?Sym   15.8863 eV   78.04 nm  f=0.4621  <S**2>=0.000
       4 -> 10         0.54998
       4 -> 11        -0.34489
       6 -> 22        -0.12027
       7 -> 22         0.19179

 Excited State  47:      Singlet-SGU   16.1760 eV   76.65 nm  f=0.0362  <S**2>=0.000
       4 ->  8         0.65642
       4 -> 12         0.14229
       5 ->  9         0.13204

 Excited State  48:      Singlet-SGG   16.2825 eV   76.15 nm  f=0.0000  <S**2>=0.000
       5 ->  8        -0.11291
       5 -> 12         0.48924
       6 -> 26         0.32197
       7 -> 27         0.32197

 Excited State  49:      Singlet-SGG   16.6892 eV   74.29 nm  f=0.0000  <S**2>=0.000
       4 ->  9         0.64796
       6 -> 26         0.16011
       7 -> 27         0.16011

 Excited state symmetry could not be determined.
 Excited State  50:      Singlet-?Sym   16.9543 eV   73.13 nm  f=0.0776  <S**2>=0.000
       4 -> 19        -0.14688
       5 -> 14         0.68421

 Excited state symmetry could not be determined.
 Excited State  51:      Singlet-?Sym   16.9543 eV   73.13 nm  f=0.0776  <S**2>=0.000
       4 -> 18        -0.14688
       5 -> 15         0.68421

 Excited state symmetry could not be determined.
 Excited State  52:      Singlet-?Sym   16.9549 eV   73.13 nm  f=0.0719  <S**2>=0.000
       4 -> 12         0.18040
       5 -> 13        -0.17587
       6 -> 29         0.46269
       7 -> 28         0.46269

 Excited State  53:      Singlet-SGU   17.0242 eV   72.83 nm  f=0.4228  <S**2>=0.000
       4 -> 12        -0.32461
       5 ->  9         0.13388
       5 -> 13         0.54924
       6 -> 29         0.18066
       7 -> 28         0.18066

 Excited state symmetry could not be determined.
 Excited State  54:      Singlet-?Sym   17.0566 eV   72.69 nm  f=0.0000  <S**2>=0.000
       6 -> 28         0.49956
       7 -> 29         0.49956

 Excited state symmetry could not be determined.
 Excited State  55:      Singlet-?Sym   17.0566 eV   72.69 nm  f=0.0000  <S**2>=0.000
       6 -> 29        -0.49956
       7 -> 28         0.49956

 Excited state symmetry could not be determined.
 Excited State  56:      Singlet-?Sym   17.1601 eV   72.25 nm  f=0.0000  <S**2>=0.000
       6 -> 28         0.49986
       7 -> 29        -0.49986

 Excited State  57:      Singlet-SGU   17.7560 eV   69.83 nm  f=0.0389  <S**2>=0.000
       4 -> 12         0.55686
       4 -> 20        -0.10718
       5 -> 13         0.36720
       5 -> 21         0.11729

 Excited state symmetry could not be determined.
 Excited State  58:      Singlet-?Sym   17.9636 eV   69.02 nm  f=0.0000  <S**2>=0.000
       4 -> 14         0.11556
       4 -> 15        -0.36802
       5 -> 18         0.54687
       5 -> 19        -0.17172

 Excited state symmetry could not be determined.
 Excited State  59:      Singlet-?Sym   17.9636 eV   69.02 nm  f=0.0000  <S**2>=0.000
       4 -> 14        -0.36802
       4 -> 15        -0.11556
       5 -> 18         0.17172
       5 -> 19         0.54687

 Excited state symmetry could not be determined.
 Excited State  60:      Singlet-?Sym   18.0938 eV   68.52 nm  f=0.0000  <S**2>=0.000
       5 -> 16         0.70308

 Excited state symmetry could not be determined.
 Excited State  61:      Singlet-?Sym   18.0938 eV   68.52 nm  f=0.0000  <S**2>=0.000
       5 -> 17         0.70308

 Excited State  62:      Singlet-SGG   19.0080 eV   65.23 nm  f=0.0000  <S**2>=0.000
       4 -> 13         0.57596
       5 -> 20        -0.38625

 Excited State  63:      Singlet-SGG   19.5070 eV   63.56 nm  f=0.0000  <S**2>=0.000
       4 -> 13         0.31041
       5 -> 20         0.54139
       6 -> 30         0.20607
       7 -> 31         0.20607

 Excited state symmetry could not be determined.
 Excited State  64:      Singlet-?Sym   19.5534 eV   63.41 nm  f=0.0000  <S**2>=0.000
       4 -> 14        -0.32447
       4 -> 15         0.47860
       5 -> 18         0.32084
       5 -> 19        -0.21752

 Excited state symmetry could not be determined.
 Excited State  65:      Singlet-?Sym   19.5534 eV   63.41 nm  f=0.0000  <S**2>=0.000
       4 -> 14         0.47860
       4 -> 15         0.32447
       5 -> 18         0.21752
       5 -> 19         0.32084

 Excited State  66:      Singlet-SGU   19.6601 eV   63.06 nm  f=0.3539  <S**2>=0.000
       4 -> 22        -0.12056
       5 -> 21         0.67555

 Excited state symmetry could not be determined.
 Excited State  67:      Singlet-?Sym   19.9993 eV   61.99 nm  f=0.0000  <S**2>=0.000
       4 -> 16         0.65820
       5 -> 23         0.25391

 Excited state symmetry could not be determined.
 Excited State  68:      Singlet-?Sym   19.9993 eV   61.99 nm  f=0.0000  <S**2>=0.000
       4 -> 17         0.65820
       5 -> 24         0.25391

 Excited state symmetry could not be determined.
 Excited State  69:      Singlet-?Sym   20.0618 eV   61.80 nm  f=0.0000  <S**2>=0.000
       6 -> 30         0.49711
       7 -> 31        -0.49711

 Excited state symmetry could not be determined.
 Excited State  70:      Singlet-?Sym   20.0619 eV   61.80 nm  f=0.0000  <S**2>=0.000
       6 -> 31         0.49711
       7 -> 30         0.49711

 Excited state symmetry could not be determined.
 Excited State  71:      Singlet-?Sym   20.2161 eV   61.33 nm  f=0.0000  <S**2>=0.000
       4 -> 13        -0.20910
       4 -> 21         0.10799
       5 -> 20        -0.18704
       5 -> 22        -0.34758
       6 -> 30         0.37474
       7 -> 31         0.37474

 Excited state symmetry could not be determined.
 Excited State  72:      Singlet-?Sym   20.2166 eV   61.33 nm  f=0.0000  <S**2>=0.000
       6 -> 31        -0.49782
       7 -> 30         0.49782

 Excited state symmetry could not be determined.
 Excited State  73:      Singlet-?Sym   20.2902 eV   61.11 nm  f=0.0191  <S**2>=0.000
       4 -> 19         0.12525
       6 -> 32         0.69044

 Excited state symmetry could not be determined.
 Excited State  74:      Singlet-?Sym   20.2902 eV   61.11 nm  f=0.0191  <S**2>=0.000
       4 -> 18         0.12525
       7 -> 32         0.69044

 Excited state symmetry could not be determined.
 Excited State  75:      Singlet-?Sym   20.3211 eV   61.01 nm  f=0.0000  <S**2>=0.000
       3 -> 10         0.51949
       3 -> 11         0.43949

 Excited state symmetry could not be determined.
 Excited State  76:      Singlet-?Sym   20.3211 eV   61.01 nm  f=0.0000  <S**2>=0.000
       3 -> 10        -0.43949
       3 -> 11         0.51949

 Excited state symmetry could not be determined.
 Excited State  77:      Singlet-?Sym   20.7534 eV   59.74 nm  f=0.0000  <S**2>=0.000
       4 -> 18         0.58269
       4 -> 19        -0.12767
       5 -> 27         0.32477
       7 -> 32        -0.11706

 Excited state symmetry could not be determined.
 Excited State  78:      Singlet-?Sym   20.7534 eV   59.74 nm  f=0.0000  <S**2>=0.000
       4 -> 18         0.12767
       4 -> 19         0.58269
       5 -> 26         0.32477
       6 -> 32        -0.11706

 Excited State  79:      Singlet-SGG   21.0039 eV   59.03 nm  f=0.0000  <S**2>=0.000
       3 ->  8         0.64553
       5 -> 22         0.20220

 Excited state symmetry could not be determined.
 Excited State  80:      Singlet-?Sym   21.3915 eV   57.96 nm  f=0.0294  <S**2>=0.000
       4 -> 18        -0.31054
       5 -> 15        -0.10458
       5 -> 27         0.61062

 Excited state symmetry could not be determined.
 Excited State  81:      Singlet-?Sym   21.3915 eV   57.96 nm  f=0.0294  <S**2>=0.000
       4 -> 19        -0.31054
       5 -> 14        -0.10458
       5 -> 26         0.61062

 Excited state symmetry could not be determined.
 Excited State  82:      Singlet-?Sym   21.4276 eV   57.86 nm  f=0.0000  <S**2>=0.000
       4 -> 16        -0.25454
       5 -> 23         0.65918

 Excited state symmetry could not be determined.
 Excited State  83:      Singlet-?Sym   21.4276 eV   57.86 nm  f=0.0000  <S**2>=0.000
       4 -> 17        -0.25454
       5 -> 24         0.65918

 Excited State  84:      Singlet-SGU   21.4933 eV   57.69 nm  f=0.0465  <S**2>=0.000
       3 ->  9        -0.40353
       4 -> 20         0.51588
       5 -> 25        -0.22641

 Excited State  85:      Singlet-SGU   21.6142 eV   57.36 nm  f=0.0108  <S**2>=0.000
       3 ->  9         0.52251
       4 -> 20         0.43865

 Excited State  86:      Singlet-SGG   21.7018 eV   57.13 nm  f=0.0000  <S**2>=0.000
       3 ->  8        -0.24440
       3 -> 12         0.13697
       4 -> 13        -0.10185
       4 -> 21         0.23679
       5 -> 22         0.53427
       6 -> 30         0.15450
       7 -> 31         0.15450

 Excited state symmetry could not be determined.
 Excited State  87:      Singlet-?Sym   21.8578 eV   56.72 nm  f=0.0000  <S**2>=0.000
       6 -> 33         0.63486
       7 -> 33        -0.27468

 Excited state symmetry could not be determined.
 Excited State  88:      Singlet-?Sym   21.8578 eV   56.72 nm  f=0.0000  <S**2>=0.000
       6 -> 33         0.27468
       7 -> 33         0.63486

 Excited State  89:      Singlet-SGU   22.0412 eV   56.25 nm  f=0.0921  <S**2>=0.000
       3 ->  9        -0.18290
       4 -> 20         0.13478
       5 -> 25         0.63883
       6 -> 35         0.10419
       7 -> 34         0.10419

 Excited State  90:      Singlet-SGG   22.1211 eV   56.05 nm  f=0.0000  <S**2>=0.000
       3 ->  8         0.11254
       3 -> 12        -0.12533
       4 -> 21         0.63464
       5 -> 22        -0.10683
       6 -> 30        -0.11775
       7 -> 31        -0.11775

 Excited state symmetry could not be determined.
 Excited State  91:      Singlet-?Sym   22.4492 eV   55.23 nm  f=0.0000  <S**2>=0.000
       4 -> 27        -0.28848
       5 -> 28         0.63915

 Excited state symmetry could not be determined.
 Excited State  92:      Singlet-?Sym   22.4492 eV   55.23 nm  f=0.0000  <S**2>=0.000
       4 -> 26        -0.28848
       5 -> 29         0.63915

 Excited State  93:      Singlet-SGU   22.7633 eV   54.47 nm  f=0.0892  <S**2>=0.000
       4 -> 22         0.63200
       5 -> 25         0.10141
       6 -> 35        -0.17592
       7 -> 34        -0.17592

 Excited State  94:      Singlet-SGG   22.9760 eV   53.96 nm  f=0.0000  <S**2>=0.000
       3 -> 12         0.66286
       5 -> 22        -0.12893

 Excited state symmetry could not be determined.
 Excited State  95:      Singlet-?Sym   23.2894 eV   53.24 nm  f=0.0000  <S**2>=0.000
       4 -> 23         0.69812

 Excited state symmetry could not be determined.
 Excited State  96:      Singlet-?Sym   23.2894 eV   53.24 nm  f=0.0000  <S**2>=0.000
       4 -> 24         0.69812

 Excited state symmetry could not be determined.
 Excited State  97:      Singlet-?Sym   23.3813 eV   53.03 nm  f=0.0000  <S**2>=0.000
       6 -> 35        -0.49720
       7 -> 34         0.49720

 Excited state symmetry could not be determined.
 Excited State  98:      Singlet-?Sym   23.3814 eV   53.03 nm  f=0.0000  <S**2>=0.000
       6 -> 34         0.49720
       7 -> 35         0.49720

 Excited state symmetry could not be determined.
 Excited State  99:      Singlet-?Sym   23.5772 eV   52.59 nm  f=0.0000  <S**2>=0.000
       4 -> 26         0.28420
       4 -> 27         0.56993
       5 -> 28         0.25669
       5 -> 29         0.12800

 Excited state symmetry could not be determined.
 Excited State 100:      Singlet-?Sym   23.5772 eV   52.59 nm  f=0.0000  <S**2>=0.000
       4 -> 26         0.56993
       4 -> 27        -0.28420
       5 -> 28        -0.12800
       5 -> 29         0.25669

 Excited state symmetry could not be determined.
 Excited State 101:      Singlet-?Sym   23.6782 eV   52.36 nm  f=0.0000  <S**2>=0.000
       6 -> 34         0.49814
       7 -> 35        -0.49814

 Excited State 102:      Singlet-SGU   23.8742 eV   51.93 nm  f=0.0314  <S**2>=0.000
       3 ->  9         0.13309
       3 -> 13         0.52966
       3 -> 21         0.12527
       3 -> 25        -0.11791
       4 -> 22         0.20147
       6 -> 35         0.24560
       7 -> 34         0.24560

 Excited State 103:      Singlet-SGG   23.8900 eV   51.90 nm  f=0.0000  <S**2>=0.000
       4 -> 25         0.69673

 Excited state symmetry could not be determined.
 Excited State 104:      Singlet-?Sym   24.0804 eV   51.49 nm  f=0.0230  <S**2>=0.000
       6 -> 36         0.42702
       7 -> 36         0.53331

 Excited state symmetry could not be determined.
 Excited State 105:      Singlet-?Sym   24.0804 eV   51.49 nm  f=0.0230  <S**2>=0.000
       6 -> 36         0.53331
       7 -> 36        -0.42702

 Excited state symmetry could not be determined.
 Excited State 106:      Singlet-?Sym   24.4528 eV   50.70 nm  f=0.0010  <S**2>=0.000
       3 -> 14        -0.20202
       3 -> 15         0.46536
       4 -> 28         0.41483
       4 -> 29        -0.18009
       7 -> 36         0.10606

 The electronic state is 1-SGG.
 Alpha  occ. eigenvalues --  -10.29369 -10.29094  -0.85565  -0.66079  -0.58719
 Alpha  occ. eigenvalues --   -0.38100  -0.38100
 Alpha virt. eigenvalues --    0.07429   0.08927   0.09416   0.09416   0.14514
 Alpha virt. eigenvalues --    0.19946   0.21829   0.21829   0.26238   0.26238
 Alpha virt. eigenvalues --    0.27227   0.27227   0.28435   0.29117   0.33899

 Mulliken charges:
               1
     1  C   -0.313431
     2  C   -0.313431
     3  H    0.313431
     4  H    0.313431
 Sum of Mulliken charges =   0.00000

 Dipole moment (field-independent basis, Debye):
    X=              0.0000    Y=             -0.0000    Z=             -0.0000  Tot=              0.0000
 Quadrupole moment (field-independent basis, Debye-Ang):
   XX=            -13.6203   YY=            -13.6203   ZZ=             -6.8762
   XY=             -0.0000   XZ=             -0.0000   YZ=              0.0000

 Normal termination of Gaussian 16 at Sun Feb 27 06:42:56 2022.
