 Gaussian 16, Revision C.01,
 Gaussian 16:  EM64L-G16RevC.01  3-Jul-2019

 ----------------------------------------------------------------------
 #P TD(Nstates=10000) wB97XD/Gen SCF(maxcycles=100) Int(Grid=ultrafine)
 ----------------------------------------------------------------------

 ---------------------
 xGDB7_00001_tier4.com
 ---------------------
 Symbolic Z-matrix:
 Charge =  0 Multiplicity = 1

                         Standard orientation:
 ---------------------------------------------------------------------
 Center     Atomic      Atomic             Coordinates (Angstroms)
 Number     Number       Type             X           Y           Z
 ---------------------------------------------------------------------
      1          9           0       -1.139724   -0.269725    0.000000
      2          6           0        0.000000    0.430281    0.000000
      3          6           0        1.180852   -0.148760    0.000000
      4          1           0       -0.180450    1.498331    0.000000
      5          1           0        1.283634   -1.225170    0.000000
      6          1           0        2.069222    0.465238    0.000000
 ---------------------------------------------------------------------

 SCF Done:  E(RwB97XD) =  -177.846204654     A.U. after   12 cycles

 Excitation energies and oscillator strengths:

 Excited State   1:      Singlet-A"     7.3151 eV  169.49 nm  f=0.0613  <S**2>=0.000
      12 -> 13         0.68970
 This state for optimization and/or second-order correction.
 Total Energy, E(TD-HF/TD-DFT) =  -177.577381364
 Copying the excited state density for this state as the 1-particle RhoCI density.

 Excited State   2:      Singlet-A'     7.6642 eV  161.77 nm  f=0.3287  <S**2>=0.000
      12 -> 14         0.69774

 Excited State   3:      Singlet-A"     7.9658 eV  155.65 nm  f=0.0052  <S**2>=0.000
      12 -> 15         0.67113
      12 -> 17        -0.12617
      12 -> 21         0.10562

 Excited State   4:      Singlet-A"     8.5246 eV  145.44 nm  f=0.0017  <S**2>=0.000
      12 -> 16         0.62524
      12 -> 17        -0.15698
      12 -> 20        -0.19763
      12 -> 21         0.14858

 Excited State   5:      Singlet-A"     8.9402 eV  138.68 nm  f=0.0001  <S**2>=0.000
      12 -> 15         0.17893
      12 -> 16         0.20582
      12 -> 17         0.60665
      12 -> 21        -0.17813

 Excited State   6:      Singlet-A"     8.9593 eV  138.39 nm  f=0.0000  <S**2>=0.000
      11 -> 14         0.69569

 Excited State   7:      Singlet-A'     9.5391 eV  129.97 nm  f=0.0038  <S**2>=0.000
      12 -> 18         0.69499

 Excited State   8:      Singlet-A"     9.7843 eV  126.72 nm  f=0.0421  <S**2>=0.000
      10 -> 14         0.23441
      12 -> 16        -0.14513
      12 -> 19         0.55853
      12 -> 20        -0.27336
      12 -> 21        -0.10356
      12 -> 22        -0.11193

 Excited State   9:      Singlet-A"     9.9046 eV  125.18 nm  f=0.0000  <S**2>=0.000
      10 -> 14         0.61663
      12 -> 19        -0.30744
      12 -> 20        -0.10910

 Excited State  10:      Singlet-A"     9.9772 eV  124.27 nm  f=0.1037  <S**2>=0.000
      10 -> 14         0.23676
      12 -> 19         0.23756
      12 -> 20         0.56792
      12 -> 21         0.19211

 Excited State  11:      Singlet-A'    10.3204 eV  120.14 nm  f=0.0031  <S**2>=0.000
      11 -> 13         0.61907
      11 -> 15        -0.27509

 Excited State  12:      Singlet-A"    10.5551 eV  117.46 nm  f=0.0000  <S**2>=0.000
      12 -> 16        -0.11962
      12 -> 17         0.26502
      12 -> 20        -0.14855
      12 -> 21         0.59582

 Excited State  13:      Singlet-A'    10.9286 eV  113.45 nm  f=0.0577  <S**2>=0.000
      11 -> 16        -0.14589
      12 -> 23         0.66589

 Excited State  14:      Singlet-A'    11.0436 eV  112.27 nm  f=0.1008  <S**2>=0.000
      10 -> 13         0.41812
      10 -> 15         0.15849
      11 -> 13         0.23001
      11 -> 15         0.46062
      11 -> 17        -0.10516

 Excited State  15:      Singlet-A'    11.2196 eV  110.51 nm  f=0.1148  <S**2>=0.000
      10 -> 13         0.36542
      11 -> 15        -0.36219
      11 -> 16         0.42258
      12 -> 23         0.10508

 Excited State  16:      Singlet-A"    11.3003 eV  109.72 nm  f=0.0000  <S**2>=0.000
      12 -> 19         0.10439
      12 -> 22         0.67588

 Excited State  17:      Singlet-A'    11.5318 eV  107.52 nm  f=0.1605  <S**2>=0.000
      10 -> 13        -0.32512
      10 -> 15        -0.20349
      11 -> 13         0.18103
      11 -> 15         0.16780
      11 -> 16         0.42341
      11 -> 17        -0.22278
      11 -> 21         0.12056
      12 -> 23         0.10530

 Excited State  18:      Singlet-A'    11.9628 eV  103.64 nm  f=0.0936  <S**2>=0.000
      10 -> 13        -0.20435
      10 -> 15         0.56565
      10 -> 16        -0.15065
      12 -> 24         0.22810

 Excited State  19:      Singlet-A"    12.0172 eV  103.17 nm  f=0.0152  <S**2>=0.000
       8 -> 14         0.67906
      12 -> 25        -0.10475

 Excited State  20:      Singlet-A'    12.0815 eV  102.62 nm  f=0.0325  <S**2>=0.000
       9 -> 14         0.37947
      10 -> 15        -0.24035
      10 -> 16        -0.10824
      12 -> 24         0.48261

 Excited State  21:      Singlet-A'    12.1952 eV  101.67 nm  f=0.0276  <S**2>=0.000
       9 -> 14         0.16635
      11 -> 15         0.15589
      11 -> 16         0.27649
      11 -> 17         0.51803
      11 -> 20         0.18096
      11 -> 21        -0.15521
      11 -> 26         0.10454

 Excited State  22:      Singlet-A"    12.2343 eV  101.34 nm  f=0.0088  <S**2>=0.000
      11 -> 18         0.69284

 Excited State  23:      Singlet-A'    12.3037 eV  100.77 nm  f=0.0075  <S**2>=0.000
       9 -> 14         0.52635
      10 -> 16         0.16869
      10 -> 17         0.10144
      12 -> 24        -0.33485

 Excited State  24:      Singlet-A"    12.3557 eV  100.35 nm  f=0.0195  <S**2>=0.000
       8 -> 14         0.10162
      12 -> 25         0.67036

 Excited State  25:      Singlet-A'    12.7015 eV   97.61 nm  f=0.0215  <S**2>=0.000
      10 -> 16         0.48065
      10 -> 20        -0.11346
      11 -> 17         0.12861
      11 -> 20        -0.38992
      12 -> 24         0.19246
      12 -> 27        -0.11360

 Excited State  26:      Singlet-A"    12.7603 eV   97.16 nm  f=0.0003  <S**2>=0.000
       9 -> 13        -0.20207
       9 -> 16         0.12425
      12 -> 26         0.61243
      12 -> 29        -0.10371

 Excited State  27:      Singlet-A"    12.8169 eV   96.73 nm  f=0.0717  <S**2>=0.000
       9 -> 13         0.55760
       9 -> 15        -0.26369
       9 -> 16        -0.15506
      12 -> 26         0.24434

 Excited State  28:      Singlet-A'    12.9348 eV   95.85 nm  f=0.0604  <S**2>=0.000
      10 -> 16         0.24850
      10 -> 17        -0.36265
      10 -> 20        -0.20620
      10 -> 21         0.12335
      11 -> 17        -0.21561
      11 -> 20         0.37817

 Excited State  29:      Singlet-A'    12.9794 eV   95.52 nm  f=0.0089  <S**2>=0.000
       9 -> 14         0.11028
      10 -> 16        -0.16544
      11 -> 19         0.62140
      11 -> 20        -0.10438

 Excited State  30:      Singlet-A'    13.0456 eV   95.04 nm  f=0.1483  <S**2>=0.000
      10 -> 16         0.19438
      10 -> 17         0.49032
      11 -> 19         0.17422
      11 -> 20         0.29420
      12 -> 24         0.16919

 Excited State  31:      Singlet-A'    13.2718 eV   93.42 nm  f=0.0210  <S**2>=0.000
       8 -> 13        -0.13740
      10 -> 16         0.12511
      10 -> 17        -0.11319
      11 -> 21         0.12487
      12 -> 27         0.64276

 Excited State  32:      Singlet-A"    13.3417 eV   92.93 nm  f=0.0082  <S**2>=0.000
       7 -> 14         0.66378
      10 -> 18         0.12083
      12 -> 29         0.15423

 Excited State  33:      Singlet-A'    13.4544 eV   92.15 nm  f=0.0337  <S**2>=0.000
      10 -> 20         0.10518
      11 -> 17         0.19086
      11 -> 20         0.15256
      11 -> 21         0.59059
      12 -> 27        -0.16152

 Excited State  34:      Singlet-A"    13.4551 eV   92.15 nm  f=0.0091  <S**2>=0.000
       7 -> 14        -0.12108
      12 -> 26         0.11043
      12 -> 28         0.50917
      12 -> 29         0.42054

 Excited State  35:      Singlet-A"    13.5082 eV   91.78 nm  f=0.0030  <S**2>=0.000
       7 -> 14        -0.12159
      10 -> 18         0.63697
      10 -> 23         0.13032
      10 -> 24        -0.10653
      11 -> 23         0.15053

 Excited State  36:      Singlet-A'    13.6444 eV   90.87 nm  f=0.0102  <S**2>=0.000
       8 -> 13         0.62249
      10 -> 17        -0.15102
      10 -> 19        -0.16986

 Excited State  37:      Singlet-A"    13.6503 eV   90.83 nm  f=0.0174  <S**2>=0.000
       7 -> 14        -0.11219
       9 -> 15        -0.13369
      12 -> 28        -0.43155
      12 -> 29         0.48892

 Excited State  38:      Singlet-A"    13.7443 eV   90.21 nm  f=0.0007  <S**2>=0.000
       9 -> 13         0.14803
       9 -> 15         0.52933
       9 -> 16        -0.35026
       9 -> 17        -0.10517
       9 -> 19         0.12582
      12 -> 28        -0.14086
      12 -> 29         0.10455

 Excited State  39:      Singlet-A'    13.8150 eV   89.75 nm  f=0.1244  <S**2>=0.000
       8 -> 13         0.18342
      10 -> 19         0.60251

 Excited State  40:      Singlet-A'    13.9293 eV   89.01 nm  f=0.0493  <S**2>=0.000
      10 -> 16         0.11726
      10 -> 20         0.59209
      10 -> 21         0.19534
      11 -> 21        -0.13912

 Excited State  41:      Singlet-A"    13.9824 eV   88.67 nm  f=0.0004  <S**2>=0.000
       9 -> 13         0.24595
       9 -> 15         0.14835
       9 -> 16         0.35299
       9 -> 17        -0.25064
      11 -> 23         0.41449
      11 -> 24         0.10173

 Excited State  42:      Singlet-A"    14.0567 eV   88.20 nm  f=0.0065  <S**2>=0.000
       9 -> 13        -0.17309
       9 -> 16        -0.33787
       9 -> 17         0.18090
      11 -> 23         0.50004
      11 -> 24         0.12931

 Excited State  43:      Singlet-A'    14.1662 eV   87.52 nm  f=0.0573  <S**2>=0.000
       8 -> 15         0.63609
      11 -> 19        -0.12385
      12 -> 32        -0.12489

 Excited State  44:      Singlet-A'    14.3552 eV   86.37 nm  f=0.0383  <S**2>=0.000
       9 -> 18        -0.14719
      11 -> 22         0.64518

 Excited State  45:      Singlet-A'    14.4772 eV   85.64 nm  f=0.0145  <S**2>=0.000
       8 -> 15         0.10256
       8 -> 16        -0.12138
      11 -> 22        -0.11819
      12 -> 32         0.65964

 Excited State  46:      Singlet-A"    14.6453 eV   84.66 nm  f=0.0079  <S**2>=0.000
      10 -> 23         0.38632
      12 -> 30         0.48946
      12 -> 31        -0.24515

 Excited State  47:      Singlet-A'    14.6962 eV   84.36 nm  f=0.0363  <S**2>=0.000
       7 -> 13        -0.10328
       9 -> 18         0.64420
      10 -> 21        -0.13879
      11 -> 22         0.13184

 Excited State  48:      Singlet-A"    14.7089 eV   84.29 nm  f=0.0078  <S**2>=0.000
       9 -> 15         0.14074
       9 -> 16         0.17801
       9 -> 17         0.22866
       9 -> 20         0.17879
       9 -> 21        -0.10483
      10 -> 23         0.40662
      12 -> 30        -0.34900
      12 -> 31        -0.13796

 Excited State  49:      Singlet-A'    14.7446 eV   84.09 nm  f=0.0384  <S**2>=0.000
       7 -> 13         0.14311
       8 -> 16         0.57815
       8 -> 20        -0.13745
      10 -> 20         0.11603
      10 -> 21        -0.15943
      12 -> 32         0.10156

 Excited State  50:      Singlet-A"    14.8071 eV   83.73 nm  f=0.0249  <S**2>=0.000
       6 -> 14         0.13036
       9 -> 15         0.17286
       9 -> 16         0.17571
       9 -> 17         0.34175
       9 -> 20         0.25739
       9 -> 21        -0.15324
       9 -> 26         0.10351
      10 -> 23        -0.27668
      12 -> 30         0.28070

 Excited State  51:      Singlet-A'    14.9254 eV   83.07 nm  f=0.0025  <S**2>=0.000
       7 -> 13         0.16556
       8 -> 15         0.10444
       8 -> 16         0.14505
       8 -> 17         0.43793
       8 -> 21        -0.11078
      10 -> 21         0.36978
      11 -> 25         0.10988

 Excited State  52:      Singlet-A"    14.9317 eV   83.03 nm  f=0.0388  <S**2>=0.000
      10 -> 23         0.19576
      11 -> 24        -0.24954
      12 -> 30         0.17017
      12 -> 31         0.53493
      12 -> 33        -0.11831

 Excited State  53:      Singlet-A'    14.9382 eV   83.00 nm  f=0.0290  <S**2>=0.000
       7 -> 13         0.58628
       7 -> 15        -0.15848
       8 -> 16        -0.18997
      10 -> 21        -0.11109

 Excited State  54:      Singlet-A"    15.0625 eV   82.31 nm  f=0.0458  <S**2>=0.000
       8 -> 18         0.23429
      10 -> 24         0.11243
      11 -> 23        -0.12732
      11 -> 24         0.52928
      12 -> 31         0.24887
      12 -> 33        -0.16957

 Excited State  55:      Singlet-A'    15.1169 eV   82.02 nm  f=0.0774  <S**2>=0.000
       7 -> 16        -0.12472
       7 -> 17         0.10200
       8 -> 17        -0.35276
       8 -> 20        -0.12251
       9 -> 18         0.13620
      10 -> 21         0.39607
      11 -> 25         0.16092
      11 -> 26        -0.21719

 Excited State  56:      Singlet-A"    15.2332 eV   81.39 nm  f=0.0277  <S**2>=0.000
       6 -> 14        -0.12961
       9 -> 17         0.13290
       9 -> 20        -0.14590
      12 -> 31         0.14834
      12 -> 33         0.61417

 Excited State  57:      Singlet-A'    15.3293 eV   80.88 nm  f=0.1556  <S**2>=0.000
       7 -> 15         0.15297
       8 -> 17        -0.12028
      10 -> 22         0.61301

 Excited State  58:      Singlet-A"    15.3985 eV   80.52 nm  f=0.0099  <S**2>=0.000
       9 -> 13        -0.11226
       9 -> 15        -0.14195
       9 -> 17        -0.30777
       9 -> 19         0.12335
       9 -> 20         0.53060
      12 -> 33         0.21930

 Excited State  59:      Singlet-A'    15.4533 eV   80.23 nm  f=0.1895  <S**2>=0.000
       8 -> 17         0.13452
       8 -> 19        -0.12152
       8 -> 20        -0.14688
      10 -> 21        -0.21404
      11 -> 25         0.54721
      11 -> 26        -0.15048
      11 -> 29         0.12359

 Excited State  60:      Singlet-A"    15.5936 eV   79.51 nm  f=0.0001  <S**2>=0.000
       7 -> 18         0.11119
       8 -> 18        -0.30208
       9 -> 19        -0.10297
      10 -> 24         0.58576

 Excited State  61:      Singlet-A"    15.6107 eV   79.42 nm  f=0.0024  <S**2>=0.000
       9 -> 19         0.59341
       9 -> 20        -0.13383
       9 -> 21        -0.23929
       9 -> 22         0.13295
      10 -> 24         0.11368

 Excited State  62:      Singlet-A'    15.6415 eV   79.27 nm  f=0.0251  <S**2>=0.000
       7 -> 13         0.12444
       7 -> 15         0.53790
       7 -> 16        -0.28578
       8 -> 19         0.12721
      10 -> 22        -0.12291
      11 -> 25         0.10270

 Excited State  63:      Singlet-A"    15.6961 eV   78.99 nm  f=0.0007  <S**2>=0.000
       8 -> 18         0.55586
      10 -> 24         0.24854
      11 -> 23         0.10585
      11 -> 24        -0.27508

 Excited State  64:      Singlet-A'    15.8037 eV   78.45 nm  f=0.1254  <S**2>=0.000
       7 -> 15         0.14633
       7 -> 16         0.41160
       7 -> 17        -0.20612
       7 -> 21         0.10610
       8 -> 17        -0.14123
       8 -> 20        -0.10195
      11 -> 25         0.17478
      11 -> 26         0.25792
      12 -> 35         0.19720

 Excited State  65:      Singlet-A'    15.8509 eV   78.22 nm  f=0.0011  <S**2>=0.000
       7 -> 13        -0.10750
       7 -> 15        -0.20270
       7 -> 16        -0.25347
       7 -> 17         0.13710
       8 -> 19         0.11355
       8 -> 20        -0.22694
      10 -> 22         0.12192
      11 -> 26         0.45337
      11 -> 29        -0.10641

 Excited State  66:      Singlet-A'    15.9558 eV   77.70 nm  f=0.0200  <S**2>=0.000
       7 -> 16         0.14952
       8 -> 19         0.57483
       8 -> 20        -0.13897
      11 -> 26        -0.13358
      12 -> 35        -0.13605

 Excited State  67:      Singlet-A"    16.0283 eV   77.35 nm  f=0.0012  <S**2>=0.000
       6 -> 14         0.10290
       9 -> 17         0.20576
       9 -> 19         0.22779
       9 -> 20         0.12920
       9 -> 21         0.57522

 Excited State  68:      Singlet-A'    16.0382 eV   77.31 nm  f=0.0502  <S**2>=0.000
       8 -> 17        -0.14211
       8 -> 20         0.42467
       8 -> 21         0.11329
      10 -> 25         0.17147
      11 -> 25         0.23601
      11 -> 26         0.19706
      12 -> 35        -0.26488
      12 -> 37        -0.17165

 Excited State  69:      Singlet-A"    16.1022 eV   77.00 nm  f=0.0027  <S**2>=0.000
      11 -> 27         0.13091
      12 -> 34         0.65901

 Excited State  70:      Singlet-A"    16.1423 eV   76.81 nm  f=0.0089  <S**2>=0.000
       6 -> 14         0.11012
       7 -> 18         0.11183
       8 -> 23         0.16796
      11 -> 27         0.61901
      12 -> 34        -0.12840

 Excited State  71:      Singlet-A'    16.1908 eV   76.58 nm  f=0.0202  <S**2>=0.000
       7 -> 15        -0.12845
       7 -> 16        -0.12153
       8 -> 19         0.21294
       8 -> 20         0.27697
       8 -> 21         0.10948
      10 -> 25         0.11387
      12 -> 35         0.50719

 Excited State  72:      Singlet-A'    16.2295 eV   76.39 nm  f=0.0161  <S**2>=0.000
       7 -> 15         0.10487
       7 -> 20        -0.12104
       8 -> 20        -0.15756
      10 -> 25         0.60357
      11 -> 29        -0.14421

 Excited State  73:      Singlet-A"    16.3029 eV   76.05 nm  f=0.2516  <S**2>=0.000
       6 -> 14         0.57680
       9 -> 20        -0.15482
      12 -> 31         0.12933
      12 -> 36        -0.22192

 Excited State  74:      Singlet-A'    16.4791 eV   75.24 nm  f=0.0079  <S**2>=0.000
       7 -> 17        -0.16664
       8 -> 17        -0.12465
       8 -> 20         0.13581
       8 -> 21        -0.13218
      11 -> 29        -0.29005
      12 -> 35        -0.20659
      12 -> 37         0.47490

 Excited State  75:      Singlet-A"    16.5334 eV   74.99 nm  f=0.0332  <S**2>=0.000
       6 -> 14         0.21736
      11 -> 27        -0.10264
      12 -> 36         0.59789
      12 -> 39         0.12588
      12 -> 43         0.10018

 Excited State  76:      Singlet-A'    16.6529 eV   74.45 nm  f=0.0049  <S**2>=0.000
       7 -> 16         0.16802
       7 -> 17         0.16948
       9 -> 23        -0.15382
      10 -> 26         0.31580
      10 -> 29        -0.10066
      11 -> 28        -0.15358
      11 -> 29         0.23991
      12 -> 37         0.37301

 Excited State  77:      Singlet-A'    16.7601 eV   73.98 nm  f=0.0625  <S**2>=0.000
       7 -> 16        -0.12199
       7 -> 17        -0.26475
       8 -> 21        -0.17937
       9 -> 23         0.20054
      10 -> 25         0.11012
      10 -> 26        -0.11095
      11 -> 26         0.12481
      11 -> 28        -0.23783
      11 -> 29         0.41341

 Excited State  78:      Singlet-A"    16.7669 eV   73.95 nm  f=0.0093  <S**2>=0.000
       7 -> 18         0.66220
      10 -> 24        -0.14619

 Excited State  79:      Singlet-A'    16.8467 eV   73.60 nm  f=0.0369  <S**2>=0.000
       6 -> 13        -0.10024
       7 -> 17        -0.15456
       8 -> 17         0.11115
       8 -> 21         0.32661
       9 -> 23         0.36721
       9 -> 24         0.10719
      10 -> 26         0.15061
      10 -> 28         0.11071
      11 -> 28         0.30552

 Excited State  80:      Singlet-A'    16.8817 eV   73.44 nm  f=0.0811  <S**2>=0.000
       6 -> 13         0.19937
       7 -> 20        -0.14768
       8 -> 21        -0.30434
      10 -> 26         0.30577
      10 -> 28         0.11794
      11 -> 28         0.38785

 Excited State  81:      Singlet-A'    16.9518 eV   73.14 nm  f=0.0161  <S**2>=0.000
       7 -> 16        -0.14995
       7 -> 17        -0.25270
       7 -> 19         0.19498
       7 -> 20        -0.22393
       8 -> 21         0.13215
       9 -> 23        -0.16954
      10 -> 26         0.30499
      11 -> 28        -0.25657
      11 -> 29        -0.15149
      12 -> 37        -0.13216

 Excited State  82:      Singlet-A"    17.0056 eV   72.91 nm  f=0.0032  <S**2>=0.000
       9 -> 19        -0.12594
       9 -> 22         0.64957
      12 -> 39         0.14201

 Excited State  83:      Singlet-A'    17.0233 eV   72.83 nm  f=0.0419  <S**2>=0.000
       7 -> 17         0.14119
       8 -> 21        -0.20443
       9 -> 23         0.38581
       9 -> 24         0.10202
      10 -> 26         0.25151
      10 -> 28        -0.18177
      11 -> 28        -0.16292
      11 -> 29        -0.13300
      12 -> 35         0.12540
      12 -> 38         0.25849

 Excited State  84:      Singlet-A"    17.0629 eV   72.66 nm  f=0.1003  <S**2>=0.000
       8 -> 23         0.46682
      10 -> 23        -0.11980
      10 -> 27        -0.46456

 Excited State  85:      Singlet-A'    17.0959 eV   72.52 nm  f=0.0139  <S**2>=0.000
       6 -> 13        -0.12446
       9 -> 23        -0.15224
      10 -> 28         0.14781
      12 -> 38         0.60438

 Excited State  86:      Singlet-A'    17.1642 eV   72.23 nm  f=0.0049  <S**2>=0.000
       6 -> 13         0.52791
       6 -> 15        -0.15708
       8 -> 21         0.23212
       8 -> 22        -0.14197
      11 -> 28        -0.12195
      12 -> 38         0.16039

 Excited State  87:      Singlet-A"    17.1891 eV   72.13 nm  f=0.0064  <S**2>=0.000
       8 -> 23        -0.34652
      10 -> 27        -0.30836
      11 -> 27         0.11728
      12 -> 39         0.43265
      12 -> 40        -0.17719

 Excited State  88:      Singlet-A"    17.2494 eV   71.88 nm  f=0.0076  <S**2>=0.000
       8 -> 23         0.30302
      10 -> 27         0.33464
      11 -> 27        -0.10018
      12 -> 36        -0.11988

 The electronic state is 1-A'.
 Alpha  occ. eigenvalues --  -24.82275 -10.37237 -10.28671  -1.33443  -0.87684
 Alpha  occ. eigenvalues --   -0.70801  -0.62679  -0.57880  -0.55980  -0.49968
 Alpha  occ. eigenvalues --   -0.46605  -0.35554
 Alpha virt. eigenvalues --    0.07345   0.07378   0.08846   0.11496   0.14261
 Alpha virt. eigenvalues --    0.14655   0.16215   0.16825   0.20312   0.21564
 Alpha virt. eigenvalues --    0.22006   0.25477   0.25731   0.28482   0.29332

 Mulliken charges:
               1
     1  F   -0.276781
     2  C    0.095928
     3  C   -0.794055
     4  H    0.350178
     5  H    0.327147
     6  H    0.297584
 Sum of Mulliken charges =  -0.00000

 Dipole moment (field-independent basis, Debye):
    X=              1.1136    Y=              0.7647    Z=              0.0000  Tot=              1.3509
 Quadrupole moment (field-independent basis, Debye-Ang):
   XX=            -17.5050   YY=            -15.4830   ZZ=            -19.0693
   XY=             -0.8467   XZ=              0.0000   YZ=              0.0000

 Normal termination of Gaussian 16 at Sun Feb 27 06:39:14 2022.
