 Gaussian 16, Revision C.01,
 Gaussian 16:  EM64L-G16RevC.01  3-Jul-2019

 ----------------------------------------------------------------------
 #P TD(Nstates=10000) wB97XD/Gen SCF(maxcycles=100) Int(Grid=ultrafine)
 ----------------------------------------------------------------------

 ---------------------
 xGDB7_00001_tier4.com
 ---------------------
 Symbolic Z-matrix:
 Charge =  0 Multiplicity = 1

                         Standard orientation:
 ---------------------------------------------------------------------
 Center     Atomic      Atomic             Coordinates (Angstroms)
 Number     Number       Type             X           Y           Z
 ---------------------------------------------------------------------
      1          7           0        1.111035   -0.177046   -0.052467
      2          6           0       -0.122009    0.419593    0.001774
      3          7           0       -1.267607   -0.121443    0.008098
      4          1           0        1.920558    0.367802    0.180104
      5          1           0        1.180700   -1.165617    0.115308
      6          1           0       -0.065701    1.508813    0.004046
      7          1           0       -1.207497   -1.139126    0.000481
 ---------------------------------------------------------------------

 SCF Done:  E(RwB97XD) =  -150.016362751     A.U. after   12 cycles

 Excitation energies and oscillator strengths:

 Excited State   1:      Singlet-A      6.2959 eV  196.93 nm  f=0.0065  <S**2>=0.000
      11 -> 14         0.11254
      11 -> 15         0.18972
      12 -> 13         0.64570
      12 -> 14         0.12181
 This state for optimization and/or second-order correction.
 Total Energy, E(TD-HF/TD-DFT) =  -149.784990952
 Copying the excited state density for this state as the 1-particle RhoCI density.

 Excited State   2:      Singlet-A      6.4047 eV  193.58 nm  f=0.0035  <S**2>=0.000
      11 -> 14         0.33603
      11 -> 15         0.53770
      12 -> 13        -0.22282
      12 -> 15         0.16610

 Excited State   3:      Singlet-A      7.0820 eV  175.07 nm  f=0.0824  <S**2>=0.000
      11 -> 13         0.29691
      11 -> 15        -0.16973
      12 -> 14         0.53160
      12 -> 15         0.25586

 Excited State   4:      Singlet-A      7.1835 eV  172.60 nm  f=0.0117  <S**2>=0.000
      11 -> 13         0.24300
      11 -> 15        -0.11528
      12 -> 13         0.10612
      12 -> 14        -0.37460
      12 -> 15         0.48285
      12 -> 16        -0.13564

 Excited State   5:      Singlet-A      7.3211 eV  169.35 nm  f=0.2109  <S**2>=0.000
      11 -> 13         0.45966
      11 -> 14         0.11988
      11 -> 16         0.31775
      12 -> 14        -0.12504
      12 -> 15        -0.35557
      12 -> 16         0.10248

 Excited State   6:      Singlet-A      7.7149 eV  160.71 nm  f=0.0476  <S**2>=0.000
      12 -> 14        -0.14224
      12 -> 15         0.11458
      12 -> 16         0.65550

 Excited State   7:      Singlet-A      7.9079 eV  156.78 nm  f=0.0738  <S**2>=0.000
      11 -> 13        -0.20790
      11 -> 14         0.55336
      11 -> 15        -0.33676
      11 -> 17        -0.10362

 Excited State   8:      Singlet-A      8.5091 eV  145.71 nm  f=0.0272  <S**2>=0.000
      11 -> 13        -0.27308
      11 -> 14        -0.17026
      11 -> 16         0.57592
      11 -> 17        -0.13217
      11 -> 20        -0.10023
      12 -> 15         0.10513

 Excited State   9:      Singlet-A      8.8953 eV  139.38 nm  f=0.0060  <S**2>=0.000
      10 -> 14         0.10254
      12 -> 17         0.65738
      12 -> 18         0.12210

 Excited State  10:      Singlet-A      8.9821 eV  138.03 nm  f=0.0034  <S**2>=0.000
      12 -> 17        -0.12837
      12 -> 18         0.66972

 Excited State  11:      Singlet-A      9.5445 eV  129.90 nm  f=0.0089  <S**2>=0.000
      12 -> 19         0.67439

 Excited State  12:      Singlet-A      9.6892 eV  127.96 nm  f=0.0081  <S**2>=0.000
      12 -> 20         0.67279

 Excited State  13:      Singlet-A      9.8385 eV  126.02 nm  f=0.0161  <S**2>=0.000
      11 -> 17        -0.11684
      11 -> 18         0.65646
      11 -> 22         0.11549
      12 -> 21        -0.13331

 Excited State  14:      Singlet-A      9.8567 eV  125.79 nm  f=0.0309  <S**2>=0.000
      11 -> 16         0.15691
      11 -> 17         0.63664
      11 -> 18         0.10763
      11 -> 20         0.10102
      11 -> 23        -0.10818

 Excited State  15:      Singlet-A     10.0701 eV  123.12 nm  f=0.0523  <S**2>=0.000
      10 -> 13         0.67858

 Excited State  16:      Singlet-A     10.2097 eV  121.44 nm  f=0.0007  <S**2>=0.000
       9 -> 14         0.15213
       9 -> 15         0.23510
      11 -> 19         0.55658
      11 -> 21        -0.23282
      11 -> 24        -0.16621

 Excited State  17:      Singlet-A     10.2316 eV  121.18 nm  f=0.0027  <S**2>=0.000
       9 -> 14         0.32109
       9 -> 15         0.53169
      11 -> 19        -0.23772

 Excited State  18:      Singlet-A     10.3359 eV  119.95 nm  f=0.1510  <S**2>=0.000
      10 -> 14         0.12331
      11 -> 18         0.10183
      11 -> 20         0.40403
      12 -> 21         0.50001

 Excited State  19:      Singlet-A     10.4880 eV  118.22 nm  f=0.0258  <S**2>=0.000
       9 -> 13         0.12902
      10 -> 14        -0.26606
      10 -> 15        -0.29474
      11 -> 20         0.44553
      11 -> 22        -0.10506
      12 -> 21        -0.26452

 Excited State  20:      Singlet-A     10.6397 eV  116.53 nm  f=0.0282  <S**2>=0.000
      10 -> 15        -0.17594
      12 -> 21         0.18563
      12 -> 22         0.58582
      12 -> 23         0.10129

 Excited State  21:      Singlet-A     10.6982 eV  115.89 nm  f=0.0697  <S**2>=0.000
       9 -> 13        -0.20427
      10 -> 14         0.18698
      10 -> 15         0.37933
      11 -> 20         0.21060
      11 -> 22        -0.11043
      12 -> 21        -0.24399
      12 -> 22         0.25123
      12 -> 23         0.17336
      12 -> 24         0.14488

 Excited State  22:      Singlet-A     10.8322 eV  114.46 nm  f=0.0224  <S**2>=0.000
      10 -> 14        -0.41167
      10 -> 15         0.20988
      12 -> 21         0.13512
      12 -> 22        -0.11000
      12 -> 23         0.44686
      12 -> 25         0.12242

 Excited State  23:      Singlet-A     10.9792 eV  112.93 nm  f=0.0159  <S**2>=0.000
       9 -> 13         0.11885
      10 -> 14         0.35906
      10 -> 15        -0.25587
      11 -> 21         0.15358
      12 -> 22        -0.15448
      12 -> 23         0.42338

 Excited State  24:      Singlet-A     11.0416 eV  112.29 nm  f=0.0020  <S**2>=0.000
       9 -> 13         0.28327
      10 -> 15         0.14558
      11 -> 19         0.18949
      11 -> 21         0.47200
      11 -> 22        -0.18218
      11 -> 23        -0.20453
      11 -> 24        -0.10363
      12 -> 23        -0.11116

 Excited State  25:      Singlet-A     11.0890 eV  111.81 nm  f=0.0376  <S**2>=0.000
       9 -> 13         0.52006
      10 -> 14         0.10797
      10 -> 15         0.17408
      11 -> 19        -0.12029
      11 -> 21        -0.34800
      11 -> 22        -0.12071

 Excited State  26:      Singlet-A     11.2898 eV  109.82 nm  f=0.0884  <S**2>=0.000
       9 -> 13         0.17029
      10 -> 15         0.16587
      11 -> 18        -0.12184
      11 -> 20         0.16418
      11 -> 21         0.14778
      11 -> 22         0.48912
      11 -> 23         0.19851
      12 -> 24        -0.23061

 Excited State  27:      Singlet-A     11.4900 eV  107.91 nm  f=0.0362  <S**2>=0.000
      11 -> 22        -0.15504
      11 -> 23         0.53740
      11 -> 25         0.16761
      12 -> 24         0.28339

 Excited State  28:      Singlet-A     11.5134 eV  107.69 nm  f=0.0320  <S**2>=0.000
      10 -> 16         0.58204
      11 -> 23         0.12983
      12 -> 25        -0.28188

 Excited State  29:      Singlet-A     11.5578 eV  107.27 nm  f=0.0570  <S**2>=0.000
       9 -> 14        -0.16234
       9 -> 15         0.10213
      10 -> 16         0.15078
      11 -> 22         0.30717
      11 -> 23        -0.16306
      12 -> 24         0.51084

 Excited State  30:      Singlet-A     11.6541 eV  106.39 nm  f=0.0165  <S**2>=0.000
      10 -> 16         0.26393
      12 -> 23        -0.17408
      12 -> 24        -0.11751
      12 -> 25         0.58112

 Excited State  31:      Singlet-A     11.7688 eV  105.35 nm  f=0.2010  <S**2>=0.000
       9 -> 14         0.54300
       9 -> 15        -0.34324
      11 -> 22         0.11906
      12 -> 24         0.16320

 Excited State  32:      Singlet-A     11.9671 eV  103.60 nm  f=0.0216  <S**2>=0.000
      11 -> 19         0.21192
      11 -> 24         0.63629
      11 -> 31        -0.12671

 Excited State  33:      Singlet-A     12.3408 eV  100.47 nm  f=0.0425  <S**2>=0.000
       8 -> 13        -0.12613
       9 -> 16         0.66128

 Excited State  34:      Singlet-A     12.4666 eV   99.45 nm  f=0.0387  <S**2>=0.000
      11 -> 23        -0.21172
      11 -> 25         0.62303
      12 -> 27         0.13643

 Excited State  35:      Singlet-A     12.4885 eV   99.28 nm  f=0.0527  <S**2>=0.000
      10 -> 18         0.25339
      10 -> 20        -0.10448
      12 -> 26         0.57246
      12 -> 27         0.20547

 Excited State  36:      Singlet-A     12.5535 eV   98.76 nm  f=0.0394  <S**2>=0.000
      10 -> 17         0.42393
      11 -> 25         0.15738
      12 -> 26         0.17580
      12 -> 27        -0.34818
      12 -> 28         0.25054

 Excited State  37:      Singlet-A     12.6559 eV   97.97 nm  f=0.0518  <S**2>=0.000
      10 -> 17         0.34547
      10 -> 18         0.25643
      12 -> 26        -0.27812
      12 -> 27         0.38641
      12 -> 28         0.18797

 Excited State  38:      Singlet-A     12.7800 eV   97.01 nm  f=0.1075  <S**2>=0.000
      10 -> 17        -0.21168
      10 -> 18         0.54146
      10 -> 20         0.12583
      12 -> 26        -0.10306
      12 -> 27        -0.27200

 Excited State  39:      Singlet-A     13.0303 eV   95.15 nm  f=0.0021  <S**2>=0.000
       7 -> 15         0.11218
       8 -> 14         0.31837
       8 -> 15         0.50374
      10 -> 17        -0.14393
      10 -> 18        -0.14319
      12 -> 28         0.15255
      12 -> 29         0.10656

 Excited State  40:      Singlet-A     13.0965 eV   94.67 nm  f=0.0126  <S**2>=0.000
       8 -> 14        -0.13348
       8 -> 15        -0.20481
      10 -> 17        -0.27923
      12 -> 27         0.12120
      12 -> 28         0.54401

 Excited State  41:      Singlet-A     13.1569 eV   94.23 nm  f=0.0046  <S**2>=0.000
       8 -> 15         0.11361
       9 -> 17        -0.13312
       9 -> 18         0.12927
      10 -> 19         0.62806
      12 -> 24        -0.10109

 Excited State  42:      Singlet-A     13.2395 eV   93.65 nm  f=0.0061  <S**2>=0.000
      11 -> 21        -0.12541
      11 -> 26         0.60120
      11 -> 27        -0.23293

 Excited State  43:      Singlet-A     13.3708 eV   92.73 nm  f=0.0832  <S**2>=0.000
      10 -> 20         0.46981
      10 -> 22         0.12550
      12 -> 27         0.13613
      12 -> 28        -0.16058
      12 -> 29         0.38498

 Excited State  44:      Singlet-A     13.4752 eV   92.01 nm  f=0.0351  <S**2>=0.000
       8 -> 13        -0.13961
       9 -> 18        -0.16903
      11 -> 26         0.16511
      11 -> 27         0.51171
      11 -> 29        -0.18081
      12 -> 31        -0.19571

 Excited State  45:      Singlet-A     13.5105 eV   91.77 nm  f=0.0082  <S**2>=0.000
       9 -> 17         0.34742
       9 -> 18         0.45081
      10 -> 20         0.11692
      11 -> 28        -0.14186
      12 -> 29        -0.10197
      12 -> 31        -0.23283

 Excited State  46:      Singlet-A     13.5944 eV   91.20 nm  f=0.0486  <S**2>=0.000
       9 -> 17         0.46186
       9 -> 18        -0.33980
      10 -> 19         0.15479
      10 -> 20        -0.12017
      11 -> 28        -0.19965
      12 -> 29         0.14917

 Excited State  47:      Singlet-A     13.6517 eV   90.82 nm  f=0.0094  <S**2>=0.000
       9 -> 18         0.24000
      10 -> 20        -0.32485
      12 -> 29         0.42129
      12 -> 30        -0.19961
      12 -> 32        -0.14796

 Excited State  48:      Singlet-A     13.7350 eV   90.27 nm  f=0.0073  <S**2>=0.000
       7 -> 13        -0.11240
       8 -> 13         0.30017
       9 -> 17         0.18854
      11 -> 27         0.10322
      11 -> 28         0.49437
      11 -> 30        -0.16709

 Excited State  49:      Singlet-A     13.8203 eV   89.71 nm  f=0.0859  <S**2>=0.000
       8 -> 13         0.38179
       9 -> 17        -0.20870
       9 -> 18        -0.15993
      11 -> 28        -0.23404
      12 -> 30        -0.19960
      12 -> 31        -0.32138

 Excited State  50:      Singlet-A     13.8560 eV   89.48 nm  f=0.0393  <S**2>=0.000
       8 -> 13         0.14143
      10 -> 20        -0.14529
      12 -> 29         0.18980
      12 -> 30         0.58491
      12 -> 31        -0.12125

 Excited State  51:      Singlet-A     13.9390 eV   88.95 nm  f=0.0850  <S**2>=0.000
       8 -> 13         0.11561
       9 -> 19         0.61684
      11 -> 31         0.14270

 Excited State  52:      Singlet-A     14.0311 eV   88.36 nm  f=0.0297  <S**2>=0.000
       7 -> 13        -0.11790
       8 -> 13         0.26223
       9 -> 19        -0.17624
      10 -> 20         0.10485
      10 -> 21         0.23010
      11 -> 27         0.18923
      11 -> 28        -0.16507
      12 -> 31         0.37946
      12 -> 32        -0.11474
      12 -> 34         0.10133

 Excited State  53:      Singlet-A     14.0614 eV   88.17 nm  f=0.0310  <S**2>=0.000
       9 -> 20         0.18660
      10 -> 21         0.56116
      12 -> 27        -0.10609
      12 -> 31        -0.19555
      12 -> 32         0.16815

 Excited State  54:      Singlet-A     14.1067 eV   87.89 nm  f=0.0360  <S**2>=0.000
       7 -> 13        -0.28788
       9 -> 19        -0.10065
       9 -> 20        -0.25997
      10 -> 20        -0.10477
      11 -> 29         0.13256
      12 -> 32         0.44976

 Excited State  55:      Singlet-A     14.1861 eV   87.40 nm  f=0.0565  <S**2>=0.000
       7 -> 13         0.32926
       7 -> 14         0.11619
       8 -> 13         0.21588
       9 -> 20         0.21660
      10 -> 21        -0.15229
      11 -> 29        -0.10742
      12 -> 31         0.19812
      12 -> 32         0.33893

 Excited State  56:      Singlet-A     14.2599 eV   86.95 nm  f=0.0039  <S**2>=0.000
       7 -> 14         0.12254
       7 -> 15         0.19660
       9 -> 20        -0.10330
      10 -> 23        -0.33487
      11 -> 29         0.14070
      12 -> 33        -0.19660
      12 -> 34         0.42635

 Excited State  57:      Singlet-A     14.2871 eV   86.78 nm  f=0.0050  <S**2>=0.000
       7 -> 14         0.27935
       7 -> 15         0.44717
       8 -> 15        -0.10400
      10 -> 21         0.10513
      10 -> 23         0.14923
      11 -> 29         0.26743
      12 -> 34        -0.21476

 Excited State  58:      Singlet-A     14.3028 eV   86.69 nm  f=0.0048  <S**2>=0.000
       7 -> 14        -0.12045
       7 -> 15        -0.19754
       9 -> 19        -0.15065
       9 -> 20         0.25241
      11 -> 27         0.11696
      11 -> 29         0.43848
      11 -> 31         0.28575

 Excited State  59:      Singlet-A     14.3890 eV   86.17 nm  f=0.0469  <S**2>=0.000
       7 -> 13         0.21312
       9 -> 20        -0.31130
      11 -> 29        -0.16400
      11 -> 31         0.45570
      12 -> 33        -0.10959
      12 -> 34        -0.11624

 Excited State  60:      Singlet-A     14.4330 eV   85.90 nm  f=0.0546  <S**2>=0.000
       7 -> 13         0.37058
       7 -> 15        -0.14963
       9 -> 20        -0.31506
      11 -> 29         0.18153
      11 -> 30        -0.22239
      11 -> 31        -0.28731

 Excited State  61:      Singlet-A     14.4671 eV   85.70 nm  f=0.0138  <S**2>=0.000
       8 -> 14        -0.10356
      10 -> 22         0.25310
      10 -> 23        -0.14234
      11 -> 31        -0.13373
      12 -> 33        -0.33102
      12 -> 34        -0.24027
      12 -> 35         0.40651

 Excited State  62:      Singlet-A     14.4789 eV   85.63 nm  f=0.0057  <S**2>=0.000
      10 -> 20         0.11369
      10 -> 22        -0.39335
      10 -> 24        -0.13163
      11 -> 31         0.10628
      12 -> 30        -0.10789
      12 -> 33         0.18757
      12 -> 35         0.44225

 Excited State  63:      Singlet-A     14.6027 eV   84.91 nm  f=0.0175  <S**2>=0.000
       8 -> 13         0.12584
       8 -> 14        -0.37499
       8 -> 15         0.21682
       8 -> 16        -0.10414
       9 -> 21        -0.11710
      11 -> 28         0.11336
      11 -> 29         0.11796
      11 -> 30         0.39997

 Excited State  64:      Singlet-A     14.6288 eV   84.75 nm  f=0.0205  <S**2>=0.000
      10 -> 22         0.39881
      12 -> 33         0.41622
      12 -> 34         0.16361
      12 -> 35         0.23046
      12 -> 36        -0.15416

 Excited State  65:      Singlet-A     14.6730 eV   84.50 nm  f=0.0052  <S**2>=0.000
       7 -> 13         0.11922
       8 -> 14         0.35365
       8 -> 15        -0.20003
       9 -> 22         0.14424
      11 -> 27         0.10763
      11 -> 30         0.39435
      11 -> 31        -0.10930
      11 -> 32         0.14445

 Excited State  66:      Singlet-A     14.7836 eV   83.87 nm  f=0.0171  <S**2>=0.000
       7 -> 14        -0.10073
       9 -> 21         0.61613
      11 -> 32        -0.15804

 Excited State  67:      Singlet-A     14.8732 eV   83.36 nm  f=0.0406  <S**2>=0.000
       9 -> 21         0.18917
       9 -> 22         0.10181
       9 -> 23         0.10160
      10 -> 24         0.10640
      11 -> 27        -0.10002
      11 -> 32         0.57301
      11 -> 34         0.10616

 Excited State  68:      Singlet-A     14.9431 eV   82.97 nm  f=0.0061  <S**2>=0.000
      10 -> 22        -0.11459
      10 -> 23         0.47901
      10 -> 25         0.21277
      12 -> 32         0.18543
      12 -> 33        -0.17470
      12 -> 34         0.26595
      12 -> 35         0.16307
      12 -> 36        -0.10941

 Excited State  69:      Singlet-A     15.0410 eV   82.43 nm  f=0.0724  <S**2>=0.000
       7 -> 14        -0.18151
       7 -> 15         0.13038
       9 -> 22         0.10708
       9 -> 23         0.17445
      11 -> 33        -0.24930
      11 -> 34         0.51228
      11 -> 35         0.12636
      11 -> 36        -0.12829

 Excited State  70:      Singlet-A     15.1757 eV   81.70 nm  f=0.0488  <S**2>=0.000
       7 -> 14        -0.13294
       8 -> 14        -0.13019
       8 -> 16         0.39869
       9 -> 20        -0.11898
       9 -> 22         0.29553
      11 -> 33        -0.14889
      11 -> 34        -0.29347
      11 -> 35         0.17800

 Excited State  71:      Singlet-A     15.2034 eV   81.55 nm  f=0.0535  <S**2>=0.000
       8 -> 16        -0.29428
       9 -> 22         0.23032
       9 -> 23         0.20661
      10 -> 24         0.34822
      10 -> 25         0.12280
      11 -> 32        -0.20209
      11 -> 34        -0.12961
      11 -> 35         0.18175

 Excited State  72:      Singlet-A     15.2584 eV   81.26 nm  f=0.0180  <S**2>=0.000
       9 -> 22        -0.32990
      10 -> 25         0.20221
      11 -> 32         0.13662
      11 -> 33        -0.10950
      11 -> 35         0.47370

 Excited State  73:      Singlet-A     15.2698 eV   81.20 nm  f=0.0417  <S**2>=0.000
       8 -> 16         0.13031
      10 -> 23        -0.17728
      10 -> 25         0.49995
      11 -> 35        -0.29139
      12 -> 33         0.14731
      12 -> 36         0.18107
      12 -> 37         0.11198

 Excited State  74:      Singlet-A     15.3255 eV   80.90 nm  f=0.0024  <S**2>=0.000
       7 -> 14         0.10549
       8 -> 16         0.25200
       9 -> 22        -0.30243
       9 -> 23         0.11481
      10 -> 24         0.44901
      11 -> 33        -0.13073
      11 -> 35        -0.10232
      12 -> 36        -0.10270

 Excited State  75:      Singlet-A     15.4050 eV   80.48 nm  f=0.0224  <S**2>=0.000
       7 -> 14         0.33932
       7 -> 15        -0.21610
       8 -> 16         0.21225
       9 -> 23         0.32236
      10 -> 24        -0.21571
      11 -> 33         0.15015
      11 -> 35         0.17988

 Excited State  76:      Singlet-A     15.4497 eV   80.25 nm  f=0.0626  <S**2>=0.000
       7 -> 14        -0.13947
       8 -> 16         0.14353
       9 -> 23        -0.12654
      10 -> 24         0.16882
      11 -> 27         0.10606
      11 -> 28        -0.10537
      11 -> 33         0.48879
      11 -> 34         0.13909
      11 -> 35         0.18249
      11 -> 36         0.11397
      12 -> 36        -0.12935

 Excited State  77:      Singlet-A     15.4995 eV   79.99 nm  f=0.0094  <S**2>=0.000
       7 -> 14        -0.30501
       7 -> 15         0.19945
       9 -> 22        -0.18442
       9 -> 23         0.36271
       9 -> 25         0.13754
      10 -> 25        -0.10234
      11 -> 33         0.18476
      11 -> 34        -0.14350
      11 -> 35        -0.10938
      12 -> 36         0.17652

 Excited State  78:      Singlet-A     15.5094 eV   79.94 nm  f=0.0206  <S**2>=0.000
       9 -> 23        -0.21405
       9 -> 25        -0.10146
      10 -> 24         0.11968
      10 -> 25        -0.23895
      12 -> 34         0.10495
      12 -> 36         0.41937
      12 -> 37         0.26443

 Excited State  79:      Singlet-A     15.7342 eV   78.80 nm  f=0.0152  <S**2>=0.000
       8 -> 19         0.13800
       9 -> 24         0.46129
      12 -> 36        -0.27818
      12 -> 37         0.34765

 Excited State  80:      Singlet-A     15.7957 eV   78.49 nm  f=0.0154  <S**2>=0.000
       9 -> 24        -0.42366
      12 -> 36        -0.22017
      12 -> 37         0.44082

 The electronic state is 1-A.
 Alpha  occ. eigenvalues --  -14.45676 -14.39561 -10.35454  -1.05110  -0.95297
 Alpha  occ. eigenvalues --   -0.71796  -0.63268  -0.60220  -0.49834  -0.46859
 Alpha  occ. eigenvalues --   -0.35249  -0.33181
 Alpha virt. eigenvalues --    0.06230   0.09060   0.09529   0.10859   0.15603
 Alpha virt. eigenvalues --    0.16699   0.18248   0.18587   0.21499   0.22272
 Alpha virt. eigenvalues --    0.23260   0.25447   0.25829   0.29181   0.29909

 Mulliken charges:
               1
     1  N   -0.456833
     2  C    0.074542
     3  N   -0.579094
     4  H    0.231163
     5  H    0.219752
     6  H    0.320038
     7  H    0.190432
 Sum of Mulliken charges =  -0.00000

 Dipole moment (field-independent basis, Debye):
    X=              3.4826    Y=             -0.7239    Z=              0.5754  Tot=              3.6033
 Quadrupole moment (field-independent basis, Debye-Ang):
   XX=            -20.6339   YY=            -14.4503   ZZ=            -20.7908
   XY=              1.3676   XZ=              1.1846   YZ=             -0.1640

 Normal termination of Gaussian 16 at Sun Feb 27 06:47:09 2022.
