 Gaussian 16, Revision C.01,
 Gaussian 16:  EM64L-G16RevC.01  3-Jul-2019

 ----------------------------------------------------------------------
 #P TD(Nstates=10000) wB97XD/Gen SCF(maxcycles=100) Int(Grid=ultrafine)
 ----------------------------------------------------------------------

 ---------------------
 xGDB7_00001_tier4.com
 ---------------------
 Symbolic Z-matrix:
 Charge =  0 Multiplicity = 1

                         Standard orientation:
 ---------------------------------------------------------------------
 Center     Atomic      Atomic             Coordinates (Angstroms)
 Number     Number       Type             X           Y           Z
 ---------------------------------------------------------------------
      1          6           0        0.000000    0.000000   -1.173653
      2          6           0        0.000000    0.000000    0.280989
      3          7           0        0.000000    0.000000    1.427442
      4          1           0        0.000000    1.024088   -1.545371
      5          1           0       -0.886886   -0.512044   -1.545371
      6          1           0        0.886886   -0.512044   -1.545371
 ---------------------------------------------------------------------

 SCF Done:  E(RwB97XD) =  -132.756947737     A.U. after   11 cycles

 Excitation energies and oscillator strengths:

 Excited state symmetry could not be determined.
 Excited State   1:      Singlet-?Sym    7.8857 eV  157.23 nm  f=0.0000  <S**2>=0.000
      10 -> 13         0.46603
      10 -> 16        -0.15708
      11 -> 14         0.46603
      11 -> 17        -0.15708
 This state for optimization and/or second-order correction.
 Total Energy, E(TD-HF/TD-DFT) =  -132.467152819
 Copying the excited state density for this state as the 1-particle RhoCI density.

 Excited state symmetry could not be determined.
 Excited State   2:      Singlet-?Sym    8.2323 eV  150.61 nm  f=0.0014  <S**2>=0.000
      10 -> 14         0.46969
      10 -> 17        -0.14904
      11 -> 13         0.46969
      11 -> 16        -0.14904

 Excited state symmetry could not be determined.
 Excited State   3:      Singlet-?Sym    8.2323 eV  150.61 nm  f=0.0014  <S**2>=0.000
      10 -> 13         0.46969
      10 -> 16        -0.14904
      11 -> 14        -0.46969
      11 -> 17         0.14904

 Excited State   4:      Singlet-E      8.6747 eV  142.93 nm  f=0.0059  <S**2>=0.000
      11 -> 12         0.66961
      11 -> 15        -0.18834

 Excited State   5:      Singlet-E      8.6747 eV  142.93 nm  f=0.0059  <S**2>=0.000
      10 -> 12         0.66961
      10 -> 15        -0.18834

 Excited State   6:      Singlet-E      9.6096 eV  129.02 nm  f=0.0179  <S**2>=0.000
       9 -> 13         0.66182
       9 -> 16        -0.21300

 Excited State   7:      Singlet-E      9.6096 eV  129.02 nm  f=0.0179  <S**2>=0.000
       9 -> 14         0.66182
       9 -> 17        -0.21300

 Excited State   8:      Singlet-A1     9.8848 eV  125.43 nm  f=0.0619  <S**2>=0.000
       9 -> 12         0.63969
       9 -> 15        -0.26255

 Excited State   9:      Singlet-E     10.2686 eV  120.74 nm  f=0.0771  <S**2>=0.000
       7 -> 12        -0.10237
      11 -> 12         0.18631
      11 -> 15         0.65954

 Excited State  10:      Singlet-E     10.2686 eV  120.74 nm  f=0.0771  <S**2>=0.000
       8 -> 12        -0.10237
      10 -> 12         0.18631
      10 -> 15         0.65954

 Excited state symmetry could not be determined.
 Excited State  11:      Singlet-?Sym   10.7020 eV  115.85 nm  f=0.4968  <S**2>=0.000
       9 -> 12        -0.10156
      10 -> 14        -0.40644
      10 -> 17        -0.22841
      11 -> 13         0.40644
      11 -> 16         0.22842

 Excited state symmetry could not be determined.
 Excited State  12:      Singlet-?Sym   11.0964 eV  111.73 nm  f=0.0107  <S**2>=0.000
      10 -> 14         0.14815
      10 -> 17         0.45488
      11 -> 13         0.14814
      11 -> 16         0.45489

 Excited state symmetry could not be determined.
 Excited State  13:      Singlet-?Sym   11.0964 eV  111.73 nm  f=0.0107  <S**2>=0.000
      10 -> 13         0.14815
      10 -> 16         0.45488
      11 -> 14        -0.14815
      11 -> 17        -0.45488

 Excited state symmetry could not be determined.
 Excited State  14:      Singlet-?Sym   11.1612 eV  111.09 nm  f=0.0000  <S**2>=0.000
      10 -> 13         0.16370
      10 -> 16         0.44348
      10 -> 19         0.10247
      11 -> 14         0.16370
      11 -> 17         0.44348
      11 -> 20         0.10248

 Excited State  15:      Singlet-A1    11.4027 eV  108.73 nm  f=0.0535  <S**2>=0.000
       9 -> 12         0.21238
       9 -> 15         0.51157
       9 -> 18         0.20677
      10 -> 17        -0.24256
      11 -> 16         0.24254

 Excited State  16:      Singlet-E     11.6449 eV  106.47 nm  f=0.0140  <S**2>=0.000
      11 -> 18         0.67291

 Excited State  17:      Singlet-E     11.6449 eV  106.47 nm  f=0.0140  <S**2>=0.000
      10 -> 18         0.67291

 Excited state symmetry could not be determined.
 Excited State  18:      Singlet-?Sym   11.6977 eV  105.99 nm  f=0.0000  <S**2>=0.000
      10 -> 16        -0.11609
      10 -> 19         0.46772
      11 -> 17        -0.11609
      11 -> 20         0.46781

 Excited state symmetry could not be determined.
 Excited State  19:      Singlet-?Sym   11.8218 eV  104.88 nm  f=0.0024  <S**2>=0.000
       9 -> 12        -0.11581
       9 -> 15        -0.21975
      10 -> 17        -0.20077
      10 -> 20         0.40463
      11 -> 16         0.20072
      11 -> 19        -0.40416

 Excited state symmetry could not be determined.
 Excited State  20:      Singlet-?Sym   11.8326 eV  104.78 nm  f=0.0008  <S**2>=0.000
      10 -> 20         0.47425
      11 -> 19         0.47465
      11 -> 22         0.10002

 Excited state symmetry could not be determined.
 Excited State  21:      Singlet-?Sym   11.8326 eV  104.78 nm  f=0.0008  <S**2>=0.000
      10 -> 19         0.47450
      11 -> 20        -0.47441

 Excited State  22:      Singlet-E     12.1144 eV  102.34 nm  f=0.1283  <S**2>=0.000
       8 -> 12         0.68318

 Excited State  23:      Singlet-E     12.1144 eV  102.34 nm  f=0.1283  <S**2>=0.000
       7 -> 12         0.68318

 Excited State  24:      Singlet-A1    12.2074 eV  101.56 nm  f=0.7522  <S**2>=0.000
       7 -> 13        -0.11816
       8 -> 14         0.11816
       9 -> 15         0.25689
       9 -> 24        -0.15020
      10 -> 14        -0.20454
      10 -> 17         0.25321
      10 -> 20         0.24858
      11 -> 13         0.20454
      11 -> 16        -0.25321
      11 -> 19        -0.24858

 Excited State  25:      Singlet-E     12.4771 eV   99.37 nm  f=0.0006  <S**2>=0.000
       9 -> 13         0.20103
       9 -> 16         0.62926
       9 -> 22        -0.20447

 Excited State  26:      Singlet-E     12.4771 eV   99.37 nm  f=0.0006  <S**2>=0.000
       9 -> 14         0.20103
       9 -> 17         0.62926
       9 -> 23        -0.20447

 Excited state symmetry could not be determined.
 Excited State  27:      Singlet-?Sym   12.5182 eV   99.04 nm  f=0.0000  <S**2>=0.000
       7 -> 14         0.46585
       8 -> 13         0.46585
      10 -> 22        -0.13193
      11 -> 23        -0.13192

 Excited State  28:      Singlet-A1    12.6215 eV   98.23 nm  f=0.0548  <S**2>=0.000
       9 -> 15        -0.18216
       9 -> 18         0.60946
       9 -> 21        -0.15482

 Excited state symmetry could not be determined.
 Excited State  29:      Singlet-?Sym   12.6377 eV   98.11 nm  f=0.0238  <S**2>=0.000
       7 -> 13         0.37874
       8 -> 14         0.37871
      10 -> 23        -0.29526
      11 -> 22        -0.29525

 Excited state symmetry could not be determined.
 Excited State  30:      Singlet-?Sym   12.6377 eV   98.11 nm  f=0.0238  <S**2>=0.000
       7 -> 14         0.37873
       8 -> 13        -0.37872
      10 -> 22         0.29526
      11 -> 23        -0.29525

 Excited State  31:      Singlet-E     12.9251 eV   95.93 nm  f=0.0001  <S**2>=0.000
       6 -> 13         0.11039
       9 -> 19         0.17918
       9 -> 22         0.11028
      11 -> 21        -0.30160
      11 -> 24         0.54630
      11 -> 28         0.12717

 Excited State  32:      Singlet-E     12.9251 eV   95.93 nm  f=0.0001  <S**2>=0.000
       6 -> 14        -0.11040
       9 -> 20        -0.17920
       9 -> 23        -0.11029
      10 -> 21        -0.30160
      10 -> 24         0.54631
      10 -> 28         0.12717

 Excited state symmetry could not be determined.
 Excited State  33:      Singlet-?Sym   12.9403 eV   95.81 nm  f=0.0064  <S**2>=0.000
       7 -> 13         0.28901
       8 -> 14         0.28900
      10 -> 17         0.10399
      10 -> 23         0.35218
      10 -> 24        -0.10974
      11 -> 16         0.10401
      11 -> 22         0.35224

 Excited state symmetry could not be determined.
 Excited State  34:      Singlet-?Sym   12.9403 eV   95.81 nm  f=0.0064  <S**2>=0.000
       7 -> 14        -0.28899
       8 -> 13         0.28901
      10 -> 16         0.10401
      10 -> 22         0.35224
      11 -> 17        -0.10399
      11 -> 23        -0.35218
      11 -> 24        -0.10981

 Excited state symmetry could not be determined.
 Excited State  35:      Singlet-?Sym   12.9772 eV   95.54 nm  f=0.0000  <S**2>=0.000
       7 -> 14         0.12369
       8 -> 13         0.12366
      10 -> 22         0.45714
      11 -> 23         0.45719

 Excited State  36:      Singlet-E     13.1088 eV   94.58 nm  f=0.0132  <S**2>=0.000
       9 -> 19         0.62393
       9 -> 22         0.19567
       9 -> 26        -0.11223
      11 -> 21         0.12770
      11 -> 24        -0.15148

 Excited State  37:      Singlet-E     13.1088 eV   94.58 nm  f=0.0132  <S**2>=0.000
       9 -> 20         0.62393
       9 -> 23         0.19566
       9 -> 27        -0.11222
      10 -> 21        -0.12771
      10 -> 24         0.15150

 Excited state symmetry could not be determined.
 Excited State  38:      Singlet-?Sym   13.1957 eV   93.96 nm  f=0.0580  <S**2>=0.000
       6 -> 12         0.17232
       7 -> 13        -0.15843
       8 -> 14         0.15846
       9 -> 18        -0.16836
       9 -> 24         0.17170
      10 -> 23         0.39681
      11 -> 22        -0.39673

 Excited State  39:      Singlet-E     13.2691 eV   93.44 nm  f=0.0024  <S**2>=0.000
       7 -> 15         0.13593
      11 -> 21         0.59324
      11 -> 24         0.31303

 Excited State  40:      Singlet-E     13.2691 eV   93.44 nm  f=0.0024  <S**2>=0.000
       8 -> 15         0.13593
      10 -> 21         0.59324
      10 -> 24         0.31303

 Excited State  41:      Singlet-A1    13.5315 eV   91.63 nm  f=0.0215  <S**2>=0.000
       6 -> 12         0.60794
       7 -> 13         0.20036
       8 -> 14        -0.20036
       9 -> 24        -0.12384

 Excited state symmetry could not be determined.
 Excited State  42:      Singlet-?Sym   13.6630 eV   90.74 nm  f=0.0008  <S**2>=0.000
       6 -> 12        -0.25136
       6 -> 15         0.12620
       7 -> 13         0.36069
       8 -> 14        -0.36068
       9 -> 21        -0.16979
      10 -> 23         0.17381
      11 -> 22        -0.17379

 Excited State  43:      Singlet-E     13.7336 eV   90.28 nm  f=0.0011  <S**2>=0.000
       6 -> 13        -0.10977
       7 -> 15         0.64346
       7 -> 18        -0.11823
      11 -> 21        -0.13329

 Excited State  44:      Singlet-E     13.7336 eV   90.28 nm  f=0.0011  <S**2>=0.000
       6 -> 14         0.10977
       8 -> 15         0.64346
       8 -> 18        -0.11823
      10 -> 21        -0.13329

 Excited State  45:      Singlet-E     13.9167 eV   89.09 nm  f=0.0556  <S**2>=0.000
       9 -> 16         0.20317
       9 -> 19        -0.21011
       9 -> 22         0.59885
       9 -> 26        -0.10578
       9 -> 29        -0.12681

 Excited State  46:      Singlet-E     13.9167 eV   89.09 nm  f=0.0556  <S**2>=0.000
       9 -> 17         0.20317
       9 -> 20        -0.21011
       9 -> 23         0.59885
       9 -> 27        -0.10578
       9 -> 30        -0.12681

 Excited State  47:      Singlet-E     14.1520 eV   87.61 nm  f=0.0182  <S**2>=0.000
       6 -> 14         0.60579
       7 -> 19         0.14932
       8 -> 20         0.14932
      10 -> 24         0.12149

 Excited State  48:      Singlet-E     14.1520 eV   87.61 nm  f=0.0182  <S**2>=0.000
       6 -> 13         0.60578
       7 -> 20         0.14932
       8 -> 19        -0.14932
      11 -> 24        -0.12149

 Excited State  49:      Singlet-A1    14.2690 eV   86.89 nm  f=0.0426  <S**2>=0.000
       6 -> 12        -0.12255
       9 -> 21         0.47161
       9 -> 24        -0.34564
      10 -> 23         0.18001
      10 -> 27         0.11360
      11 -> 22        -0.18001
      11 -> 26        -0.11360

 Excited state symmetry could not be determined.
 Excited State  50:      Singlet-?Sym   14.3467 eV   86.42 nm  f=0.0224  <S**2>=0.000
       7 -> 16         0.47802
       8 -> 17         0.47804

 Excited state symmetry could not be determined.
 Excited State  51:      Singlet-?Sym   14.3467 eV   86.42 nm  f=0.0224  <S**2>=0.000
       7 -> 17         0.47804
       8 -> 16        -0.47801

 Excited state symmetry could not be determined.
 Excited State  52:      Singlet-?Sym   14.4754 eV   85.65 nm  f=0.0000  <S**2>=0.000
       7 -> 17         0.48500
       8 -> 16         0.48503

 Excited State  53:      Singlet-A1    14.5213 eV   85.38 nm  f=0.0686  <S**2>=0.000
       7 -> 16        -0.11128
       8 -> 17         0.11126
       9 -> 18         0.11858
       9 -> 21         0.42801
       9 -> 24         0.46045
      10 -> 27        -0.10050
      11 -> 26         0.10050

 Excited state symmetry could not be determined.
 Excited State  54:      Singlet-?Sym   14.6172 eV   84.82 nm  f=0.0000  <S**2>=0.000
       7 -> 20         0.39425
       8 -> 19         0.39424
      10 -> 26        -0.22204
      10 -> 29         0.19575
      11 -> 27        -0.22207
      11 -> 30         0.19578

 Excited state symmetry could not be determined.
 Excited State  55:      Singlet-?Sym   14.7381 eV   84.12 nm  f=0.0094  <S**2>=0.000
       6 -> 15         0.15584
       7 -> 16         0.32136
       7 -> 19         0.23451
       8 -> 17        -0.32135
       8 -> 20        -0.23450
       9 -> 24         0.18250
      10 -> 27         0.16538
      10 -> 30        -0.12946
      11 -> 26        -0.16538
      11 -> 29         0.12946

 Excited state symmetry could not be determined.
 Excited State  56:      Singlet-?Sym   14.9415 eV   82.98 nm  f=0.0051  <S**2>=0.000
       6 -> 15         0.16447
       7 -> 16         0.30327
       7 -> 19        -0.23031
       8 -> 17        -0.30326
       8 -> 20         0.23034
      10 -> 27        -0.17735
      10 -> 30         0.22273
      11 -> 26         0.17733
      11 -> 29        -0.22272

 Excited State  57:      Singlet-E     15.1209 eV   82.00 nm  f=0.0955  <S**2>=0.000
       7 -> 15         0.11832
       7 -> 18         0.49583
       7 -> 20        -0.18763
       7 -> 21         0.18783
       7 -> 24        -0.17649
       7 -> 28        -0.12516
       8 -> 19         0.18770
      10 -> 26        -0.10752
      11 -> 25         0.12075
      11 -> 27         0.10751

 Excited State  58:      Singlet-E     15.1209 eV   82.00 nm  f=0.0955  <S**2>=0.000
       7 -> 19         0.18769
       8 -> 15         0.11833
       8 -> 18         0.49582
       8 -> 20         0.18768
       8 -> 21         0.18782
       8 -> 24        -0.17647
       8 -> 28        -0.12515
      10 -> 25         0.12075
      10 -> 27        -0.10750
      11 -> 26        -0.10752

 Excited state symmetry could not be determined.
 Excited State  59:      Singlet-?Sym   15.1709 eV   81.73 nm  f=0.0000  <S**2>=0.000
       7 -> 20         0.28611
       8 -> 19         0.28610
      10 -> 26         0.35115
      10 -> 29        -0.17809
      11 -> 27         0.35128
      11 -> 30        -0.17814

 Excited State  60:      Singlet-A1    15.2439 eV   81.33 nm  f=0.0152  <S**2>=0.000
       6 -> 15         0.51193
       6 -> 18        -0.10813
       7 -> 19        -0.21097
       8 -> 20         0.21089
      10 -> 27         0.14464
      10 -> 30        -0.15873
      11 -> 26        -0.14508
      11 -> 29         0.15884

 Excited state symmetry could not be determined.
 Excited State  61:      Singlet-?Sym   15.2462 eV   81.32 nm  f=0.1650  <S**2>=0.000
       6 -> 13        -0.10246
       7 -> 18         0.17847
      10 -> 26         0.41820
      10 -> 29        -0.10645
      11 -> 25        -0.12352
      11 -> 27        -0.41806
      11 -> 30         0.10639

 Excited state symmetry could not be determined.
 Excited State  62:      Singlet-?Sym   15.2462 eV   81.32 nm  f=0.1649  <S**2>=0.000
       6 -> 14         0.10245
       8 -> 18         0.17846
      10 -> 25        -0.12350
      10 -> 27         0.41821
      10 -> 30        -0.10649
      11 -> 26         0.41806
      11 -> 29        -0.10633

 Excited state symmetry could not be determined.
 Excited State  63:      Singlet-?Sym   15.3845 eV   80.59 nm  f=0.2022  <S**2>=0.000
       6 -> 13        -0.13181
       6 -> 16        -0.23244
       7 -> 18         0.26667
       7 -> 20         0.34850
       8 -> 19        -0.34847
      11 -> 25        -0.11457
      11 -> 28        -0.16078

 Excited state symmetry could not be determined.
 Excited State  64:      Singlet-?Sym   15.3845 eV   80.59 nm  f=0.2022  <S**2>=0.000
       6 -> 14        -0.13180
       6 -> 17        -0.23243
       7 -> 19         0.34847
       8 -> 18        -0.26671
       8 -> 20         0.34847
      10 -> 25         0.11457
      10 -> 28         0.16080

 Excited State  65:      Singlet-E     15.4670 eV   80.16 nm  f=0.0001  <S**2>=0.000
       6 -> 13        -0.11177
      10 -> 26         0.10146
      11 -> 25         0.62729
      11 -> 27        -0.10148
      11 -> 31        -0.11915

 Excited State  66:      Singlet-E     15.4670 eV   80.16 nm  f=0.0001  <S**2>=0.000
       6 -> 14         0.11177
      10 -> 25         0.62730
      10 -> 27         0.10233
      10 -> 31        -0.11914
      11 -> 26         0.10057

 Excited State  67:      Singlet-A1    15.4675 eV   80.16 nm  f=0.0017  <S**2>=0.000
       6 -> 15         0.34955
       7 -> 19         0.28463
       8 -> 20        -0.28554
      10 -> 27        -0.18309
      10 -> 30         0.12662
      10 -> 33        -0.12406
      11 -> 26         0.18405
      11 -> 29        -0.12645
      11 -> 32         0.12399

 Excited state symmetry could not be determined.
 Excited State  68:      Singlet-?Sym   15.7104 eV   78.92 nm  f=0.0294  <S**2>=0.000
       6 -> 16        -0.25596
      10 -> 26        -0.12789
      10 -> 29        -0.38848
      11 -> 27         0.12797
      11 -> 28        -0.10033
      11 -> 30         0.38858

 Excited state symmetry could not be determined.
 Excited State  69:      Singlet-?Sym   15.7104 eV   78.92 nm  f=0.0294  <S**2>=0.000
       6 -> 17        -0.25600
      10 -> 27         0.12791
      10 -> 28         0.10030
      10 -> 30         0.38852
      11 -> 26         0.12793
      11 -> 29         0.38854

 Excited state symmetry could not be determined.
 Excited State  70:      Singlet-?Sym   15.7374 eV   78.78 nm  f=0.0000  <S**2>=0.000
      10 -> 26         0.24565
      10 -> 29         0.40160
      11 -> 27         0.24563
      11 -> 30         0.40150

 Excited State  71:      Singlet-E     15.8050 eV   78.45 nm  f=0.0008  <S**2>=0.000
       6 -> 16        -0.40924
      11 -> 24        -0.12138
      11 -> 25        -0.13871
      11 -> 28         0.43334
      11 -> 31        -0.23591

 Excited State  72:      Singlet-E     15.8050 eV   78.45 nm  f=0.0008  <S**2>=0.000
       6 -> 17         0.40922
      10 -> 24        -0.12138
      10 -> 25        -0.13869
      10 -> 28         0.43335
      10 -> 31        -0.23591

 Excited state symmetry could not be determined.
 Excited State  73:      Singlet-?Sym   15.9830 eV   77.57 nm  f=0.0012  <S**2>=0.000
       7 -> 22         0.10307
       8 -> 23        -0.10307
      10 -> 27         0.28449
      10 -> 30         0.35416
      11 -> 26        -0.28448
      11 -> 29        -0.35414

 Excited State  74:      Singlet-E     16.1026 eV   77.00 nm  f=0.3055  <S**2>=0.000
       6 -> 13        -0.11760
       6 -> 16         0.35922
       7 -> 20         0.16157
       8 -> 19        -0.16157
       9 -> 26         0.13362
      10 -> 29        -0.20037
      10 -> 32         0.10723
      11 -> 28         0.30911
      11 -> 30         0.20036
      11 -> 31        -0.18285
      11 -> 33        -0.10724

 Excited State  75:      Singlet-E     16.1026 eV   77.00 nm  f=0.3055  <S**2>=0.000
       6 -> 14        -0.11761
       6 -> 17         0.35921
       7 -> 19         0.16157
       8 -> 20         0.16157
       9 -> 27         0.13364
      10 -> 28        -0.30910
      10 -> 30         0.20038
      10 -> 31         0.18286
      10 -> 33        -0.10722
      11 -> 29         0.20037
      11 -> 32        -0.10723

 Excited State  76:      Singlet-E     16.1294 eV   76.87 nm  f=0.0002  <S**2>=0.000
       6 -> 17        -0.17075
       6 -> 20         0.26548
       9 -> 27         0.51238
       9 -> 30        -0.30009

 Excited State  77:      Singlet-E     16.1294 eV   76.87 nm  f=0.0002  <S**2>=0.000
       6 -> 16        -0.17074
       6 -> 19         0.26547
       9 -> 26         0.51239
       9 -> 29        -0.30009

 Excited state symmetry could not be determined.
 Excited State  78:      Singlet-?Sym   16.3128 eV   76.00 nm  f=0.0000  <S**2>=0.000
      10 -> 32         0.47370
      11 -> 33         0.47371

 Excited state symmetry could not be determined.
 Excited State  79:      Singlet-?Sym   16.3886 eV   75.65 nm  f=0.0306  <S**2>=0.000
       7 -> 19         0.10181
       7 -> 22         0.10840
       8 -> 20         0.10181
       8 -> 23         0.10840
      10 -> 30         0.12434
      10 -> 33         0.43919
      11 -> 29         0.12435
      11 -> 32         0.43920

 Excited state symmetry could not be determined.
 Excited State  80:      Singlet-?Sym   16.3886 eV   75.65 nm  f=0.0307  <S**2>=0.000
       7 -> 20        -0.10181
       7 -> 23        -0.10840
       8 -> 19         0.10181
       8 -> 22         0.10840
      10 -> 29         0.12436
      10 -> 32         0.43920
      11 -> 30        -0.12435
      11 -> 33        -0.43918

 The electronic state is 1-A1.
 Alpha  occ. eigenvalues --  -14.43210 -10.33855 -10.32672  -1.01260  -0.88123
 Alpha  occ. eigenvalues --   -0.60846  -0.55779  -0.55779  -0.45449  -0.41987
 Alpha  occ. eigenvalues --   -0.41987
 Alpha virt. eigenvalues --    0.05366   0.09906   0.09906   0.09908   0.14575
 Alpha virt. eigenvalues --    0.14575   0.16807   0.17637   0.17637   0.21618
 Alpha virt. eigenvalues --    0.22269   0.22269   0.23935   0.29511   0.30258

 Mulliken charges:
               1
     1  C   -0.713507
     2  C    0.094422
     3  N   -0.275851
     4  H    0.298312
     5  H    0.298312
     6  H    0.298312
 Sum of Mulliken charges =   0.00000

 Dipole moment (field-independent basis, Debye):
    X=             -0.0000    Y=             -0.0000    Z=             -4.0522  Tot=              4.0522
 Quadrupole moment (field-independent basis, Debye-Ang):
   XX=            -17.5036   YY=            -17.5036   ZZ=            -20.7360
   XY=             -0.0000   XZ=              0.0000   YZ=              0.0000

 Normal termination of Gaussian 16 at Sun Feb 27 06:42:20 2022.
