 Gaussian 16, Revision C.01,
 Gaussian 16:  EM64L-G16RevC.01  3-Jul-2019

 ----------------------------------------------------------------------
 #P TD(Nstates=10000) wB97XD/Gen SCF(maxcycles=100) Int(Grid=ultrafine)
 ----------------------------------------------------------------------

 ---------------------
 xGDB7_00001_tier4.com
 ---------------------
 Symbolic Z-matrix:
 Charge =  0 Multiplicity = 1

                         Standard orientation:
 ---------------------------------------------------------------------
 Center     Atomic      Atomic             Coordinates (Angstroms)
 Number     Number       Type             X           Y           Z
 ---------------------------------------------------------------------
      1          6           0       -1.122844   -0.452320    0.000000
      2          6           0        0.000000    0.553997    0.000000
      3          9           0        1.225284   -0.098236    0.000000
      4          1           0       -2.083314    0.066805    0.000000
      5          1           0       -1.072796   -1.085651    0.886148
      6          1           0       -1.072796   -1.085651   -0.886148
      7          1           0       -0.030794    1.189278    0.888716
      8          1           0       -0.030794    1.189278   -0.888716
 ---------------------------------------------------------------------

 SCF Done:  E(RwB97XD) =  -179.086222009     A.U. after   11 cycles

 Excitation energies and oscillator strengths:

 Excited State   1:      Singlet-A"     8.9092 eV  139.16 nm  f=0.0048  <S**2>=0.000
      13 -> 14         0.65468
      13 -> 15         0.20871
 This state for optimization and/or second-order correction.
 Total Energy, E(TD-HF/TD-DFT) =  -178.758815380
 Copying the excited state density for this state as the 1-particle RhoCI density.

 Excited State   2:      Singlet-A'     9.2524 eV  134.00 nm  f=0.0100  <S**2>=0.000
      12 -> 14         0.65151
      12 -> 15         0.20365

 Excited State   3:      Singlet-A"     9.6824 eV  128.05 nm  f=0.0180  <S**2>=0.000
      10 -> 14         0.16776
      13 -> 14        -0.18915
      13 -> 15         0.50629
      13 -> 17         0.30167
      13 -> 18        -0.14700
      13 -> 19        -0.17497
      13 -> 23        -0.12192

 Excited State   4:      Singlet-A'     9.9567 eV  124.52 nm  f=0.0308  <S**2>=0.000
      12 -> 14        -0.23276
      12 -> 15         0.50585
      12 -> 17         0.30402
      12 -> 18        -0.15729
      12 -> 19        -0.16209
      12 -> 23        -0.12089

 Excited State   5:      Singlet-A"     9.9981 eV  124.01 nm  f=0.0777  <S**2>=0.000
      13 -> 15        -0.37063
      13 -> 17         0.52871
      13 -> 19        -0.11091
      13 -> 21         0.16379

 Excited State   6:      Singlet-A'    10.2438 eV  121.03 nm  f=0.0850  <S**2>=0.000
      13 -> 16         0.69183

 Excited State   7:      Singlet-A'    10.2661 eV  120.77 nm  f=0.0873  <S**2>=0.000
      12 -> 15        -0.40030
      12 -> 17         0.52823
      12 -> 21         0.13571

 Excited State   8:      Singlet-A"    10.4687 eV  118.43 nm  f=0.0251  <S**2>=0.000
      12 -> 16         0.69231

 Excited State   9:      Singlet-A'    10.5215 eV  117.84 nm  f=0.1037  <S**2>=0.000
      11 -> 14         0.65714
      11 -> 15        -0.18257

 Excited State  10:      Singlet-A"    10.8099 eV  114.69 nm  f=0.0113  <S**2>=0.000
      10 -> 14         0.57753
      13 -> 17         0.10701
      13 -> 18         0.26289
      13 -> 19         0.18234

 Excited State  11:      Singlet-A"    11.0902 eV  111.80 nm  f=0.0035  <S**2>=0.000
      10 -> 14        -0.22394
      10 -> 17        -0.10954
      10 -> 18        -0.10841
      13 -> 15         0.12105
      13 -> 17         0.10828
      13 -> 18         0.57754
      13 -> 19        -0.14664

 Excited State  12:      Singlet-A'    11.1912 eV  110.79 nm  f=0.0364  <S**2>=0.000
      11 -> 15         0.13501
      12 -> 15         0.12404
      12 -> 17         0.24880
      12 -> 18         0.51231
      12 -> 19         0.23190
      12 -> 21        -0.15738
      12 -> 23         0.11769

 Excited State  13:      Singlet-A"    11.2356 eV  110.35 nm  f=0.0475  <S**2>=0.000
      10 -> 14        -0.21524
      13 -> 15         0.13814
      13 -> 17         0.26719
      13 -> 19         0.49418
      13 -> 21        -0.29166

 Excited State  14:      Singlet-A'    11.3538 eV  109.20 nm  f=0.0032  <S**2>=0.000
      12 -> 17         0.11738
      12 -> 18        -0.36320
      12 -> 19         0.50207
      12 -> 21        -0.25290

 Excited State  15:      Singlet-A"    11.4104 eV  108.66 nm  f=0.0276  <S**2>=0.000
      10 -> 15         0.47240
      10 -> 21         0.10467
      13 -> 19        -0.24223
      13 -> 21        -0.40492

 Excited State  16:      Singlet-A'    11.5135 eV  107.69 nm  f=0.0527  <S**2>=0.000
      11 -> 14         0.14718
      11 -> 15         0.61742
      11 -> 17        -0.11142
      11 -> 21         0.11279
      12 -> 18        -0.13427
      13 -> 20        -0.14456

 Excited State  17:      Singlet-A'    11.6242 eV  106.66 nm  f=0.0022  <S**2>=0.000
      11 -> 15         0.14923
      13 -> 20         0.65223
      13 -> 22        -0.13950

 Excited State  18:      Singlet-A"    11.6270 eV  106.63 nm  f=0.0046  <S**2>=0.000
      12 -> 20         0.67422
      12 -> 22        -0.12952

 Excited State  19:      Singlet-A'    11.9133 eV  104.07 nm  f=0.0076  <S**2>=0.000
       9 -> 15         0.11422
      10 -> 16         0.19023
      12 -> 19         0.33362
      12 -> 21         0.51420
      12 -> 23        -0.10184
      13 -> 22        -0.15345

 Excited State  20:      Singlet-A'    11.9335 eV  103.90 nm  f=0.0855  <S**2>=0.000
      10 -> 16         0.42998
      11 -> 17         0.22055
      11 -> 18         0.10123
      12 -> 19        -0.11351
      12 -> 21        -0.18223
      13 -> 22        -0.39254

 Excited State  21:      Singlet-A"    11.9445 eV  103.80 nm  f=0.0171  <S**2>=0.000
      10 -> 15         0.37549
      10 -> 17         0.32065
      10 -> 19        -0.11422
      10 -> 21         0.11876
      10 -> 23        -0.10547
      13 -> 19         0.19794
      13 -> 21         0.33492
      13 -> 23         0.10673

 Excited State  22:      Singlet-A"    11.9833 eV  103.46 nm  f=0.0290  <S**2>=0.000
      11 -> 16         0.65379
      11 -> 22         0.18551

 Excited State  23:      Singlet-A"    12.1035 eV  102.44 nm  f=0.0005  <S**2>=0.000
      10 -> 15        -0.21438
      10 -> 17         0.38837
      11 -> 16         0.12532
      13 -> 19        -0.17495
      13 -> 21        -0.14109
      13 -> 23         0.44003

 Excited State  24:      Singlet-A'    12.1943 eV  101.67 nm  f=0.0158  <S**2>=0.000
       9 -> 14         0.10079
      10 -> 16        -0.17575
      11 -> 17         0.54314
      11 -> 19        -0.25437
      11 -> 21         0.12979
      11 -> 23        -0.11600
      13 -> 22         0.12714

 Excited State  25:      Singlet-A"    12.3284 eV  100.57 nm  f=0.0021  <S**2>=0.000
       9 -> 16         0.13384
      10 -> 17         0.15836
      10 -> 18        -0.11605
      10 -> 19        -0.10725
      12 -> 20         0.10986
      12 -> 22         0.53575
      13 -> 21        -0.12195
      13 -> 23        -0.24153

 Excited State  26:      Singlet-A"    12.3683 eV  100.24 nm  f=0.0063  <S**2>=0.000
      10 -> 15         0.14354
      10 -> 17        -0.29994
      10 -> 19         0.11124
      10 -> 21        -0.15056
      10 -> 23         0.10875
      12 -> 22         0.38321
      13 -> 18        -0.12259
      13 -> 21         0.15240
      13 -> 23         0.34447

 Excited State  27:      Singlet-A'    12.3930 eV  100.04 nm  f=0.1509  <S**2>=0.000
      11 -> 18        -0.45159
      12 -> 21         0.12275
      12 -> 23         0.46120

 Excited State  28:      Singlet-A'    12.5225 eV   99.01 nm  f=0.0031  <S**2>=0.000
       9 -> 14         0.63135
       9 -> 15         0.14244
      11 -> 17        -0.10007
      12 -> 21        -0.11308

 Excited State  29:      Singlet-A'    12.5428 eV   98.85 nm  f=0.0092  <S**2>=0.000
      10 -> 16         0.36213
      11 -> 18         0.24434
      12 -> 23         0.13063
      13 -> 20         0.12998
      13 -> 22         0.49193

 Excited State  30:      Singlet-A'    12.5954 eV   98.44 nm  f=0.0554  <S**2>=0.000
       9 -> 14         0.10939
      10 -> 16        -0.27502
      11 -> 18         0.37125
      12 -> 21         0.10955
      12 -> 23         0.40392
      13 -> 22        -0.15357

 Excited State  31:      Singlet-A"    12.6452 eV   98.05 nm  f=0.0177  <S**2>=0.000
      10 -> 17         0.17652
      10 -> 18         0.55544
      10 -> 19         0.18938
      13 -> 18         0.10965
      13 -> 23        -0.11406
      13 -> 24        -0.16739

 Excited State  32:      Singlet-A"    12.8891 eV   96.19 nm  f=0.0255  <S**2>=0.000
      10 -> 18         0.20269
      10 -> 19        -0.29471
      10 -> 21        -0.17708
      12 -> 25        -0.13513
      13 -> 24         0.49883

 Excited State  33:      Singlet-A"    12.9028 eV   96.09 nm  f=0.0024  <S**2>=0.000
      10 -> 19        -0.27407
      10 -> 21         0.14007
      10 -> 23         0.10974
      11 -> 20         0.53696
      11 -> 25        -0.16810
      13 -> 24        -0.12442
      13 -> 26         0.12390

 Excited State  34:      Singlet-A'    12.9203 eV   95.96 nm  f=0.0683  <S**2>=0.000
       9 -> 15         0.10806
      10 -> 20         0.30598
      11 -> 17         0.13540
      11 -> 19         0.15714
      13 -> 25         0.52780

 Excited State  35:      Singlet-A"    13.0428 eV   95.06 nm  f=0.0143  <S**2>=0.000
      10 -> 18         0.10895
      10 -> 19        -0.25623
      11 -> 20        -0.19914
      12 -> 25         0.55853
      12 -> 27         0.10623
      13 -> 26         0.10173

 Excited State  36:      Singlet-A'    13.0855 eV   94.75 nm  f=0.0864  <S**2>=0.000
       9 -> 17        -0.11281
      11 -> 17         0.20547
      11 -> 18        -0.12292
      11 -> 19         0.55202
      11 -> 21        -0.14189
      11 -> 23        -0.14932
      13 -> 25        -0.13880

 Excited State  37:      Singlet-A'    13.2390 eV   93.65 nm  f=0.0214  <S**2>=0.000
       8 -> 14         0.13866
       9 -> 15        -0.29325
       9 -> 18         0.10069
       9 -> 19         0.10528
      10 -> 20        -0.12470
      11 -> 19         0.10338
      11 -> 21         0.27113
      12 -> 24         0.40295
      13 -> 25         0.19992

 Excited State  38:      Singlet-A"    13.2611 eV   93.49 nm  f=0.0978  <S**2>=0.000
      10 -> 17         0.14855
      10 -> 18        -0.14039
      10 -> 19         0.30160
      10 -> 21        -0.17297
      11 -> 20         0.32811
      12 -> 25         0.33169
      13 -> 24         0.26623

 Excited State  39:      Singlet-A'    13.3552 eV   92.84 nm  f=0.0609  <S**2>=0.000
       9 -> 14        -0.10673
       9 -> 15         0.45871
      10 -> 20        -0.14313
      12 -> 24         0.41476

 Excited State  40:      Singlet-A'    13.3775 eV   92.68 nm  f=0.0287  <S**2>=0.000
       9 -> 15         0.30142
       9 -> 17        -0.18181
      10 -> 22        -0.12915
      11 -> 21         0.47034
      12 -> 24        -0.18291
      13 -> 27        -0.10109

 Excited State  41:      Singlet-A'    13.4709 eV   92.04 nm  f=0.0172  <S**2>=0.000
       9 -> 17         0.22343
      10 -> 20         0.47640
      11 -> 21         0.12712
      12 -> 24         0.18105
      13 -> 25        -0.31708

 Excited State  42:      Singlet-A"    13.5381 eV   91.58 nm  f=0.0372  <S**2>=0.000
       7 -> 14        -0.38904
       7 -> 15        -0.20386
      10 -> 18         0.13765
      10 -> 21         0.39063
      11 -> 22         0.12140
      13 -> 23         0.11118
      13 -> 24         0.24351

 Excited State  43:      Singlet-A'    13.6332 eV   90.94 nm  f=0.1055  <S**2>=0.000
       9 -> 15        -0.13825
       9 -> 17         0.45552
       9 -> 18        -0.12962
       9 -> 23        -0.10121
      10 -> 20        -0.29799
      11 -> 19         0.11362
      11 -> 21         0.16669
      11 -> 23         0.11326
      12 -> 24        -0.12111

 Excited State  44:      Singlet-A"    13.7013 eV   90.49 nm  f=0.0055  <S**2>=0.000
       7 -> 14         0.14091
       9 -> 16         0.46694
      11 -> 16        -0.12525
      11 -> 22         0.41623
      11 -> 25         0.11060
      12 -> 22        -0.12042

 Excited State  45:      Singlet-A"    13.7472 eV   90.19 nm  f=0.0102  <S**2>=0.000
       8 -> 16        -0.13091
       9 -> 16         0.46971
      11 -> 16         0.12647
      11 -> 22        -0.42340
      11 -> 25        -0.10552

 Excited State  46:      Singlet-A'    13.7854 eV   89.94 nm  f=0.0314  <S**2>=0.000
       8 -> 14         0.60998
       8 -> 15         0.14514
      11 -> 21        -0.14201
      12 -> 26        -0.10474

 Excited State  47:      Singlet-A"    13.7969 eV   89.86 nm  f=0.0708  <S**2>=0.000
       7 -> 14         0.47356
       9 -> 16        -0.11849
      10 -> 15        -0.11433
      10 -> 19         0.16337
      10 -> 21         0.37738
      13 -> 24         0.13941

 Excited State  48:      Singlet-A"    13.9433 eV   88.92 nm  f=0.0629  <S**2>=0.000
       7 -> 14        -0.12039
      10 -> 19         0.11978
      13 -> 23        -0.10996
      13 -> 26         0.58991
      13 -> 28         0.10008
      13 -> 30        -0.11881

 Excited State  49:      Singlet-A'    13.9509 eV   88.87 nm  f=0.0734  <S**2>=0.000
       9 -> 17         0.10625
      10 -> 22         0.48162
      11 -> 18        -0.10977
      11 -> 21         0.12780
      12 -> 24        -0.11165
      13 -> 27         0.37302

 Excited State  50:      Singlet-A'    14.1076 eV   87.88 nm  f=0.0261  <S**2>=0.000
       8 -> 14         0.14549
       9 -> 19         0.18439
      12 -> 26         0.61400

 Excited State  51:      Singlet-A"    14.2322 eV   87.12 nm  f=0.0069  <S**2>=0.000
       7 -> 15        -0.10039
       7 -> 17         0.12531
      10 -> 17         0.11076
      10 -> 23         0.53101
      10 -> 24        -0.13916
      13 -> 28        -0.23128
      13 -> 29        -0.13529

 Excited State  52:      Singlet-A'    14.3043 eV   86.68 nm  f=0.0095  <S**2>=0.000
       8 -> 17        -0.12197
       9 -> 17         0.25276
       9 -> 18         0.40346
       9 -> 19         0.19927
       9 -> 21        -0.12678
      12 -> 29        -0.14866
      12 -> 30         0.18684
      13 -> 27        -0.21990

 Excited State  53:      Singlet-A'    14.3664 eV   86.30 nm  f=0.0190  <S**2>=0.000
       8 -> 15        -0.17134
       8 -> 17        -0.35259
       8 -> 18         0.13907
       8 -> 19         0.10292
      10 -> 22        -0.24412
      11 -> 23         0.36247
      13 -> 27         0.20211

 Excited State  54:      Singlet-A"    14.4156 eV   86.01 nm  f=0.0067  <S**2>=0.000
       7 -> 15         0.18503
       9 -> 22        -0.13653
      10 -> 24         0.10788
      12 -> 27         0.60880

 Excited State  55:      Singlet-A"    14.4395 eV   85.86 nm  f=0.0004  <S**2>=0.000
       7 -> 14        -0.11454
       7 -> 15         0.38447
       7 -> 17         0.28962
       7 -> 18        -0.15046
       7 -> 19        -0.20058
       7 -> 23        -0.12536
      10 -> 23         0.11280
      10 -> 24         0.13869
      11 -> 25        -0.11193
      12 -> 27        -0.22421

 Excited State  56:      Singlet-A'    14.4922 eV   85.55 nm  f=0.0002  <S**2>=0.000
       8 -> 17         0.11918
       9 -> 18         0.18040
      10 -> 22        -0.30500
      11 -> 23        -0.24656
      12 -> 26         0.11545
      12 -> 28        -0.21048
      13 -> 27         0.43129

 Excited State  57:      Singlet-A'    14.5185 eV   85.40 nm  f=0.0515  <S**2>=0.000
       8 -> 14        -0.10666
       8 -> 15         0.41661
       8 -> 19        -0.10213
       9 -> 18         0.17000
      11 -> 23         0.28052
      11 -> 24        -0.27236
      12 -> 29        -0.12954

 Excited State  58:      Singlet-A'    14.5909 eV   84.97 nm  f=0.0093  <S**2>=0.000
       8 -> 15         0.23072
       9 -> 18        -0.24545
       9 -> 19         0.36414
       9 -> 21        -0.20595
      11 -> 23        -0.11917
      11 -> 24        -0.18749
      12 -> 26        -0.13426
      12 -> 28         0.21870
      12 -> 30         0.11467
      13 -> 27         0.10976

 Excited State  59:      Singlet-A"    14.5915 eV   84.97 nm  f=0.0175  <S**2>=0.000
       7 -> 15        -0.17966
       7 -> 17         0.15538
      10 -> 23         0.11910
      10 -> 24        -0.15245
      11 -> 25         0.28132
      13 -> 28         0.48266
      13 -> 29        -0.13001

 Excited State  60:      Singlet-A"    14.6480 eV   84.64 nm  f=0.0119  <S**2>=0.000
       7 -> 15         0.14838
       7 -> 17        -0.18970
       7 -> 19         0.11003
      10 -> 18        -0.11745
      10 -> 23         0.18018
      11 -> 25        -0.15984
      13 -> 26        -0.21493
      13 -> 28         0.31034
      13 -> 29         0.37944

 Excited State  61:      Singlet-A"    14.7061 eV   84.31 nm  f=0.0804  <S**2>=0.000
       7 -> 15         0.16715
       7 -> 17         0.13353
      10 -> 21         0.10557
      10 -> 24        -0.11073
      11 -> 22        -0.10050
      11 -> 25         0.40232
      11 -> 27         0.10179
      13 -> 28        -0.20102
      13 -> 29         0.24793
      13 -> 30        -0.24635

 Excited State  62:      Singlet-A'    14.7853 eV   83.86 nm  f=0.0444  <S**2>=0.000
       7 -> 16        -0.22009
       8 -> 17        -0.23164
       9 -> 18         0.13658
       9 -> 19        -0.17756
       9 -> 23         0.11378
      10 -> 25         0.37961
      10 -> 27         0.10647
      11 -> 24        -0.19745
      12 -> 28         0.11916
      12 -> 29         0.17913

 Excited State  63:      Singlet-A"    14.8584 eV   83.44 nm  f=0.0000  <S**2>=0.000
       8 -> 16         0.10912
       9 -> 20         0.64307

 Excited State  64:      Singlet-A'    14.8609 eV   83.43 nm  f=0.0399  <S**2>=0.000
       7 -> 16         0.19555
       8 -> 15        -0.26755
       8 -> 17         0.31302
       9 -> 18         0.12874
       9 -> 21        -0.10638
      10 -> 25         0.14523
      11 -> 23         0.13236
      11 -> 24        -0.16160
      12 -> 28         0.31204
      12 -> 29        -0.11736

 Excited State  65:      Singlet-A"    14.8645 eV   83.41 nm  f=0.0000  <S**2>=0.000
       7 -> 15        -0.26444
       7 -> 17         0.25756
       8 -> 16         0.44173
       9 -> 20        -0.14267
      11 -> 25        -0.20101
      13 -> 29         0.13082

 Excited State  66:      Singlet-A'    14.9182 eV   83.11 nm  f=0.0062  <S**2>=0.000
       7 -> 16        -0.13933
       8 -> 15         0.24433
       8 -> 17         0.12173
      10 -> 25         0.14861
      11 -> 21        -0.11881
      11 -> 24         0.40869
      11 -> 26        -0.14344
      12 -> 28         0.28802

 Excited State  67:      Singlet-A"    14.9672 eV   82.84 nm  f=0.0196  <S**2>=0.000
       7 -> 15         0.17895
       7 -> 17        -0.28848
       8 -> 16         0.46006
      11 -> 22        -0.11367
      13 -> 29        -0.15248
      13 -> 30         0.24557

 Excited State  68:      Singlet-A'    14.9906 eV   82.71 nm  f=0.0644  <S**2>=0.000
       7 -> 16         0.38061
       8 -> 17        -0.23791
       9 -> 18         0.15094
       9 -> 19        -0.14452
      10 -> 25        -0.19138
      12 -> 28         0.24081
      12 -> 29         0.14900
      12 -> 30        -0.16658

 Excited State  69:      Singlet-A"    15.0111 eV   82.59 nm  f=0.0941  <S**2>=0.000
       7 -> 15        -0.12384
      10 -> 23         0.16810
      10 -> 24         0.53878
      11 -> 25         0.21434
      13 -> 29         0.10141
      13 -> 30         0.15170

 Excited State  70:      Singlet-A'    15.0293 eV   82.49 nm  f=0.1011  <S**2>=0.000
       7 -> 16         0.28150
       9 -> 18        -0.18141
       9 -> 19        -0.11849
       9 -> 21        -0.18255
      10 -> 25         0.36296
      11 -> 24         0.17671
      12 -> 28        -0.18866
      12 -> 29        -0.19726
      13 -> 31         0.14007

 Excited State  71:      Singlet-A"    15.0875 eV   82.18 nm  f=0.0015  <S**2>=0.000
       7 -> 17         0.12385
      10 -> 24        -0.17230
      13 -> 26         0.13009
      13 -> 29         0.37015
      13 -> 30         0.46157
      13 -> 32         0.11860

 Excited State  72:      Singlet-A'    15.1502 eV   81.84 nm  f=0.1503  <S**2>=0.000
       8 -> 17         0.14315
       9 -> 19         0.15559
       9 -> 21        -0.27926
      11 -> 23         0.20405
      12 -> 28        -0.20970
      12 -> 29         0.31121
      12 -> 30        -0.28010

 Excited State  73:      Singlet-A'    15.2682 eV   81.20 nm  f=0.0616  <S**2>=0.000
       7 -> 16         0.22936
       8 -> 15        -0.10843
       9 -> 19         0.34841
       9 -> 21         0.43082
      10 -> 25         0.15659
      12 -> 30        -0.15063
      13 -> 31         0.10706

 Excited State  74:      Singlet-A'    15.3645 eV   80.70 nm  f=0.0014  <S**2>=0.000
       7 -> 16         0.11580
      12 -> 29         0.39835
      12 -> 30         0.41633
      13 -> 31         0.22553
      13 -> 33        -0.12692

 Excited State  75:      Singlet-A'    15.4571 eV   80.21 nm  f=0.1076  <S**2>=0.000
       7 -> 16        -0.15422
      10 -> 25        -0.16137
      11 -> 26         0.14655
      12 -> 29        -0.13620
      12 -> 30        -0.15354
      13 -> 31         0.56363

 Excited State  76:      Singlet-A"    15.6027 eV   79.46 nm  f=0.0291  <S**2>=0.000
       9 -> 22         0.58772
      10 -> 26        -0.23008
      12 -> 27         0.10485

 The electronic state is 1-A'.
 Alpha  occ. eigenvalues --  -24.78523 -10.35712 -10.28235  -1.28939  -0.86635
 Alpha  occ. eigenvalues --   -0.72717  -0.58820  -0.58748  -0.54225  -0.48566
 Alpha  occ. eigenvalues --   -0.48012  -0.42582  -0.41756
 Alpha virt. eigenvalues --    0.07017   0.09286   0.11812   0.11836   0.14482
 Alpha virt. eigenvalues --    0.15813   0.16247   0.17483   0.18097   0.19813
 Alpha virt. eigenvalues --    0.22023   0.22175   0.25551   0.26803   0.27654

 Mulliken charges:
               1
     1  C   -1.022526
     2  C   -0.078091
     3  F   -0.329023
     4  H    0.339287
     5  H    0.304692
     6  H    0.304692
     7  H    0.240485
     8  H    0.240485
 Sum of Mulliken charges =  -0.00000

 Dipole moment (field-independent basis, Debye):
    X=             -1.7902    Y=              0.7110    Z=              0.0000  Tot=              1.9262
 Quadrupole moment (field-independent basis, Debye-Ang):
   XX=            -20.7732   YY=            -18.1561   ZZ=            -18.1328
   XY=              0.3154   XZ=              0.0000   YZ=             -0.0000

 Normal termination of Gaussian 16 at Sun Feb 27 06:45:12 2022.
