 Gaussian 16, Revision C.01,
 Gaussian 16:  EM64L-G16RevC.01  3-Jul-2019

 ----------------------------------------------------------------------
 #P TD(Nstates=10000) wB97XD/Gen SCF(maxcycles=100) Int(Grid=ultrafine)
 ----------------------------------------------------------------------

 ---------------------
 xGDB7_00001_tier4.com
 ---------------------
 Symbolic Z-matrix:
 Charge =  0 Multiplicity = 1

                         Standard orientation:
 ---------------------------------------------------------------------
 Center     Atomic      Atomic             Coordinates (Angstroms)
 Number     Number       Type             X           Y           Z
 ---------------------------------------------------------------------
      1          6           0        0.630149   -0.000001   -0.000003
      2          9           0       -0.748512    0.000002    0.000001
      3          1           0        0.985250    0.897475   -0.509314
      4          1           0        0.985222   -0.889832   -0.522562
      5          1           0        0.985245   -0.007652    1.031883
 ---------------------------------------------------------------------

 SCF Done:  E(RwB97XD) =  -139.763748285     A.U. after   11 cycles

 Excitation energies and oscillator strengths:

 Excited State   1:      Singlet-A      9.2134 eV  134.57 nm  f=0.0203  <S**2>=0.000
       9 -> 10         0.64952
       9 -> 11        -0.21850
       9 -> 14         0.13542
 This state for optimization and/or second-order correction.
 Total Energy, E(TD-HF/TD-DFT) =  -139.425162578
 Copying the excited state density for this state as the 1-particle RhoCI density.

 Excited State   2:      Singlet-A      9.2134 eV  134.57 nm  f=0.0203  <S**2>=0.000
       8 -> 10         0.64952
       8 -> 11        -0.21851
       8 -> 14         0.13543

 Excited State   3:      Singlet-A      9.8101 eV  126.38 nm  f=0.0314  <S**2>=0.000
       9 -> 10         0.24670
       9 -> 11         0.62293
       9 -> 14        -0.16594
       9 -> 20         0.10150

 Excited State   4:      Singlet-A      9.8102 eV  126.38 nm  f=0.0314  <S**2>=0.000
       8 -> 10         0.24671
       8 -> 11         0.62292
       8 -> 14        -0.16594
       8 -> 20         0.10150

 Excited State   5:      Singlet-A     10.9051 eV  113.69 nm  f=0.0233  <S**2>=0.000
       8 -> 12         0.12509
       8 -> 13         0.47663
       9 -> 12         0.47683
       9 -> 13        -0.12511

 Excited State   6:      Singlet-A     10.9051 eV  113.69 nm  f=0.0233  <S**2>=0.000
       8 -> 12        -0.47665
       8 -> 13         0.12508
       9 -> 12         0.12513
       9 -> 13         0.47680

 Excited State   7:      Singlet-A     11.0068 eV  112.64 nm  f=0.0000  <S**2>=0.000
       8 -> 13         0.48998
       9 -> 12        -0.48978

 Excited State   8:      Singlet-A     11.0267 eV  112.44 nm  f=0.0857  <S**2>=0.000
       8 -> 12         0.48974
       9 -> 13         0.48959

 Excited State   9:      Singlet-A     11.6173 eV  106.72 nm  f=0.0334  <S**2>=0.000
       9 -> 11         0.20920
       9 -> 14         0.64645

 Excited State  10:      Singlet-A     11.6173 eV  106.72 nm  f=0.0334  <S**2>=0.000
       8 -> 11         0.20920
       8 -> 14         0.64645

 Excited State  11:      Singlet-A     11.8276 eV  104.83 nm  f=0.0000  <S**2>=0.000
       8 -> 15         0.46376
       8 -> 18         0.15450
       9 -> 16         0.46375
       9 -> 17        -0.15452

 Excited State  12:      Singlet-A     12.0862 eV  102.58 nm  f=0.0691  <S**2>=0.000
       8 -> 15         0.39212
       8 -> 16        -0.28876
       9 -> 15        -0.28887
       9 -> 16        -0.39211

 Excited State  13:      Singlet-A     12.0862 eV  102.58 nm  f=0.0691  <S**2>=0.000
       8 -> 15         0.28881
       8 -> 16         0.39200
       9 -> 15         0.39223
       9 -> 16        -0.28883

 Excited State  14:      Singlet-A     12.1893 eV  101.72 nm  f=0.0010  <S**2>=0.000
       8 -> 16         0.45012
       8 -> 17        -0.19185
       9 -> 15        -0.44985
       9 -> 18        -0.19182

 Excited State  15:      Singlet-A     12.8528 eV   96.46 nm  f=0.0000  <S**2>=0.000
       8 -> 15         0.15015
       8 -> 18        -0.46132
       9 -> 16         0.15026
       9 -> 17         0.46232

 Excited State  16:      Singlet-A     12.8927 eV   96.17 nm  f=0.0008  <S**2>=0.000
       7 -> 10        -0.16082
       8 -> 17        -0.41830
       8 -> 18         0.20556
       9 -> 17         0.20518
       9 -> 18         0.41835

 Excited State  17:      Singlet-A     12.8927 eV   96.17 nm  f=0.0008  <S**2>=0.000
       6 -> 10         0.16078
       8 -> 17         0.20542
       8 -> 18         0.41878
       9 -> 17         0.41788
       9 -> 18        -0.20533

 Excited State  18:      Singlet-A     13.0880 eV   94.73 nm  f=0.1272  <S**2>=0.000
       7 -> 10         0.64322
       7 -> 11        -0.10536
       7 -> 14         0.12067
       8 -> 17        -0.10026
       9 -> 18         0.10022

 Excited State  19:      Singlet-A     13.0880 eV   94.73 nm  f=0.1272  <S**2>=0.000
       6 -> 10         0.64323
       6 -> 11        -0.10536
       6 -> 14         0.12067
       8 -> 18        -0.10024
       9 -> 17        -0.10019

 Excited State  20:      Singlet-A     13.2192 eV   93.79 nm  f=0.0361  <S**2>=0.000
       5 -> 10        -0.19348
       8 -> 16         0.17257
       8 -> 17         0.43860
       9 -> 15        -0.17256
       9 -> 18         0.43860

 Excited State  21:      Singlet-A     13.3838 eV   92.64 nm  f=0.0028  <S**2>=0.000
       5 -> 10         0.63823
       5 -> 11        -0.20343

 Excited State  22:      Singlet-A     13.5820 eV   91.29 nm  f=0.0053  <S**2>=0.000
       7 -> 10         0.10880
       7 -> 11         0.58484
       7 -> 14        -0.20043
       9 -> 20         0.26079

 Excited State  23:      Singlet-A     13.5820 eV   91.29 nm  f=0.0053  <S**2>=0.000
       6 -> 10         0.10880
       6 -> 11         0.58484
       6 -> 14        -0.20043
       8 -> 20         0.26079

 Excited State  24:      Singlet-A     14.1305 eV   87.74 nm  f=0.3385  <S**2>=0.000
       5 -> 10         0.19135
       5 -> 11         0.64588

 Excited State  25:      Singlet-A     14.3574 eV   86.36 nm  f=0.0016  <S**2>=0.000
       6 -> 11        -0.14034
       7 -> 10         0.10896
       7 -> 11         0.20662
       8 -> 20         0.39796
       8 -> 21        -0.16067
       9 -> 20        -0.38191
       9 -> 21         0.15420

 Excited State  26:      Singlet-A     14.3574 eV   86.36 nm  f=0.0016  <S**2>=0.000
       6 -> 10        -0.10897
       6 -> 11        -0.20663
       7 -> 11        -0.14036
       8 -> 20         0.38191
       8 -> 21        -0.15419
       9 -> 20         0.39795
       9 -> 21        -0.16068

 Excited State  27:      Singlet-A     14.7620 eV   83.99 nm  f=0.0333  <S**2>=0.000
       5 -> 12         0.17065
       6 -> 12         0.19868
       6 -> 13         0.40961
       7 -> 12         0.41006
       7 -> 13        -0.19855
       8 -> 20         0.10816

 Excited State  28:      Singlet-A     14.7621 eV   83.99 nm  f=0.0333  <S**2>=0.000
       5 -> 13        -0.17071
       6 -> 12        -0.40978
       6 -> 13         0.19847
       7 -> 12         0.19876
       7 -> 13         0.40987
       9 -> 20        -0.10812

 Excited State  29:      Singlet-A     14.8194 eV   83.66 nm  f=0.0759  <S**2>=0.000
       7 -> 14        -0.17080
       9 -> 19         0.65340
       9 -> 21        -0.11948

 Excited State  30:      Singlet-A     14.8195 eV   83.66 nm  f=0.0759  <S**2>=0.000
       6 -> 14        -0.17079
       8 -> 19         0.65339
       8 -> 21        -0.11949

 Excited State  31:      Singlet-A     14.8288 eV   83.61 nm  f=0.0000  <S**2>=0.000
       6 -> 12        -0.16425
       6 -> 13         0.45474
       7 -> 12        -0.45421
       7 -> 13        -0.16418

 Excited State  32:      Singlet-A     14.9015 eV   83.20 nm  f=0.0131  <S**2>=0.000
       5 -> 12        -0.19599
       5 -> 13         0.63812
       6 -> 12        -0.11299
       7 -> 13         0.11331

 Excited State  33:      Singlet-A     14.9015 eV   83.20 nm  f=0.0131  <S**2>=0.000
       5 -> 12         0.63814
       5 -> 13         0.19599
       6 -> 13        -0.11301
       7 -> 12        -0.11318

 Excited State  34:      Singlet-A     15.0479 eV   82.39 nm  f=0.0268  <S**2>=0.000
       6 -> 12         0.44923
       6 -> 13         0.16232
       7 -> 12        -0.16228
       7 -> 13         0.44912

 Excited State  35:      Singlet-A     15.5785 eV   79.59 nm  f=0.0000  <S**2>=0.000
       6 -> 15         0.44197
       6 -> 18         0.13569
       7 -> 16         0.44199
       7 -> 17        -0.13570
       8 -> 23        -0.10420
       9 -> 22         0.10420

 Excited State  36:      Singlet-A     15.5889 eV   79.53 nm  f=0.0009  <S**2>=0.000
       9 -> 20         0.24518
       9 -> 21         0.61606

 Excited State  37:      Singlet-A     15.5890 eV   79.53 nm  f=0.0009  <S**2>=0.000
       8 -> 20         0.24518
       8 -> 21         0.61606

 Excited State  38:      Singlet-A     15.6331 eV   79.31 nm  f=0.0054  <S**2>=0.000
       5 -> 14         0.53061
       6 -> 16         0.28468
       7 -> 15        -0.28465

 Excited State  39:      Singlet-A     15.6564 eV   79.19 nm  f=0.0014  <S**2>=0.000
       7 -> 11         0.20682
       7 -> 14         0.57902
       9 -> 19         0.20601

 Excited State  40:      Singlet-A     15.6565 eV   79.19 nm  f=0.0014  <S**2>=0.000
       6 -> 11         0.20683
       6 -> 14         0.57901
       8 -> 19         0.20601

 Excited State  41:      Singlet-A     15.8004 eV   78.47 nm  f=0.0735  <S**2>=0.000
       5 -> 15         0.26253
       6 -> 15         0.20663
       6 -> 16         0.26827
       7 -> 14        -0.15624
       7 -> 15         0.26989
       7 -> 16        -0.20640
       8 -> 22         0.23710
       9 -> 23        -0.23861

 Excited State  42:      Singlet-A     15.8005 eV   78.47 nm  f=0.0735  <S**2>=0.000
       5 -> 16        -0.26248
       6 -> 14        -0.15628
       6 -> 15        -0.26900
       6 -> 16         0.20585
       7 -> 15         0.20711
       7 -> 16         0.26909
       8 -> 23         0.23748
       9 -> 22         0.23835

 Excited State  43:      Singlet-A     15.8069 eV   78.44 nm  f=0.1001  <S**2>=0.000
       5 -> 14        -0.27053
       6 -> 16         0.29717
       7 -> 15        -0.29474
       8 -> 22         0.27967
       8 -> 23         0.19210
       9 -> 22        -0.19071
       9 -> 23         0.27856

 Excited State  44:      Singlet-A     15.9124 eV   77.92 nm  f=0.0014  <S**2>=0.000
       5 -> 15         0.61373
       8 -> 22        -0.15414
       9 -> 23         0.15431

 Excited State  45:      Singlet-A     15.9124 eV   77.92 nm  f=0.0014  <S**2>=0.000
       5 -> 16         0.61384
       8 -> 23         0.15391
       9 -> 22         0.15396

 Excited State  46:      Singlet-A     15.9624 eV   77.67 nm  f=0.0368  <S**2>=0.000
       5 -> 16        -0.10317
       6 -> 15         0.17787
       6 -> 16        -0.15964
       6 -> 17         0.10285
       6 -> 18         0.11040
       7 -> 15        -0.15966
       7 -> 16        -0.17789
       7 -> 17         0.11046
       7 -> 18        -0.10288
       8 -> 23         0.34896
       8 -> 24        -0.12335
       9 -> 22         0.34910
       9 -> 25         0.12336

 Excited State  47:      Singlet-A     15.9624 eV   77.67 nm  f=0.0368  <S**2>=0.000
       5 -> 15        -0.10365
       6 -> 15         0.15967
       6 -> 16         0.17789
       6 -> 17        -0.11037
       6 -> 18         0.10284
       7 -> 15         0.17791
       7 -> 16        -0.15965
       7 -> 17         0.10284
       7 -> 18         0.11043
       8 -> 22        -0.34891
       8 -> 25        -0.12339
       9 -> 23         0.34900
       9 -> 24        -0.12336

 Excited State  48:      Singlet-A     16.0401 eV   77.30 nm  f=0.1245  <S**2>=0.000
       5 -> 14         0.31766
       6 -> 16        -0.18109
       6 -> 17         0.21719
       7 -> 15         0.18102
       7 -> 18         0.21710
       8 -> 22         0.25608
       8 -> 23         0.17562
       9 -> 22        -0.17550
       9 -> 23         0.25596

 Excited State  49:      Singlet-A     16.0564 eV   77.22 nm  f=0.0000  <S**2>=0.000
       6 -> 18         0.14602
       7 -> 17        -0.14599
       8 -> 22        -0.23691
       8 -> 23         0.34551
       8 -> 24        -0.19068
       9 -> 22        -0.34539
       9 -> 23        -0.23687
       9 -> 25        -0.19065

 Excited State  50:      Singlet-A     16.2129 eV   76.47 nm  f=0.0000  <S**2>=0.000
       8 -> 22        -0.10807
       8 -> 23         0.15759
       8 -> 24         0.43367
       9 -> 22        -0.15754
       9 -> 23        -0.10803
       9 -> 25         0.43366

 Excited State  51:      Singlet-A     16.4896 eV   75.19 nm  f=0.0925  <S**2>=0.000
       6 -> 16         0.20306
       6 -> 17         0.12616
       7 -> 15         0.20305
       7 -> 18        -0.12621
       8 -> 25         0.40445
       9 -> 24         0.40455

 Excited State  52:      Singlet-A     16.4896 eV   75.19 nm  f=0.0925  <S**2>=0.000
       6 -> 15        -0.20304
       6 -> 18         0.12617
       7 -> 16         0.20306
       7 -> 17         0.12619
       8 -> 24        -0.40448
       9 -> 25         0.40452

 Excited State  53:      Singlet-A     16.7495 eV   74.02 nm  f=0.1942  <S**2>=0.000
       5 -> 14         0.10605
       8 -> 25         0.44681
       9 -> 24        -0.44674

 Excited State  54:      Singlet-A     16.7616 eV   73.97 nm  f=0.0000  <S**2>=0.000
       6 -> 15         0.17332
       6 -> 18        -0.41931
       7 -> 16         0.17332
       7 -> 17         0.41948
       8 -> 23         0.11256
       8 -> 28        -0.12658
       9 -> 22        -0.11259
       9 -> 27        -0.12662

 Excited State  55:      Singlet-A     16.8550 eV   73.56 nm  f=0.1563  <S**2>=0.000
       5 -> 15        -0.12331
       5 -> 18         0.44276
       6 -> 17        -0.21620
       6 -> 18         0.12599
       7 -> 17         0.12586
       7 -> 18         0.21642
       8 -> 25         0.15239
       8 -> 26        -0.24257
       9 -> 24         0.15233

 Excited State  56:      Singlet-A     16.8551 eV   73.56 nm  f=0.1563  <S**2>=0.000
       5 -> 16         0.12333
       5 -> 17         0.44302
       6 -> 17        -0.12571
       6 -> 18        -0.21623
       7 -> 17        -0.21606
       7 -> 18         0.12583
       8 -> 24        -0.15234
       9 -> 25         0.15234
       9 -> 26         0.24260

 Excited State  57:      Singlet-A     16.9636 eV   73.09 nm  f=0.0466  <S**2>=0.000
       5 -> 17         0.49512
       6 -> 17         0.19509
       6 -> 18         0.23804
       7 -> 17         0.23802
       7 -> 18        -0.19511
       9 -> 26        -0.12710

 Excited State  58:      Singlet-A     16.9637 eV   73.09 nm  f=0.0465  <S**2>=0.000
       5 -> 18         0.49540
       6 -> 17         0.23835
       6 -> 18        -0.19496
       7 -> 17        -0.19502
       7 -> 18        -0.23739
       8 -> 26         0.12702

 Excited State  59:      Singlet-A     16.9744 eV   73.04 nm  f=0.0182  <S**2>=0.000
       5 -> 20        -0.12309
       6 -> 16         0.16286
       6 -> 17         0.42733
       7 -> 15        -0.16286
       7 -> 18         0.42769
       8 -> 22        -0.10102
       9 -> 23        -0.10117

 Excited State  60:      Singlet-A     17.1222 eV   72.41 nm  f=0.0065  <S**2>=0.000
       6 -> 17         0.10449
       6 -> 18         0.15297
       7 -> 17         0.15289
       7 -> 18        -0.10448
       9 -> 26         0.63793

 Excited State  61:      Singlet-A     17.1223 eV   72.41 nm  f=0.0065  <S**2>=0.000
       6 -> 17        -0.15293
       6 -> 18         0.10448
       7 -> 17         0.10446
       7 -> 18         0.15293
       8 -> 26         0.63796

 Excited State  62:      Singlet-A     17.3660 eV   71.39 nm  f=0.0000  <S**2>=0.000
       6 -> 18        -0.14668
       7 -> 17         0.14686
       8 -> 28         0.47026
       9 -> 27         0.47149

 Excited State  63:      Singlet-A     17.4034 eV   71.24 nm  f=0.0197  <S**2>=0.000
       8 -> 27         0.47524
       9 -> 28         0.46961
       9 -> 29        -0.10541

 Excited State  64:      Singlet-A     17.4034 eV   71.24 nm  f=0.0197  <S**2>=0.000
       8 -> 28         0.47286
       8 -> 29         0.10538
       9 -> 27        -0.47201

 Excited State  65:      Singlet-A     17.4050 eV   71.23 nm  f=0.0001  <S**2>=0.000
       8 -> 27        -0.48238
       9 -> 28         0.48824

 Excited State  66:      Singlet-A     17.6172 eV   70.38 nm  f=0.0250  <S**2>=0.000
       7 -> 20         0.11837
       9 -> 29         0.67195

 Excited State  67:      Singlet-A     17.6173 eV   70.38 nm  f=0.0250  <S**2>=0.000
       6 -> 20         0.11838
       8 -> 29         0.67195

 Excited State  68:      Singlet-A     18.0802 eV   68.57 nm  f=0.0022  <S**2>=0.000
       6 -> 20        -0.11680
       7 -> 14         0.13383
       7 -> 20         0.56550
       7 -> 21        -0.23894
       9 -> 29        -0.12565
       9 -> 30         0.14639

 Excited State  69:      Singlet-A     18.0802 eV   68.57 nm  f=0.0022  <S**2>=0.000
       6 -> 14         0.13383
       6 -> 20         0.56550
       6 -> 21        -0.23893
       7 -> 20         0.11680
       8 -> 29        -0.12567
       8 -> 30         0.14637

 Excited State  70:      Singlet-A     18.3205 eV   67.68 nm  f=0.0491  <S**2>=0.000
       7 -> 19        -0.12297
       7 -> 20        -0.20632
       9 -> 30         0.64500

 Excited State  71:      Singlet-A     18.3205 eV   67.68 nm  f=0.0491  <S**2>=0.000
       6 -> 19        -0.12296
       6 -> 20        -0.20630
       8 -> 30         0.64501

 Excited State  72:      Singlet-A     18.6623 eV   66.44 nm  f=0.0328  <S**2>=0.000
       7 -> 19         0.66018
       7 -> 21        -0.19760
       9 -> 30         0.11328

 Excited State  73:      Singlet-A     18.6624 eV   66.44 nm  f=0.0328  <S**2>=0.000
       6 -> 19         0.66018
       6 -> 21        -0.19760
       8 -> 30         0.11327

 Excited State  74:      Singlet-A     18.8355 eV   65.82 nm  f=0.0012  <S**2>=0.000
       5 -> 19         0.68387

 Excited State  75:      Singlet-A     18.8740 eV   65.69 nm  f=0.1225  <S**2>=0.000
       4 -> 10        -0.14583
       5 -> 20         0.51335
       5 -> 21        -0.15764
       6 -> 25         0.11890
       7 -> 24        -0.11891
       8 -> 31        -0.16602
       8 -> 32         0.14837
       9 -> 31         0.14838
       9 -> 32         0.16602

 Excited State  76:      Singlet-A     19.3120 eV   64.20 nm  f=0.0060  <S**2>=0.000
       4 -> 10         0.60740
       5 -> 21        -0.21087
       6 -> 25         0.11890
       7 -> 24        -0.11891

 Excited State  77:      Singlet-A     19.4208 eV   63.84 nm  f=0.0196  <S**2>=0.000
       6 -> 21        -0.14758
       6 -> 22        -0.11126
       7 -> 19         0.10804
       7 -> 20         0.16417
       7 -> 21         0.42627
       7 -> 23         0.11125
       8 -> 31         0.30164
       9 -> 32         0.30166

 Excited State  78:      Singlet-A     19.4208 eV   63.84 nm  f=0.0196  <S**2>=0.000
       6 -> 19         0.10800
       6 -> 20         0.16411
       6 -> 21         0.42616
       6 -> 23        -0.11131
       7 -> 21         0.14763
       7 -> 22        -0.11132
       8 -> 32        -0.30171
       9 -> 31         0.30175

 Excited State  79:      Singlet-A     19.5178 eV   63.52 nm  f=0.0379  <S**2>=0.000
       6 -> 22         0.13319
       7 -> 19         0.11191
       7 -> 20         0.18738
       7 -> 21         0.40144
       7 -> 23        -0.13390
       8 -> 31        -0.31644
       9 -> 32        -0.31696

 Excited State  80:      Singlet-A     19.5178 eV   63.52 nm  f=0.0379  <S**2>=0.000
       6 -> 19         0.11194
       6 -> 20         0.18743
       6 -> 21         0.40157
       6 -> 23         0.13315
       7 -> 22         0.13390
       8 -> 32         0.31628
       9 -> 31        -0.31694

 Excited State  81:      Singlet-A     19.5233 eV   63.51 nm  f=0.0235  <S**2>=0.000
       4 -> 10         0.21809
       4 -> 11         0.27629
       4 -> 14        -0.10125
       5 -> 20         0.17585
       5 -> 21         0.43221
       6 -> 22        -0.12119
       6 -> 23        -0.12734
       6 -> 25         0.11427
       7 -> 22         0.12669
       7 -> 23        -0.12044
       7 -> 24        -0.11408

 Excited State  82:      Singlet-A     19.5931 eV   63.28 nm  f=0.0000  <S**2>=0.000
       6 -> 22        -0.11851
       6 -> 23         0.11281
       7 -> 22        -0.11266
       7 -> 23        -0.11853
       8 -> 31         0.30732
       8 -> 32         0.34395
       9 -> 31         0.34369
       9 -> 32        -0.30723

 Excited State  83:      Singlet-A     19.7732 eV   62.70 nm  f=0.0014  <S**2>=0.000
       4 -> 11        -0.28932
       6 -> 22        -0.29199
       6 -> 23        -0.30683
       7 -> 22         0.30850
       7 -> 23        -0.29328

 Excited State  84:      Singlet-A     19.7858 eV   62.66 nm  f=0.0020  <S**2>=0.000
       6 -> 22         0.45399
       7 -> 23        -0.45323
       8 -> 31         0.17205
       9 -> 32         0.17197

 Excited State  85:      Singlet-A     19.7859 eV   62.66 nm  f=0.0020  <S**2>=0.000
       6 -> 23         0.45408
       7 -> 22         0.45312
       8 -> 32        -0.17208
       9 -> 31         0.17198

 Excited State  86:      Singlet-A     19.8277 eV   62.53 nm  f=0.0000  <S**2>=0.000
       6 -> 22         0.23462
       6 -> 23        -0.22325
       6 -> 24         0.35302
       7 -> 22         0.22300
       7 -> 23         0.23455
       7 -> 25         0.35294

 The electronic state is 1-A.
 Alpha  occ. eigenvalues --  -24.79213 -10.35518  -1.29648  -0.80014  -0.58005
 Alpha  occ. eigenvalues --   -0.57535  -0.57535  -0.43531  -0.43531
 Alpha virt. eigenvalues --    0.07084   0.11174   0.13160   0.13160   0.15716
 Alpha virt. eigenvalues --    0.17625   0.17625   0.20852   0.20852   0.27296
 Alpha virt. eigenvalues --    0.28860   0.31136   0.32501   0.32501   0.34044

 Mulliken charges:
               1
     1  C   -0.343835
     2  F   -0.299397
     3  H    0.214411
     4  H    0.214409
     5  H    0.214413
 Sum of Mulliken charges =  -0.00000

 Dipole moment (field-independent basis, Debye):
    X=              1.8027    Y=             -0.0000    Z=              0.0000  Tot=              1.8027
 Quadrupole moment (field-independent basis, Debye-Ang):
   XX=            -12.6253   YY=            -11.8083   ZZ=            -11.8084
   XY=              0.0000   XZ=              0.0000   YZ=              0.0000

 Normal termination of Gaussian 16 at Sun Feb 27 06:41:51 2022.
