 Gaussian 16, Revision C.01,
 Gaussian 16:  EM64L-G16RevC.01  3-Jul-2019

 ----------------------------------------------------------------------
 #P TD(Nstates=10000) wB97XD/Gen SCF(maxcycles=100) Int(Grid=ultrafine)
 ----------------------------------------------------------------------

 ---------------------
 xGDB7_00001_tier4.com
 ---------------------
 Symbolic Z-matrix:
 Charge =  0 Multiplicity = 1

                         Standard orientation:
 ---------------------------------------------------------------------
 Center     Atomic      Atomic             Coordinates (Angstroms)
 Number     Number       Type             X           Y           Z
 ---------------------------------------------------------------------
      1          6           0        0.926251   -0.719055    0.000000
      2          6           0        0.000000    0.459276    0.000000
      3          8           0       -1.196998    0.387136    0.000000
      4          1           0        1.575965   -0.668678    0.877698
      5          1           0        1.575965   -0.668678   -0.877698
      6          1           0        0.366733   -1.652236    0.000000
      7          1           0        0.499813    1.451182    0.000000
 ---------------------------------------------------------------------

 SCF Done:  E(RwB97XD) =  -153.843341049     A.U. after   12 cycles

 Excitation energies and oscillator strengths:

 Excited State   1:      Singlet-A"     4.3654 eV  284.01 nm  f=0.0001  <S**2>=0.000
      12 -> 13         0.70309
 This state for optimization and/or second-order correction.
 Total Energy, E(TD-HF/TD-DFT) =  -153.682914361
 Copying the excited state density for this state as the 1-particle RhoCI density.

 Excited State   2:      Singlet-A'     7.1095 eV  174.39 nm  f=0.0161  <S**2>=0.000
      12 -> 14         0.65208
      12 -> 15         0.22959

 Excited State   3:      Singlet-A'     7.9075 eV  156.79 nm  f=0.0750  <S**2>=0.000
      12 -> 14        -0.19563
      12 -> 15         0.61137
      12 -> 16        -0.23108
      12 -> 18        -0.11500

 Excited State   4:      Singlet-A'     8.3423 eV  148.62 nm  f=0.0509  <S**2>=0.000
      11 -> 13        -0.12051
      12 -> 14        -0.10361
      12 -> 15         0.17510
      12 -> 16         0.63450
      12 -> 18        -0.12006

 Excited State   5:      Singlet-A"     8.4606 eV  146.54 nm  f=0.0101  <S**2>=0.000
      12 -> 17         0.69277

 Excited State   6:      Singlet-A"     8.8834 eV  139.57 nm  f=0.0008  <S**2>=0.000
       7 -> 13         0.13468
       9 -> 13        -0.14661
      10 -> 13         0.67430

 Excited State   7:      Singlet-A'     9.0228 eV  137.41 nm  f=0.1491  <S**2>=0.000
      11 -> 13         0.36957
      12 -> 15         0.11840
      12 -> 16         0.16178
      12 -> 18         0.38799
      12 -> 19         0.37337
      12 -> 21         0.11995

 Excited State   8:      Singlet-A'     9.3354 eV  132.81 nm  f=0.0667  <S**2>=0.000
       8 -> 13        -0.10305
      11 -> 13         0.50017
      12 -> 18        -0.45075

 Excited State   9:      Singlet-A'     9.3656 eV  132.38 nm  f=0.1258  <S**2>=0.000
      11 -> 13        -0.20873
      12 -> 14         0.10727
      12 -> 18        -0.31418
      12 -> 19         0.56143

 Excited State  10:      Singlet-A"     9.4155 eV  131.68 nm  f=0.0067  <S**2>=0.000
       9 -> 13         0.16095
      12 -> 20         0.64818
      12 -> 22         0.17473

 Excited State  11:      Singlet-A"     9.6361 eV  128.67 nm  f=0.0000  <S**2>=0.000
       9 -> 13         0.66387
      10 -> 13         0.12951
      12 -> 20        -0.16971

 Excited State  12:      Singlet-A'     9.9440 eV  124.68 nm  f=0.0202  <S**2>=0.000
      12 -> 21         0.66735
      12 -> 24        -0.10381

 Excited State  13:      Singlet-A"     9.9982 eV  124.01 nm  f=0.0047  <S**2>=0.000
      11 -> 14         0.68337

 Excited State  14:      Singlet-A"    10.6254 eV  116.69 nm  f=0.0154  <S**2>=0.000
      12 -> 20        -0.16406
      12 -> 22         0.66241
      12 -> 28         0.10012

 Excited State  15:      Singlet-A'    10.6992 eV  115.88 nm  f=0.0812  <S**2>=0.000
       8 -> 13         0.13976
      10 -> 14         0.64062
      10 -> 15        -0.18667

 Excited State  16:      Singlet-A"    10.7774 eV  115.04 nm  f=0.0415  <S**2>=0.000
       8 -> 14         0.14612
      11 -> 15         0.65687

 Excited State  17:      Singlet-A'    10.8727 eV  114.03 nm  f=0.0061  <S**2>=0.000
       8 -> 13        -0.16372
      12 -> 23         0.52667
      12 -> 24        -0.37774
      12 -> 25        -0.12983

 Excited State  18:      Singlet-A"    10.9776 eV  112.94 nm  f=0.0011  <S**2>=0.000
       7 -> 13         0.67067
      10 -> 13        -0.14677

 Excited State  19:      Singlet-A'    11.1246 eV  111.45 nm  f=0.0876  <S**2>=0.000
       8 -> 13         0.53056
      10 -> 14        -0.11002
      12 -> 23         0.32272
      12 -> 24         0.20695

 Excited State  20:      Singlet-A'    11.1898 eV  110.80 nm  f=0.0080  <S**2>=0.000
       8 -> 13        -0.34928
      11 -> 17         0.12599
      12 -> 21         0.10586
      12 -> 23         0.26205
      12 -> 24         0.50826

 Excited State  21:      Singlet-A"    11.3105 eV  109.62 nm  f=0.0682  <S**2>=0.000
       8 -> 14         0.18667
      11 -> 16         0.64251
      11 -> 19        -0.12190
      11 -> 21        -0.10891

 Excited State  22:      Singlet-A'    11.4996 eV  107.82 nm  f=0.0295  <S**2>=0.000
      11 -> 17         0.66321
      12 -> 24        -0.10062

 Excited State  23:      Singlet-A'    11.5958 eV  106.92 nm  f=0.1048  <S**2>=0.000
       9 -> 14        -0.11044
      10 -> 14         0.17575
      10 -> 15         0.62594
      10 -> 16        -0.10703

 Excited State  24:      Singlet-A'    11.6849 eV  106.11 nm  f=0.0344  <S**2>=0.000
       8 -> 13        -0.10837
      12 -> 25         0.66663

 Excited State  25:      Singlet-A"    11.9529 eV  103.73 nm  f=0.0065  <S**2>=0.000
       8 -> 14         0.11764
       8 -> 15        -0.15152
      11 -> 18         0.57668
      11 -> 19         0.30546

 Excited State  26:      Singlet-A'    12.1485 eV  102.06 nm  f=0.0068  <S**2>=0.000
       9 -> 14         0.61886
      10 -> 16        -0.25056

 Excited State  27:      Singlet-A"    12.1757 eV  101.83 nm  f=0.0403  <S**2>=0.000
       8 -> 14         0.37350
      10 -> 17         0.47928
      10 -> 20         0.16931
      11 -> 15        -0.11377
      11 -> 16        -0.14638
      11 -> 21        -0.10695
      12 -> 27         0.11491

 Excited State  28:      Singlet-A"    12.2115 eV  101.53 nm  f=0.0017  <S**2>=0.000
       8 -> 15         0.18725
      11 -> 16         0.11416
      11 -> 18        -0.27243
      11 -> 19         0.58549

 Excited State  29:      Singlet-A"    12.2899 eV  100.88 nm  f=0.0468  <S**2>=0.000
       8 -> 14         0.47427
      10 -> 17        -0.39166
      10 -> 20        -0.16561
      11 -> 15        -0.11773
      11 -> 16        -0.11005
      11 -> 21        -0.10433
      12 -> 27        -0.12907

 Excited State  30:      Singlet-A'    12.3484 eV  100.41 nm  f=0.0241  <S**2>=0.000
       8 -> 17        -0.12666
       9 -> 14        -0.14405
      10 -> 16        -0.36400
      10 -> 18        -0.15058
      10 -> 21         0.11994
      11 -> 20         0.48180

 Excited State  31:      Singlet-A'    12.4169 eV   99.85 nm  f=0.0069  <S**2>=0.000
       9 -> 14         0.17281
       9 -> 15         0.10335
      10 -> 16         0.41461
      10 -> 18         0.15056
      10 -> 19        -0.17913
      11 -> 20         0.40721
      11 -> 22         0.12052
      12 -> 26        -0.15286

 Excited State  32:      Singlet-A"    12.5056 eV   99.14 nm  f=0.0141  <S**2>=0.000
      10 -> 17        -0.16044
      12 -> 27         0.63110
      12 -> 28        -0.18668

 Excited State  33:      Singlet-A'    12.5694 eV   98.64 nm  f=0.0671  <S**2>=0.000
      10 -> 18         0.17213
      11 -> 20         0.14625
      12 -> 26         0.61945

 Excited State  34:      Singlet-A"    12.7171 eV   97.49 nm  f=0.0001  <S**2>=0.000
       8 -> 14         0.15947
       8 -> 15        -0.25326
       8 -> 16         0.20019
      11 -> 18        -0.16278
      11 -> 21         0.55447

 Excited State  35:      Singlet-A'    12.7672 eV   97.11 nm  f=0.0429  <S**2>=0.000
       7 -> 14        -0.12790
       9 -> 15         0.33704
      10 -> 18         0.41357
      10 -> 19         0.31059
      10 -> 23         0.10580
      12 -> 26        -0.19119

 Excited State  36:      Singlet-A'    12.8975 eV   96.13 nm  f=0.0792  <S**2>=0.000
       9 -> 15         0.49499
       9 -> 16        -0.25789
      10 -> 18        -0.14602
      10 -> 19        -0.30180
      10 -> 21         0.10746
      11 -> 20        -0.10453
      11 -> 22        -0.10920

 Excited State  37:      Singlet-A"    12.9852 eV   95.48 nm  f=0.0040  <S**2>=0.000
      10 -> 20        -0.15512
      12 -> 27         0.17598
      12 -> 28         0.63157

 Excited State  38:      Singlet-A"    13.0453 eV   95.04 nm  f=0.0385  <S**2>=0.000
       8 -> 15        -0.11252
       9 -> 17         0.13262
      10 -> 17        -0.20946
      10 -> 20         0.54594
      10 -> 22         0.19715
      11 -> 19         0.11139
      12 -> 28         0.16807

 Excited State  39:      Singlet-A'    13.0937 eV   94.69 nm  f=0.0287  <S**2>=0.000
       7 -> 14         0.22233
       7 -> 15         0.15510
       9 -> 15         0.12329
       9 -> 16        -0.29683
      10 -> 16         0.11197
      10 -> 18        -0.22395
      10 -> 19         0.41830
      11 -> 22         0.13592

 Excited State  40:      Singlet-A"    13.2399 eV   93.64 nm  f=0.0003  <S**2>=0.000
       8 -> 15         0.53945
       8 -> 18         0.13167
      11 -> 18         0.14909
      11 -> 21         0.32155

 Excited State  41:      Singlet-A'    13.3345 eV   92.98 nm  f=0.0639  <S**2>=0.000
       7 -> 15         0.11190
       9 -> 15         0.12887
       9 -> 16         0.25080
      10 -> 21        -0.22492
      12 -> 29         0.50335
      12 -> 31        -0.21162

 Excited State  42:      Singlet-A'    13.3511 eV   92.86 nm  f=0.0458  <S**2>=0.000
       7 -> 14        -0.19305
       7 -> 15         0.12102
       8 -> 17         0.19836
       9 -> 15         0.15087
       9 -> 16         0.22003
      10 -> 18        -0.16535
      10 -> 19        -0.11286
      10 -> 21        -0.27011
      11 -> 22         0.29574
      12 -> 29        -0.26778
      12 -> 31         0.12419

 Excited State  43:      Singlet-A'    13.4116 eV   92.45 nm  f=0.0122  <S**2>=0.000
       7 -> 14         0.36890
       8 -> 17         0.19518
       9 -> 16        -0.15639
      10 -> 15        -0.12114
      10 -> 16        -0.19968
      10 -> 18         0.19896
      10 -> 19        -0.19413
      11 -> 22         0.33425

 Excited State  44:      Singlet-A"    13.4646 eV   92.08 nm  f=0.0010  <S**2>=0.000
       9 -> 17         0.63264
      10 -> 22        -0.22672

 Excited State  45:      Singlet-A'    13.4890 eV   91.92 nm  f=0.0309  <S**2>=0.000
       7 -> 14         0.44394
       8 -> 17        -0.12108
       9 -> 15         0.11800
       9 -> 16         0.29930
      11 -> 22        -0.20915
      12 -> 29        -0.28493

 Excited State  46:      Singlet-A"    13.6606 eV   90.76 nm  f=0.0057  <S**2>=0.000
       8 -> 15         0.15186
       8 -> 18        -0.28546
       8 -> 19        -0.14564
       9 -> 17        -0.10338
      10 -> 20         0.10664
      11 -> 23         0.52769
      11 -> 24        -0.12966

 Excited State  47:      Singlet-A"    13.7448 eV   90.20 nm  f=0.0665  <S**2>=0.000
       6 -> 13        -0.20228
       8 -> 15         0.11282
       8 -> 16         0.43007
       8 -> 19        -0.28241
       8 -> 21        -0.19988
       9 -> 17        -0.11723
      10 -> 20         0.12045
      11 -> 21        -0.11409
      11 -> 24         0.15932
      11 -> 25        -0.17426

 Excited State  48:      Singlet-A'    13.7518 eV   90.16 nm  f=0.0185  <S**2>=0.000
       9 -> 16        -0.16128
      10 -> 18         0.10869
      10 -> 21        -0.20839
      11 -> 22        -0.11501
      12 -> 29        -0.14098
      12 -> 30         0.47310
      12 -> 31        -0.29745

 Excited State  49:      Singlet-A'    13.8253 eV   89.68 nm  f=0.0052  <S**2>=0.000
       8 -> 17        -0.17838
       8 -> 20        -0.12599
       9 -> 16         0.18150
      10 -> 16         0.11623
      10 -> 21         0.35526
      11 -> 20        -0.14541
      11 -> 22         0.34370
      12 -> 30         0.28333
      12 -> 31        -0.11365

 Excited State  50:      Singlet-A'    13.9379 eV   88.95 nm  f=0.0347  <S**2>=0.000
       7 -> 15        -0.26111
       8 -> 17         0.30132
       9 -> 18        -0.27093
      11 -> 20         0.10416
      11 -> 22        -0.11225
      12 -> 29         0.12090
      12 -> 30         0.31314
      12 -> 31         0.23136

 Excited State  51:      Singlet-A"    13.9926 eV   88.61 nm  f=0.0057  <S**2>=0.000
       6 -> 13         0.15469
       7 -> 17         0.15908
       8 -> 16         0.10208
       8 -> 21        -0.13137
       9 -> 17         0.14284
       9 -> 20         0.12160
      10 -> 20        -0.11098
      10 -> 22         0.31074
      11 -> 23         0.17976
      11 -> 24         0.40605
      11 -> 25         0.15575

 Excited State  52:      Singlet-A"    14.0231 eV   88.41 nm  f=0.0015  <S**2>=0.000
       6 -> 13         0.14792
       7 -> 17        -0.20274
       8 -> 18        -0.10016
       9 -> 20        -0.25563
      10 -> 20         0.10025
      10 -> 22        -0.32736
      11 -> 24         0.38004
      12 -> 32        -0.16158

 Excited State  53:      Singlet-A'    14.0609 eV   88.18 nm  f=0.1329  <S**2>=0.000
       7 -> 15         0.27769
       8 -> 17         0.30819
       9 -> 18         0.36854
      10 -> 21         0.27308
      11 -> 22        -0.17550

 Excited State  54:      Singlet-A'    14.0945 eV   87.97 nm  f=0.0009  <S**2>=0.000
       8 -> 17        -0.25618
       9 -> 18         0.24764
       9 -> 19         0.26805
      10 -> 21        -0.14738
      12 -> 29         0.11278
      12 -> 30         0.15732
      12 -> 31         0.40329

 Excited State  55:      Singlet-A"    14.2090 eV   87.26 nm  f=0.0060  <S**2>=0.000
       6 -> 13        -0.15907
       8 -> 16        -0.28093
       8 -> 18        -0.21392
       8 -> 19        -0.26158
      11 -> 23        -0.21253
      11 -> 24         0.21152
      12 -> 32         0.35532

 Excited State  56:      Singlet-A'    14.2129 eV   87.23 nm  f=0.0337  <S**2>=0.000
       7 -> 15        -0.36405
       7 -> 16         0.12771
       9 -> 18         0.12751
       9 -> 19         0.38434
      12 -> 29        -0.10401
      12 -> 31        -0.27908
      12 -> 33         0.11033

 Excited State  57:      Singlet-A"    14.2348 eV   87.10 nm  f=0.0013  <S**2>=0.000
       6 -> 13         0.25623
       8 -> 16         0.10292
       8 -> 18         0.14091
       8 -> 19         0.17211
       9 -> 20         0.10249
      10 -> 22        -0.23754
      11 -> 23         0.13866
      12 -> 32         0.48613

 Excited State  58:      Singlet-A"    14.3158 eV   86.61 nm  f=0.0008  <S**2>=0.000
       6 -> 13         0.12009
       9 -> 20         0.50627
       9 -> 22         0.11183
      10 -> 22        -0.21837
      12 -> 32        -0.27399
      12 -> 34         0.17927

 Excited State  59:      Singlet-A'    14.3761 eV   86.24 nm  f=0.0092  <S**2>=0.000
       7 -> 15         0.25923
       7 -> 16        -0.13624
       8 -> 17        -0.10737
       9 -> 18        -0.31027
       9 -> 19         0.40771
      10 -> 25        -0.10062
      12 -> 33         0.16180
      12 -> 35        -0.11137

 Excited State  60:      Singlet-A"    14.3905 eV   86.16 nm  f=0.0003  <S**2>=0.000
       6 -> 13         0.21284
       8 -> 16         0.23601
       8 -> 18        -0.24197
       8 -> 19        -0.22610
       8 -> 21         0.10946
      11 -> 23        -0.17602
      11 -> 24        -0.18200
      11 -> 25         0.41393

 Excited State  61:      Singlet-A'    14.4675 eV   85.70 nm  f=0.0416  <S**2>=0.000
       7 -> 16         0.17670
       8 -> 17        -0.12265
       8 -> 20         0.13594
       9 -> 19        -0.10134
      12 -> 33         0.47126
      12 -> 35        -0.32900

 Excited State  62:      Singlet-A'    14.5591 eV   85.16 nm  f=0.0355  <S**2>=0.000
       8 -> 17        -0.17067
       8 -> 20         0.53269
       8 -> 22         0.19924
      10 -> 23        -0.15007
      11 -> 27        -0.11300
      12 -> 35         0.10998

 Excited State  63:      Singlet-A"    14.6125 eV   84.85 nm  f=0.0766  <S**2>=0.000
       6 -> 13         0.33253
       7 -> 17         0.10177
       8 -> 19        -0.15778
       9 -> 20        -0.26094
      10 -> 22         0.12102
      11 -> 25        -0.22179
      12 -> 34         0.41315

 Excited State  64:      Singlet-A'    14.7236 eV   84.21 nm  f=0.0248  <S**2>=0.000
       7 -> 15        -0.17118
       7 -> 16        -0.34867
       7 -> 18        -0.10791
       9 -> 21         0.41543
      10 -> 18        -0.10685
      10 -> 23         0.11505
      12 -> 33         0.20906
      12 -> 35         0.17618
      12 -> 36        -0.10795

 Excited State  65:      Singlet-A"    14.8093 eV   83.72 nm  f=0.0122  <S**2>=0.000
       6 -> 13         0.13390
       7 -> 17         0.42757
       8 -> 18        -0.17120
       8 -> 21        -0.12689
      10 -> 20         0.12511
      11 -> 23        -0.11664
      11 -> 25        -0.22508
      12 -> 34        -0.33943

 Excited State  66:      Singlet-A'    14.8149 eV   83.69 nm  f=0.0359  <S**2>=0.000
       7 -> 15         0.11626
       7 -> 16         0.31870
       7 -> 19        -0.21483
       8 -> 20         0.11976
       9 -> 18        -0.11720
      10 -> 24         0.21418
      12 -> 30         0.10463
      12 -> 35         0.39587
      12 -> 36        -0.12078

 Excited State  67:      Singlet-A"    14.8309 eV   83.60 nm  f=0.0105  <S**2>=0.000
       7 -> 17         0.23893
       8 -> 18         0.33091
       8 -> 19        -0.31606
       8 -> 21         0.24946
       8 -> 23         0.14670
      11 -> 23         0.17995
      11 -> 24         0.10340
      11 -> 25         0.13718
      12 -> 34        -0.17665

 Excited State  68:      Singlet-A'    14.8978 eV   83.22 nm  f=0.1313  <S**2>=0.000
       7 -> 18         0.16157
       7 -> 19         0.19463
       8 -> 20        -0.20083
       9 -> 21        -0.21871
      10 -> 23        -0.22815
      10 -> 25         0.11459
      12 -> 33         0.34644
      12 -> 35         0.31474

 Excited State  69:      Singlet-A"    14.9419 eV   82.98 nm  f=0.2600  <S**2>=0.000
       6 -> 13        -0.27249
       7 -> 17         0.35280
       8 -> 19         0.18797
       9 -> 22        -0.15721
      10 -> 22        -0.19032
      11 -> 25         0.18517
      12 -> 34         0.32284
      12 -> 38        -0.15241

 Excited State  70:      Singlet-A'    14.9796 eV   82.77 nm  f=0.1788  <S**2>=0.000
       7 -> 16        -0.13110
       7 -> 18        -0.11736
       9 -> 18        -0.12603
       9 -> 21        -0.26633
      10 -> 23         0.45262
      10 -> 24        -0.29996
      12 -> 35         0.13037

 Excited State  71:      Singlet-A'    15.0445 eV   82.41 nm  f=0.0780  <S**2>=0.000
       7 -> 18        -0.11958
       7 -> 19         0.22544
       9 -> 21        -0.14887
      10 -> 18        -0.11263
      10 -> 23         0.12093
      10 -> 24         0.44290
      10 -> 25         0.32219

 Excited State  72:      Singlet-A'    15.2212 eV   81.45 nm  f=0.0016  <S**2>=0.000
       7 -> 16         0.28835
       7 -> 19         0.15858
       9 -> 21         0.34568
      10 -> 24        -0.17501
      10 -> 25         0.26798
      12 -> 36         0.28834

 Excited State  73:      Singlet-A"    15.2556 eV   81.27 nm  f=0.0044  <S**2>=0.000
       8 -> 16         0.18831
       8 -> 18        -0.13427
       8 -> 19         0.13122
       8 -> 21         0.48875
       8 -> 24         0.10236
      11 -> 24         0.12424
      11 -> 25        -0.22288
      11 -> 26        -0.26446

 Excited State  74:      Singlet-A'    15.3277 eV   80.89 nm  f=0.2004  <S**2>=0.000
       7 -> 18        -0.18209
       8 -> 22         0.30008
      10 -> 24        -0.15005
      10 -> 25         0.31423
      11 -> 27         0.18788
      11 -> 28         0.18555
      12 -> 36        -0.31330

 Excited State  75:      Singlet-A'    15.4154 eV   80.43 nm  f=0.0294  <S**2>=0.000
       7 -> 18         0.26266
       7 -> 19         0.30272
       8 -> 22         0.25157
      10 -> 23         0.22757
      10 -> 25        -0.24952
      11 -> 27         0.17523
      11 -> 28         0.18118
      12 -> 37        -0.18920

 Excited State  76:      Singlet-A"    15.4344 eV   80.33 nm  f=0.0473  <S**2>=0.000
       6 -> 13        -0.10205
       7 -> 20         0.33065
       9 -> 20        -0.11680
      11 -> 26        -0.13184
      12 -> 38         0.53015

 Excited State  77:      Singlet-A'    15.5369 eV   79.80 nm  f=0.1281  <S**2>=0.000
       7 -> 18        -0.15606
       7 -> 21        -0.12402
       8 -> 20        -0.13856
       8 -> 22         0.27360
       9 -> 23        -0.12293
      11 -> 28         0.25146
      12 -> 36         0.34958
      12 -> 37         0.27105

 Excited State  78:      Singlet-A"    15.5429 eV   79.77 nm  f=0.0271  <S**2>=0.000
       8 -> 21        -0.14284
       9 -> 20        -0.11391
       9 -> 22         0.50441
      11 -> 26        -0.34202
      12 -> 38        -0.13288

 Excited State  79:      Singlet-A'    15.5484 eV   79.74 nm  f=0.0040  <S**2>=0.000
       7 -> 18         0.17111

 The electronic state is 1-A'.
 Alpha  occ. eigenvalues --  -19.25243 -10.38070 -10.29631  -1.15948  -0.85896
 Alpha  occ. eigenvalues --   -0.67876  -0.57551  -0.53966  -0.53172  -0.48866
 Alpha  occ. eigenvalues --   -0.45723  -0.34699
 Alpha virt. eigenvalues --    0.04335   0.06547   0.08756   0.11197   0.11715
 Alpha virt. eigenvalues --    0.14065   0.15142   0.15276   0.16397   0.19869
 Alpha virt. eigenvalues --    0.20821   0.22776   0.23192   0.27177   0.27498

 Mulliken charges:
               1
     1  C   -0.922098
     2  C    0.202956
     3  O   -0.526765
     4  H    0.310526
     5  H    0.310526
     6  H    0.301279
     7  H    0.323576
 Sum of Mulliken charges =  -0.00000

 Dipole moment (field-independent basis, Debye):
    X=              2.8648    Y=             -0.3252    Z=              0.0000  Tot=              2.8832
 Quadrupole moment (field-independent basis, Debye-Ang):
   XX=            -21.0877   YY=            -17.7902   ZZ=            -17.8316
   XY=              0.8072   XZ=             -0.0000   YZ=             -0.0000

 Normal termination of Gaussian 16 at Sun Feb 27 06:43:47 2022.
