 Gaussian 16, Revision C.01,
 Gaussian 16:  EM64L-G16RevC.01  3-Jul-2019

 ----------------------------------------------------------------------
 #P TD(Nstates=10000) wB97XD/Gen SCF(maxcycles=100) Int(Grid=ultrafine)
 ----------------------------------------------------------------------

 ---------------------
 xGDB7_00001_tier4.com
 ---------------------
 Symbolic Z-matrix:
 Charge =  0 Multiplicity = 1

                         Standard orientation:
 ---------------------------------------------------------------------
 Center     Atomic      Atomic             Coordinates (Angstroms)
 Number     Number       Type             X           Y           Z
 ---------------------------------------------------------------------
      1          6           0        0.000000    0.729549   -0.367364
      2          6           0       -0.000000   -0.729549   -0.367364
      3          8           0       -0.000000   -0.000000    0.845033
      4          1           0       -0.918945    1.264243   -0.587975
      5          1           0        0.918945    1.264243   -0.587975
      6          1           0        0.918945   -1.264243   -0.587975
      7          1           0       -0.918945   -1.264243   -0.587975
 ---------------------------------------------------------------------

 SCF Done:  E(RwB97XD) =  -153.802197021     A.U. after   11 cycles

 Excitation energies and oscillator strengths:

 Excited State   1:      Singlet-B1     7.6390 eV  162.30 nm  f=0.0115  <S**2>=0.000
      12 -> 13         0.62619
      12 -> 15        -0.26002
      12 -> 18         0.17158
 This state for optimization and/or second-order correction.
 Total Energy, E(TD-HF/TD-DFT) =  -153.521467114
 Copying the excited state density for this state as the 1-particle RhoCI density.

 Excited State   2:      Singlet-B1     7.9767 eV  155.43 nm  f=0.0397  <S**2>=0.000
      12 -> 13         0.28924
      12 -> 15         0.61136
      12 -> 18        -0.11876

 Excited State   3:      Singlet-A2     8.1429 eV  152.26 nm  f=0.0000  <S**2>=0.000
      12 -> 14         0.60381
      12 -> 17         0.31861
      12 -> 20         0.14997

 Excited State   4:      Singlet-A1     8.4706 eV  146.37 nm  f=0.0364  <S**2>=0.000
      11 -> 13         0.15223
      12 -> 16         0.68084

 Excited State   5:      Singlet-A2     8.6430 eV  143.45 nm  f=0.0000  <S**2>=0.000
      12 -> 14        -0.33406
      12 -> 17         0.46242
      12 -> 20         0.38142
      12 -> 26         0.11126

 Excited State   6:      Singlet-A1     8.6997 eV  142.52 nm  f=0.0072  <S**2>=0.000
      11 -> 13         0.67284
      11 -> 18         0.11727
      12 -> 16        -0.15475

 Excited State   7:      Singlet-A1     9.0779 eV  136.58 nm  f=0.0509  <S**2>=0.000
      11 -> 15         0.64955
      11 -> 18        -0.22387

 Excited State   8:      Singlet-B2     9.2949 eV  133.39 nm  f=0.0770  <S**2>=0.000
      11 -> 14         0.68970
      11 -> 17         0.10246

 Excited State   9:      Singlet-B1     9.4029 eV  131.86 nm  f=0.0127  <S**2>=0.000
      12 -> 13        -0.10259
      12 -> 15         0.18369
      12 -> 18         0.65515

 Excited State  10:      Singlet-B1     9.5310 eV  130.09 nm  f=0.0068  <S**2>=0.000
      11 -> 16         0.68841

 Excited State  11:      Singlet-A2    10.2013 eV  121.54 nm  f=0.0000  <S**2>=0.000
      10 -> 13        -0.18892
      12 -> 17        -0.38382
      12 -> 20         0.54030

 Excited State  12:      Singlet-B2    10.2347 eV  121.14 nm  f=0.1761  <S**2>=0.000
      10 -> 16        -0.12635
      11 -> 14        -0.10327
      11 -> 17         0.50685
      11 -> 20         0.21943
      12 -> 19         0.36799

 Excited State  13:      Singlet-B2    10.3839 eV  119.40 nm  f=0.0040  <S**2>=0.000
      11 -> 17        -0.35678
      11 -> 20        -0.11147
      12 -> 19         0.58085

 Excited State  14:      Singlet-A2    10.4528 eV  118.61 nm  f=0.0000  <S**2>=0.000
      10 -> 13         0.63948
      10 -> 15         0.12638
      12 -> 17        -0.14863
      12 -> 20         0.14016

 Excited State  15:      Singlet-A1    10.5492 eV  117.53 nm  f=0.0041  <S**2>=0.000
      11 -> 13        -0.11628
      11 -> 15         0.22709
      11 -> 18         0.63012
      12 -> 21        -0.11635

 Excited State  16:      Singlet-B1    10.5528 eV  117.49 nm  f=0.0170  <S**2>=0.000
      10 -> 14        -0.28578
      12 -> 22         0.62030

 Excited State  17:      Singlet-A1    10.8789 eV  113.97 nm  f=0.0029  <S**2>=0.000
       9 -> 17        -0.12079
      11 -> 18         0.10271
      11 -> 22        -0.12432
      12 -> 21         0.66241

 Excited State  18:      Singlet-B2    11.0672 eV  112.03 nm  f=0.0342  <S**2>=0.000
       9 -> 13         0.66933
      10 -> 16         0.11196

 Excited State  19:      Singlet-A2    11.0840 eV  111.86 nm  f=0.0000  <S**2>=0.000
      10 -> 15         0.59527
      10 -> 18        -0.29808
      11 -> 19         0.10937

 Excited State  20:      Singlet-B1    11.1669 eV  111.03 nm  f=0.0824  <S**2>=0.000
      10 -> 14         0.59805
      10 -> 17         0.14278
      10 -> 20         0.11900
      12 -> 22         0.29273

 Excited State  21:      Singlet-A2    11.3068 eV  109.65 nm  f=0.0000  <S**2>=0.000
      11 -> 19         0.68925

 Excited State  22:      Singlet-B2    11.3513 eV  109.22 nm  f=0.0125  <S**2>=0.000
       9 -> 15         0.54244
       9 -> 18        -0.15435
      10 -> 16        -0.10197
      11 -> 17        -0.24963
      11 -> 20         0.28634

 Excited State  23:      Singlet-B2    11.5165 eV  107.66 nm  f=0.1486  <S**2>=0.000
       9 -> 13        -0.15616
       9 -> 15         0.23212
      10 -> 16         0.58741
      11 -> 20        -0.17967
      12 -> 19         0.10996

 Excited State  24:      Singlet-B1    11.6293 eV  106.61 nm  f=0.0127  <S**2>=0.000
      10 -> 14        -0.18063
      10 -> 17         0.53334
      10 -> 20         0.34542
      12 -> 24         0.19989

 Excited State  25:      Singlet-A1    11.6341 eV  106.57 nm  f=0.0107  <S**2>=0.000
       9 -> 14         0.67608
       9 -> 17         0.14761

 Excited State  26:      Singlet-B1    11.7682 eV  105.36 nm  f=0.0004  <S**2>=0.000
      11 -> 21         0.69140

 Excited State  27:      Singlet-A2    11.7725 eV  105.32 nm  f=0.0000  <S**2>=0.000
       9 -> 16        -0.16274
      12 -> 23         0.65496

 Excited State  28:      Singlet-A1    11.8064 eV  105.01 nm  f=0.0002  <S**2>=0.000
       9 -> 17        -0.13568
      11 -> 15         0.10622
      11 -> 22         0.60646
      12 -> 25         0.25700

 Excited State  29:      Singlet-B2    11.8195 eV  104.90 nm  f=0.0564  <S**2>=0.000
       9 -> 15        -0.26914
      10 -> 16         0.31086
      11 -> 17        -0.13151
      11 -> 20         0.53305

 Excited State  30:      Singlet-A2    11.8828 eV  104.34 nm  f=0.0000  <S**2>=0.000
       9 -> 16         0.67458
      12 -> 23         0.16492

 Excited State  31:      Singlet-A1    11.9245 eV  103.97 nm  f=0.0099  <S**2>=0.000
       9 -> 17         0.12899
      11 -> 22        -0.22817
      12 -> 25         0.63504

 Excited State  32:      Singlet-B1    11.9458 eV  103.79 nm  f=0.0020  <S**2>=0.000
      10 -> 17        -0.17167
      12 -> 24         0.62084
      12 -> 28        -0.11486
      12 -> 29         0.14183

 Excited State  33:      Singlet-A2    12.6081 eV   98.34 nm  f=0.0000  <S**2>=0.000
      10 -> 13        -0.13447
      10 -> 15         0.22530
      10 -> 18         0.59460
      10 -> 22        -0.21123
      12 -> 23         0.13282

 Excited State  34:      Singlet-B2    12.7305 eV   97.39 nm  f=0.0090  <S**2>=0.000
       9 -> 18         0.17227
      11 -> 23         0.65780
      11 -> 38        -0.11046

 Excited State  35:      Singlet-A1    12.7857 eV   96.97 nm  f=0.0673  <S**2>=0.000
       9 -> 14        -0.13461
       9 -> 17         0.40806
       9 -> 20         0.24571
      11 -> 22         0.14668
      11 -> 24         0.34206
      11 -> 28        -0.11496
      11 -> 29         0.16842
      12 -> 21         0.12076

 Excited State  36:      Singlet-B1    12.8318 eV   96.62 nm  f=0.0145  <S**2>=0.000
      11 -> 25         0.66727
      12 -> 29        -0.12781

 Excited State  37:      Singlet-B2    12.9048 eV   96.08 nm  f=0.0188  <S**2>=0.000
       9 -> 15         0.14961
       9 -> 18         0.63990
      11 -> 23        -0.18906

 Excited State  38:      Singlet-A1    12.9395 eV   95.82 nm  f=0.0014  <S**2>=0.000
       9 -> 17        -0.28551
       9 -> 20        -0.14416
      10 -> 19         0.15580
      11 -> 24         0.55441

 Excited State  39:      Singlet-B1    13.0386 eV   95.09 nm  f=0.0377  <S**2>=0.000
      10 -> 20         0.17750
      11 -> 25         0.14173
      12 -> 24        -0.20457
      12 -> 28        -0.39110
      12 -> 29         0.45665

 Excited State  40:      Singlet-A2    13.0457 eV   95.04 nm  f=0.0000  <S**2>=0.000
      10 -> 22         0.14047
      12 -> 26         0.64375
      12 -> 38        -0.10315

 Excited State  41:      Singlet-A1    13.2608 eV   93.50 nm  f=0.0140  <S**2>=0.000
       8 -> 13        -0.17178
       9 -> 17         0.14138
      10 -> 19         0.62872
      11 -> 24        -0.11983

 Excited State  42:      Singlet-B2    13.3118 eV   93.14 nm  f=0.0290  <S**2>=0.000
      10 -> 21        -0.27147
      10 -> 25        -0.11297
      12 -> 27         0.62708

 Excited State  43:      Singlet-B1    13.4782 eV   91.99 nm  f=0.0068  <S**2>=0.000
      10 -> 17        -0.33841
      10 -> 20         0.51333
      12 -> 28         0.29262

 Excited State  44:      Singlet-A2    13.4811 eV   91.97 nm  f=0.0000  <S**2>=0.000
       7 -> 14         0.14184
      10 -> 15         0.17429
      10 -> 18         0.15074
      10 -> 22         0.59293
      12 -> 26        -0.17660
      12 -> 31        -0.13265

 Excited State  45:      Singlet-A1    13.6181 eV   91.04 nm  f=0.0121  <S**2>=0.000
       8 -> 13         0.63976
       8 -> 18         0.12162
       9 -> 20        -0.11816
      10 -> 19         0.10716
      11 -> 24        -0.12197
      12 -> 32        -0.13038

 Excited State  46:      Singlet-B1    13.6269 eV   90.98 nm  f=0.0015  <S**2>=0.000
       9 -> 19        -0.28484
      10 -> 17         0.10815
      10 -> 20        -0.15940
      12 -> 28         0.43140
      12 -> 29         0.41316

 Excited State  47:      Singlet-B1    13.6900 eV   90.57 nm  f=0.0693  <S**2>=0.000
       8 -> 16         0.11745
       9 -> 19         0.61509
      12 -> 28         0.16491
      12 -> 29         0.22417

 Excited State  48:      Singlet-A1    13.7013 eV   90.49 nm  f=0.0435  <S**2>=0.000
       8 -> 15         0.31189
       9 -> 17        -0.32730
       9 -> 20         0.45486
      10 -> 19         0.10192
      12 -> 30        -0.19220

 Excited State  49:      Singlet-B2    13.8211 eV   89.71 nm  f=0.1620  <S**2>=0.000
       8 -> 14         0.46721
       8 -> 17         0.16844
       8 -> 20         0.10443
       9 -> 22         0.37177
      10 -> 21        -0.19387
      11 -> 26         0.15681

 Excited State  50:      Singlet-A1    13.8509 eV   89.51 nm  f=0.0058  <S**2>=0.000
       8 -> 15         0.28222
      12 -> 30         0.61695

 Excited State  51:      Singlet-B2    13.8683 eV   89.40 nm  f=0.0127  <S**2>=0.000
       8 -> 14         0.18540
      10 -> 21         0.59481
      12 -> 27         0.26427

 Excited State  52:      Singlet-A1    14.0018 eV   88.55 nm  f=0.0850  <S**2>=0.000
       8 -> 15         0.45769
       8 -> 18        -0.15244
       9 -> 17         0.15190
       9 -> 20        -0.25327
      10 -> 19        -0.12353
      11 -> 28         0.17359
      11 -> 29        -0.25566
      12 -> 30        -0.19379

 Excited State  53:      Singlet-B2    14.0582 eV   88.19 nm  f=0.0052  <S**2>=0.000
       8 -> 14        -0.21263
       8 -> 17        -0.20419
       8 -> 20        -0.11518
       9 -> 22         0.51288
      10 -> 25        -0.11949
      11 -> 26        -0.29917

 Excited State  54:      Singlet-A2    14.0586 eV   88.19 nm  f=0.0000  <S**2>=0.000
       9 -> 21         0.61927
      12 -> 31         0.29199

 Excited State  55:      Singlet-A2    14.1472 eV   87.64 nm  f=0.0000  <S**2>=0.000
       9 -> 21        -0.31409
      10 -> 22         0.11730
      12 -> 31         0.59496

 Excited State  56:      Singlet-B2    14.2167 eV   87.21 nm  f=0.0007  <S**2>=0.000
       8 -> 14        -0.34303
       9 -> 22         0.18734
      11 -> 26         0.55831

 Excited State  57:      Singlet-A1    14.2394 eV   87.07 nm  f=0.0192  <S**2>=0.000
       8 -> 13         0.13074
      10 -> 19         0.14370
      11 -> 28         0.16829
      11 -> 29        -0.25325
      12 -> 30         0.11912
      12 -> 32         0.55994

 Excited State  58:      Singlet-B1    14.2548 eV   86.98 nm  f=0.1711  <S**2>=0.000
       7 -> 13         0.48858
       7 -> 15         0.10551
       8 -> 16         0.46037
       9 -> 19        -0.11817

 Excited State  59:      Singlet-B1    14.4090 eV   86.05 nm  f=0.0210  <S**2>=0.000
       7 -> 13        -0.43679
       8 -> 16         0.48152
      10 -> 23        -0.16519

 Excited State  60:      Singlet-A2    14.4453 eV   85.83 nm  f=0.0000  <S**2>=0.000
      11 -> 27         0.69277

 Excited State  61:      Singlet-B2    14.5893 eV   84.98 nm  f=0.0514  <S**2>=0.000
       8 -> 14        -0.24895
       8 -> 17         0.48202
       8 -> 20         0.33330
      10 -> 25         0.10838
      11 -> 26        -0.19283

 Excited State  62:      Singlet-A1    14.5961 eV   84.94 nm  f=0.0101  <S**2>=0.000
      11 -> 28         0.54248
      11 -> 29         0.42893

 Excited State  63:      Singlet-B1    14.6316 eV   84.74 nm  f=0.0381  <S**2>=0.000
       7 -> 13         0.10933
       7 -> 15        -0.11113
      10 -> 23        -0.19878
      12 -> 33         0.63592

 Excited State  64:      Singlet-B1    14.7145 eV   84.26 nm  f=0.3699  <S**2>=0.000
       7 -> 13        -0.10622
       8 -> 16         0.11924
      10 -> 23         0.59418
      11 -> 30        -0.11262
      12 -> 33         0.19408
      12 -> 34        -0.17685

 Excited State  65:      Singlet-A2    14.7446 eV   84.09 nm  f=0.0000  <S**2>=0.000
       7 -> 14        -0.12249
       7 -> 17        -0.23087
       7 -> 20        -0.17436
      10 -> 15        -0.11281
      10 -> 24         0.58299
      10 -> 29         0.12056

 Excited State  66:      Singlet-B2    14.8041 eV   83.75 nm  f=0.2455  <S**2>=0.000
       9 -> 22         0.12082
       9 -> 24         0.14675
      10 -> 25         0.63094
      11 -> 31         0.12787

 Excited State  67:      Singlet-A1    14.8155 eV   83.69 nm  f=0.3802  <S**2>=0.000
       8 -> 15         0.21598
       8 -> 18         0.19692
       9 -> 20        -0.21673
       9 -> 23         0.17010
      11 -> 28        -0.29662
      11 -> 29         0.30705
      12 -> 32         0.31153

 Excited State  68:      Singlet-B1    14.8589 eV   83.44 nm  f=0.0107  <S**2>=0.000
       7 -> 15         0.53591
       7 -> 18        -0.19969
      11 -> 30         0.20495
      12 -> 33         0.16874
      12 -> 34        -0.22156

 Excited State  69:      Singlet-A2    14.9546 eV   82.91 nm  f=0.0000  <S**2>=0.000
       7 -> 14         0.57596
       7 -> 17         0.19064
       7 -> 20         0.13268
      10 -> 22        -0.17467
      10 -> 24         0.19872
      12 -> 35        -0.12995

 Excited State  70:      Singlet-B1    14.9609 eV   82.87 nm  f=0.0722  <S**2>=0.000
       7 -> 15        -0.13304
      10 -> 23         0.12738
      11 -> 30         0.63870
      11 -> 32        -0.11803
      12 -> 34         0.14918

 Excited State  71:      Singlet-B1    15.0140 eV   82.58 nm  f=0.0013  <S**2>=0.000
       7 -> 15         0.25132
       7 -> 18        -0.13070
      11 -> 30        -0.13907
      11 -> 32        -0.30207
      12 -> 34         0.51453

 Excited State  72:      Singlet-B2    15.1153 eV   82.03 nm  f=0.0292  <S**2>=0.000
       9 -> 24        -0.34649
       9 -> 29        -0.10642
      11 -> 31         0.56251

 Excited State  73:      Singlet-B1    15.1438 eV   81.87 nm  f=0.0031  <S**2>=0.000
      10 -> 23         0.14509
      11 -> 32         0.59334
      12 -> 34         0.30752

 Excited State  74:      Singlet-A1    15.1715 eV   81.72 nm  f=0.0562  <S**2>=0.000
       7 -> 16        -0.10799
       9 -> 23         0.65157
      11 -> 28         0.12248

 Excited State  75:      Singlet-A2    15.2090 eV   81.52 nm  f=0.0000  <S**2>=0.000
       9 -> 25         0.67676

 Excited State  76:      Singlet-A1    15.3439 eV   80.80 nm  f=0.0415  <S**2>=0.000
       7 -> 16         0.54555
       8 -> 18         0.33914
       8 -> 22        -0.14452
       9 -> 20         0.12275
      11 -> 29        -0.10439

 Excited State  77:      Singlet-A2    15.3823 eV   80.60 nm  f=0.0000  <S**2>=0.000
       7 -> 14        -0.29298
       7 -> 17         0.37301
       7 -> 20         0.29940
      10 -> 24         0.13270
      12 -> 35        -0.35706

 Excited State  78:      Singlet-A1    15.4388 eV   80.31 nm  f=0.0218  <S**2>=0.000
       7 -> 16        -0.36061
       8 -> 15         0.14815
       8 -> 18         0.49371
       9 -> 23        -0.14746
      11 -> 33         0.17984

 Excited State  79:      Singlet-B2    15.5190 eV   79.89 nm  f=0.2392  <S**2>=0.000
       7 -> 19         0.10856
       8 -> 20         0.15429
       9 -> 24         0.51719
      10 -> 25        -0.15445
      11 -> 31         0.32913

 Excited State  80:      Singlet-A2    15.5540 eV   79.71 nm  f=0.0000  <S**2>=0.000
       7 -> 17         0.24126
       7 -> 20         0.15448
      10 -> 24         0.17714
      10 -> 29         0.12143
      12 -> 31         0.10725
      12 -> 35         0.53457
      12 -> 38        -0.18550

 Excited State  81:      Singlet-A2    15.7623 eV   78.66 nm  f=0.0000  <S**2>=0.000
       7 -> 17         0.13199
      10 -> 28        -0.10499
      12 -> 26         0.10401
      12 -> 35         0.11338
      12 -> 38         0.62038

 Excited State  82:      Singlet-A1    15.7808 eV   78.57 nm  f=0.0352  <S**2>=0.000
       7 -> 16         0.11527
       8 -> 18        -0.12527
      11 -> 33         0.64614
      11 -> 34        -0.17313

 Excited State  83:      Singlet-B2    15.9510 eV   77.73 nm  f=0.1175  <S**2>=0.000
      12 -> 36         0.60645
      12 -> 39         0.28725

 Excited State  84:      Singlet-A2    16.0450 eV   77.27 nm  f=0.0000  <S**2>=0.000
       8 -> 19         0.67259

 Excited State  85:      Singlet-B1    16.0887 eV   77.06 nm  f=0.0376  <S**2>=0.000
      10 -> 26         0.67426

 Excited State  86:      Singlet-B2    16.1039 eV   76.99 nm  f=0.0000  <S**2>=0.000
       8 -> 17        -0.38219
       8 -> 20         0.52529
      11 -> 31        -0.14064
      11 -> 35        -0.13837

 Excited State  87:      Singlet-A2    16.1662 eV   76.69 nm  f=0.0000  <S**2>=0.000
       7 -> 17         0.10699
       7 -> 20        -0.12376
      10 -> 24        -0.17415
      10 -> 28        -0.38925
      10 -> 29         0.48736
      12 -> 35        -0.12720

 Excited State  88:      Singlet-A1    16.1990 eV   76.54 nm  f=0.0208  <S**2>=0.000
       9 -> 26         0.10441
      10 -> 27        -0.20018
      11 -> 33         0.17325
      11 -> 34         0.62297

 Excited State  89:      Singlet-A1    16.2991 eV   76.07 nm  f=0.1602  <S**2>=0.000
       7 -> 21         0.15519
      10 -> 27         0.63171
      11 -> 34         0.19364

 Excited State  90:      Singlet-B1    16.3262 eV   75.94 nm  f=0.0506  <S**2>=0.000
       7 -> 13        -0.11396
       7 -> 15         0.20359
       7 -> 18         0.54458
       9 -> 27        -0.10471
      12 -> 37         0.29520

 Excited State  91:      Singlet-B2    16.4238 eV   75.49 nm  f=0.0331  <S**2>=0.000
       9 -> 28        -0.16022
       9 -> 29         0.21329
      11 -> 38         0.12871
      12 -> 36        -0.29196
      12 -> 39         0.53933

 Excited State  92:      Singlet-B2    16.4549 eV   75.35 nm  f=0.0248  <S**2>=0.000
       8 -> 20         0.11002
       9 -> 24        -0.18525
       9 -> 28        -0.33525
       9 -> 29         0.39100
      10 -> 30        -0.14251
      11 -> 38         0.12973
      12 -> 39        -0.32479

 Excited State  93:      Singlet-A1    16.4634 eV   75.31 nm  f=0.0001  <S**2>=0.000
       7 -> 16         0.10365
       8 -> 22         0.56675
       9 -> 26        -0.31222
       9 -> 31         0.10879

 Excited State  94:      Singlet-B1    16.4880 eV   75.20 nm  f=0.0172  <S**2>=0.000
       8 -> 21         0.56751
       9 -> 27         0.19613
      12 -> 37         0.31144

 Excited State  95:      Singlet-A2    16.4993 eV   75.15 nm  f=0.0000  <S**2>=0.000
      10 -> 28         0.53090
      10 -> 29         0.42375
      12 -> 38         0.11685

 Excited State  96:      Singlet-B1    16.5224 eV   75.04 nm  f=0.0215  <S**2>=0.000
       7 -> 18        -0.28503
       8 -> 21        -0.32502
      12 -> 37         0.53150

 Excited State  97:      Singlet-B2    16.6030 eV   74.68 nm  f=0.0190  <S**2>=0.000
       7 -> 19        -0.15750
       9 -> 28         0.11406
      10 -> 30         0.25030
      10 -> 32        -0.10264
      11 -> 35         0.57178
      11 -> 38         0.11800

 Excited State  98:      Singlet-B2    16.6953 eV   74.26 nm  f=0.0030  <S**2>=0.000
      10 -> 30         0.20548
      11 -> 26         0.10884
      11 -> 35        -0.26722
      11 -> 38         0.56462

 Excited State  99:      Singlet-B2    16.7352 eV   74.09 nm  f=0.0079  <S**2>=0.000
       7 -> 19         0.17055
       9 -> 28        -0.33797
      10 -> 30         0.49831
      11 -> 38        -0.20660
      12 -> 40        -0.15086

 Excited State 100:      Singlet-B1    16.7443 eV   74.05 nm  f=0.0383  <S**2>=0.000
       7 -> 22         0.23601
       8 -> 21         0.16219
       8 -> 25        -0.11408
       9 -> 27        -0.28743
      10 -> 31         0.53462

 Excited State 101:      Singlet-A1    16.7484 eV   74.03 nm  f=0.1532  <S**2>=0.000
       8 -> 22         0.28833
       9 -> 26         0.54771
       9 -> 31         0.12166
      12 -> 42         0.20955

 Excited State 102:      Singlet-A2    16.7601 eV   73.98 nm  f=0.0000  <S**2>=0.000
      11 -> 36         0.54870
      11 -> 39         0.41685

 The electronic state is 1-A1.
 Alpha  occ. eigenvalues --  -19.26819 -10.33775 -10.33739  -1.18791  -0.77600
 Alpha  occ. eigenvalues --   -0.73367  -0.60957  -0.57631  -0.48928  -0.47116
 Alpha  occ. eigenvalues --   -0.40321  -0.36367
 Alpha virt. eigenvalues --    0.07140   0.08748   0.10203   0.10717   0.13975
 Alpha virt. eigenvalues --    0.14580   0.16276   0.18298   0.18575   0.18903
 Alpha virt. eigenvalues --    0.22664   0.24021   0.24049   0.28280   0.29461

 Mulliken charges:
               1
     1  C   -0.281607
     2  C   -0.281607
     3  O   -0.417397
     4  H    0.245153
     5  H    0.245153
     6  H    0.245153
     7  H    0.245153
 Sum of Mulliken charges =  -0.00000

 Dipole moment (field-independent basis, Debye):
    X=              0.0000    Y=             -0.0000    Z=             -1.8678  Tot=              1.8678
 Quadrupole moment (field-independent basis, Debye-Ang):
   XX=            -17.2934   YY=            -16.3659   ZZ=            -20.8162
   XY=             -0.0000   XZ=             -0.0000   YZ=             -0.0000

 Normal termination of Gaussian 16 at Sun Feb 27 06:39:32 2022.
