 Gaussian 16, Revision C.01,
 Gaussian 16:  EM64L-G16RevC.01  3-Jul-2019

 ----------------------------------------------------------------------
 #P TD(Nstates=10000) wB97XD/Gen SCF(maxcycles=100) Int(Grid=ultrafine)
 ----------------------------------------------------------------------

 ---------------------
 xGDB7_00001_tier4.com
 ---------------------
 Symbolic Z-matrix:
 Charge =  0 Multiplicity = 1

                         Standard orientation:
 ---------------------------------------------------------------------
 Center     Atomic      Atomic             Coordinates (Angstroms)
 Number     Number       Type             X           Y           Z
 ---------------------------------------------------------------------
      1          6           0        0.000000    1.267731   -0.259082
      2          6           0       -0.000000   -0.000000    0.585552
      3          6           0       -0.000000   -1.267731   -0.259082
      4          1           0        0.000000    2.164308    0.363087
      5          1           0       -0.881453    1.307675   -0.903652
      6          1           0        0.881453    1.307675   -0.903652
      7          1           0       -0.874532    0.000000    1.242055
      8          1           0        0.874532   -0.000000    1.242055
      9          1           0       -0.881453   -1.307675   -0.903652
     10          1           0       -0.000000   -2.164308    0.363087
     11          1           0        0.881453   -1.307675   -0.903652
 ---------------------------------------------------------------------

 SCF Done:  E(RwB97XD) =  -119.149432931     A.U. after   11 cycles

 Excitation energies and oscillator strengths:

 Excited State   1:      Singlet-B1     8.7783 eV  141.24 nm  f=0.0020  <S**2>=0.000
      13 -> 14         0.67149
      13 -> 16         0.14627
 This state for optimization and/or second-order correction.
 Total Energy, E(TD-HF/TD-DFT) =  -118.826834596
 Copying the excited state density for this state as the 1-particle RhoCI density.

 Excited State   2:      Singlet-A1     9.1514 eV  135.48 nm  f=0.0061  <S**2>=0.000
      11 -> 15         0.11599
      12 -> 14         0.66937
      12 -> 16         0.12631

 Excited State   3:      Singlet-B2     9.1692 eV  135.22 nm  f=0.0471  <S**2>=0.000
      11 -> 14         0.68431

 Excited State   4:      Singlet-A2     9.5917 eV  129.26 nm  f=0.0000  <S**2>=0.000
      10 -> 14         0.29580
      13 -> 15         0.62390

 Excited State   5:      Singlet-B1     9.6307 eV  128.74 nm  f=0.1471  <S**2>=0.000
      13 -> 14        -0.13232
      13 -> 16         0.66931

 Excited State   6:      Singlet-B2     9.8741 eV  125.57 nm  f=0.0078  <S**2>=0.000
       9 -> 14         0.25110
      12 -> 15         0.63710

 Excited State   7:      Singlet-A1     9.9120 eV  125.09 nm  f=0.1619  <S**2>=0.000
      11 -> 15        -0.34622
      12 -> 16         0.59194

 Excited State   8:      Singlet-A1    10.0006 eV  123.98 nm  f=0.0266  <S**2>=0.000
      11 -> 15         0.57129
      12 -> 14        -0.16093
      12 -> 16         0.33549

 Excited State   9:      Singlet-B2    10.0726 eV  123.09 nm  f=0.0179  <S**2>=0.000
      11 -> 16         0.69145

 Excited State  10:      Singlet-A1    10.1990 eV  121.56 nm  f=0.1389  <S**2>=0.000
      13 -> 17         0.69047

 Excited State  11:      Singlet-A2    10.4471 eV  118.68 nm  f=0.0000  <S**2>=0.000
      10 -> 14         0.48920
      10 -> 18         0.12620
      11 -> 17        -0.40385
      13 -> 15        -0.23115

 Excited State  12:      Singlet-B1    10.4650 eV  118.48 nm  f=0.0941  <S**2>=0.000
      12 -> 17         0.68511

 Excited State  13:      Singlet-A2    10.5550 eV  117.46 nm  f=0.0000  <S**2>=0.000
      10 -> 14         0.34192
      11 -> 17         0.56505
      13 -> 15        -0.18128

 Excited State  14:      Singlet-B1    10.6349 eV  116.58 nm  f=0.0012  <S**2>=0.000
      10 -> 15        -0.25677
      13 -> 18         0.62048
      13 -> 21        -0.14480

 Excited State  15:      Singlet-B2    10.9491 eV  113.24 nm  f=0.2619  <S**2>=0.000
       8 -> 15         0.13764
      11 -> 18         0.65514
      12 -> 15         0.10579

 Excited State  16:      Singlet-A1    10.9563 eV  113.16 nm  f=0.0134  <S**2>=0.000
       9 -> 15        -0.21602
      12 -> 18         0.63276
      12 -> 21        -0.17709

 Excited State  17:      Singlet-B2    11.0916 eV  111.78 nm  f=0.0170  <S**2>=0.000
       9 -> 14         0.61990
      11 -> 18         0.11805
      12 -> 15        -0.22932

 Excited State  18:      Singlet-A2    11.1006 eV  111.69 nm  f=0.0000  <S**2>=0.000
      10 -> 14         0.14024
      10 -> 16         0.51629
      10 -> 23        -0.10166
      13 -> 20         0.41794

 Excited State  19:      Singlet-B1    11.1725 eV  110.97 nm  f=0.0094  <S**2>=0.000
      10 -> 15        -0.42283
      12 -> 19         0.19326
      13 -> 21         0.49105

 Excited State  20:      Singlet-A1    11.2740 eV  109.97 nm  f=0.0086  <S**2>=0.000
      13 -> 19         0.67426

 Excited State  21:      Singlet-B1    11.3538 eV  109.20 nm  f=0.0376  <S**2>=0.000
      10 -> 15         0.19304
      12 -> 19         0.64221

 Excited State  22:      Singlet-A2    11.4460 eV  108.32 nm  f=0.0000  <S**2>=0.000
      11 -> 19         0.67747

 Excited State  23:      Singlet-B2    11.4696 eV  108.10 nm  f=0.0667  <S**2>=0.000
       9 -> 16         0.42775
      10 -> 17        -0.19182
      12 -> 20         0.47464
      13 -> 22         0.10513

 Excited State  24:      Singlet-B1    11.5609 eV  107.24 nm  f=0.0680  <S**2>=0.000
       7 -> 14        -0.14094
      10 -> 15         0.38950
      12 -> 19        -0.12457
      13 -> 18         0.25311
      13 -> 21         0.45079

 Excited State  25:      Singlet-A1    11.5793 eV  107.07 nm  f=0.0010  <S**2>=0.000
       8 -> 14         0.12515
       9 -> 15        -0.36415
      12 -> 21         0.55912

 Excited State  26:      Singlet-B2    11.6620 eV  106.31 nm  f=0.1827  <S**2>=0.000
      10 -> 17        -0.19601
      11 -> 21         0.62510
      13 -> 22         0.10601

 Excited State  27:      Singlet-B2    11.6734 eV  106.21 nm  f=0.0835  <S**2>=0.000
       9 -> 16         0.12692
      10 -> 17         0.51480
      11 -> 21         0.25120
      12 -> 20         0.14868
      13 -> 22        -0.30844

 Excited State  28:      Singlet-A1    11.7217 eV  105.77 nm  f=0.0381  <S**2>=0.000
       8 -> 16        -0.18307
      11 -> 20         0.65625

 Excited State  29:      Singlet-A2    11.7487 eV  105.53 nm  f=0.0000  <S**2>=0.000
      10 -> 16        -0.42160
      10 -> 18        -0.10250
      10 -> 21         0.10261
      11 -> 19        -0.10190
      13 -> 20         0.51392

 Excited State  30:      Singlet-A1    11.8972 eV  104.21 nm  f=0.0960  <S**2>=0.000
       8 -> 14        -0.36257
       9 -> 15         0.39015
      12 -> 18         0.23597
      12 -> 21         0.32493

 Excited State  31:      Singlet-A2    11.9199 eV  104.01 nm  f=0.0000  <S**2>=0.000
       9 -> 17         0.51632
      12 -> 22        -0.43439

 Excited State  32:      Singlet-A2    12.0227 eV  103.12 nm  f=0.0000  <S**2>=0.000
       7 -> 15         0.15629
      10 -> 18         0.51968
      12 -> 22        -0.12240
      13 -> 25         0.37998

 Excited State  33:      Singlet-B2    12.0584 eV  102.82 nm  f=0.0029  <S**2>=0.000
       9 -> 16         0.44263
      10 -> 19        -0.12555
      12 -> 20        -0.42793
      13 -> 24        -0.25593

 Excited State  34:      Singlet-B1    12.1071 eV  102.41 nm  f=0.0071  <S**2>=0.000
       7 -> 14         0.10812
       7 -> 16         0.17281
      10 -> 20        -0.27899
      11 -> 22        -0.11924
      13 -> 23         0.57533

 Excited State  35:      Singlet-B2    12.2050 eV  101.59 nm  f=0.0241  <S**2>=0.000
       9 -> 16         0.20367
       9 -> 18         0.13495
      10 -> 19         0.24751
      12 -> 20        -0.16519
      12 -> 25         0.11693
      13 -> 22        -0.17662
      13 -> 24         0.53232

 Excited State  36:      Singlet-B1    12.2174 eV  101.48 nm  f=0.0298  <S**2>=0.000
       8 -> 17         0.22286
      11 -> 22         0.63197
      13 -> 23         0.10207

 Excited State  37:      Singlet-A1    12.3003 eV  100.80 nm  f=0.0004  <S**2>=0.000
       8 -> 14         0.45839
       8 -> 16         0.14265
       8 -> 18         0.18343
       9 -> 15         0.30391
      11 -> 25        -0.23423
      12 -> 18         0.12307
      12 -> 21         0.13220
      12 -> 23         0.11538

 Excited State  38:      Singlet-B2    12.3268 eV  100.58 nm  f=0.0154  <S**2>=0.000
       9 -> 18        -0.16601
      10 -> 17         0.32942
      12 -> 25        -0.15769
      13 -> 22         0.50911
      13 -> 24         0.19793

 Excited State  39:      Singlet-A2    12.3374 eV  100.49 nm  f=0.0000  <S**2>=0.000
       9 -> 19         0.21927
      10 -> 21         0.26333
      12 -> 24         0.53542
      13 -> 25         0.16032
      13 -> 27        -0.14713

 Excited State  40:      Singlet-B1    12.4058 eV   99.94 nm  f=0.0107  <S**2>=0.000
       8 -> 19        -0.13280
      11 -> 22         0.10169
      11 -> 24         0.66653
      11 -> 41        -0.10240

 Excited State  41:      Singlet-B2    12.4825 eV   99.33 nm  f=0.0416  <S**2>=0.000
       8 -> 15         0.11757
       9 -> 16        -0.11081
       9 -> 18         0.41168
      10 -> 17         0.13850
      12 -> 25         0.43297
      13 -> 22         0.25251

 Excited State  42:      Singlet-A1    12.5048 eV   99.15 nm  f=0.0041  <S**2>=0.000
       8 -> 14        -0.25271
       8 -> 16         0.13099
       9 -> 15        -0.15383
       9 -> 20        -0.17063
      11 -> 25        -0.24323
      12 -> 23         0.51380

 Excited State  43:      Singlet-B2    12.6413 eV   98.08 nm  f=0.0420  <S**2>=0.000
       8 -> 20         0.11736
      11 -> 21         0.10413
      11 -> 23         0.66429

 Excited State  44:      Singlet-A2    12.6689 eV   97.87 nm  f=0.0000  <S**2>=0.000
       9 -> 19        -0.11535
      10 -> 18        -0.23771
      10 -> 21         0.44431
      12 -> 24        -0.33789
      13 -> 25         0.24602
      13 -> 27        -0.17232

 Excited State  45:      Singlet-A2    12.7046 eV   97.59 nm  f=0.0000  <S**2>=0.000
       9 -> 17         0.45185
      12 -> 22         0.51259

 Excited State  46:      Singlet-B1    12.7427 eV   97.30 nm  f=0.0745  <S**2>=0.000
       7 -> 14         0.62775
       7 -> 16         0.10389
       7 -> 18         0.10578
      10 -> 15         0.14927
      13 -> 23        -0.17148

 Excited State  47:      Singlet-A1    12.7972 eV   96.88 nm  f=0.0013  <S**2>=0.000
       7 -> 17        -0.13595
       8 -> 14         0.14788
       8 -> 16        -0.18631
       9 -> 15         0.11858
      10 -> 22        -0.20411
      11 -> 25         0.44385
      12 -> 23         0.30889
      13 -> 26        -0.20971

 Excited State  48:      Singlet-A2    12.8752 eV   96.30 nm  f=0.0000  <S**2>=0.000
       9 -> 19        -0.10083
      10 -> 18        -0.25581
      10 -> 21        -0.36135
      10 -> 23         0.14888
      13 -> 15        -0.11740
      13 -> 25         0.42956
      13 -> 30         0.11515

 Excited State  49:      Singlet-B2    12.9047 eV   96.08 nm  f=0.0487  <S**2>=0.000
       8 -> 15        -0.18444
       9 -> 18        -0.11080
       9 -> 21         0.11316
      10 -> 19         0.52415
      12 -> 25         0.16855
      12 -> 27        -0.16178
      13 -> 24        -0.26239

 Excited State  50:      Singlet-B2    12.9864 eV   95.47 nm  f=0.0285  <S**2>=0.000
       9 -> 18        -0.26743
       9 -> 21         0.42329
      10 -> 19        -0.20828
      12 -> 25         0.25690
      12 -> 27        -0.27891
      13 -> 24         0.11996

 Excited State  51:      Singlet-A1    13.0369 eV   95.10 nm  f=0.0000  <S**2>=0.000
       8 -> 16         0.49585
       8 -> 18        -0.10388
       9 -> 20        -0.12520
      10 -> 22        -0.20659
      11 -> 20         0.15826
      12 -> 23        -0.19562
      13 -> 26        -0.27566

 Excited State  52:      Singlet-B1    13.1099 eV   94.57 nm  f=0.0594  <S**2>=0.000
       7 -> 14         0.12632
       7 -> 16        -0.20805
       7 -> 18         0.13559
      10 -> 20         0.52514
      13 -> 23         0.30292

 Excited State  53:      Singlet-B2    13.1618 eV   94.20 nm  f=0.0017  <S**2>=0.000
       8 -> 15         0.58117
       9 -> 14         0.10860
      10 -> 19         0.18606
      12 -> 25        -0.17250
      12 -> 27        -0.17220

 Excited State  54:      Singlet-A2    13.1855 eV   94.03 nm  f=0.0000  <S**2>=0.000
      10 -> 18        -0.14358
      10 -> 23        -0.16684
      13 -> 25         0.19823
      13 -> 27         0.59015

 Excited State  55:      Singlet-B1    13.2200 eV   93.79 nm  f=0.0167  <S**2>=0.000
       8 -> 17         0.16921
       9 -> 22         0.17878
       9 -> 24        -0.14533
      10 -> 20         0.11225
      11 -> 22        -0.10683
      12 -> 26         0.39884
      12 -> 29        -0.15549
      13 -> 28        -0.38601

 Excited State  56:      Singlet-A2    13.2898 eV   93.29 nm  f=0.0000  <S**2>=0.000
       8 -> 24        -0.12020
       9 -> 19         0.54742
      10 -> 21        -0.11019
      11 -> 26        -0.27799
      12 -> 24        -0.22946

 Excited State  57:      Singlet-A1    13.3150 eV   93.12 nm  f=0.0081  <S**2>=0.000
       8 -> 16         0.29849
       8 -> 21        -0.13554
      10 -> 22         0.10431
      11 -> 25         0.27561
      11 -> 27        -0.30380
      13 -> 26         0.37710
      13 -> 29         0.11127

 Excited State  58:      Singlet-B1    13.3838 eV   92.64 nm  f=0.0754  <S**2>=0.000
       8 -> 17         0.29775
       9 -> 22         0.25668
      11 -> 22        -0.12157
      12 -> 26         0.26887
      12 -> 29         0.26918
      13 -> 28         0.38253

 Excited State  59:      Singlet-A1    13.4040 eV   92.50 nm  f=0.0600  <S**2>=0.000
       8 -> 14         0.11502
       8 -> 16         0.13410
       8 -> 18        -0.15397
       8 -> 21         0.10913
      11 -> 25         0.14795
      11 -> 27         0.46262
      12 -> 28        -0.20055
      13 -> 26         0.27642
      13 -> 29        -0.16955

 Excited State  60:      Singlet-A2    13.4620 eV   92.10 nm  f=0.0000  <S**2>=0.000
       8 -> 22        -0.12194
       9 -> 19         0.27227
      11 -> 26         0.59950
      12 -> 24        -0.10297

 Excited State  61:      Singlet-B2    13.5037 eV   91.81 nm  f=0.0022  <S**2>=0.000
       8 -> 15        -0.11851
       9 -> 18         0.37146
       9 -> 21         0.27465
      11 -> 28        -0.16716
      12 -> 25        -0.32604
      12 -> 27        -0.29407

 Excited State  62:      Singlet-A1    13.5669 eV   91.39 nm  f=0.1888  <S**2>=0.000
       8 -> 21         0.11497
      10 -> 22         0.24016
      10 -> 24         0.16233
      11 -> 27         0.24020
      12 -> 28         0.19785
      13 -> 29         0.48407

 Excited State  63:      Singlet-B1    13.6139 eV   91.07 nm  f=0.0050  <S**2>=0.000
       7 -> 16         0.19975
       8 -> 17         0.49667
      10 -> 25        -0.11063
      11 -> 22        -0.14471
      12 -> 26        -0.35895
      13 -> 28        -0.13142

 Excited State  64:      Singlet-B2    13.6413 eV   90.89 nm  f=0.0550  <S**2>=0.000
       8 -> 15         0.16081
       9 -> 21         0.31781
       9 -> 23        -0.16787
      11 -> 28        -0.27784
      11 -> 31         0.15148
      12 -> 27         0.42670
      12 -> 30        -0.11202

 Excited State  65:      Singlet-B1    13.6485 eV   90.84 nm  f=0.0212  <S**2>=0.000
       7 -> 16         0.57271
       8 -> 17        -0.18479
      10 -> 20         0.26329
      10 -> 25        -0.10477
      12 -> 26         0.13257

 Excited State  66:      Singlet-A1    13.6515 eV   90.82 nm  f=0.0318  <S**2>=0.000
      10 -> 22        -0.18993
      11 -> 27         0.14925
      12 -> 28         0.56334
      13 -> 26         0.18638
      13 -> 29        -0.14529

 Excited State  67:      Singlet-A2    13.6991 eV   90.51 nm  f=0.0000  <S**2>=0.000
       7 -> 15         0.63507
       7 -> 25         0.10188
      10 -> 14         0.11055
      10 -> 18        -0.13218
      10 -> 23         0.11895
      13 -> 27         0.12702

 Excited State  68:      Singlet-A1    13.7466 eV   90.19 nm  f=0.0040  <S**2>=0.000
       7 -> 17         0.20003
       8 -> 16         0.12409
       8 -> 18         0.10534
       9 -> 20         0.51780
      12 -> 23         0.16127
      12 -> 28         0.16428
      13 -> 26        -0.22150
      13 -> 29        -0.10425

 Excited State  69:      Singlet-A2    13.8139 eV   89.75 nm  f=0.0000  <S**2>=0.000
      10 -> 23         0.17959
      11 -> 29         0.64604
      11 -> 36         0.10113

 Excited State  70:      Singlet-B1    13.8670 eV   89.41 nm  f=0.0842  <S**2>=0.000
       7 -> 14        -0.10408
       7 -> 18         0.17415
       9 -> 22         0.13709
       9 -> 24         0.11555
      10 -> 25        -0.23148
      12 -> 29         0.42964
      13 -> 28        -0.37065

 Excited State  71:      Singlet-A1    13.9311 eV   89.00 nm  f=0.0123  <S**2>=0.000
       9 -> 20        -0.13118
      10 -> 22         0.39944
      10 -> 24         0.31025
      12 -> 28         0.12679
      13 -> 29        -0.38345

 Excited State  72:      Singlet-A2    13.9324 eV   88.99 nm  f=0.0000  <S**2>=0.000
       7 -> 15        -0.12119
       7 -> 20         0.12587
      10 -> 21         0.17547
      10 -> 23         0.55844
      11 -> 29        -0.18670
      13 -> 27         0.17111

 Excited State  73:      Singlet-B2    13.9378 eV   88.96 nm  f=0.1172  <S**2>=0.000
       9 -> 18         0.11089
       9 -> 21         0.22400
       9 -> 23        -0.10187
      11 -> 28         0.58828
      12 -> 25        -0.10503
      12 -> 27         0.17023

 Excited State  74:      Singlet-A1    14.0149 eV   88.47 nm  f=0.0038  <S**2>=0.000
       7 -> 17        -0.27569
       7 -> 19        -0.10963
       9 -> 20         0.30577
      10 -> 22        -0.21073
      10 -> 24         0.43863
      13 -> 26         0.17529

 Excited State  75:      Singlet-B1    14.1131 eV   87.85 nm  f=0.0302  <S**2>=0.000
       7 -> 18        -0.17484
       8 -> 19         0.18565
       9 -> 24        -0.24202
      10 -> 25         0.40747
      12 -> 26        -0.13458
      12 -> 29         0.34627
      13 -> 31         0.13608

 Excited State  76:      Singlet-A1    14.1765 eV   87.46 nm  f=0.0021  <S**2>=0.000
       7 -> 17         0.18170
       8 -> 18         0.48327
       9 -> 25        -0.26609
      10 -> 22        -0.19033
      10 -> 24         0.11400
      11 -> 25         0.12598
      11 -> 27         0.17734

 Excited State  77:      Singlet-B1    14.2620 eV   86.93 nm  f=0.1965  <S**2>=0.000
       7 -> 18        -0.10366
       8 -> 19        -0.23245
       9 -> 22         0.41299
       9 -> 24         0.25619
      10 -> 25         0.29752
      12 -> 26        -0.13637
      12 -> 29        -0.15355

 Excited State  78:      Singlet-A1    14.2804 eV   86.82 nm  f=0.0006  <S**2>=0.000
       7 -> 17         0.52331
       8 -> 18        -0.23487
       8 -> 21         0.13496
       9 -> 25         0.10258
      10 -> 22        -0.14705
      10 -> 24         0.23479
      11 -> 27        -0.10328

 Excited State  79:      Singlet-B1    14.3744 eV   86.25 nm  f=0.0411  <S**2>=0.000
       8 -> 17        -0.12078
       8 -> 19         0.28962
       9 -> 22         0.37519
      10 -> 25        -0.18698
      10 -> 27         0.13989
      12 -> 26        -0.18974
      13 -> 28         0.12679
      13 -> 31         0.27318

 Excited State  80:      Singlet-B2    14.3852 eV   86.19 nm  f=0.0295  <S**2>=0.000
       8 -> 20         0.23846
       9 -> 21         0.19386
       9 -> 23         0.54760
      12 -> 27         0.17643
      12 -> 30         0.17575

 Excited State  81:      Singlet-B1    14.4078 eV   86.05 nm  f=0.0177  <S**2>=0.000
       7 -> 18         0.17641
       7 -> 21        -0.17789
       8 -> 19        -0.12425
       9 -> 22        -0.11774
       9 -> 24         0.13722
      10 -> 27        -0.19486
      13 -> 31         0.50254
      13 -> 32         0.11087
      13 -> 34        -0.15985

 Excited State  82:      Singlet-A1    14.6505 eV   84.63 nm  f=0.0430  <S**2>=0.000
       8 -> 18         0.17231
       8 -> 21        -0.17477
       9 -> 25         0.34016
      10 -> 24         0.12208
      11 -> 27         0.10186
      12 -> 31         0.45994
      12 -> 32        -0.11264
      12 -> 34        -0.10566

 Excited State  83:      Singlet-B1    14.6601 eV   84.57 nm  f=0.0370  <S**2>=0.000
       8 -> 19         0.48597
       9 -> 24         0.18873
      10 -> 27        -0.27367
      12 -> 29        -0.10945
      13 -> 31        -0.18181
      13 -> 32         0.21518

 Excited State  84:      Singlet-A2    14.6937 eV   84.38 nm  f=0.0000  <S**2>=0.000
       7 -> 20        -0.12510
      13 -> 30         0.59656
      13 -> 33         0.21839
      13 -> 40         0.13252

 Excited State  85:      Singlet-B2    14.6966 eV   84.36 nm  f=0.0118  <S**2>=0.000
       7 -> 22        -0.13921
      10 -> 19         0.12165
      10 -> 26         0.52180
      10 -> 29         0.17375
      11 -> 28        -0.10124
      11 -> 31        -0.28142
      13 -> 35         0.14558

 Excited State  86:      Singlet-A1    14.7085 eV   84.29 nm  f=0.2945  <S**2>=0.000
       7 -> 19         0.26599
       8 -> 21         0.47723
       9 -> 25        -0.17346
      11 -> 27        -0.11295
      12 -> 31         0.25419
      12 -> 34        -0.10720

 Excited State  87:      Singlet-B1    14.7164 eV   84.25 nm  f=0.0505  <S**2>=0.000
       8 -> 19        -0.14916
       9 -> 22         0.10780
       9 -> 24        -0.38635
      10 -> 25        -0.11983
      13 -> 32         0.48788

 Excited State  88:      Singlet-B1    14.7621 eV   83.99 nm  f=0.0687  <S**2>=0.000
       7 -> 18         0.38802
       7 -> 21        -0.10821
       9 -> 24        -0.25779
      10 -> 25         0.16008
      10 -> 27        -0.16409
      13 -> 31        -0.19445
      13 -> 32        -0.31049
      13 -> 34        -0.19323

 The electronic state is 1-A1.
 Alpha  occ. eigenvalues --  -10.27502 -10.26621 -10.26620  -0.88073  -0.77679
 Alpha  occ. eigenvalues --   -0.67716  -0.54556  -0.52397  -0.48267  -0.46353
 Alpha  occ. eigenvalues --   -0.41871  -0.41751  -0.40727
 Alpha virt. eigenvalues --    0.07274   0.09252   0.09525   0.12494   0.14333
 Alpha virt. eigenvalues --    0.15783   0.16396   0.17386   0.18599   0.19912
 Alpha virt. eigenvalues --    0.20742   0.21093   0.23410   0.23807   0.24379

 Mulliken charges:
               1
     1  C   -1.230127
     2  C   -0.048673
     3  C   -1.230127
     4  H    0.309620
     5  H    0.331240
     6  H    0.331240
     7  H    0.282365
     8  H    0.282365
     9  H    0.331240
    10  H    0.309620
    11  H    0.331240
 Sum of Mulliken charges =  -0.00000

 Dipole moment (field-independent basis, Debye):
    X=             -0.0000    Y=             -0.0000    Z=              0.0889  Tot=              0.0889
 Quadrupole moment (field-independent basis, Debye-Ang):
   XX=            -21.3230   YY=            -22.1793   ZZ=            -21.8243
   XY=             -0.0000   XZ=             -0.0000   YZ=              0.0000

 Normal termination of Gaussian 16 at Sun Feb 27 06:48:36 2022.
