 Gaussian 16, Revision C.01,
 Gaussian 16:  EM64L-G16RevC.01  3-Jul-2019

 ----------------------------------------------------------------------
 #P TD(Nstates=10000) wB97XD/Gen SCF(maxcycles=100) Int(Grid=ultrafine)
 ----------------------------------------------------------------------

 ---------------------
 xGDB7_00001_tier4.com
 ---------------------
 Symbolic Z-matrix:
 Charge =  0 Multiplicity = 1

                         Standard orientation:
 ---------------------------------------------------------------------
 Center     Atomic      Atomic             Coordinates (Angstroms)
 Number     Number       Type             X           Y           Z
 ---------------------------------------------------------------------
      1          9           0        0.000000    0.000000    0.688193
      2          9           0        0.000000    0.000000   -0.688193
 ---------------------------------------------------------------------

 SCF Done:  E(RwB97XD) =  -199.543037138     A.U. after   11 cycles

 Excitation energies and oscillator strengths:

 Excited state symmetry could not be determined.
 Excited State   1:      Singlet-?Sym    4.9200 eV  252.00 nm  f=0.0001  <S**2>=0.000
       8 -> 10         0.46722
       9 -> 10         0.52901
 This state for optimization and/or second-order correction.
 Total Energy, E(TD-HF/TD-DFT) =  -199.362230509
 Copying the excited state density for this state as the 1-particle RhoCI density.

 Excited state symmetry could not be determined.
 Excited State   2:      Singlet-?Sym    4.9200 eV  252.00 nm  f=0.0001  <S**2>=0.000
       8 -> 10         0.52901
       9 -> 10        -0.46722

 Excited state symmetry could not be determined.
 Excited State   3:      Singlet-?Sym    8.8444 eV  140.18 nm  f=0.0000  <S**2>=0.000
       6 -> 10         0.46855
       7 -> 10         0.52584

 Excited state symmetry could not be determined.
 Excited State   4:      Singlet-?Sym    8.8444 eV  140.18 nm  f=0.0000  <S**2>=0.000
       6 -> 10         0.52584
       7 -> 10        -0.46855

 Excited state symmetry could not be determined.
 Excited State   5:      Singlet-?Sym   12.3940 eV  100.04 nm  f=0.0226  <S**2>=0.000
       8 -> 11         0.41129
       9 -> 11         0.55914

 Excited state symmetry could not be determined.
 Excited State   6:      Singlet-?Sym   12.3940 eV  100.04 nm  f=0.0226  <S**2>=0.000
       8 -> 11         0.55914
       9 -> 11        -0.41129

 Excited state symmetry could not be determined.
 Excited State   7:      Singlet-?Sym   12.5000 eV   99.19 nm  f=0.0000  <S**2>=0.000
       8 -> 12         0.49052
       8 -> 17        -0.17031
       9 -> 12         0.44464
       9 -> 17        -0.15438

 Excited state symmetry could not be determined.
 Excited State   8:      Singlet-?Sym   12.5000 eV   99.19 nm  f=0.0000  <S**2>=0.000
       8 -> 12        -0.44464
       8 -> 17         0.15438
       9 -> 12         0.49052
       9 -> 17        -0.17031

 Excited state symmetry could not be determined.
 Excited State   9:      Singlet-?Sym   12.7110 eV   97.54 nm  f=0.1995  <S**2>=0.000
       5 -> 10         0.30479
       8 -> 13         0.44807
       9 -> 14         0.44807

 Excited state symmetry could not be determined.
 Excited State  10:      Singlet-?Sym   12.9308 eV   95.88 nm  f=0.0000  <S**2>=0.000
       8 -> 13        -0.49820
       9 -> 14         0.49820

 Excited state symmetry could not be determined.
 Excited State  11:      Singlet-?Sym   12.9308 eV   95.88 nm  f=0.0000  <S**2>=0.000
       8 -> 14         0.49820
       9 -> 13         0.49820

 Excited state symmetry could not be determined.
 Excited State  12:      Singlet-?Sym   12.9740 eV   95.56 nm  f=0.0000  <S**2>=0.000
       8 -> 14        -0.49838
       9 -> 13         0.49838

 Excited state symmetry could not be determined.
 Excited State  13:      Singlet-?Sym   14.4099 eV   86.04 nm  f=0.0000  <S**2>=0.000
       6 -> 11        -0.10666
       8 -> 12         0.21559
       8 -> 17         0.65780

 Excited state symmetry could not be determined.
 Excited State  14:      Singlet-?Sym   14.4099 eV   86.04 nm  f=0.0000  <S**2>=0.000
       7 -> 11        -0.10666
       9 -> 12         0.21559
       9 -> 17         0.65780

 Excited state symmetry could not be determined.
 Excited State  15:      Singlet-?Sym   14.5201 eV   85.39 nm  f=0.0000  <S**2>=0.000
       8 -> 16        -0.49307
       9 -> 15         0.49307

 Excited state symmetry could not be determined.
 Excited State  16:      Singlet-?Sym   14.5201 eV   85.39 nm  f=0.0000  <S**2>=0.000
       8 -> 15         0.49307
       9 -> 16         0.49307

 Excited state symmetry could not be determined.
 Excited State  17:      Singlet-?Sym   14.5516 eV   85.20 nm  f=0.0000  <S**2>=0.000
       8 -> 15        -0.49375
       9 -> 16         0.49375

 Excited state symmetry could not be determined.
 Excited State  18:      Singlet-?Sym   14.8410 eV   83.54 nm  f=0.0000  <S**2>=0.000
       8 -> 16         0.49899
       9 -> 15         0.49899

 Excited State  19:      Singlet-SGU   15.2599 eV   81.25 nm  f=0.4940  <S**2>=0.000
       5 -> 10         0.60097
       5 -> 11        -0.14545
       8 -> 13        -0.21594
       9 -> 14        -0.21594

 Excited state symmetry could not be determined.
 Excited State  20:      Singlet-?Sym   16.4626 eV   75.31 nm  f=0.0000  <S**2>=0.000
       6 -> 11        -0.24798
       7 -> 11         0.64009
       9 -> 12         0.10777

 Excited state symmetry could not be determined.
 Excited State  21:      Singlet-?Sym   16.4626 eV   75.31 nm  f=0.0000  <S**2>=0.000
       6 -> 11         0.64009
       7 -> 11         0.24798
       8 -> 12         0.10777

 Excited state symmetry could not be determined.
 Excited State  22:      Singlet-?Sym   16.4886 eV   75.19 nm  f=0.1180  <S**2>=0.000
       6 -> 12        -0.13420
       7 -> 12         0.63308
       7 -> 17        -0.25431

 Excited state symmetry could not be determined.
 Excited State  23:      Singlet-?Sym   16.4886 eV   75.19 nm  f=0.1180  <S**2>=0.000
       6 -> 12         0.63308
       6 -> 17        -0.25431
       7 -> 12         0.13420

 Excited state symmetry could not be determined.
 Excited State  24:      Singlet-?Sym   16.8666 eV   73.51 nm  f=0.0000  <S**2>=0.000
       6 -> 13        -0.49307
       7 -> 14         0.49307

 Excited state symmetry could not be determined.
 Excited State  25:      Singlet-?Sym   16.8666 eV   73.51 nm  f=0.0000  <S**2>=0.000
       6 -> 14         0.49307
       7 -> 13         0.49307

 Excited state symmetry could not be determined.
 Excited State  26:      Singlet-?Sym   16.9371 eV   73.20 nm  f=0.0000  <S**2>=0.000
       6 -> 14        -0.49380
       7 -> 13         0.49380

 Excited state symmetry could not be determined.
 Excited State  27:      Singlet-?Sym   17.1823 eV   72.16 nm  f=0.0000  <S**2>=0.000
       5 -> 12        -0.13815
       6 -> 13         0.48891
       7 -> 14         0.48891

 Excited State  28:      Singlet-SGU   18.1973 eV   68.13 nm  f=0.0146  <S**2>=0.000
       5 -> 11         0.62605
       6 -> 16         0.21587
       7 -> 15         0.21587

 Excited State  29:      Singlet-SGG   18.2489 eV   67.94 nm  f=0.0000  <S**2>=0.000
       5 -> 12         0.65155
       5 -> 17        -0.23175

 Excited state symmetry could not be determined.
 Excited State  30:      Singlet-?Sym   18.3569 eV   67.54 nm  f=0.0517  <S**2>=0.000
       6 -> 17         0.19017
       7 -> 12         0.25132
       7 -> 17         0.62134

 Excited state symmetry could not be determined.
 Excited State  31:      Singlet-?Sym   18.3569 eV   67.54 nm  f=0.0517  <S**2>=0.000
       6 -> 12         0.25132
       6 -> 17         0.62134
       7 -> 17        -0.19017

 Excited state symmetry could not be determined.
 Excited State  32:      Singlet-?Sym   18.4586 eV   67.17 nm  f=0.0123  <S**2>=0.000
       5 -> 13         0.65440
       5 -> 14        -0.26169

 Excited state symmetry could not be determined.
 Excited State  33:      Singlet-?Sym   18.4586 eV   67.17 nm  f=0.0123  <S**2>=0.000
       5 -> 13         0.26169
       5 -> 14         0.65440

 Excited state symmetry could not be determined.
 Excited State  34:      Singlet-?Sym   18.4893 eV   67.06 nm  f=0.0000  <S**2>=0.000
       6 -> 16        -0.49789
       7 -> 15         0.49789

 Excited state symmetry could not be determined.
 Excited State  35:      Singlet-?Sym   18.4893 eV   67.06 nm  f=0.0000  <S**2>=0.000
       6 -> 15         0.49789
       7 -> 16         0.49789

 Excited state symmetry could not be determined.
 Excited State  36:      Singlet-?Sym   18.5221 eV   66.94 nm  f=0.0000  <S**2>=0.000
       6 -> 15        -0.49821
       7 -> 16         0.49821

 Excited state symmetry could not be determined.
 Excited State  37:      Singlet-?Sym   18.7474 eV   66.13 nm  f=0.0000  <S**2>=0.000
       5 -> 10        -0.13087
       5 -> 11        -0.28100
       6 -> 16         0.44314
       7 -> 15         0.44314

 Excited state symmetry could not be determined.
 Excited State  38:      Singlet-?Sym   19.0826 eV   64.97 nm  f=0.0315  <S**2>=0.000
       8 -> 18         0.42732
       9 -> 18         0.54563

 Excited state symmetry could not be determined.
 Excited State  39:      Singlet-?Sym   19.0826 eV   64.97 nm  f=0.0315  <S**2>=0.000
       8 -> 18         0.54563
       9 -> 18        -0.42732

 Excited State  40:      Singlet-SGG   19.9865 eV   62.03 nm  f=0.0000  <S**2>=0.000
       5 -> 12         0.23049
       5 -> 17         0.66524

 Excited state symmetry could not be determined.
 Excited State  41:      Singlet-?Sym   20.0346 eV   61.89 nm  f=0.0000  <S**2>=0.000
       5 -> 15         0.56104
       5 -> 16         0.42803

 Excited state symmetry could not be determined.
 Excited State  42:      Singlet-?Sym   20.0346 eV   61.89 nm  f=0.0000  <S**2>=0.000
       5 -> 15        -0.42803
       5 -> 16         0.56104

 Excited state symmetry could not be determined.
 Excited State  43:      Singlet-?Sym   21.2379 eV   58.38 nm  f=0.0000  <S**2>=0.000
       8 -> 19         0.49180
       9 -> 20         0.49162

 Excited state symmetry could not be determined.
 Excited State  44:      Singlet-?Sym   21.2379 eV   58.38 nm  f=0.0000  <S**2>=0.000
       8 -> 20        -0.49162
       9 -> 19         0.49180

 Excited state symmetry could not be determined.
 Excited State  45:      Singlet-?Sym   21.5417 eV   57.56 nm  f=0.0000  <S**2>=0.000
       8 -> 19        -0.36344
       8 -> 20         0.33920
       9 -> 19         0.33907
       9 -> 20         0.36357

 Excited state symmetry could not be determined.
 Excited State  46:      Singlet-?Sym   21.5417 eV   57.56 nm  f=0.0000  <S**2>=0.000
       8 -> 19         0.33907
       8 -> 20         0.36357
       9 -> 19         0.36344
       9 -> 20        -0.33920

 Excited state symmetry could not be determined.
 Excited State  47:      Singlet-?Sym   22.8968 eV   54.15 nm  f=0.0000  <S**2>=0.000
       7 -> 18         0.68721

 Excited state symmetry could not be determined.
 Excited State  48:      Singlet-?Sym   22.8968 eV   54.15 nm  f=0.0000  <S**2>=0.000
       6 -> 18         0.68721

 Excited State  49:      Singlet-SGU   24.6045 eV   50.39 nm  f=0.1336  <S**2>=0.000
       5 -> 18         0.66128
       8 -> 23         0.15307
       9 -> 24         0.15307

 Excited state symmetry could not be determined.
 Excited State  50:      Singlet-?Sym   24.7356 eV   50.12 nm  f=0.0000  <S**2>=0.000
       6 -> 19         0.44830
       6 -> 20        -0.14863
       7 -> 19         0.14864
       7 -> 20         0.44827
       8 -> 28         0.15594
       9 -> 27         0.15592

 Excited state symmetry could not be determined.
 Excited State  51:      Singlet-?Sym   24.7356 eV   50.12 nm  f=0.0000  <S**2>=0.000
       6 -> 19        -0.14864
       6 -> 20        -0.44827
       7 -> 19         0.44830
       7 -> 20        -0.14863
       8 -> 27        -0.15592
       9 -> 28         0.15594

 Excited state symmetry could not be determined.
 Excited State  52:      Singlet-?Sym   25.2586 eV   49.09 nm  f=0.0000  <S**2>=0.000
       7 -> 21        -0.10816
       8 -> 22         0.22621
       9 -> 22         0.65047

 Excited state symmetry could not be determined.
 Excited State  53:      Singlet-?Sym   25.2586 eV   49.09 nm  f=0.0000  <S**2>=0.000
       6 -> 21        -0.10816
       8 -> 22         0.65047
       9 -> 22        -0.22621

 Excited state symmetry could not be determined.
 Excited State  54:      Singlet-?Sym   25.2602 eV   49.08 nm  f=0.0340  <S**2>=0.000
       8 -> 21        -0.41108
       9 -> 21         0.55893

 Excited state symmetry could not be determined.
 Excited State  55:      Singlet-?Sym   25.2602 eV   49.08 nm  f=0.0340  <S**2>=0.000
       8 -> 21         0.55893
       9 -> 21         0.41108

 Excited state symmetry could not be determined.
 Excited State  56:      Singlet-?Sym   25.3663 eV   48.88 nm  f=0.0000  <S**2>=0.000
       8 -> 23         0.49446
       9 -> 24        -0.49446

 Excited state symmetry could not be determined.
 Excited State  57:      Singlet-?Sym   25.3663 eV   48.88 nm  f=0.0000  <S**2>=0.000
       8 -> 24         0.49446
       9 -> 23         0.49446

 Excited state symmetry could not be determined.
 Excited State  58:      Singlet-?Sym   25.6086 eV   48.42 nm  f=0.0000  <S**2>=0.000
       8 -> 24        -0.49348
       9 -> 23         0.49348

 Excited State  59:      Singlet-SGG   25.6446 eV   48.35 nm  f=0.0000  <S**2>=0.000
       4 -> 10         0.63085
       6 -> 23        -0.11921
       7 -> 24        -0.11921
       8 -> 25        -0.18596
       9 -> 26        -0.18596

 Excited state symmetry could not be determined.
 Excited State  60:      Singlet-?Sym   25.6720 eV   48.30 nm  f=0.5183  <S**2>=0.000
       6 -> 19         0.20964
       6 -> 20         0.44530
       7 -> 19         0.44526
       7 -> 20        -0.20966

 Excited state symmetry could not be determined.
 Excited State  61:      Singlet-?Sym   25.6720 eV   48.30 nm  f=0.5183  <S**2>=0.000
       6 -> 19        -0.44526
       6 -> 20         0.20966
       7 -> 19         0.20964
       7 -> 20         0.44530

 Excited state symmetry could not be determined.
 Excited State  62:      Singlet-?Sym   26.1488 eV   47.41 nm  f=0.7714  <S**2>=0.000
       5 -> 18        -0.18713
       8 -> 23         0.45403
       8 -> 29         0.12037
       9 -> 24         0.45403
       9 -> 30         0.12037

 Excited state symmetry could not be determined.
 Excited State  63:      Singlet-?Sym   26.3572 eV   47.04 nm  f=0.0000  <S**2>=0.000
       5 -> 20         0.17966
       8 -> 26         0.46901
       9 -> 25         0.46901

 Excited state symmetry could not be determined.
 Excited State  64:      Singlet-?Sym   26.3572 eV   47.04 nm  f=0.0000  <S**2>=0.000
       5 -> 19        -0.17965
       8 -> 25         0.46901
       9 -> 26        -0.46901

 Excited state symmetry could not be determined.
 Excited State  65:      Singlet-?Sym   26.6498 eV   46.52 nm  f=0.0000  <S**2>=0.000
       8 -> 26        -0.49063
       9 -> 25         0.49063

 Excited state symmetry could not be determined.
 Excited State  66:      Singlet-?Sym   26.9125 eV   46.07 nm  f=0.0000  <S**2>=0.000
       6 -> 20        -0.16164
       7 -> 19         0.16164
       8 -> 27         0.46482
       9 -> 28        -0.46466

 Excited state symmetry could not be determined.
 Excited State  67:      Singlet-?Sym   26.9125 eV   46.07 nm  f=0.0000  <S**2>=0.000
       6 -> 19        -0.16164
       7 -> 20        -0.16164
       8 -> 28         0.46466
       9 -> 27         0.46482

 Excited state symmetry could not be determined.
 Excited State  68:      Singlet-?Sym   26.9965 eV   45.93 nm  f=0.0000  <S**2>=0.000
       5 -> 19         0.68329
       8 -> 25         0.12720
       9 -> 26        -0.12720

 Excited state symmetry could not be determined.
 Excited State  69:      Singlet-?Sym   26.9965 eV   45.93 nm  f=0.0000  <S**2>=0.000
       5 -> 20         0.68329
       8 -> 26        -0.12721
       9 -> 25        -0.12721

 Excited state symmetry could not be determined.
 Excited State  70:      Singlet-?Sym   27.1211 eV   45.72 nm  f=0.2130  <S**2>=0.000
       8 -> 27         0.44278
       8 -> 28         0.21996
       9 -> 27        -0.21989
       9 -> 28         0.44291

 Excited state symmetry could not be determined.
 Excited State  71:      Singlet-?Sym   27.1211 eV   45.72 nm  f=0.2130  <S**2>=0.000
       8 -> 27        -0.21989
       8 -> 28         0.44291
       9 -> 27        -0.44278
       9 -> 28        -0.21996

 Excited state symmetry could not be determined.
 Excited State  72:      Singlet-?Sym   27.4055 eV   45.24 nm  f=0.0000  <S**2>=0.000
       6 -> 25         0.10995
       7 -> 26        -0.10995
       8 -> 29         0.48457
       9 -> 30        -0.48457

 Excited state symmetry could not be determined.
 Excited State  73:      Singlet-?Sym   27.4056 eV   45.24 nm  f=0.0000  <S**2>=0.000
       6 -> 26         0.10994
       7 -> 25         0.10994
       8 -> 30         0.48457
       9 -> 29         0.48457

 Excited state symmetry could not be determined.
 Excited State  74:      Singlet-?Sym   27.5687 eV   44.97 nm  f=0.0000  <S**2>=0.000
       6 -> 26        -0.10167
       7 -> 25         0.10167
       8 -> 30        -0.48469
       9 -> 29         0.48469

 Excited state symmetry could not be determined.
 Excited State  75:      Singlet-?Sym   27.7750 eV   44.64 nm  f=0.0000  <S**2>=0.000
       4 -> 10         0.27421
       5 -> 22         0.15227
       8 -> 25         0.43061
       9 -> 26         0.43061

 Excited state symmetry could not be determined.
 Excited State  76:      Singlet-?Sym   29.2290 eV   42.42 nm  f=0.0000  <S**2>=0.000
       6 -> 23        -0.47434
       6 -> 29         0.13280
       7 -> 24         0.47434
       7 -> 30        -0.13280

 Excited state symmetry could not be determined.
 Excited State  77:      Singlet-?Sym   29.2290 eV   42.42 nm  f=0.0000  <S**2>=0.000
       6 -> 24         0.47435
       6 -> 30        -0.13278
       7 -> 23         0.47435
       7 -> 29        -0.13278

 Excited state symmetry could not be determined.
 Excited State  78:      Singlet-?Sym   29.3066 eV   42.31 nm  f=0.0000  <S**2>=0.000
       7 -> 21         0.69371
       9 -> 22         0.11056

 Excited state symmetry could not be determined.
 Excited State  79:      Singlet-?Sym   29.3066 eV   42.31 nm  f=0.0000  <S**2>=0.000
       6 -> 21         0.69371
       8 -> 22         0.11056

 Excited state symmetry could not be determined.
 Excited State  80:      Singlet-?Sym   29.3466 eV   42.25 nm  f=0.0252  <S**2>=0.000
       6 -> 22        -0.23812
       7 -> 22         0.64549

 Excited state symmetry could not be determined.
 Excited State  81:      Singlet-?Sym   29.3466 eV   42.25 nm  f=0.0252  <S**2>=0.000
       6 -> 22         0.64549
       7 -> 22         0.23812

 Excited state symmetry could not be determined.
 Excited State  82:      Singlet-?Sym   29.5580 eV   41.95 nm  f=0.0000  <S**2>=0.000
       6 -> 24        -0.48509
       6 -> 30         0.10313
       7 -> 23         0.48509
       7 -> 29        -0.10313

 Excited state symmetry could not be determined.
 Excited State  83:      Singlet-?Sym   29.6098 eV   41.87 nm  f=0.1606  <S**2>=0.000
       3 -> 10        -0.19619
       4 -> 12        -0.13303
       5 -> 10        -0.10672
       5 -> 18         0.10970
       5 -> 21        -0.20825
       6 -> 25        -0.12583
       7 -> 26        -0.12583
       8 -> 29         0.40822
       9 -> 30         0.40822

 Excited state symmetry could not be determined.
 Excited State  84:      Singlet-?Sym   29.8017 eV   41.60 nm  f=0.0000  <S**2>=0.000
       4 -> 10         0.10528
       6 -> 23         0.47071
       7 -> 24         0.47071
       8 -> 25        -0.12482
       9 -> 26        -0.12482

 Excited state symmetry could not be determined.
 Excited State  85:      Singlet-?Sym   30.6031 eV   40.51 nm  f=0.0000  <S**2>=0.000
       6 -> 28         0.49092
       7 -> 27         0.49093

 Excited state symmetry could not be determined.
 Excited State  86:      Singlet-?Sym   30.6031 eV   40.51 nm  f=0.0000  <S**2>=0.000
       6 -> 27         0.49093
       7 -> 28        -0.49092

 Excited State  87:      Singlet-SGU   30.6262 eV   40.48 nm  f=0.0086  <S**2>=0.000
       5 -> 21         0.61455
       6 -> 25        -0.22356
       7 -> 26        -0.22356

 Excited State  88:      Singlet-SGG   30.7048 eV   40.38 nm  f=0.0000  <S**2>=0.000
       5 -> 22         0.64280
       6 -> 29         0.17368
       7 -> 30         0.17368

 Excited state symmetry could not be determined.
 Excited State  89:      Singlet-?Sym   30.7907 eV   40.27 nm  f=0.0000  <S**2>=0.000
       6 -> 26         0.48159
       7 -> 25         0.48159
       8 -> 30        -0.10847
       9 -> 29        -0.10847

 Excited state symmetry could not be determined.
 Excited State  90:      Singlet-?Sym   30.7907 eV   40.27 nm  f=0.0000  <S**2>=0.000
       6 -> 25         0.48159
       7 -> 26        -0.48159
       8 -> 29        -0.10847
       9 -> 30         0.10847

 Excited state symmetry could not be determined.
 Excited State  91:      Singlet-?Sym   30.8490 eV   40.19 nm  f=0.0000  <S**2>=0.000
       6 -> 27         0.36008
       6 -> 28         0.33693
       7 -> 27        -0.33692
       7 -> 28         0.36009

 Excited state symmetry could not be determined.
 Excited State  92:      Singlet-?Sym   30.8490 eV   40.19 nm  f=0.0000  <S**2>=0.000
       6 -> 27        -0.33692
       6 -> 28         0.36009
       7 -> 27        -0.36008
       7 -> 28        -0.33693

 Excited state symmetry could not be determined.
 Excited State  93:      Singlet-?Sym   30.8723 eV   40.16 nm  f=0.0000  <S**2>=0.000
       6 -> 26        -0.48715
       7 -> 25         0.48715

 Excited state symmetry could not be determined.
 Excited State  94:      Singlet-?Sym   31.1738 eV   39.77 nm  f=0.0254  <S**2>=0.000
       3 -> 10        -0.31295
       4 -> 12        -0.20242
       5 -> 21         0.24353
       6 -> 25         0.37049
       7 -> 26         0.37049

 Excited state symmetry could not be determined.
 Excited State  95:      Singlet-?Sym   31.2109 eV   39.72 nm  f=0.2598  <S**2>=0.000
       5 -> 23         0.64676
       5 -> 24         0.24451

 Excited state symmetry could not be determined.
 Excited State  96:      Singlet-?Sym   31.2109 eV   39.72 nm  f=0.2598  <S**2>=0.000
       5 -> 23        -0.24451
       5 -> 24         0.64676

 Excited state symmetry could not be determined.
 Excited State  97:      Singlet-?Sym   31.5253 eV   39.33 nm  f=0.0000  <S**2>=0.000
       6 -> 23         0.12217
       6 -> 29         0.47655
       7 -> 24        -0.12217
       7 -> 30        -0.47655

 Excited state symmetry could not be determined.
 Excited State  98:      Singlet-?Sym   31.5254 eV   39.33 nm  f=0.0000  <S**2>=0.000
       6 -> 24         0.12215
       6 -> 30         0.47655
       7 -> 23         0.12215
       7 -> 29         0.47655

 Excited state symmetry could not be determined.
 Excited State  99:      Singlet-?Sym   31.7015 eV   39.11 nm  f=0.0000  <S**2>=0.000
       6 -> 30        -0.48441
       7 -> 29         0.48441

 Excited State 100:      Singlet-SGG   31.7939 eV   39.00 nm  f=0.0000  <S**2>=0.000
       4 -> 11         0.69060

 Excited state symmetry could not be determined.
 Excited State 101:      Singlet-?Sym   31.8622 eV   38.91 nm  f=0.0000  <S**2>=0.000
       4 -> 13         0.13884
       5 -> 25         0.61365
       5 -> 26        -0.15021
       8 -> 31         0.26043

 Excited state symmetry could not be determined.
 Excited State 102:      Singlet-?Sym   31.8622 eV   38.91 nm  f=0.0000  <S**2>=0.000
       4 -> 14         0.13884

 The electronic state is 1-SGG.
 Alpha  occ. eigenvalues --  -24.92093 -24.92092  -1.47421  -1.20618  -0.70129
 Alpha  occ. eigenvalues --   -0.64399  -0.64399  -0.50087  -0.50087
 Alpha virt. eigenvalues --   -0.04976   0.11525   0.14953   0.15482   0.15482
 Alpha virt. eigenvalues --    0.19874   0.19874   0.21162   0.38177   0.51045
 Alpha virt. eigenvalues --    0.51045   0.63506   0.63757   0.66182   0.66182

 Mulliken charges:
               1
     1  F    0.000000
     2  F    0.000000
 Sum of Mulliken charges =   0.00000

 Dipole moment (field-independent basis, Debye):
    X=              0.0000    Y=             -0.0000    Z=             -0.0000  Tot=              0.0000
 Quadrupole moment (field-independent basis, Debye-Ang):
   XX=             -9.6181   YY=             -9.6181   ZZ=             -8.8223
   XY=              0.0000   XZ=              0.0000   YZ=              0.0000

 Normal termination of Gaussian 16 at Sun Feb 27 06:39:39 2022.
