 Gaussian 16, Revision C.01,
 Gaussian 16:  EM64L-G16RevC.01  3-Jul-2019

 ----------------------------------------------------------------------
 #P TD(Nstates=10000) wB97XD/Gen SCF(maxcycles=100) Int(Grid=ultrafine)
 ----------------------------------------------------------------------

 ---------------------
 xGDB7_00001_tier4.com
 ---------------------
 Symbolic Z-matrix:
 Charge =  0 Multiplicity = 1

                         Standard orientation:
 ---------------------------------------------------------------------
 Center     Atomic      Atomic             Coordinates (Angstroms)
 Number     Number       Type             X           Y           Z
 ---------------------------------------------------------------------
      1          7           0        1.106441    0.142513   -0.090982
      2          7           0       -0.080753   -0.512520    0.006066
      3          6           0       -1.148696    0.167456    0.008166
      4          1           0        1.854749   -0.409916    0.291533
      5          1           0        1.109676    1.100453    0.242713
      6          1           0       -2.089851   -0.366199    0.035249
      7          1           0       -1.162209    1.260974   -0.024080
 ---------------------------------------------------------------------

 SCF Done:  E(RwB97XD) =  -149.972072494     A.U. after   13 cycles

 Excitation energies and oscillator strengths:

 Excited State   1:      Singlet-A      5.8439 eV  212.16 nm  f=0.0177  <S**2>=0.000
      11 -> 13         0.59966
      11 -> 14        -0.26467
      12 -> 13        -0.23987
 This state for optimization and/or second-order correction.
 Total Energy, E(TD-HF/TD-DFT) =  -149.757311728
 Copying the excited state density for this state as the 1-particle RhoCI density.

 Excited State   2:      Singlet-A      6.0419 eV  205.21 nm  f=0.1183  <S**2>=0.000
      11 -> 13         0.20643
      12 -> 13         0.63754
      12 -> 14         0.13189
      12 -> 15        -0.10244

 Excited State   3:      Singlet-A      6.3138 eV  196.37 nm  f=0.0994  <S**2>=0.000
      11 -> 13        -0.10182
      12 -> 13        -0.12820
      12 -> 14         0.64817
      12 -> 15        -0.18462

 Excited State   4:      Singlet-A      7.2430 eV  171.18 nm  f=0.0323  <S**2>=0.000
      12 -> 14         0.18119
      12 -> 15         0.63316
      12 -> 16         0.18708

 Excited State   5:      Singlet-A      7.6338 eV  162.42 nm  f=0.0252  <S**2>=0.000
      11 -> 13         0.25559
      11 -> 14         0.57973
      11 -> 15        -0.10246
      12 -> 16         0.21957

 Excited State   6:      Singlet-A      7.6530 eV  162.01 nm  f=0.0242  <S**2>=0.000
      11 -> 13        -0.10147
      11 -> 14        -0.21455
      12 -> 15        -0.14942
      12 -> 16         0.62134

 Excited State   7:      Singlet-A      8.4265 eV  147.14 nm  f=0.0061  <S**2>=0.000
      11 -> 15         0.27301
      12 -> 17         0.59272

 Excited State   8:      Singlet-A      8.4444 eV  146.82 nm  f=0.0207  <S**2>=0.000
      11 -> 15         0.61532
      12 -> 17        -0.26129
      12 -> 18         0.11669

 Excited State   9:      Singlet-A      8.7516 eV  141.67 nm  f=0.1345  <S**2>=0.000
      11 -> 15        -0.11715
      11 -> 16         0.62478
      11 -> 17        -0.10652
      12 -> 18         0.24134

 Excited State  10:      Singlet-A      8.8042 eV  140.82 nm  f=0.0595  <S**2>=0.000
      11 -> 16        -0.25189
      12 -> 18         0.60374
      12 -> 19         0.14658

 Excited State  11:      Singlet-A      9.1004 eV  136.24 nm  f=0.0053  <S**2>=0.000
      12 -> 17        -0.11351
      12 -> 18        -0.12773
      12 -> 19         0.66351

 Excited State  12:      Singlet-A      9.5414 eV  129.94 nm  f=0.0261  <S**2>=0.000
      11 -> 17         0.47634
      11 -> 18        -0.16879
      12 -> 20         0.44504

 Excited State  13:      Singlet-A      9.6809 eV  128.07 nm  f=0.0070  <S**2>=0.000
       9 -> 13         0.47396
       9 -> 14        -0.21884
      10 -> 13        -0.34226
      10 -> 14         0.11968
      11 -> 17         0.13127
      12 -> 20        -0.23473

 Excited State  14:      Singlet-A      9.8006 eV  126.51 nm  f=0.0080  <S**2>=0.000
       9 -> 13         0.24327
       9 -> 14        -0.12597
      11 -> 17        -0.38024
      11 -> 18         0.11493
      12 -> 20         0.46288

 Excited State  15:      Singlet-A     10.0054 eV  123.92 nm  f=0.0653  <S**2>=0.000
      11 -> 17         0.19827
      11 -> 18         0.65456

 Excited State  16:      Singlet-A     10.1928 eV  121.64 nm  f=0.0075  <S**2>=0.000
      11 -> 17        -0.10410
      11 -> 19         0.66823

 Excited State  17:      Singlet-A     10.2927 eV  120.46 nm  f=0.0428  <S**2>=0.000
       9 -> 13        -0.24245
      10 -> 13        -0.33161
      11 -> 19        -0.13405
      12 -> 21         0.49693
      12 -> 22        -0.14413

 Excited State  18:      Singlet-A     10.3959 eV  119.26 nm  f=0.1234  <S**2>=0.000
       9 -> 13         0.24088
      10 -> 13         0.40700
      11 -> 17         0.10331
      11 -> 22         0.11326
      12 -> 21         0.40417
      12 -> 22        -0.16732

 Excited State  19:      Singlet-A     10.4767 eV  118.34 nm  f=0.0162  <S**2>=0.000
      12 -> 21         0.17972
      12 -> 22         0.61153
      12 -> 23         0.20877

 Excited State  20:      Singlet-A     10.7031 eV  115.84 nm  f=0.0482  <S**2>=0.000
      10 -> 14        -0.33836
      10 -> 15         0.10214
      11 -> 20         0.52611
      12 -> 22         0.14595
      12 -> 23        -0.17409

 Excited State  21:      Singlet-A     10.7256 eV  115.60 nm  f=0.0135  <S**2>=0.000
      10 -> 14         0.10069
      11 -> 20         0.30424
      12 -> 22        -0.12963
      12 -> 23         0.57415

 Excited State  22:      Singlet-A     10.7530 eV  115.30 nm  f=0.0238  <S**2>=0.000
      10 -> 13         0.17035
      10 -> 14         0.51018
      10 -> 15        -0.18104
      11 -> 20         0.28029
      12 -> 23        -0.23692

 Excited State  23:      Singlet-A     11.2677 eV  110.04 nm  f=0.0268  <S**2>=0.000
      12 -> 24         0.65088

 Excited State  24:      Singlet-A     11.3472 eV  109.26 nm  f=0.0249  <S**2>=0.000
      11 -> 21         0.48920
      11 -> 22        -0.26872
      12 -> 25        -0.37342

 Excited State  25:      Singlet-A     11.4280 eV  108.49 nm  f=0.0952  <S**2>=0.000
       9 -> 14        -0.10528
      11 -> 21         0.33603
      11 -> 22        -0.19028
      12 -> 25         0.53340

 Excited State  26:      Singlet-A     11.4825 eV  107.98 nm  f=0.0983  <S**2>=0.000
       9 -> 13         0.23425
       9 -> 14         0.55454
      10 -> 15        -0.15912
      11 -> 21        -0.10125
      11 -> 22        -0.15284
      12 -> 25         0.16100

 Excited State  27:      Singlet-A     11.7085 eV  105.89 nm  f=0.0219  <S**2>=0.000
       9 -> 14         0.18078
      10 -> 14         0.10974
      10 -> 15         0.13284
      11 -> 22         0.13367
      11 -> 23         0.13141
      12 -> 26         0.49983
      12 -> 27        -0.18821
      12 -> 28         0.10027
      12 -> 29         0.18190

 Excited State  28:      Singlet-A     11.7186 eV  105.80 nm  f=0.1021  <S**2>=0.000
      10 -> 15        -0.29889
      10 -> 16        -0.10040
      11 -> 21         0.24652
      11 -> 22         0.44470
      11 -> 23         0.22998
      12 -> 26        -0.11342

 Excited State  29:      Singlet-A     11.7501 eV  105.52 nm  f=0.0638  <S**2>=0.000
       9 -> 14         0.17927
      10 -> 14         0.12917
      10 -> 15         0.47454
      10 -> 16         0.18239
      11 -> 21         0.13798
      11 -> 22         0.21751
      12 -> 26        -0.25321

 Excited State  30:      Singlet-A     11.9228 eV  103.99 nm  f=0.0036  <S**2>=0.000
       8 -> 13         0.25149
       8 -> 14        -0.10262
       9 -> 15         0.10621
      11 -> 21        -0.11740
      11 -> 22        -0.17026
      11 -> 23         0.50395
      11 -> 24         0.23343

 Excited State  31:      Singlet-A     12.0797 eV  102.64 nm  f=0.0432  <S**2>=0.000
       8 -> 13        -0.41110
       8 -> 14         0.18645
      10 -> 16         0.45285
      11 -> 24         0.12691
      12 -> 27         0.10409

 Excited State  32:      Singlet-A     12.0986 eV  102.48 nm  f=0.0155  <S**2>=0.000
       8 -> 13        -0.25727
       8 -> 14         0.12912
      10 -> 15         0.10936
      10 -> 16        -0.39542
      11 -> 22        -0.13599
      11 -> 24         0.42396

 Excited State  33:      Singlet-A     12.1505 eV  102.04 nm  f=0.0042  <S**2>=0.000
       8 -> 13         0.25018
       8 -> 14        -0.10707
      10 -> 15        -0.17041
      10 -> 16         0.19082
      11 -> 23        -0.30576
      11 -> 24         0.44606

 Excited State  34:      Singlet-A     12.2294 eV  101.38 nm  f=0.0984  <S**2>=0.000
       8 -> 13         0.10819
      12 -> 26         0.21272
      12 -> 27         0.63390

 Excited State  35:      Singlet-A     12.3370 eV  100.50 nm  f=0.0699  <S**2>=0.000
       9 -> 15         0.62929
      11 -> 23        -0.11390

 Excited State  36:      Singlet-A     12.5701 eV   98.63 nm  f=0.0088  <S**2>=0.000
      11 -> 25         0.62997
      12 -> 28         0.20273
      12 -> 29        -0.11607

 Excited State  37:      Singlet-A     12.6734 eV   97.83 nm  f=0.0172  <S**2>=0.000
       9 -> 16        -0.15530
      10 -> 18         0.11493
      11 -> 25        -0.20280
      12 -> 28         0.59141
      12 -> 29        -0.10625

 Excited State  38:      Singlet-A     12.7800 eV   97.01 nm  f=0.0251  <S**2>=0.000
       9 -> 15        -0.12010
       9 -> 16        -0.21512
      10 -> 15        -0.10464
      10 -> 16         0.10141
      10 -> 17         0.25444
      11 -> 26        -0.13346
      12 -> 26        -0.15500
      12 -> 29         0.46029
      12 -> 30        -0.16615
      12 -> 31        -0.10481

 Excited State  39:      Singlet-A     12.8795 eV   96.26 nm  f=0.0010  <S**2>=0.000
       9 -> 16         0.44634
      10 -> 17        -0.15748
      11 -> 26         0.27698
      11 -> 27        -0.11151
      12 -> 26        -0.12224
      12 -> 29         0.28817

 Excited State  40:      Singlet-A     12.9619 eV   95.65 nm  f=0.0375  <S**2>=0.000
       9 -> 16         0.42246
      10 -> 17         0.35495
      11 -> 26        -0.28774
      12 -> 28         0.11816

 Excited State  41:      Singlet-A     12.9882 eV   95.46 nm  f=0.0674  <S**2>=0.000
      10 -> 17         0.41319
      10 -> 18        -0.16635
      11 -> 26         0.40988
      11 -> 27        -0.17221
      12 -> 29        -0.12454

 Excited State  42:      Singlet-A     13.2216 eV   93.77 nm  f=0.0010  <S**2>=0.000
       7 -> 13        -0.16739
      10 -> 18         0.33462
      10 -> 19         0.23767
      11 -> 27        -0.15251
      12 -> 30         0.39741
      12 -> 31        -0.20246
      12 -> 32         0.10812

 Excited State  43:      Singlet-A     13.2981 eV   93.23 nm  f=0.0139  <S**2>=0.000
       7 -> 13         0.50321
       7 -> 14        -0.19081
      10 -> 18         0.20653
      11 -> 26        -0.10580
      11 -> 27        -0.30786
      12 -> 30        -0.10439

 Excited State  44:      Singlet-A     13.3556 eV   92.83 nm  f=0.0468  <S**2>=0.000
       7 -> 13         0.26394
       7 -> 14        -0.11064
      10 -> 18        -0.30024
      12 -> 28         0.14337
      12 -> 29         0.21895
      12 -> 30         0.44464

 Excited State  45:      Singlet-A     13.4084 eV   92.47 nm  f=0.0252  <S**2>=0.000
       7 -> 13         0.20218
      10 -> 18         0.22006
      10 -> 19         0.13648
      11 -> 26         0.22672
      11 -> 27         0.53065
      12 -> 31        -0.11132

 Excited State  46:      Singlet-A     13.5359 eV   91.60 nm  f=0.0640  <S**2>=0.000
       8 -> 14        -0.10038
       9 -> 17        -0.19103
       9 -> 18         0.18112
      10 -> 17        -0.12031
      10 -> 18        -0.24393
      10 -> 19         0.40986
      11 -> 28        -0.12734
      12 -> 30        -0.18548
      12 -> 31        -0.22987

 Excited State  47:      Singlet-A     13.5744 eV   91.34 nm  f=0.0526  <S**2>=0.000
       9 -> 17         0.45233
       9 -> 18        -0.22432
      10 -> 18        -0.17421
      10 -> 19         0.32650
      11 -> 28         0.10516

 Excited State  48:      Singlet-A     13.6285 eV   90.97 nm  f=0.0071  <S**2>=0.000
       9 -> 17        -0.21415
       9 -> 18         0.12029
      10 -> 18         0.11311
      10 -> 19         0.27132
      12 -> 30         0.11073
      12 -> 31         0.49975
      12 -> 32        -0.21768

 Excited State  49:      Singlet-A     13.7322 eV   90.29 nm  f=0.0179  <S**2>=0.000
       9 -> 17        -0.15910
      11 -> 28         0.60637
      11 -> 29        -0.22986

 Excited State  50:      Singlet-A     13.8341 eV   89.62 nm  f=0.0339  <S**2>=0.000
       8 -> 13        -0.13466
       8 -> 14        -0.29305
       9 -> 17         0.21614
       9 -> 18         0.25605
      10 -> 20         0.45783

 Excited State  51:      Singlet-A     13.8909 eV   89.26 nm  f=0.0027  <S**2>=0.000
       8 -> 13         0.22202
       8 -> 14         0.49681
       9 -> 18         0.12492
       9 -> 19         0.10180
      10 -> 20         0.31713
      11 -> 29        -0.14258

 Excited State  52:      Singlet-A     14.0175 eV   88.45 nm  f=0.0063  <S**2>=0.000
      10 -> 21         0.11352
      10 -> 23         0.12527
      12 -> 31         0.25341
      12 -> 32         0.58672
      12 -> 33        -0.13141

 Excited State  53:      Singlet-A     14.1206 eV   87.80 nm  f=0.1217  <S**2>=0.000
       9 -> 19         0.52889
      11 -> 26        -0.10361
      11 -> 28         0.10015
      11 -> 29         0.34158

 Excited State  54:      Singlet-A     14.1882 eV   87.39 nm  f=0.0300  <S**2>=0.000
       8 -> 14         0.11630
       9 -> 17         0.14552
       9 -> 18         0.38544
       9 -> 19        -0.13774
      10 -> 20        -0.17423
      11 -> 26        -0.13377
      11 -> 28         0.10807
      11 -> 29         0.26962
      12 -> 32         0.13577
      12 -> 33         0.26359

 Excited State  55:      Singlet-A     14.2256 eV   87.16 nm  f=0.0049  <S**2>=0.000
       9 -> 17        -0.13313
       9 -> 18        -0.25032
      10 -> 20         0.21291
      12 -> 33         0.55933

 Excited State  56:      Singlet-A     14.2760 eV   86.85 nm  f=0.0011  <S**2>=0.000
       7 -> 14         0.10678
       9 -> 17        -0.17038
       9 -> 18        -0.18750
       9 -> 19        -0.34232
      10 -> 20         0.20829
      11 -> 28         0.10237
      11 -> 29         0.37422
      11 -> 30        -0.11735
      12 -> 33        -0.17467

 Excited State  57:      Singlet-A     14.4800 eV   85.62 nm  f=0.0424  <S**2>=0.000
       7 -> 13         0.20583
       7 -> 14         0.52144
       7 -> 15        -0.25032
       9 -> 15        -0.14319
       9 -> 19         0.13541
      12 -> 34         0.10628

 Excited State  58:      Singlet-A     14.5315 eV   85.32 nm  f=0.0138  <S**2>=0.000
       7 -> 14        -0.12458
      11 -> 30         0.17905
      12 -> 34         0.62173

 Excited State  59:      Singlet-A     14.5752 eV   85.07 nm  f=0.0283  <S**2>=0.000
       8 -> 15         0.17897
      11 -> 28         0.11574
      11 -> 29         0.12558
      11 -> 30         0.55119
      11 -> 31        -0.13497
      12 -> 34        -0.22971

 Excited State  60:      Singlet-A     14.7242 eV   84.20 nm  f=0.0441  <S**2>=0.000
       8 -> 15         0.59273
       9 -> 20         0.14381
      11 -> 30        -0.21119

 Excited State  61:      Singlet-A     14.7517 eV   84.05 nm  f=0.0371  <S**2>=0.000
      10 -> 21         0.56149
      12 -> 35         0.30916

 Excited State  62:      Singlet-A     14.8107 eV   83.71 nm  f=0.0161  <S**2>=0.000
       9 -> 20         0.10242
      10 -> 21        -0.23901
      10 -> 22         0.54088
      12 -> 35         0.23381

 Excited State  63:      Singlet-A     14.8254 eV   83.63 nm  f=0.0068  <S**2>=0.000
       8 -> 15        -0.15186
       9 -> 20         0.59415
       9 -> 24        -0.16586

 Excited State  64:      Singlet-A     14.9479 eV   82.94 nm  f=0.0405  <S**2>=0.000
       8 -> 16        -0.22089
      11 -> 30         0.16576
      11 -> 31         0.57109
      11 -> 32        -0.15294
      12 -> 35        -0.11058

 Excited State  65:      Singlet-A     15.0773 eV   82.23 nm  f=0.0302  <S**2>=0.000
       8 -> 16         0.28370
      10 -> 22         0.15243
      10 -> 23         0.38763
      11 -> 31         0.14346
      11 -> 32         0.29202
      12 -> 35        -0.19970
      12 -> 36        -0.10940

 Excited State  66:      Singlet-A     15.0918 eV   82.15 nm  f=0.0036  <S**2>=0.000
       8 -> 16         0.47191
      10 -> 23        -0.24412
      10 -> 24        -0.13966
      11 -> 31         0.12935
      11 -> 32        -0.25793
      11 -> 33        -0.10890
      12 -> 36        -0.17391

 Excited State  67:      Singlet-A     15.1782 eV   81.69 nm  f=0.0525  <S**2>=0.000
      10 -> 22        -0.11905
      10 -> 23        -0.38043
      11 -> 31         0.16687
      11 -> 32         0.48243
      11 -> 33        -0.11275

 Excited State  68:      Singlet-A     15.2410 eV   81.35 nm  f=0.0070  <S**2>=0.000
       9 -> 21        -0.10668
      10 -> 22         0.19456
      10 -> 23        -0.16705
      11 -> 33         0.52327
      12 -> 35        -0.26106

 Excited State  69:      Singlet-A     15.2811 eV   81.14 nm  f=0.0211  <S**2>=0.000
       8 -> 16         0.17377
      10 -> 21        -0.20710
      10 -> 22        -0.22623
      10 -> 23         0.18072
      11 -> 32         0.11047
      11 -> 33         0.33302
      12 -> 35         0.37121

 Excited State  70:      Singlet-A     15.3418 eV   80.81 nm  f=0.0422  <S**2>=0.000
       6 -> 13        -0.15033
       9 -> 21         0.39198
       9 -> 22        -0.33094
       9 -> 24        -0.24276
      10 -> 24         0.24458
      11 -> 33         0.12111

 Excited State  71:      Singlet-A     15.3968 eV   80.53 nm  f=0.0351  <S**2>=0.000
       8 -> 16         0.15908
      10 -> 24        -0.10670
      11 -> 31         0.11862
      12 -> 36         0.61532

 Excited State  72:      Singlet-A     15.5809 eV   79.57 nm  f=0.0723  <S**2>=0.000
       7 -> 15        -0.19430
       8 -> 17        -0.14398
       8 -> 18         0.12014
       9 -> 21        -0.13892
      10 -> 24         0.30277
      11 -> 32        -0.13104
      11 -> 34         0.42437
      12 -> 37        -0.13226

 Excited State  73:      Singlet-A     15.6028 eV   79.46 nm  f=0.0658  <S**2>=0.000
       7 -> 14        -0.14587
       7 -> 15        -0.30583
       7 -> 17        -0.20277
       9 -> 21         0.36255
       9 -> 22         0.17899
      10 -> 24        -0.19563
      11 -> 34         0.11342
      12 -> 37         0.14484

 Excited State  74:      Singlet-A     15.6452 eV   79.25 nm  f=0.0124  <S**2>=0.000
       7 -> 17        -0.11258
       9 -> 22         0.34284
       9 -> 24        -0.11630
      10 -> 24         0.34834
      11 -> 34        -0.34800

 Excited State  75:      Singlet-A     15.7011 eV   78.97 nm  f=0.0771  <S**2>=0.000
       7 -> 14         0.13305
       7 -> 15         0.37926
       7 -> 16         0.23112
       9 -> 21         0.16048
       9 -> 22         0.30507
       9 -> 24         0.13795
      10 -> 24         0.12151
      11 -> 34         0.24152

 Excited State  76:      Singlet-A     15.7346 eV   78.80 nm  f=0.0055  <S**2>=0.000
       9 -> 21        -0.11309
      10 -> 24         0.10382
      10 -> 25         0.37553
      11 -> 34         0.12579
      12 -> 37         0.49259
      12 -> 40        -0.11273

 Excited State  77:      Singlet-A     15.7728 eV   78.61 nm  f=0.0302  <S**2>=0.000
       6 -> 13         0.29583
       6 -> 14        -0.12332
       8 -> 17        -0.11063
       9 -> 21         0.12162
       9 -> 23         0.16845
       9 -> 24         0.27301
      10 -> 24         0.15088
      10 -> 25         0.33277
      11 -> 34        -0.14766
      12 -> 37        -0.18744

 Excited State  78:      Singlet-A     15.8741 eV   78.10 nm  f=0.1049  <S**2>=0.000
       6 -> 13        -0.24463
       9 -> 22        -0.14598
       9 -> 23         0.19941
       9 -> 24         0.36017
      10 -> 24         0.11723
      10 -> 25        -0.17298
      10 -> 26         0.18606
      11 -> 35         0.13993
      12 -> 37         0.15254
      12 -> 38        -0.13789

 Excited State  79:      Singlet-A     15.9332 eV   77.81 nm  f=0.0866  <S**2>=0.000
       6 -> 13         0.13808
       7 -> 15         0.10602
       7 -> 16         0.11108
       8 -> 17        -0.11318
       8 -> 18         0.17218
       9 -> 23         0.44288
       9 -> 24        -0.21384
      10 -> 25        -0.16270
      10 -> 26        -0.11796
      11 -> 35         0.11451
      12 -> 37         0.17546

 Excited State  80:      Singlet-A     15.9690 eV   77.64 nm  f=0.0874  <S**2>=0.000
       6 -> 13         0.32802
       6 -> 14        -0.12215
       7 -> 16        -0.11192
       8 -> 17         0.25799
       8 -> 18        -0.15435
       9 -> 22        -0.14073
       9 -> 23        -0.10421
       9 -> 24         0.10989
      10 -> 25        -0.31274
      12 -> 37         0.21568

 Excited State  81:      Singlet-A     15.9967 eV   77.51 nm  f=0.0363  <S**2>=0.000
       8 -> 17        -0.35890
       9 -> 23        -0.16412
       9 -> 24         0.14844
      10 -> 25        -0.16930
      10 -> 26        -0.19202
      12 -> 38         0.36348

 Excited State  82:      Singlet-A     16.0536 eV   77.23 nm  f=0.0417  <S**2>=0.000
       6 -> 13        -0.11734
       7 -> 16        -0.24549
       8 -> 17         0.24723
       9 -> 23         0.22428

 The electronic state is 1-A.
 Alpha  occ. eigenvalues --  -14.46941 -14.46237 -10.30539  -1.10171  -0.90697
 Alpha  occ. eigenvalues --   -0.70664  -0.62158  -0.59409  -0.50822  -0.48241
 Alpha  occ. eigenvalues --   -0.36183  -0.32031
 Alpha virt. eigenvalues --    0.06266   0.07283   0.09677   0.12101   0.15693
 Alpha virt. eigenvalues --    0.16392   0.17686   0.19841   0.22685   0.23177
 Alpha virt. eigenvalues --    0.23734   0.25204   0.25887   0.28616   0.29346

 Mulliken charges:
               1
     1  N   -0.394810
     2  N   -0.245302
     3  C   -0.425719
     4  H    0.257292
     5  H    0.230300
     6  H    0.319758
     7  H    0.258480
 Sum of Mulliken charges =  -0.00000

 Dipole moment (field-independent basis, Debye):
    X=              0.4222    Y=              1.6424    Z=              1.0050  Tot=              1.9712
 Quadrupole moment (field-independent basis, Debye-Ang):
   XX=            -14.6681   YY=            -18.4916   ZZ=            -20.6790
   XY=             -0.3214   XZ=              1.8634   YZ=              0.2992

 Normal termination of Gaussian 16 at Sun Feb 27 06:41:48 2022.
