 Gaussian 16, Revision C.01,
 Gaussian 16:  EM64L-G16RevC.01  3-Jul-2019

 ----------------------------------------------------------------------
 #P TD(Nstates=10000) wB97XD/Gen SCF(maxcycles=100) Int(Grid=ultrafine)
 ----------------------------------------------------------------------

 ---------------------
 xGDB7_00001_tier4.com
 ---------------------
 Symbolic Z-matrix:
 Charge =  0 Multiplicity = 1

                         Standard orientation:
 ---------------------------------------------------------------------
 Center     Atomic      Atomic             Coordinates (Angstroms)
 Number     Number       Type             X           Y           Z
 ---------------------------------------------------------------------
      1          6           0       -1.131573   -0.504386    0.000000
      2          6           0        0.000000    0.472223    0.000000
      3          6           0        1.284136    0.150792    0.000000
      4          1           0       -1.767446   -0.362776    0.877699
      5          1           0       -0.770122   -1.533458    0.000000
      6          1           0       -1.767446   -0.362776   -0.877699
      7          1           0       -0.276551    1.523465    0.000000
      8          1           0        1.608435   -0.884555    0.000000
      9          1           0        2.057749    0.908327    0.000000
 ---------------------------------------------------------------------

 SCF Done:  E(RwB97XD) =  -117.910438213     A.U. after   12 cycles

 Excitation energies and oscillator strengths:

 Excited State   1:      Singlet-A"     7.0526 eV  175.80 nm  f=0.0357  <S**2>=0.000
      12 -> 13         0.66499
      12 -> 15        -0.14219
      12 -> 16         0.15012
 This state for optimization and/or second-order correction.
 Total Energy, E(TD-HF/TD-DFT) =  -117.651260946
 Copying the excited state density for this state as the 1-particle RhoCI density.

 Excited State   2:      Singlet-A'     7.4973 eV  165.37 nm  f=0.4079  <S**2>=0.000
      12 -> 14         0.69752

 Excited State   3:      Singlet-A"     7.7409 eV  160.17 nm  f=0.0013  <S**2>=0.000
      12 -> 15         0.25479
      12 -> 16         0.63057
      12 -> 17        -0.10482

 Excited State   4:      Singlet-A"     7.9259 eV  156.43 nm  f=0.0230  <S**2>=0.000
      12 -> 13         0.17531
      12 -> 15         0.62912
      12 -> 16        -0.20927

 Excited State   5:      Singlet-A"     8.2917 eV  149.53 nm  f=0.0000  <S**2>=0.000
      11 -> 14         0.69536

 Excited State   6:      Singlet-A"     9.0435 eV  137.10 nm  f=0.0067  <S**2>=0.000
      10 -> 14        -0.14709
      12 -> 16         0.11121
      12 -> 17         0.65332

 Excited State   7:      Singlet-A"     9.1852 eV  134.98 nm  f=0.0354  <S**2>=0.000
       8 -> 14        -0.11166
      10 -> 14         0.38717
      12 -> 19         0.54306

 Excited State   8:      Singlet-A"     9.2261 eV  134.38 nm  f=0.0239  <S**2>=0.000
       8 -> 14        -0.12286
      10 -> 14         0.52653
      12 -> 17         0.11906
      12 -> 19        -0.40176

 Excited State   9:      Singlet-A'     9.3472 eV  132.64 nm  f=0.0527  <S**2>=0.000
      12 -> 18         0.66842
      12 -> 24         0.15054

 Excited State  10:      Singlet-A'     9.4940 eV  130.59 nm  f=0.0179  <S**2>=0.000
      11 -> 13         0.66135
      11 -> 16         0.15124

 Excited State  11:      Singlet-A"     9.8787 eV  125.51 nm  f=0.0081  <S**2>=0.000
      12 -> 20         0.66890
      12 -> 22        -0.11531
      12 -> 23        -0.11575

 Excited State  12:      Singlet-A'    10.0402 eV  123.49 nm  f=0.0197  <S**2>=0.000
      10 -> 13         0.53582
      10 -> 15         0.11487
      11 -> 15        -0.39675

 Excited State  13:      Singlet-A'    10.0974 eV  122.79 nm  f=0.0442  <S**2>=0.000
      11 -> 15        -0.13313
      11 -> 16         0.32452
      12 -> 21         0.57890

 Excited State  14:      Singlet-A'    10.1695 eV  121.92 nm  f=0.2342  <S**2>=0.000
      10 -> 13         0.16911
      10 -> 15         0.10223
      11 -> 15         0.19941
      11 -> 16         0.55870
      12 -> 21        -0.27808

 Excited State  15:      Singlet-A'    10.3452 eV  119.85 nm  f=0.0936  <S**2>=0.000
       8 -> 13        -0.11464
      10 -> 13         0.34953
      10 -> 15         0.11508
      11 -> 13         0.12789
      11 -> 15         0.47514
      11 -> 16        -0.16228
      12 -> 21         0.22446

 Excited State  16:      Singlet-A"    10.4256 eV  118.92 nm  f=0.0284  <S**2>=0.000
       8 -> 14        -0.34367
      12 -> 22         0.14902
      12 -> 23         0.55290

 Excited State  17:      Singlet-A"    10.4978 eV  118.10 nm  f=0.0222  <S**2>=0.000
       8 -> 14         0.57723
      10 -> 14         0.14130
      12 -> 22         0.13524
      12 -> 23         0.30851

 Excited State  18:      Singlet-A"    10.5894 eV  117.08 nm  f=0.0040  <S**2>=0.000
      12 -> 22         0.64045
      12 -> 23        -0.22252

 Excited State  19:      Singlet-A'    10.7603 eV  115.22 nm  f=0.0143  <S**2>=0.000
      10 -> 15        -0.13762
      10 -> 16         0.18780
      11 -> 17        -0.10561
      12 -> 18        -0.14120
      12 -> 24         0.60357

 Excited State  20:      Singlet-A'    10.9628 eV  113.10 nm  f=0.0608  <S**2>=0.000
      10 -> 15        -0.10899
      10 -> 16         0.62091
      12 -> 24        -0.22568

 Excited State  21:      Singlet-A'    11.1539 eV  111.16 nm  f=0.0068  <S**2>=0.000
      10 -> 13        -0.14835
      10 -> 15         0.60158
      10 -> 16         0.17533
      10 -> 17        -0.14253

 Excited State  22:      Singlet-A"    11.1827 eV  110.87 nm  f=0.0806  <S**2>=0.000
       9 -> 13         0.57275
       9 -> 15         0.28291
      12 -> 25         0.23765

 Excited State  23:      Singlet-A'    11.2121 eV  110.58 nm  f=0.0267  <S**2>=0.000
       9 -> 14         0.67152
      11 -> 19         0.10810

 Excited State  24:      Singlet-A"    11.4132 eV  108.63 nm  f=0.0894  <S**2>=0.000
       9 -> 13        -0.24009
      11 -> 18         0.10976
      12 -> 25         0.60278
      12 -> 26        -0.13928

 Excited State  25:      Singlet-A'    11.4697 eV  108.10 nm  f=0.0728  <S**2>=0.000
       8 -> 15         0.13193
      11 -> 17         0.62499
      11 -> 19         0.17769

 Excited State  26:      Singlet-A"    11.5523 eV  107.32 nm  f=0.0144  <S**2>=0.000
       8 -> 18        -0.10243
      10 -> 18        -0.13012
      11 -> 18         0.63395
      11 -> 21        -0.10185
      11 -> 24         0.12288
      12 -> 25        -0.10343

 Excited State  27:      Singlet-A'    11.6420 eV  106.50 nm  f=0.0786  <S**2>=0.000
       9 -> 14        -0.11906
      11 -> 17        -0.15062
      11 -> 19         0.63376

 Excited State  28:      Singlet-A"    11.7049 eV  105.92 nm  f=0.0096  <S**2>=0.000
       7 -> 14         0.14753
      11 -> 18         0.10788
      12 -> 25         0.14375
      12 -> 26         0.62949
      12 -> 28         0.10693
      12 -> 30        -0.10089

 Excited State  29:      Singlet-A"    11.8270 eV  104.83 nm  f=0.0174  <S**2>=0.000
       7 -> 14         0.63255
      10 -> 14        -0.11121
      10 -> 18         0.16480
      12 -> 25        -0.10330
      12 -> 26        -0.12842

 Excited State  30:      Singlet-A'    11.8305 eV  104.80 nm  f=0.0083  <S**2>=0.000
       8 -> 13         0.62473
      10 -> 17         0.17822
      11 -> 15         0.13722

 Excited State  31:      Singlet-A'    12.0005 eV  103.32 nm  f=0.0042  <S**2>=0.000
       7 -> 15        -0.10438
       8 -> 16        -0.31683
      10 -> 17        -0.28897
      11 -> 20         0.48170

 Excited State  32:      Singlet-A"    12.0636 eV  102.78 nm  f=0.0113  <S**2>=0.000
       7 -> 14        -0.17229
       7 -> 18        -0.10689
      10 -> 18         0.63813

 Excited State  33:      Singlet-A'    12.0976 eV  102.49 nm  f=0.1460  <S**2>=0.000
       8 -> 13        -0.18128
       8 -> 15        -0.23386
       8 -> 16        -0.19802
      10 -> 17         0.49813
      10 -> 19         0.17935
      11 -> 20         0.17623

 Excited State  34:      Singlet-A"    12.1936 eV  101.68 nm  f=0.0001  <S**2>=0.000
       9 -> 16         0.64364
       9 -> 20         0.12747
      11 -> 21        -0.14257

 Excited State  35:      Singlet-A'    12.2463 eV  101.24 nm  f=0.0661  <S**2>=0.000
      12 -> 27         0.65014
      12 -> 29        -0.14320

 Excited State  36:      Singlet-A"    12.3575 eV  100.33 nm  f=0.0605  <S**2>=0.000
       9 -> 16         0.14246
      11 -> 18         0.10782
      11 -> 21         0.64474

 Excited State  37:      Singlet-A'    12.3644 eV  100.27 nm  f=0.0474  <S**2>=0.000
       8 -> 15         0.13089
       8 -> 16        -0.18305
      10 -> 19         0.53334
      11 -> 20        -0.26881
      11 -> 23         0.14266

 Excited State  38:      Singlet-A"    12.4947 eV   99.23 nm  f=0.0101  <S**2>=0.000
      12 -> 26        -0.17932
      12 -> 28         0.50888
      12 -> 30        -0.35945
      12 -> 34        -0.14295

 Excited State  39:      Singlet-A'    12.5626 eV   98.69 nm  f=0.0268  <S**2>=0.000
       8 -> 16         0.42185
      10 -> 19         0.31612
      10 -> 20         0.25511
      11 -> 20         0.19674
      11 -> 23        -0.15486

 Excited State  40:      Singlet-A"    12.6096 eV   98.32 nm  f=0.0003  <S**2>=0.000
       9 -> 13        -0.24259
       9 -> 15         0.55124
       9 -> 17        -0.25990
       9 -> 20         0.13246

 Excited State  41:      Singlet-A'    12.6658 eV   97.89 nm  f=0.1691  <S**2>=0.000
       7 -> 13        -0.13603
       8 -> 15         0.58107
      10 -> 17         0.17789
      11 -> 17        -0.13982
      11 -> 20         0.17542

 Excited State  42:      Singlet-A'    12.7791 eV   97.02 nm  f=0.0458  <S**2>=0.000
       8 -> 16         0.18750
       8 -> 17         0.11939
      10 -> 20        -0.11405
      11 -> 20         0.20089
      11 -> 23         0.55910
      12 -> 29         0.18618

 Excited State  43:      Singlet-A'    12.8403 eV   96.56 nm  f=0.0218  <S**2>=0.000
       8 -> 16        -0.23739
       8 -> 19        -0.10695
       9 -> 18        -0.12486
      10 -> 20         0.10059
      11 -> 22        -0.31441
      12 -> 27         0.11025
      12 -> 29         0.50069

 Excited State  44:      Singlet-A'    12.8869 eV   96.21 nm  f=0.0046  <S**2>=0.000
       7 -> 16        -0.14673
       9 -> 18        -0.24130
      10 -> 19        -0.12397
      10 -> 20         0.48321
      10 -> 22         0.10205
      11 -> 23         0.18770
      12 -> 29        -0.24583

 Excited State  45:      Singlet-A"    12.9140 eV   96.01 nm  f=0.0002  <S**2>=0.000
       9 -> 17        -0.12104
       9 -> 19        -0.15807
      10 -> 21         0.55183
      11 -> 24         0.30644

 Excited State  46:      Singlet-A"    12.9490 eV   95.75 nm  f=0.0085  <S**2>=0.000
       8 -> 18         0.12216
       9 -> 19         0.10684
      10 -> 21        -0.24627
      11 -> 24         0.56696
      12 -> 30         0.11588

 Excited State  47:      Singlet-A'    13.0290 eV   95.16 nm  f=0.0021  <S**2>=0.000
       7 -> 13        -0.22944
       8 -> 17        -0.11214
      10 -> 20         0.14194
      11 -> 22         0.53450
      12 -> 29         0.23747

 Excited State  48:      Singlet-A"    13.0462 eV   95.03 nm  f=0.0225  <S**2>=0.000
      10 -> 21         0.11290
      11 -> 24        -0.13631
      12 -> 28         0.40375
      12 -> 30         0.46753
      12 -> 31         0.11604
      12 -> 32        -0.15859
      12 -> 34         0.10915

 Excited State  49:      Singlet-A"    13.1633 eV   94.19 nm  f=0.0439  <S**2>=0.000
       9 -> 17         0.19168
      10 -> 21         0.14080
      12 -> 30        -0.17659
      12 -> 31         0.56311
      12 -> 32         0.18384
      12 -> 34         0.10789

 Excited State  50:      Singlet-A'    13.2491 eV   93.58 nm  f=0.0150  <S**2>=0.000
       7 -> 13         0.58973
       7 -> 17         0.10155
       8 -> 15         0.10905
      10 -> 15         0.10941
      10 -> 17         0.10536
      10 -> 20         0.12119
      11 -> 22         0.13040
      12 -> 29         0.11430

 Excited State  51:      Singlet-A'    13.3081 eV   93.16 nm  f=0.1513  <S**2>=0.000
       7 -> 16        -0.11376
       8 -> 17         0.22009
       9 -> 18         0.53573
      10 -> 20         0.18703
      10 -> 23        -0.20457

 Excited State  52:      Singlet-A"    13.4005 eV   92.52 nm  f=0.0075  <S**2>=0.000
       9 -> 15         0.20675
       9 -> 17         0.44018
       9 -> 19         0.25294
       9 -> 22         0.12321
       9 -> 23        -0.16445
      10 -> 21         0.16235
      12 -> 31        -0.25054
      12 -> 34        -0.13684

 Excited State  53:      Singlet-A"    13.5164 eV   91.73 nm  f=0.0001  <S**2>=0.000
       9 -> 19        -0.11406
      12 -> 30         0.17220
      12 -> 31        -0.14883
      12 -> 32         0.63131

 Excited State  54:      Singlet-A'    13.5544 eV   91.47 nm  f=0.0868  <S**2>=0.000
       7 -> 15        -0.10049
       8 -> 17         0.28495
       8 -> 19        -0.21199
       9 -> 18        -0.12369
      10 -> 20        -0.10191
      10 -> 22         0.40107
      11 -> 22         0.12641
      11 -> 25        -0.27701
      12 -> 33         0.11082

 Excited State  55:      Singlet-A'    13.6085 eV   91.11 nm  f=0.0309  <S**2>=0.000
       7 -> 16         0.19301
       8 -> 17        -0.13558
       8 -> 19        -0.19864
       8 -> 20        -0.11400
       9 -> 18         0.19932
      10 -> 20         0.17815
      10 -> 23         0.45813
      11 -> 25        -0.18041

 Excited State  56:      Singlet-A'    13.6137 eV   91.07 nm  f=0.0320  <S**2>=0.000
       7 -> 19         0.11675
       8 -> 19         0.17902
       8 -> 20         0.17861
       9 -> 18         0.10275
      10 -> 22         0.34567
      10 -> 23         0.26011
      11 -> 25         0.40029

 Excited State  57:      Singlet-A"    13.6855 eV   90.60 nm  f=0.0419  <S**2>=0.000
       8 -> 18         0.17990
       9 -> 15        -0.13843
       9 -> 17        -0.20433
       9 -> 19         0.48319
       9 -> 22        -0.15479
      10 -> 21         0.12357
      10 -> 24        -0.16621
      12 -> 32         0.13656
      12 -> 35        -0.11019

 Excited State  58:      Singlet-A'    13.7191 eV   90.37 nm  f=0.0037  <S**2>=0.000
       8 -> 19         0.11704
      10 -> 22        -0.17205
      12 -> 33         0.64139

 Excited State  59:      Singlet-A"    13.7864 eV   89.93 nm  f=0.0639  <S**2>=0.000
       8 -> 18         0.46195
       9 -> 19        -0.22419
      10 -> 24        -0.33971
      12 -> 34        -0.17280

 Excited State  60:      Singlet-A"    13.8382 eV   89.60 nm  f=0.0142  <S**2>=0.000
       8 -> 18         0.14851
       9 -> 20        -0.22003
      12 -> 30        -0.16168
      12 -> 31        -0.16773
      12 -> 34         0.54554

 Excited State  61:      Singlet-A'    13.8459 eV   89.55 nm  f=0.0559  <S**2>=0.000
       7 -> 13        -0.11255
       7 -> 15        -0.14200
       7 -> 16         0.36299
       8 -> 17         0.21850
       8 -> 19         0.38486
      10 -> 25        -0.13289
      11 -> 23        -0.12563
      11 -> 25        -0.12175
      12 -> 33        -0.11360

 Excited State  62:      Singlet-A'    13.9636 eV   88.79 nm  f=0.0107  <S**2>=0.000
       7 -> 15         0.37426
       7 -> 16         0.40811
       8 -> 19        -0.12757
      10 -> 20         0.12009
      10 -> 23        -0.23162
      11 -> 25         0.14116
      12 -> 33         0.10740

 Excited State  63:      Singlet-A'    14.0301 eV   88.37 nm  f=0.0449  <S**2>=0.000
       7 -> 15         0.23158
       8 -> 17         0.40858
       9 -> 21         0.11053
      10 -> 22        -0.18625
      10 -> 23         0.19615
      10 -> 25         0.13579
      11 -> 23        -0.15797
      11 -> 25         0.24377

 Excited State  64:      Singlet-A"    14.0479 eV   88.26 nm  f=0.0270  <S**2>=0.000
       8 -> 18         0.27242
       8 -> 21        -0.29132
      10 -> 24         0.43819
      11 -> 27         0.21130
      12 -> 34        -0.11440

 Excited State  65:      Singlet-A'    14.1028 eV   87.91 nm  f=0.0168  <S**2>=0.000
       7 -> 15         0.41043
       7 -> 16        -0.19787
       8 -> 19         0.32811
       9 -> 21         0.10067
      10 -> 17        -0.11419
      10 -> 22         0.17395
      11 -> 25        -0.22077

 Excited State  66:      Singlet-A"    14.1564 eV   87.58 nm  f=0.0028  <S**2>=0.000
       6 -> 14        -0.11373
       8 -> 18         0.11778
       9 -> 16        -0.13129
       9 -> 19        -0.14031
       9 -> 20         0.44643
       9 -> 22         0.21603
      10 -> 24         0.18670
      12 -> 34         0.20416
      12 -> 35        -0.20067
      12 -> 36        -0.11763

 Excited State  67:      Singlet-A'    14.2130 eV   87.23 nm  f=0.0078  <S**2>=0.000
       7 -> 15        -0.14318
       8 -> 17        -0.10891
       8 -> 20        -0.15785
       9 -> 21         0.51787
      11 -> 26        -0.32345
      12 -> 37         0.10498

 Excited State  68:      Singlet-A"    14.2294 eV   87.13 nm  f=0.0031  <S**2>=0.000
       8 -> 18         0.26883
       8 -> 21         0.46483
      10 -> 24         0.22316
      11 -> 27        -0.29513
      11 -> 29         0.13051

 Excited State  69:      Singlet-A"    14.2696 eV   86.89 nm  f=0.0022  <S**2>=0.000
       6 -> 14         0.17282
       9 -> 20         0.29594
       9 -> 22         0.10387
      12 -> 35         0.47484
      12 -> 36         0.27056
      12 -> 38         0.12506

 Excited State  70:      Singlet-A'    14.3464 eV   86.42 nm  f=0.3097  <S**2>=0.000
       8 -> 20         0.10704
       9 -> 21         0.35110
      10 -> 25         0.17732
      11 -> 25        -0.13896
      11 -> 26         0.49804

 Excited State  71:      Singlet-A"    14.4424 eV   85.85 nm  f=0.0059  <S**2>=0.000
       6 -> 14         0.13142
      12 -> 35        -0.36866
      12 -> 36         0.54731

 Excited State  72:      Singlet-A'    14.4678 eV   85.70 nm  f=0.0119  <S**2>=0.000
       7 -> 16         0.11310
       8 -> 19         0.15886
       8 -> 20        -0.18263
       9 -> 21        -0.16583
      10 -> 25         0.48160
      12 -> 37         0.29533

 Excited State  73:      Singlet-A'    14.5728 eV   85.08 nm  f=0.0300  <S**2>=0.000
       8 -> 20        -0.12539
      10 -> 25        -0.29130
      11 -> 26         0.13774
      12 -> 37         0.54954

 Excited State  74:      Singlet-A'    14.6304 eV   84.74 nm  f=0.0126  <S**2>=0.000
       8 -> 20         0.54173
      11 -> 25        -0.16381
      11 -> 26        -0.23173
      12 -> 37         0.22808
      12 -> 39         0.10437

 Excited State  75:      Singlet-A"    14.6549 eV   84.60 nm  f=0.0001  <S**2>=0.000
       6 -> 14        -0.25182
       8 -> 21         0.22776
       8 -> 24         0.22595
      10 -> 24        -0.11261
      10 -> 27         0.12004
      11 -> 27         0.42384
      11 -> 29         0.22431
      12 -> 36         0.11336

 Excited State  76:      Singlet-A"    14.7435 eV   84.09 nm  f=0.0391  <S**2>=0.000
       6 -> 14         0.41774
       8 -> 21         0.16954
      11 -> 27         0.32456
      12 -> 36        -0.22720
      12 -> 40         0.30165

 Excited State  77:      Singlet-A"    14.8814 eV   83.31 nm  f=0.0006  <S**2>=0.000
       6 -> 14         0.10834
       8 -> 21        -0.23754
       8 -> 24         0.23038
      10 -> 27        -0.12107
      11 -> 27        -0.12452
      11 -> 29         0.50891
      12 -> 38        -0.14421
      12 -> 40         0.10352

 Excited State  78:      Singlet-A"    14.9258 eV   83.07 nm  f=0.0005  <S**2>=0.000
       8 -> 24        -0.10430
       9 -> 17         0.14965
       9 -> 23         0.40341
      10 -> 27         0.20967
      12 -> 38        -0.37751
      12 -> 40         0.16138
      12 -> 42        -0.11138

 Excited State  79:      Singlet-A'    14.9655 eV   82.85 nm  f=0.1551  <S**2>=0.000
       7 -> 17        -0.17353
       7 -> 19        -0.16019
       8 -> 22        -0.30698
       8 -> 23        -0.16610
      10 -> 26        -0.12782
      11 -> 28         0.41029
      11 -> 30        -0.19866
      12 -> 39        -0.14245

 Excited State  80:      Singlet-A'    15.0511 eV   82.38 nm  f=0.0384  <S**2>=0.000
       7 -> 17         0.19637
       7 -> 19         0.13545
       8 -> 22        -0.38153
       8 -> 23        -0.10155
      10 -> 26         0.43626
      11 -> 30         0.15795

 Excited State  81:      Singlet-A'    15.0959 eV   82.13 nm  f=0.0239  <S**2>=0.000
       7 -> 17        -0.31537
       8 -> 22         0.17086
       9 -> 24         0.10735
      10 -> 26         0.37287
      11 -> 28        -0.15205
      11 -> 30        -0.17775
      12 -> 39        -0.31758

 Excited State  82:      Singlet-A"    15.1138 eV   82.03 nm  f=0.0055  <S**2>=0.000
       7 -> 18         0.13419
       7 -> 21        -0.10910
       9 -> 23         0.10618
      10 -> 27         0.34772
      11 -> 27        -0.10852
      11 -> 29         0.12510
      12 -> 38         0.45112
      12 -> 40         0.13883

 Excited State  83:      Singlet-A'    15.1549 eV   81.81 nm  f=0.1587  <S**2>=0.000
       8 -> 23         0.57905
      11 -> 28         0.18707
      11 -> 32        -0.15631
      12 -> 39        -0.17839

 Excited State  84:      Singlet-A"    15.1752 eV   81.70 nm  f=0.0024  <S**2>=0.000
       6 -> 14         0.10380
       7 -> 18        -0.10339
       9 -> 23         0.46637
      10 -> 27        -0.28810
      12 -> 38         0.22390
      12 -> 40        -0.22061

 Excited State  85:      Singlet-A'    15.1843 eV   81.65 nm  f=0.0421  <S**2>=0.000
       7 -> 17        -0.14931
       7 -> 19        -0.22139
       8 -> 23         0.15011
       9 -> 24        -0.10751
      10 -> 26         0.27559
      11 -> 28         0.13749
      12 -> 39         0.44097
      12 -> 41         0.14252

 Excited State  86:      Singlet-A"    15.2071 eV   81.53 nm  f=0.0000  <S**2>=0.000

 The electronic state is 1-A'.
 Alpha  occ. eigenvalues --  -10.28737 -10.27781 -10.27121  -0.88886  -0.78369
 Alpha  occ. eigenvalues --   -0.64626  -0.55701  -0.50834  -0.50049  -0.45544
 Alpha  occ. eigenvalues --   -0.42733  -0.34023
 Alpha virt. eigenvalues --    0.07412   0.08131   0.09188   0.09454   0.14648
 Alpha virt. eigenvalues --    0.15218   0.15897   0.17483   0.19351   0.20013
 Alpha virt. eigenvalues --    0.20668   0.21717   0.23216   0.25456   0.26828

 Mulliken charges:
               1
     1  C   -1.030804
     2  C    0.136598
     3  C   -0.964115
     4  H    0.294537
     5  H    0.323567
     6  H    0.294537
     7  H    0.357342
     8  H    0.281578
     9  H    0.306762
 Sum of Mulliken charges =   0.00000

 Dipole moment (field-independent basis, Debye):
    X=             -0.4153    Y=             -0.0512    Z=             -0.0000  Tot=              0.4185
 Quadrupole moment (field-independent basis, Debye-Ang):
   XX=            -19.0757   YY=            -19.0140   ZZ=            -21.7957
   XY=             -0.2251   XZ=              0.0000   YZ=             -0.0000

 Normal termination of Gaussian 16 at Sun Feb 27 06:46:21 2022.
