 Gaussian 16, Revision C.01,
 Gaussian 16:  EM64L-G16RevC.01  3-Jul-2019

 ----------------------------------------------------------------------
 #P TD(Nstates=10000) wB97XD/Gen SCF(maxcycles=100) Int(Grid=ultrafine)
 ----------------------------------------------------------------------

 ---------------------
 xGDB7_00001_tier4.com
 ---------------------
 Symbolic Z-matrix:
 Charge =  0 Multiplicity = 1

                         Standard orientation:
 ---------------------------------------------------------------------
 Center     Atomic      Atomic             Coordinates (Angstroms)
 Number     Number       Type             X           Y           Z
 ---------------------------------------------------------------------
      1          6           0       -1.208422   -0.239069   -0.021917
      2          6           0        0.083893    0.553452    0.046734
      3          8           0        1.233467   -0.256002   -0.105864
      4          1           0       -2.071999    0.425135    0.051700
      5          1           0       -1.270670   -0.957756    0.799731
      6          1           0       -1.270625   -0.788280   -0.962327
      7          1           0        0.130030    1.119197    0.986112
      8          1           0        0.125951    1.277026   -0.768547
      9          1           0        1.236751   -0.913605    0.591341
 ---------------------------------------------------------------------

 SCF Done:  E(RwB97XD) =  -155.057779023     A.U. after   12 cycles

 Excitation energies and oscillator strengths:

 Excited State   1:      Singlet-A      6.9944 eV  177.26 nm  f=0.0097  <S**2>=0.000
      13 -> 14         0.63562
      13 -> 15        -0.22795
 This state for optimization and/or second-order correction.
 Total Energy, E(TD-HF/TD-DFT) =  -154.800740663
 Copying the excited state density for this state as the 1-particle RhoCI density.

 Excited State   2:      Singlet-A      8.1648 eV  151.85 nm  f=0.0236  <S**2>=0.000
      13 -> 14         0.19788
      13 -> 15         0.29243
      13 -> 16         0.58430

 Excited State   3:      Singlet-A      8.4806 eV  146.20 nm  f=0.0115  <S**2>=0.000
      12 -> 14         0.14674
      13 -> 14         0.13937
      13 -> 15         0.52799
      13 -> 16        -0.34361
      13 -> 18         0.17366

 Excited State   4:      Singlet-A      8.5634 eV  144.78 nm  f=0.0198  <S**2>=0.000
      12 -> 14         0.64112
      12 -> 15        -0.11818
      13 -> 15        -0.16146

 Excited State   5:      Singlet-A      8.6202 eV  143.83 nm  f=0.0518  <S**2>=0.000
      13 -> 17         0.68538

 Excited State   6:      Singlet-A      9.4224 eV  131.58 nm  f=0.0193  <S**2>=0.000
      10 -> 14        -0.11008
      11 -> 14         0.21549
      12 -> 14         0.11312
      12 -> 15         0.43282
      12 -> 16         0.40255
      13 -> 18        -0.15988

 Excited State   7:      Singlet-A      9.4971 eV  130.55 nm  f=0.0319  <S**2>=0.000
      12 -> 15         0.14887
      12 -> 16         0.13415
      13 -> 14        -0.14012
      13 -> 18         0.53820
      13 -> 19         0.24078
      13 -> 20         0.20335
      13 -> 22        -0.11824

 Excited State   8:      Singlet-A      9.6476 eV  128.51 nm  f=0.0320  <S**2>=0.000
      13 -> 15         0.11803
      13 -> 16        -0.10037
      13 -> 18        -0.27995
      13 -> 19         0.55774
      13 -> 21         0.12638
      13 -> 22        -0.14169

 Excited State   9:      Singlet-A      9.7091 eV  127.70 nm  f=0.0736  <S**2>=0.000
      10 -> 14         0.13224
      11 -> 14        -0.16760
      12 -> 15        -0.33215
      12 -> 16         0.54035

 Excited State  10:      Singlet-A      9.9030 eV  125.20 nm  f=0.0149  <S**2>=0.000
      13 -> 18        -0.17616
      13 -> 20         0.62524

 Excited State  11:      Singlet-A      9.9380 eV  124.76 nm  f=0.0831  <S**2>=0.000
      11 -> 14         0.55630
      12 -> 15        -0.28058
      12 -> 17        -0.22588

 Excited State  12:      Singlet-A     10.0566 eV  123.29 nm  f=0.0118  <S**2>=0.000
      10 -> 14         0.14015
      11 -> 14         0.20411
      12 -> 17         0.61155
      13 -> 20        -0.10749

 Excited State  13:      Singlet-A     10.2639 eV  120.80 nm  f=0.0261  <S**2>=0.000
      10 -> 14         0.57164
      10 -> 15         0.10192
      11 -> 15         0.15554
      12 -> 15         0.17065
      12 -> 17        -0.11991
      13 -> 21         0.16581

 Excited State  14:      Singlet-A     10.3165 eV  120.18 nm  f=0.0003  <S**2>=0.000
      10 -> 14        -0.17820
      13 -> 19        -0.23320
      13 -> 21         0.49842
      13 -> 22        -0.27787
      13 -> 23        -0.15525
      13 -> 24        -0.10139

 Excited State  15:      Singlet-A     10.4943 eV  118.14 nm  f=0.0051  <S**2>=0.000
      13 -> 21         0.18090
      13 -> 23         0.63243

 Excited State  16:      Singlet-A     10.5752 eV  117.24 nm  f=0.0414  <S**2>=0.000
      13 -> 21         0.33408
      13 -> 22         0.55559
      13 -> 23        -0.11237

 Excited State  17:      Singlet-A     10.7276 eV  115.58 nm  f=0.0534  <S**2>=0.000
      10 -> 15        -0.13560
      11 -> 15         0.47827
      12 -> 18        -0.41566
      12 -> 19        -0.12840

 Excited State  18:      Singlet-A     10.8645 eV  114.12 nm  f=0.0437  <S**2>=0.000
      10 -> 14        -0.11523
      10 -> 15         0.19213
      11 -> 16         0.39281
      12 -> 18         0.25401
      12 -> 19        -0.38130
      13 -> 22         0.12994

 Excited State  19:      Singlet-A     10.8842 eV  113.91 nm  f=0.0131  <S**2>=0.000
      10 -> 14        -0.10257
      10 -> 15         0.18226
      11 -> 15         0.38381
      11 -> 16        -0.15550
      12 -> 18         0.31943
      12 -> 19         0.30584

 Excited State  20:      Singlet-A     11.0456 eV  112.25 nm  f=0.0720  <S**2>=0.000
      10 -> 15        -0.27080
      10 -> 16         0.12795
      11 -> 16         0.47488
      12 -> 19         0.31897

 Excited State  21:      Singlet-A     11.1524 eV  111.17 nm  f=0.0607  <S**2>=0.000
      10 -> 15         0.42467
      10 -> 16         0.29038
      11 -> 16         0.14052
      12 -> 18        -0.25767
      12 -> 19         0.16969
      12 -> 20        -0.10887

 Excited State  22:      Singlet-A     11.2434 eV  110.27 nm  f=0.0249  <S**2>=0.000
      10 -> 16         0.21663
      11 -> 17        -0.10618
      12 -> 20        -0.23302
      13 -> 22        -0.11292
      13 -> 24         0.42397
      13 -> 25        -0.23680
      13 -> 26         0.22418

 Excited State  23:      Singlet-A     11.3051 eV  109.67 nm  f=0.0373  <S**2>=0.000
      10 -> 15        -0.17866
      10 -> 16         0.46237
      11 -> 17        -0.10237
      12 -> 18         0.13265
      12 -> 21        -0.17136
      12 -> 22         0.15280
      13 -> 24        -0.25746
      13 -> 25         0.11433

 Excited State  24:      Singlet-A     11.3283 eV  109.45 nm  f=0.0238  <S**2>=0.000
      10 -> 15         0.10661
      10 -> 16         0.19026
      11 -> 17         0.21687
      12 -> 20         0.54040
      13 -> 24         0.11811
      13 -> 25        -0.11968
      13 -> 26         0.11296

 Excited State  25:      Singlet-A     11.4384 eV  108.39 nm  f=0.0500  <S**2>=0.000
      10 -> 16         0.11559
      11 -> 17         0.53487
      11 -> 18         0.13406
      12 -> 20        -0.25385
      12 -> 21         0.14180
      12 -> 22         0.10623
      13 -> 25         0.14097

 Excited State  26:      Singlet-A     11.5514 eV  107.33 nm  f=0.0185  <S**2>=0.000
      11 -> 17        -0.10365
      12 -> 20         0.10218
      13 -> 24         0.34737
      13 -> 25         0.50123
      13 -> 26        -0.15662

 Excited State  27:      Singlet-A     11.6361 eV  106.55 nm  f=0.0130  <S**2>=0.000
      10 -> 16         0.16134
      11 -> 18        -0.13036
      12 -> 19        -0.18605
      12 -> 21         0.42505
      12 -> 22        -0.36150
      12 -> 23        -0.12860

 Excited State  28:      Singlet-A     11.6944 eV  106.02 nm  f=0.0134  <S**2>=0.000
       9 -> 14         0.19145
      10 -> 17         0.49360
      10 -> 18         0.11752
      10 -> 21         0.13770
      11 -> 17         0.10992
      12 -> 21        -0.18971
      12 -> 22        -0.21943
      13 -> 26         0.10310

 Excited State  29:      Singlet-A     11.7747 eV  105.30 nm  f=0.0163  <S**2>=0.000
       9 -> 14         0.55499
       9 -> 18         0.11703
      10 -> 15         0.16120
      10 -> 17        -0.20632
      10 -> 18        -0.10494

 Excited State  30:      Singlet-A     11.8349 eV  104.76 nm  f=0.0254  <S**2>=0.000
      11 -> 18         0.29662
      12 -> 23         0.54039

 Excited State  31:      Singlet-A     11.9399 eV  103.84 nm  f=0.0194  <S**2>=0.000
       9 -> 14        -0.15173
      12 -> 21         0.15553
      12 -> 22         0.11509
      13 -> 24        -0.14171
      13 -> 25         0.26148
      13 -> 26         0.49265
      13 -> 28        -0.16091

 Excited State  32:      Singlet-A     11.9965 eV  103.35 nm  f=0.0053  <S**2>=0.000
       9 -> 14         0.14651
      10 -> 17         0.30244
      11 -> 17        -0.11952
      11 -> 18         0.11268
      12 -> 21         0.33797
      12 -> 22         0.36710
      12 -> 23        -0.12513
      13 -> 26        -0.10733

 Excited State  33:      Singlet-A     12.0932 eV  102.52 nm  f=0.0922  <S**2>=0.000
       8 -> 14         0.16523
       8 -> 15        -0.11733
      11 -> 18         0.46884
      11 -> 23         0.10682
      11 -> 24         0.12106
      12 -> 22        -0.18775
      12 -> 23        -0.26463

 Excited State  34:      Singlet-A     12.2175 eV  101.48 nm  f=0.0306  <S**2>=0.000
       8 -> 14        -0.12227
      11 -> 19         0.52442
      11 -> 20        -0.22184
      11 -> 21         0.10729
      11 -> 23         0.11105
      13 -> 27         0.16610

 Excited State  35:      Singlet-A     12.2989 eV  100.81 nm  f=0.0174  <S**2>=0.000
       8 -> 14         0.13777
       9 -> 15        -0.10184
      10 -> 18        -0.30489
      10 -> 19        -0.16133
      10 -> 20         0.11322
      10 -> 23        -0.13855
      13 -> 27         0.42177
      13 -> 29         0.21362

 Excited State  36:      Singlet-A     12.3365 eV  100.50 nm  f=0.0007  <S**2>=0.000
       8 -> 14         0.41955
      10 -> 18         0.31367
      10 -> 23         0.10670
      11 -> 18        -0.10383
      11 -> 19         0.11275
      11 -> 20         0.20311
      12 -> 23         0.10546
      12 -> 24        -0.14723
      13 -> 27         0.19469

 Excited State  37:      Singlet-A     12.4096 eV   99.91 nm  f=0.0097  <S**2>=0.000
       9 -> 15        -0.14642
      10 -> 18        -0.23264
      10 -> 20         0.11624
      11 -> 19         0.27252
      11 -> 20         0.37261
      11 -> 21        -0.12530
      12 -> 24        -0.10942
      12 -> 25         0.14395
      13 -> 27        -0.13700
      13 -> 28        -0.10778

 Excited State  38:      Singlet-A     12.4346 eV   99.71 nm  f=0.0223  <S**2>=0.000
       8 -> 14         0.38668
      10 -> 18        -0.19942
      11 -> 15        -0.10365
      11 -> 19         0.11391
      11 -> 20        -0.25483
      11 -> 22        -0.10002
      13 -> 27        -0.31334

 Excited State  39:      Singlet-A     12.4790 eV   99.35 nm  f=0.0012  <S**2>=0.000
       9 -> 15        -0.14635
      10 -> 19         0.39453
      10 -> 20        -0.20264
      10 -> 21         0.12159
      11 -> 21         0.11318
      12 -> 24         0.22131
      13 -> 27         0.11350
      13 -> 28        -0.30480

 Excited State  40:      Singlet-A     12.5660 eV   98.67 nm  f=0.0126  <S**2>=0.000
       9 -> 15         0.12803
       9 -> 16         0.12266
      10 -> 19         0.34796
      10 -> 20         0.12392
      10 -> 24        -0.10650
      11 -> 20         0.11771
      12 -> 24         0.16737
      13 -> 26         0.10727
      13 -> 27         0.14262
      13 -> 28         0.38507

 Excited State  41:      Singlet-A     12.6183 eV   98.26 nm  f=0.0125  <S**2>=0.000
       9 -> 15         0.15332
      10 -> 18         0.10450
      10 -> 20         0.36382
      11 -> 21        -0.17062
      12 -> 25        -0.26476
      13 -> 26        -0.10360
      13 -> 28        -0.29326
      13 -> 29         0.13899

 Excited State  42:      Singlet-A     12.6794 eV   97.78 nm  f=0.0926  <S**2>=0.000
       8 -> 16        -0.15120
       9 -> 15        -0.15845
       9 -> 16        -0.23130
      10 -> 19         0.17117
      10 -> 21         0.12049
      10 -> 22        -0.15552
      11 -> 20        -0.24591
      11 -> 21        -0.15481
      11 -> 22         0.25784
      12 -> 24        -0.21912

 Excited State  43:      Singlet-A     12.7194 eV   97.48 nm  f=0.0277  <S**2>=0.000
       8 -> 16        -0.13055
       9 -> 15         0.18986
       9 -> 16         0.36505
      10 -> 20        -0.13049
      10 -> 21        -0.10834
      11 -> 21        -0.20264
      11 -> 22         0.26180
      11 -> 23        -0.12175
      12 -> 25         0.23173
      13 -> 28        -0.14539

 Excited State  44:      Singlet-A     12.7797 eV   97.02 nm  f=0.0226  <S**2>=0.000
       8 -> 16         0.10830
       9 -> 15         0.40092
      10 -> 21         0.17485
      10 -> 22        -0.16387
      11 -> 22        -0.17434
      12 -> 24        -0.28906
      12 -> 25         0.10467
      12 -> 26        -0.11745
      13 -> 27         0.12502
      13 -> 29        -0.10486

 Excited State  45:      Singlet-A     12.8628 eV   96.39 nm  f=0.0111  <S**2>=0.000
       8 -> 17         0.14439
       9 -> 16         0.17923
       9 -> 17        -0.11978
      10 -> 22         0.10019
      11 -> 21         0.30581
      11 -> 22         0.19534
      12 -> 24        -0.25544
      13 -> 29         0.32482

 Excited State  46:      Singlet-A     12.8882 eV   96.20 nm  f=0.0595  <S**2>=0.000
       9 -> 15         0.18114
       9 -> 16        -0.18985
      10 -> 20        -0.10650
      11 -> 22        -0.10216
      12 -> 24         0.16242
      12 -> 25         0.24388
      13 -> 27        -0.15116
      13 -> 29         0.46271

 Excited State  47:      Singlet-A     12.9438 eV   95.79 nm  f=0.0169  <S**2>=0.000
       9 -> 15        -0.22754
       9 -> 16         0.19388
      10 -> 18         0.12502
      10 -> 20         0.32082
      10 -> 21        -0.14400
      11 -> 20        -0.14725
      11 -> 22        -0.18841
      12 -> 25         0.33062
      12 -> 26        -0.10347

 Excited State  48:      Singlet-A     12.9701 eV   95.59 nm  f=0.0399  <S**2>=0.000
       8 -> 14         0.10838
       8 -> 17         0.12345
       9 -> 15         0.11160
       9 -> 16        -0.24697
      10 -> 20         0.21953
      11 -> 21         0.27128
      11 -> 22         0.26947
      12 -> 24         0.18906
      12 -> 25         0.25349
      13 -> 29        -0.16889

 Excited State  49:      Singlet-A     13.1139 eV   94.54 nm  f=0.0260  <S**2>=0.000
       9 -> 16         0.21387
       9 -> 17        -0.16713
      10 -> 18         0.13242
      10 -> 19        -0.14185
      10 -> 20         0.10156
      10 -> 21         0.41316
      10 -> 22        -0.20256
      11 -> 22         0.11157
      11 -> 23         0.16406
      12 -> 24         0.16436

 Excited State  50:      Singlet-A     13.1845 eV   94.04 nm  f=0.0330  <S**2>=0.000
       8 -> 15         0.43997
       8 -> 16         0.34898
      10 -> 21        -0.10624
      11 -> 21        -0.19153
      11 -> 22         0.10068
      12 -> 26        -0.11311

 Excited State  51:      Singlet-A     13.2457 eV   93.60 nm  f=0.0110  <S**2>=0.000
       8 -> 15        -0.14577
       8 -> 16         0.14694
      10 -> 21        -0.15865
      10 -> 22        -0.14280
      10 -> 23        -0.15177
      11 -> 23         0.37045
      12 -> 26         0.34892

 Excited State  52:      Singlet-A     13.3057 eV   93.18 nm  f=0.0661  <S**2>=0.000
       9 -> 17         0.46509
       9 -> 21         0.12763
      10 -> 22        -0.21735
      11 -> 21         0.18914
      11 -> 23        -0.14603
      12 -> 26         0.10997

 Excited State  53:      Singlet-A     13.3913 eV   92.59 nm  f=0.0135  <S**2>=0.000
       8 -> 15         0.20147
       9 -> 17        -0.11554
      10 -> 22        -0.23376
      11 -> 23        -0.18113
      12 -> 26         0.21558
      12 -> 27        -0.12531
      13 -> 30         0.32888
      13 -> 31        -0.11588
      13 -> 32         0.24837
      13 -> 33        -0.11891

 Excited State  54:      Singlet-A     13.4053 eV   92.49 nm  f=0.0388  <S**2>=0.000
       9 -> 17         0.31007
       9 -> 18         0.10922
      10 -> 17        -0.12756
      10 -> 21         0.23065
      10 -> 22         0.26570
      10 -> 23        -0.11071
      11 -> 23         0.11448
      13 -> 30         0.25580
      13 -> 32         0.18565
      13 -> 33        -0.10058

 Excited State  55:      Singlet-A     13.4840 eV   91.95 nm  f=0.0392  <S**2>=0.000
       8 -> 16        -0.16324
       9 -> 19         0.13980
      10 -> 22        -0.16955
      10 -> 23        -0.10624
      12 -> 26        -0.21753
      12 -> 27         0.23222
      13 -> 30         0.36832
      13 -> 31         0.18683
      13 -> 33         0.11751

 Excited State  56:      Singlet-A     13.5156 eV   91.73 nm  f=0.0204  <S**2>=0.000
       7 -> 14        -0.11501
      10 -> 22         0.17382
      10 -> 23         0.17769
      11 -> 23        -0.13911
      12 -> 26         0.16774
      12 -> 27        -0.11623
      13 -> 30         0.24419
      13 -> 31         0.35733
      13 -> 32        -0.20715

 Excited State  57:      Singlet-A     13.6022 eV   91.15 nm  f=0.0478  <S**2>=0.000
       7 -> 14         0.57133
       7 -> 15        -0.11356
       9 -> 18        -0.14203
      13 -> 32        -0.14218

 Excited State  58:      Singlet-A     13.6246 eV   91.00 nm  f=0.0171  <S**2>=0.000
       8 -> 15        -0.33471
       8 -> 16         0.35050
      10 -> 19        -0.10264
      10 -> 22        -0.18853
      10 -> 23         0.19650
      11 -> 19         0.10259
      11 -> 22         0.16162
      11 -> 23        -0.15406
      12 -> 26        -0.17641

 Excited State  59:      Singlet-A     13.6668 eV   90.72 nm  f=0.0525  <S**2>=0.000
       8 -> 16        -0.22633
       9 -> 17         0.10050
       9 -> 19        -0.13316
      10 -> 18        -0.11002
      10 -> 23         0.25050
      11 -> 23         0.28790
      11 -> 25         0.12526
      12 -> 26        -0.19752
      12 -> 27        -0.26230
      13 -> 32         0.10058

 Excited State  60:      Singlet-A     13.7115 eV   90.42 nm  f=0.0366  <S**2>=0.000
      10 -> 18        -0.10106
      10 -> 23         0.37821
      12 -> 25         0.11155
      12 -> 26         0.20363
      12 -> 27         0.34800
      12 -> 28         0.10827
      13 -> 32         0.17803

 Excited State  61:      Singlet-A     13.8375 eV   89.60 nm  f=0.0425  <S**2>=0.000
       7 -> 14         0.16729
       8 -> 17        -0.24664
       8 -> 20        -0.11590
       9 -> 18         0.13575
       9 -> 19         0.10647
      11 -> 25        -0.20922
      12 -> 27        -0.23967
      13 -> 31         0.16975
      13 -> 32         0.24142
      13 -> 33         0.26150

 Excited State  62:      Singlet-A     13.8795 eV   89.33 nm  f=0.0215  <S**2>=0.000
       8 -> 17        -0.15221
       8 -> 18         0.13785
       9 -> 18        -0.11210
       9 -> 20         0.11326
      11 -> 18        -0.11826
      11 -> 19         0.10272
      11 -> 24         0.43557
      11 -> 25        -0.22919
      12 -> 27        -0.10011
      12 -> 29        -0.14650

 Excited State  63:      Singlet-A     13.9390 eV   88.95 nm  f=0.0574  <S**2>=0.000
       7 -> 14        -0.10023
       8 -> 17         0.37814
       8 -> 18         0.11363
       9 -> 18        -0.17803
      11 -> 21        -0.11619
      11 -> 24         0.14356
      12 -> 28        -0.10226
      13 -> 32         0.23693
      13 -> 33         0.31988

 Excited State  64:      Singlet-A     13.9685 eV   88.76 nm  f=0.0217  <S**2>=0.000
       9 -> 18        -0.18307
       9 -> 19        -0.18131
      12 -> 27         0.24374
      12 -> 28        -0.25512
      13 -> 30        -0.11373
      13 -> 31         0.30066
      13 -> 32         0.17144
      13 -> 33        -0.21514
      13 -> 34         0.13143

 Excited State  65:      Singlet-A     13.9901 eV   88.62 nm  f=0.0296  <S**2>=0.000
       8 -> 17         0.14798
       8 -> 18         0.14018
       9 -> 18         0.25823
      10 -> 24        -0.11855
      11 -> 24         0.21851
      11 -> 25         0.13948
      12 -> 27        -0.11595
      12 -> 28         0.30020
      13 -> 30        -0.11839
      13 -> 31         0.21973
      13 -> 33        -0.13860

 Excited State  66:      Singlet-A     14.0524 eV   88.23 nm  f=0.0660  <S**2>=0.000
       7 -> 14        -0.12155
       8 -> 17        -0.30375
       8 -> 19        -0.14007
       9 -> 18        -0.17661
       9 -> 21         0.11006
      10 -> 23        -0.13357
      10 -> 25         0.12176
      11 -> 24         0.11965
      11 -> 25         0.33051
      12 -> 28         0.16972
      13 -> 32         0.11090
      13 -> 33         0.13880

 Excited State  67:      Singlet-A     14.0865 eV   88.02 nm  f=0.0575  <S**2>=0.000
       9 -> 18        -0.13212
       9 -> 19        -0.27641
       9 -> 20         0.15982
      10 -> 25        -0.13815
      11 -> 24        -0.17257
      12 -> 28         0.31808
      12 -> 29        -0.29561

 The electronic state is 1-A.
 Alpha  occ. eigenvalues --  -19.24801 -10.32769 -10.27540  -1.12478  -0.84877
 Alpha  occ. eigenvalues --   -0.72193  -0.59490  -0.54429  -0.52370  -0.46889
 Alpha  occ. eigenvalues --   -0.45771  -0.41177  -0.36150
 Alpha virt. eigenvalues --    0.06354   0.09078   0.09473   0.11149   0.13725
 Alpha virt. eigenvalues --    0.14904   0.15758   0.16881   0.17544   0.18779
 Alpha virt. eigenvalues --    0.21288   0.22082   0.24334   0.25217   0.26728

 Mulliken charges:
               1
     1  C   -1.034970
     2  C   -0.216854
     3  O   -0.544886
     4  H    0.321978
     5  H    0.338241
     6  H    0.288579
     7  H    0.259678
     8  H    0.281213
     9  H    0.307020
 Sum of Mulliken charges =  -0.00000

 Dipole moment (field-independent basis, Debye):
    X=             -1.2614    Y=             -0.1707    Z=              1.1291  Tot=              1.7015
 Quadrupole moment (field-independent basis, Debye-Ang):
   XX=            -22.3676   YY=            -18.6270   ZZ=            -19.2150
   XY=             -0.9738   XZ=              1.7176   YZ=             -1.4849

 Normal termination of Gaussian 16 at Sun Feb 27 06:57:40 2022.
