 Gaussian 16, Revision C.01,
 Gaussian 16:  EM64L-G16RevC.01  3-Jul-2019

 ----------------------------------------------------------------------
 #P TD(Nstates=10000) wB97XD/Gen SCF(maxcycles=100) Int(Grid=ultrafine)
 ----------------------------------------------------------------------

 ---------------------
 xGDB7_00001_tier4.com
 ---------------------
 Symbolic Z-matrix:
 Charge =  0 Multiplicity = 1

                         Standard orientation:
 ---------------------------------------------------------------------
 Center     Atomic      Atomic             Coordinates (Angstroms)
 Number     Number       Type             X           Y           Z
 ---------------------------------------------------------------------
      1          6           0        0.000000    0.000000    0.660866
      2          6           0        0.000000    0.000000   -0.660866
      3          1           0        0.000000    0.922586    1.229258
      4          1           0       -0.000000   -0.922586    1.229258
      5          1           0        0.000000    0.922586   -1.229258
      6          1           0       -0.000000   -0.922586   -1.229258
 ---------------------------------------------------------------------

 SCF Done:  E(RwB97XD) =  -78.5892461560     A.U. after    9 cycles

 Excitation energies and oscillator strengths:

 Excited State   1:      Singlet-B3U    7.5138 eV  165.01 nm  f=0.0936  <S**2>=0.000
       8 -> 10         0.69705
 This state for optimization and/or second-order correction.
 Total Energy, E(TD-HF/TD-DFT) =  -78.3131190910
 Copying the excited state density for this state as the 1-particle RhoCI density.

 Excited State   2:      Singlet-B1U    7.7709 eV  159.55 nm  f=0.3730  <S**2>=0.000
       8 ->  9         0.69995

 Excited State   3:      Singlet-B1G    8.1556 eV  152.02 nm  f=0.0000  <S**2>=0.000
       7 ->  9         0.69640

 Excited State   4:      Singlet-B2G    8.2570 eV  150.16 nm  f=0.0000  <S**2>=0.000
       8 -> 11         0.69894

 Excited State   5:      Singlet-B1G    8.7361 eV  141.92 nm  f=0.0000  <S**2>=0.000
       8 -> 12         0.68907
       8 -> 25        -0.11670

 Excited State   6:      Singlet-B3G    9.6562 eV  128.40 nm  f=0.0000  <S**2>=0.000
       7 -> 10         0.69401

 Excited State   7:      Singlet-B2G    9.7034 eV  127.77 nm  f=0.0000  <S**2>=0.000
       6 ->  9         0.69823

 Excited State   8:      Singlet-B3U    9.8196 eV  126.26 nm  f=0.1263  <S**2>=0.000
       8 -> 14         0.69660

 Excited State   9:      Singlet-AU    10.3146 eV  120.20 nm  f=0.0000  <S**2>=0.000
       8 -> 13         0.69971

 Excited State  10:      Singlet-B2U   10.3178 eV  120.17 nm  f=0.1280  <S**2>=0.000
       5 -> 10         0.10107
       7 -> 11         0.69029

 Excited State  11:      Singlet-B3U   10.5261 eV  117.79 nm  f=0.0934  <S**2>=0.000
       8 -> 15         0.69767

 Excited State  12:      Singlet-B2U   11.0172 eV  112.54 nm  f=0.1285  <S**2>=0.000
       8 -> 17         0.69740

 Excited State  13:      Singlet-B1U   11.0184 eV  112.52 nm  f=0.1546  <S**2>=0.000
       7 -> 12         0.69275

 Excited State  14:      Singlet-AG    11.0477 eV  112.23 nm  f=0.0000  <S**2>=0.000
       6 -> 10         0.15526
       7 -> 13        -0.12757
       8 -> 16         0.66415

 Excited State  15:      Singlet-AU    11.3205 eV  109.52 nm  f=0.0000  <S**2>=0.000
       5 ->  9         0.70002

 Excited State  16:      Singlet-B2G   11.6918 eV  106.04 nm  f=0.0000  <S**2>=0.000
       8 -> 18         0.69365
       8 -> 29        -0.10721

 Excited State  17:      Singlet-B1G   11.7327 eV  105.67 nm  f=0.0000  <S**2>=0.000
       8 -> 19         0.69327

 Excited State  18:      Singlet-AG    11.7453 eV  105.56 nm  f=0.0000  <S**2>=0.000
       6 -> 10         0.67575
       7 -> 13         0.11429
       8 -> 16        -0.13105

 Excited State  19:      Singlet-B3G   12.0405 eV  102.97 nm  f=0.0000  <S**2>=0.000
       7 -> 14         0.67956
       7 -> 15        -0.13300

 Excited State  20:      Singlet-B1U   12.2134 eV  101.51 nm  f=0.1850  <S**2>=0.000
       6 -> 11         0.69359

 Excited State  21:      Singlet-B3G   12.4737 eV   99.40 nm  f=0.0000  <S**2>=0.000
       5 -> 11         0.19091
       7 -> 14         0.14817
       7 -> 15         0.65459

 Excited State  22:      Singlet-AG    12.7103 eV   97.55 nm  f=0.0000  <S**2>=0.000
       7 -> 13         0.67377
       8 -> 16         0.15186

 Excited State  23:      Singlet-B2G   12.7143 eV   97.52 nm  f=0.0000  <S**2>=0.000
       8 -> 20         0.69274

 Excited State  24:      Singlet-B2U   12.8182 eV   96.73 nm  f=0.1960  <S**2>=0.000
       5 -> 10        -0.15905
       6 -> 12         0.67326

 Excited State  25:      Singlet-AU    12.9292 eV   95.89 nm  f=0.0000  <S**2>=0.000
       7 -> 16         0.69765

 Excited State  26:      Singlet-B1U   12.9432 eV   95.79 nm  f=0.0144  <S**2>=0.000
       8 -> 21         0.68799

 Excited State  27:      Singlet-B2U   13.1087 eV   94.58 nm  f=0.1065  <S**2>=0.000
       5 -> 10         0.67034
       6 -> 12         0.15584

 Excited State  28:      Singlet-B2G   13.1829 eV   94.05 nm  f=0.0000  <S**2>=0.000
       7 -> 17         0.69232

 Excited State  29:      Singlet-B3G   13.5477 eV   91.52 nm  f=0.0000  <S**2>=0.000
       8 -> 22         0.69304

 Excited State  30:      Singlet-B3U   13.5622 eV   91.42 nm  f=0.0397  <S**2>=0.000
       8 -> 23         0.69496

 Excited State  31:      Singlet-AG    13.8031 eV   89.82 nm  f=0.0000  <S**2>=0.000
       6 -> 14         0.68828

 Excited State  32:      Singlet-B2G   13.8566 eV   89.48 nm  f=0.0000  <S**2>=0.000
       8 -> 24         0.69546

 Excited State  33:      Singlet-B3G   13.8744 eV   89.36 nm  f=0.0000  <S**2>=0.000
       5 -> 11         0.63266
       6 -> 13        -0.16311
       7 -> 15        -0.20360
       8 -> 22        -0.10723

 Excited State  34:      Singlet-B2U   13.9904 eV   88.62 nm  f=0.3902  <S**2>=0.000
       6 -> 19        -0.10428
       7 -> 18         0.67865

 Excited State  35:      Singlet-B1G   14.1061 eV   87.89 nm  f=0.0000  <S**2>=0.000
       8 -> 12         0.11385
       8 -> 19        -0.10652
       8 -> 25         0.68705

 Excited State  36:      Singlet-B3G   14.2658 eV   86.91 nm  f=0.0000  <S**2>=0.000
       5 -> 11         0.17509
       6 -> 13         0.66983

 Excited State  37:      Singlet-AG    14.3437 eV   86.44 nm  f=0.0000  <S**2>=0.000
       5 -> 12         0.48392
       6 -> 14         0.11210
       6 -> 15         0.47082

 Excited State  38:      Singlet-B1U   14.3457 eV   86.43 nm  f=0.4285  <S**2>=0.000
       5 -> 13        -0.13267
       7 -> 19         0.68120

 Excited State  39:      Singlet-B1G   14.4512 eV   85.79 nm  f=0.0000  <S**2>=0.000
       5 -> 16         0.21359
       6 -> 17        -0.18783
       7 -> 21         0.63992

 Excited State  40:      Singlet-AG    14.6798 eV   84.46 nm  f=0.0000  <S**2>=0.000
       8 -> 27         0.69892

 Excited State  41:      Singlet-B2U   14.6855 eV   84.43 nm  f=0.0012  <S**2>=0.000
       5 -> 15         0.21105
       7 -> 20         0.65568

 Excited State  42:      Singlet-B3U   14.8181 eV   83.67 nm  f=0.0825  <S**2>=0.000
       6 -> 16         0.65144
       7 -> 22        -0.14596
       8 -> 26         0.18458

 Excited State  43:      Singlet-B3U   14.9067 eV   83.17 nm  f=0.0002  <S**2>=0.000
       4 ->  9         0.50783
       8 -> 26        -0.45763

 Excited State  44:      Singlet-AG    14.9163 eV   83.12 nm  f=0.0000  <S**2>=0.000
       5 -> 12        -0.47259
       6 -> 15         0.48006
       8 -> 33        -0.13968

 Excited State  45:      Singlet-B1G   15.0497 eV   82.38 nm  f=0.0000  <S**2>=0.000
       6 -> 17         0.67424
       7 -> 21         0.19949

 Excited State  46:      Singlet-B2U   15.3505 eV   80.77 nm  f=0.0310  <S**2>=0.000
       5 -> 14         0.62438
       6 -> 19        -0.24593
       7 -> 18        -0.12864
       7 -> 24         0.12118

 Excited State  47:      Singlet-B3U   15.4301 eV   80.35 nm  f=0.0003  <S**2>=0.000
       4 ->  9        -0.23200
       5 -> 17         0.26608
       6 -> 16         0.23814
       7 -> 22         0.48514
       8 -> 26        -0.27910

 Excited State  48:      Singlet-B1U   15.6856 eV   79.04 nm  f=0.0026  <S**2>=0.000
       5 -> 13        -0.20418
       6 -> 18         0.64718

 Excited State  49:      Singlet-B3G   15.7933 eV   78.50 nm  f=0.0000  <S**2>=0.000
       7 -> 23         0.69284

 Excited State  50:      Singlet-B2U   15.9174 eV   77.89 nm  f=0.0009  <S**2>=0.000
       5 -> 14         0.10088
       5 -> 15         0.41302
       6 -> 19         0.40548
       7 -> 20        -0.18698
       7 -> 24         0.31884

 Excited State  51:      Singlet-B3U   15.9306 eV   77.83 nm  f=0.5300  <S**2>=0.000
       4 ->  9         0.36700
       7 -> 22         0.44828
       8 -> 26         0.38013

 Excited State  52:      Singlet-B1U   15.9675 eV   77.65 nm  f=0.0022  <S**2>=0.000
       4 -> 10         0.12221
       5 -> 13         0.60376
       6 -> 18         0.24259
       7 -> 19         0.11533
       7 -> 25         0.17358

 Excited State  53:      Singlet-AU    16.0737 eV   77.13 nm  f=0.0000  <S**2>=0.000
       8 -> 28         0.68857
       8 -> 30        -0.12802

 Excited State  54:      Singlet-B2U   16.2380 eV   76.35 nm  f=0.1865  <S**2>=0.000
       5 -> 14        -0.20687
       5 -> 15        -0.12284
       6 -> 19        -0.25135
       7 -> 24         0.59508

 Excited State  55:      Singlet-B2U   16.2947 eV   76.09 nm  f=0.1205  <S**2>=0.000
       5 -> 14        -0.16352
       5 -> 15         0.50277
       6 -> 19        -0.40773
       7 -> 20        -0.12059
       7 -> 24        -0.12247

 Excited State  56:      Singlet-B2G   16.3191 eV   75.98 nm  f=0.0000  <S**2>=0.000
       4 -> 16         0.11605
       6 -> 21         0.67104
       8 -> 29        -0.13200

 Excited State  57:      Singlet-B1U   16.3613 eV   75.78 nm  f=0.0233  <S**2>=0.000
       4 -> 10         0.58020
       6 -> 20         0.29748
       7 -> 25        -0.23733

 Excited State  58:      Singlet-B1G   16.4576 eV   75.34 nm  f=0.0000  <S**2>=0.000
       5 -> 16         0.66777
       7 -> 21        -0.20068

 Excited State  59:      Singlet-B2G   16.5140 eV   75.08 nm  f=0.0000  <S**2>=0.000
       6 -> 21         0.13300
       8 -> 18         0.10429
       8 -> 29         0.67681

 Excited State  60:      Singlet-B1U   16.5689 eV   74.83 nm  f=0.0058  <S**2>=0.000
       4 -> 10         0.31255
       4 -> 15        -0.10875
       5 -> 13        -0.24588
       6 -> 20        -0.21335
       7 -> 25         0.51017

 Excited State  61:      Singlet-AU    16.6455 eV   74.49 nm  f=0.0000  <S**2>=0.000
       7 -> 27         0.10025
       8 -> 28         0.13893
       8 -> 30         0.67077
       8 -> 35         0.10405

 Excited State  62:      Singlet-AG    16.7879 eV   73.85 nm  f=0.0000  <S**2>=0.000
       4 -> 11        -0.37606
       6 -> 15         0.10862
       8 -> 33         0.55505

 Excited State  63:      Singlet-B3U   16.8277 eV   73.68 nm  f=0.2755  <S**2>=0.000
       4 ->  9         0.17790
       5 -> 17         0.63416
       7 -> 22        -0.18359
       8 -> 26         0.14206

 Excited State  64:      Singlet-B1U   16.8558 eV   73.56 nm  f=0.5735  <S**2>=0.000
       4 -> 10        -0.15553
       6 -> 20         0.57144
       7 -> 25         0.35531

 Excited State  65:      Singlet-AU    16.8963 eV   73.38 nm  f=0.0000  <S**2>=0.000
       5 -> 21        -0.19521
       7 -> 27         0.66448

 Excited State  66:      Singlet-B3G   17.0165 eV   72.86 nm  f=0.0000  <S**2>=0.000
       4 -> 12        -0.13822
       5 -> 18         0.52060
       7 -> 26         0.44148

 Excited State  67:      Singlet-AG    17.0317 eV   72.80 nm  f=0.0000  <S**2>=0.000
       4 -> 11         0.57030
       6 -> 23         0.12365
       7 -> 30        -0.11322
       8 -> 33         0.34409

 Excited State  68:      Singlet-B2U   17.2239 eV   71.98 nm  f=0.0374  <S**2>=0.000
       8 -> 31         0.68925

 Excited State  69:      Singlet-AG    17.3159 eV   71.60 nm  f=0.0000  <S**2>=0.000
       5 -> 19         0.62238
       6 -> 23        -0.13960
       7 -> 28         0.26170

 Excited State  70:      Singlet-B3G   17.4223 eV   71.16 nm  f=0.0000  <S**2>=0.000
       4 -> 12         0.56212
       5 -> 18         0.33079
       7 -> 26        -0.20085

 Excited State  71:      Singlet-AU    17.4556 eV   71.03 nm  f=0.0000  <S**2>=0.000
       4 -> 17         0.13596
       5 -> 21        -0.13184
       6 -> 22         0.66085

 Excited State  72:      Singlet-B1U   17.4889 eV   70.89 nm  f=0.0036  <S**2>=0.000
       8 -> 32         0.70271

 Excited State  73:      Singlet-B3U   17.4930 eV   70.88 nm  f=0.0001  <S**2>=0.000
       8 -> 34         0.69494

 Excited State  74:      Singlet-B3G   17.5972 eV   70.46 nm  f=0.0000  <S**2>=0.000
       4 -> 12         0.36793
       5 -> 18        -0.31188
       7 -> 26         0.48918

 Excited State  75:      Singlet-AU    17.7267 eV   69.94 nm  f=0.0000  <S**2>=0.000
       6 -> 22         0.10449
       8 -> 30        -0.12352
       8 -> 35         0.68572

 Excited State  76:      Singlet-B1G   17.7967 eV   69.67 nm  f=0.0000  <S**2>=0.000
       8 -> 36         0.68725
       8 -> 40        -0.13517

 Excited State  77:      Singlet-AG    17.8312 eV   69.53 nm  f=0.0000  <S**2>=0.000
       5 -> 19         0.20718
       6 -> 23         0.63091
       7 -> 28        -0.12333
       7 -> 30         0.11550

 Excited State  78:      Singlet-B1U   17.9548 eV   69.05 nm  f=0.0514  <S**2>=0.000
       4 -> 14         0.16838
       6 -> 24         0.66920

 Excited State  79:      Singlet-AU    18.1996 eV   68.12 nm  f=0.0000  <S**2>=0.000
       5 -> 21         0.65363
       6 -> 22         0.15864
       7 -> 27         0.17289

 Excited State  80:      Singlet-B2U   18.2085 eV   68.09 nm  f=0.0248  <S**2>=0.000
       6 -> 25         0.65032
       7 -> 29         0.20085

 Excited State  81:      Singlet-B3G   18.2229 eV   68.04 nm  f=0.0000  <S**2>=0.000
       5 -> 20         0.68303
       7 -> 26         0.10356

 Excited State  82:      Singlet-B2G   18.2536 eV   67.92 nm  f=0.0000  <S**2>=0.000
       3 ->  9        -0.14763
       8 -> 37         0.66611

 Excited State  83:      Singlet-AG    18.3695 eV   67.49 nm  f=0.0000  <S**2>=0.000
       5 -> 19        -0.20962
       6 -> 23         0.15834
       7 -> 28         0.62318
       7 -> 30         0.13702

 Excited State  84:      Singlet-B1U   18.5275 eV   66.92 nm  f=0.0003  <S**2>=0.000
       4 -> 14         0.67056
       6 -> 24        -0.16246

 Excited State  85:      Singlet-B3U   18.7923 eV   65.98 nm  f=0.0750  <S**2>=0.000
       4 -> 21        -0.12539
       6 -> 27         0.68805

 Excited State  86:      Singlet-B2G   18.7971 eV   65.96 nm  f=0.0000  <S**2>=0.000
       4 -> 16        -0.10649
       5 -> 22         0.57378
       7 -> 31         0.38236

 Excited State  87:      Singlet-B2U   19.0111 eV   65.22 nm  f=0.0596  <S**2>=0.000
       4 -> 13         0.67245
       5 -> 23         0.10625

 Excited State  88:      Singlet-AG    19.1176 eV   64.85 nm  f=0.0000  <S**2>=0.000
       4 -> 18         0.12362
       6 -> 26         0.67376

 Excited State  89:      Singlet-B1U   19.1277 eV   64.82 nm  f=0.0606  <S**2>=0.000
       4 -> 15         0.66961
       6 -> 20        -0.10848
       6 -> 24        -0.10313

 Excited State  90:      Singlet-B2U   19.1541 eV   64.73 nm  f=0.0229  <S**2>=0.000
       5 -> 23         0.65156
       7 -> 29        -0.22674

 Excited State  91:      Singlet-AU    19.1606 eV   64.71 nm  f=0.0000  <S**2>=0.000
       7 -> 33         0.69648

 Excited State  92:      Singlet-B3G   19.2366 eV   64.45 nm  f=0.0000  <S**2>=0.000
       5 -> 24         0.54586
       6 -> 28         0.10008
       7 -> 34         0.41141

 Excited State  93:      Singlet-B3U   19.3117 eV   64.20 nm  f=0.1637  <S**2>=0.000
       8 -> 39         0.69137

 Excited State  94:      Singlet-AG    19.4223 eV   63.84 nm  f=0.0000  <S**2>=0.000
       4 -> 18        -0.12655
       5 -> 25        -0.16186
       7 -> 28        -0.11481
       7 -> 30         0.62661

 Excited State  95:      Singlet-B1G   19.5102 eV   63.55 nm  f=0.0000  <S**2>=0.000
       5 -> 27         0.25678
       7 -> 32         0.64710

 Excited State  96:      Singlet-B2G   19.5166 eV   63.53 nm  f=0.0000  <S**2>=0.000
       3 ->  9        -0.26435
       4 -> 16         0.62268
       5 -> 22         0.15431
       6 -> 21        -0.11638

 Excited State  97:      Singlet-B2U   19.5503 eV   63.42 nm  f=0.6425  <S**2>=0.000
       4 -> 13        -0.12596
       5 -> 23         0.18608
       6 -> 25        -0.19449
       7 -> 29         0.59792
       7 -> 37        -0.11332

 Excited State  98:      Singlet-B2G   19.6560 eV   63.08 nm  f=0.0000  <S**2>=0.000
       4 -> 16         0.14468
       5 -> 22        -0.35169
       7 -> 31         0.57921

 Excited State  99:      Singlet-AU    19.7564 eV   62.76 nm  f=0.0000  <S**2>=0.000
       4 -> 17         0.68554
       6 -> 22        -0.12487

 Excited State 100:      Singlet-AG    19.8303 eV   62.52 nm  f=0.0000  <S**2>=0.000
       4 -> 18         0.21490
       5 -> 25        -0.33038
       7 -> 35         0.56598

 Excited State 101:      Singlet-B1G   19.8729 eV   62.39 nm  f=0.0000  <S**2>=0.000
       8 -> 36         0.13332
       8 -> 40         0.68794

 Excited State 102:      Singlet-B2G   19.8831 eV   62.36 nm  f=0.0000  <S**2>=0.000
       3 ->  9        -0.13642
       8 -> 37        -0.12134
       8 -> 38         0.67770

 Excited State 103:      Singlet-B3G   19.9570 eV   62.13 nm  f=0.0000  <S**2>=0.000
       4 -> 19        -0.18993
       5 -> 24        -0.35714
       6 -> 28        -0.18250
       7 -> 34         0.51523

 Excited State 104:      Singlet-B3G   19.9793 eV   62.06 nm  f=0.0000  <S**2>=0.000
       4 -> 19         0.21588
       5 -> 24        -0.23136
       6 -> 28         0.59657
       7 -> 34         0.14232

 Excited State 105:      Singlet-AG    20.0578 eV   61.81 nm  f=0.0000  <S**2>=0.000
       4 -> 18        -0.17841
       5 -> 25         0.50084
       6 -> 34         0.14210
       7 -> 35         0.36795

 Excited State 106:      Singlet-B2G   20.1505 eV   61.53 nm  f=0.0000  <S**2>=0.000
       3 ->  9         0.60818
       4 -> 16         0.22767
       7 -> 31        -0.10266
       8 -> 37         0.13136
       8 -> 38         0.17809

 Excited State 107:      Singlet-B3G   20.2442 eV   61.24 nm  f=0.0000  <S**2>=0.000
       4 -> 19        -0.23386
       6 -> 28         0.19409
       6 -> 30        -0.31503
       7 -> 34        -0.12221
       8 -> 41         0.52198

 Excited State 108:      Singlet-B1U   20.3197 eV   61.02 nm  f=0.0269  <S**2>=0.000
       5 -> 28         0.10761
       6 -> 37        -0.11556
       7 -> 36         0.65797

 Excited State 109:      Singlet-B1G   20.3954 eV   60.79 nm  f=0.0000  <S**2>=0.000
       5 -> 27         0.64147
       6 -> 31         0.11451
       7 -> 32        -0.23976

 Excited State 110:      Singlet-B2U   20.4090 eV   60.75 nm  f=0.0423  <S**2>=0.000
       5 -> 26         0.37907
       7 -> 37         0.56836

 Excited State 111:      Singlet-B3G   20.4248 eV   60.70 nm  f=0.0000  <S**2>=0.000
       4 -> 19         0.27759
       6 -> 30         0.42639
       7 -> 34         0.10062
       7 -> 39         0.10675
       8 -> 41         0.43612

 Excited State 112:      Singlet-AG    20.5685 eV   60.28 nm  f=0.0000  <S**2>=0.000
       4 -> 18         0.60193
       4 -> 20        -0.10843
       5 -> 25         0.19735
       6 -> 34         0.16113
       7 -> 30         0.10480
       7 -> 35        -0.13064

 Excited State 113:      Singlet-B1U   20.6338 eV   60.09 nm  f=0.0836  <S**2>=0.000
       6 -> 29         0.58631
       8 -> 42         0.36939

 Excited State 114:      Singlet-B2U   20.8808 eV   59.38 nm  f=0.0370  <S**2>=0.000
       5 -> 26         0.56239
       7 -> 37        -0.36513
       7 -> 38        -0.15471

 Excited State 115:      Singlet-B3G   20.9238 eV   59.26 nm  f=0.0000  <S**2>=0.000
       4 -> 19         0.50144
       6 -> 28        -0.22038
       6 -> 30        -0.40368
       6 -> 35        -0.11143

 Excited State 116:      Singlet-B3U   20.9525 eV   59.17 nm  f=0.0009  <S**2>=0.000
       4 -> 21        -0.12379
       6 -> 33         0.68438

 Excited State 117:      Singlet-B1U   21.0635 eV   58.86 nm  f=0.0009  <S**2>=0.000
       5 -> 30        -0.10764
       6 -> 29        -0.34478
       6 -> 37        -0.10396
       8 -> 42         0.55279

 Excited State 118:      Singlet-B1G   21.2051 eV   58.47 nm  f=0.0000  <S**2>=0.000
       4 -> 22         0.22056
       5 -> 27        -0.11154
       6 -> 31         0.65344

 Excited State 119:      Singlet-AG    21.2757 eV   58.28 nm  f=0.0000  <S**2>=0.000
       3 -> 10         0.55061
       4 -> 20        -0.39992

 Excited State 120:      Singlet-AG    21.3688 eV   58.02 nm  f=0.0000  <S**2>=0.000
       3 -> 10         0.37331
       4 -> 20         0.52921
       4 -> 24         0.10010
       6 -> 34         0.21089

 Excited State 121:      Singlet-B3U   21.3729 eV   58.01 nm  f=0.0091  <S**2>=0.000
       4 -> 21         0.66772
       6 -> 27         0.12907
       6 -> 33         0.12193

 Excited State 122:      Singlet-B1U   21.4477 eV   57.81 nm  f=0.0092  <S**2>=0.000
       5 -> 28         0.62603
       6 -> 37         0.11666
       7 -> 40         0.28357

 Excited State 123:      Singlet-B2G   21.5189 eV   57.62 nm  f=0.0000  <S**2>=0.000
       4 -> 27         0.12100
       6 -> 32         0.69277

 Excited State 124:      Singlet-B3G   21.5412 eV   57.56 nm  f=0.0000  <S**2>=0.000
       5 -> 29        -0.14975
       6 -> 30        -0.10649
       7 -> 39         0.66175

 Excited State 125:      Singlet-B2U   21.7975 eV   56.88 nm  f=0.0037  <S**2>=0.000
       5 -> 34        -0.16422
       6 -> 36        -0.39216
       7 -> 38         0.53932

 Excited State 126:      Singlet-B3G   21.8032 eV   56.87 nm  f=0.0000  <S**2>=0.000
       6 -> 30        -0.11717
       6 -> 35         0.68464

 Excited State 127:      Singlet-B3U   21.8493 eV   56.75 nm  f=0.0094  <S**2>=0.000
       5 -> 31        -0.10273
       7 -> 41         0.11659
       8 -> 43         0.67896

 Excited State 128:      Singlet-B1U   21.9881 eV   56.39 nm  f=0.0047  <S**2>=0.000
       3 -> 11         0.59344
       4 -> 23        -0.12139
       5 -> 28         0.11402
       5 -> 30        -0.18949
       5 -> 35        -0.12772
       7 -> 40        -0.21509

 Excited State 129:      Singlet-AG    22.0137 eV   56.32 nm  f=0.0000  <S**2>=0.000
       3 -> 10        -0.17620
       4 -> 18        -0.10055
       5 -> 25        -0.15824
       6 -> 34         0.59905
       6 -> 39        -0.11422
       7 -> 30        -0.12923

 Excited State 130:      Singlet-B1U   22.0570 eV   56.21 nm  f=0.0098  <S**2>=0.000

 The electronic state is 1-AG.
 Alpha  occ. eigenvalues --  -10.28373 -10.28274  -0.86414  -0.67422  -0.56102
 Alpha  occ. eigenvalues --   -0.50879  -0.43856  -0.36068
 Alpha virt. eigenvalues --    0.07006   0.07874   0.09082   0.12955   0.17038
 Alpha virt. eigenvalues --    0.17213   0.19467   0.21774   0.22543   0.23106
 Alpha virt. eigenvalues --    0.25379   0.26702   0.27371   0.30255   0.31012

 Mulliken charges:
               1
     1  C   -0.592314
     2  C   -0.592314
     3  H    0.296157
     4  H    0.296157
     5  H    0.296157
     6  H    0.296157
 Sum of Mulliken charges =   0.00000

 Dipole moment (field-independent basis, Debye):
    X=             -0.0000    Y=              0.0000    Z=              0.0000  Tot=              0.0000
 Quadrupole moment (field-independent basis, Debye-Ang):
   XX=            -15.6068   YY=            -12.2688   ZZ=            -12.1958
   XY=              0.0000   XZ=              0.0000   YZ=             -0.0000

 Normal termination of Gaussian 16 at Sun Feb 27 06:39:56 2022.
