 Gaussian 16, Revision C.01,
 Gaussian 16:  EM64L-G16RevC.01  3-Jul-2019

 ----------------------------------------------------------------------
 #P TD(Nstates=10000) wB97XD/Gen SCF(maxcycles=100) Int(Grid=ultrafine)
 ----------------------------------------------------------------------

 ---------------------
 xGDB7_00001_tier4.com
 ---------------------
 Symbolic Z-matrix:
 Charge =  0 Multiplicity = 1

                         Standard orientation:
 ---------------------------------------------------------------------
 Center     Atomic      Atomic             Coordinates (Angstroms)
 Number     Number       Type             X           Y           Z
 ---------------------------------------------------------------------
      1          6           0       -1.240791   -0.237624   -0.027525
      2          6           0        0.048946    0.559205    0.053709
      3          7           0        1.202342   -0.317606   -0.116703
      4          1           0       -2.109817    0.415828    0.064703
      5          1           0       -1.292929   -0.976209    0.776809
      6          1           0       -1.300329   -0.769884   -0.977746
      7          1           0        0.066306    1.122818    0.997967
      8          1           0        0.069957    1.296574   -0.752592
      9          1           0        1.236408   -1.003082    0.627159
     10          1           0        2.065080    0.207710   -0.076483
 ---------------------------------------------------------------------

 SCF Done:  E(RwB97XD) =  -135.186412722     A.U. after   12 cycles

 Excitation energies and oscillator strengths:

 Excited State   1:      Singlet-A      6.1460 eV  201.73 nm  f=0.0149  <S**2>=0.000
      13 -> 14         0.63149
      13 -> 15        -0.19610
      13 -> 16         0.22103
 This state for optimization and/or second-order correction.
 Total Energy, E(TD-HF/TD-DFT) =  -134.960550641
 Copying the excited state density for this state as the 1-particle RhoCI density.

 Excited State   2:      Singlet-A      7.2956 eV  169.94 nm  f=0.0311  <S**2>=0.000
      13 -> 14        -0.12647
      13 -> 15         0.26347
      13 -> 16         0.60490
      13 -> 17         0.11043
      13 -> 19        -0.11804

 Excited State   3:      Singlet-A      7.3882 eV  167.81 nm  f=0.0153  <S**2>=0.000
      13 -> 14         0.24960
      13 -> 15         0.52652
      13 -> 16        -0.23466
      13 -> 17         0.19724
      13 -> 18         0.22480

 Excited State   4:      Singlet-A      7.9762 eV  155.44 nm  f=0.0730  <S**2>=0.000
      13 -> 15        -0.21043
      13 -> 17         0.64632
      13 -> 22        -0.12625

 Excited State   5:      Singlet-A      8.6107 eV  143.99 nm  f=0.0274  <S**2>=0.000
      13 -> 15        -0.22148
      13 -> 18         0.60295
      13 -> 19        -0.14370
      13 -> 23        -0.11244
      13 -> 24        -0.12815

 Excited State   6:      Singlet-A      8.9835 eV  138.01 nm  f=0.0058  <S**2>=0.000
      13 -> 19         0.52256
      13 -> 20         0.22813
      13 -> 21         0.36233

 Excited State   7:      Singlet-A      9.2230 eV  134.43 nm  f=0.0020  <S**2>=0.000
      12 -> 14         0.54097
      13 -> 19        -0.19535
      13 -> 20         0.29682
      13 -> 23         0.17669

 Excited State   8:      Singlet-A      9.2988 eV  133.33 nm  f=0.0013  <S**2>=0.000
      12 -> 14         0.41612
      13 -> 19         0.24727
      13 -> 20        -0.36985
      13 -> 21        -0.14855
      13 -> 23        -0.23523

 Excited State   9:      Singlet-A      9.4177 eV  131.65 nm  f=0.0080  <S**2>=0.000
      13 -> 19        -0.21418
      13 -> 20        -0.33870
      13 -> 21         0.52686
      13 -> 26        -0.15100

 Excited State  10:      Singlet-A      9.7737 eV  126.86 nm  f=0.0136  <S**2>=0.000
      11 -> 14         0.63438
      12 -> 15        -0.24289

 Excited State  11:      Singlet-A      9.9161 eV  125.03 nm  f=0.0758  <S**2>=0.000
      10 -> 14         0.63037
      10 -> 15         0.25313

 Excited State  12:      Singlet-A      9.9927 eV  124.08 nm  f=0.0266  <S**2>=0.000
      11 -> 14         0.16694
      12 -> 15         0.32183
      13 -> 17         0.10064
      13 -> 22         0.42533
      13 -> 23         0.32102
      13 -> 26        -0.10543

 Excited State  13:      Singlet-A     10.0276 eV  123.64 nm  f=0.0641  <S**2>=0.000
       9 -> 14         0.11860
      11 -> 14         0.18234
      12 -> 15         0.48749
      13 -> 20         0.11989
      13 -> 23        -0.36220

 Excited State  14:      Singlet-A     10.1070 eV  122.67 nm  f=0.0121  <S**2>=0.000
      12 -> 15        -0.19648
      13 -> 18        -0.13873
      13 -> 20         0.13706
      13 -> 22         0.47328
      13 -> 23        -0.33459
      13 -> 24        -0.13719

 Excited State  15:      Singlet-A     10.2868 eV  120.53 nm  f=0.1132  <S**2>=0.000
      12 -> 16         0.65382
      12 -> 17         0.10752
      13 -> 24         0.10612

 Excited State  16:      Singlet-A     10.3308 eV  120.01 nm  f=0.0192  <S**2>=0.000
      12 -> 16        -0.10229
      13 -> 20         0.15249
      13 -> 24         0.59621
      13 -> 25         0.13914
      13 -> 27         0.15986

 Excited State  17:      Singlet-A     10.5229 eV  117.82 nm  f=0.0786  <S**2>=0.000
      11 -> 15         0.51870
      13 -> 24         0.13076
      13 -> 25        -0.33980
      13 -> 26         0.16659

 Excited State  18:      Singlet-A     10.6335 eV  116.60 nm  f=0.0769  <S**2>=0.000
      11 -> 15         0.40931
      13 -> 24        -0.10194
      13 -> 25         0.47569
      13 -> 26        -0.20959

 Excited State  19:      Singlet-A     10.6973 eV  115.90 nm  f=0.0313  <S**2>=0.000
      10 -> 14        -0.23409
      10 -> 15         0.59252
      11 -> 16        -0.14716

 Excited State  20:      Singlet-A     10.8079 eV  114.72 nm  f=0.0115  <S**2>=0.000
      11 -> 16        -0.33412
      12 -> 17         0.56634

 Excited State  21:      Singlet-A     10.8759 eV  114.00 nm  f=0.0210  <S**2>=0.000
      11 -> 16         0.55532
      11 -> 17         0.13809
      12 -> 16        -0.10589
      12 -> 17         0.32140

 Excited State  22:      Singlet-A     11.0273 eV  112.43 nm  f=0.0212  <S**2>=0.000
      10 -> 16         0.63098
      10 -> 17         0.12334

 Excited State  23:      Singlet-A     11.2134 eV  110.57 nm  f=0.0073  <S**2>=0.000
      10 -> 17        -0.11648
      13 -> 22         0.13564
      13 -> 25         0.26855
      13 -> 26         0.45989
      13 -> 27        -0.31703
      13 -> 28         0.16394

 Excited State  24:      Singlet-A     11.2659 eV  110.05 nm  f=0.0135  <S**2>=0.000
       9 -> 15        -0.11939
      10 -> 17        -0.13439
      11 -> 17        -0.12379
      12 -> 18         0.59155
      13 -> 28         0.12536

 Excited State  25:      Singlet-A     11.3272 eV  109.46 nm  f=0.0633  <S**2>=0.000
      11 -> 16        -0.10465
      11 -> 17         0.63828
      12 -> 18         0.12662
      13 -> 27        -0.12043

 Excited State  26:      Singlet-A     11.3370 eV  109.36 nm  f=0.0545  <S**2>=0.000
      10 -> 17        -0.11763
      13 -> 24        -0.15162
      13 -> 26         0.31142
      13 -> 27         0.54309

 Excited State  27:      Singlet-A     11.4544 eV  108.24 nm  f=0.0317  <S**2>=0.000
       9 -> 14        -0.22673
      10 -> 16        -0.10863
      10 -> 17         0.53174
      11 -> 18         0.10971
      12 -> 18         0.17080
      13 -> 26         0.14833
      13 -> 28        -0.13335

 Excited State  28:      Singlet-A     11.5198 eV  107.63 nm  f=0.0756  <S**2>=0.000
       9 -> 14        -0.12905
      10 -> 17         0.20589
      11 -> 18        -0.17103
      13 -> 28         0.54127
      13 -> 31         0.18703

 Excited State  29:      Singlet-A     11.6576 eV  106.36 nm  f=0.0263  <S**2>=0.000
       9 -> 14         0.53675
      10 -> 16        -0.12984
      10 -> 17         0.25158
      10 -> 18        -0.11890
      12 -> 15        -0.10006
      12 -> 19        -0.20152

 Excited State  30:      Singlet-A     11.7279 eV  105.72 nm  f=0.0042  <S**2>=0.000
       9 -> 14         0.20689
       9 -> 15         0.19713
      10 -> 18         0.19730
      11 -> 18         0.16035
      12 -> 19         0.52564

 Excited State  31:      Singlet-A     11.8039 eV  105.04 nm  f=0.0630  <S**2>=0.000
      10 -> 18         0.25240
      11 -> 18         0.36981
      12 -> 19        -0.26365
      12 -> 20        -0.32750
      12 -> 21        -0.10152
      13 -> 29         0.12644

 Excited State  32:      Singlet-A     11.8941 eV  104.24 nm  f=0.0704  <S**2>=0.000
      10 -> 18         0.10833
      11 -> 18        -0.32222
      13 -> 28        -0.22185
      13 -> 29         0.51539

 Excited State  33:      Singlet-A     11.9102 eV  104.10 nm  f=0.0464  <S**2>=0.000
       9 -> 16        -0.11770
      10 -> 18        -0.26240
      11 -> 18         0.32576
      11 -> 19         0.13770
      12 -> 20         0.18901
      12 -> 21         0.24211
      13 -> 29         0.32363

 Excited State  34:      Singlet-A     11.9541 eV  103.72 nm  f=0.1867  <S**2>=0.000
       8 -> 14         0.10239
       9 -> 16        -0.20870
      10 -> 18         0.46418
      12 -> 19        -0.14957
      12 -> 20         0.30574
      12 -> 21         0.19713

 Excited State  35:      Singlet-A     12.0814 eV  102.62 nm  f=0.0085  <S**2>=0.000
      11 -> 19        -0.18913
      12 -> 19        -0.11053
      12 -> 20        -0.27228
      12 -> 21         0.53316

 Excited State  36:      Singlet-A     12.2135 eV  101.51 nm  f=0.0271  <S**2>=0.000
      11 -> 18        -0.16287
      11 -> 19         0.50533
      11 -> 20         0.20259
      11 -> 21         0.21077
      12 -> 20        -0.15657
      12 -> 21         0.13457
      13 -> 32         0.10163

 Excited State  37:      Singlet-A     12.3390 eV  100.48 nm  f=0.0120  <S**2>=0.000
       9 -> 15        -0.12882
      10 -> 19         0.53858
      10 -> 20         0.12674
      10 -> 24        -0.10290
      11 -> 19         0.10782
      13 -> 30         0.15602
      13 -> 31        -0.15819
      13 -> 32        -0.15803

 Excited State  38:      Singlet-A     12.3775 eV  100.17 nm  f=0.0262  <S**2>=0.000
      10 -> 19         0.28299
      11 -> 19        -0.21130
      11 -> 21         0.21286
      13 -> 28        -0.17193
      13 -> 31         0.39417
      13 -> 32         0.21750

 Excited State  39:      Singlet-A     12.4277 eV   99.76 nm  f=0.0112  <S**2>=0.000
      10 -> 19        -0.11293
      11 -> 19         0.15874
      11 -> 20        -0.32213
      12 -> 20        -0.10337
      13 -> 30         0.44786
      13 -> 31         0.26569

 Excited State  40:      Singlet-A     12.4823 eV   99.33 nm  f=0.0410  <S**2>=0.000
       7 -> 14        -0.14330
       9 -> 15         0.44091
       9 -> 16        -0.20271
      10 -> 18        -0.11576
      10 -> 20         0.16043
      11 -> 20         0.23809
      12 -> 18         0.10470
      13 -> 30         0.18603
      13 -> 32        -0.11401

 Excited State  41:      Singlet-A     12.5061 eV   99.14 nm  f=0.0903  <S**2>=0.000
       9 -> 16         0.38427
      10 -> 20         0.39796
      12 -> 20         0.19448
      12 -> 21         0.12354
      12 -> 22        -0.18540

 Excited State  42:      Singlet-A     12.5634 eV   98.69 nm  f=0.0554  <S**2>=0.000
       8 -> 14        -0.11763
       9 -> 15        -0.16073
      10 -> 20        -0.22483
      11 -> 20         0.43198
      12 -> 23         0.10144
      13 -> 30         0.26549
      13 -> 31         0.12729
      13 -> 32        -0.16207

 Excited State  43:      Singlet-A     12.6171 eV   98.27 nm  f=0.0817  <S**2>=0.000
       8 -> 14        -0.10041
       9 -> 17         0.17541
      10 -> 19        -0.10705
      11 -> 19        -0.13255
      11 -> 21         0.40235
      12 -> 22         0.32751
      13 -> 30         0.19109
      13 -> 31        -0.14099
      13 -> 34         0.10412

 Excited State  44:      Singlet-A     12.6604 eV   97.93 nm  f=0.0240  <S**2>=0.000
       9 -> 15        -0.16426
       9 -> 17         0.23426
      10 -> 20         0.24497
      10 -> 21        -0.24791
      11 -> 21        -0.29788
      12 -> 22         0.34210

 Excited State  45:      Singlet-A     12.7098 eV   97.55 nm  f=0.0347  <S**2>=0.000
       9 -> 15         0.14645
       9 -> 16         0.12752
       9 -> 17         0.12956
      10 -> 21         0.50797
      10 -> 22        -0.13648
      11 -> 21        -0.13070
      12 -> 22         0.24887

 Excited State  46:      Singlet-A     12.7726 eV   97.07 nm  f=0.0652  <S**2>=0.000
       8 -> 14         0.60162

 Excited State  47:      Singlet-A     12.7979 eV   96.88 nm  f=0.0320  <S**2>=0.000
       9 -> 15         0.25897
       9 -> 16         0.35074
      10 -> 19         0.11195
      10 -> 20        -0.30377
      10 -> 21        -0.28347
      11 -> 21        -0.14291
      12 -> 20         0.17233

 Excited State  48:      Singlet-A     12.8833 eV   96.24 nm  f=0.0599  <S**2>=0.000
       9 -> 17         0.13152
       9 -> 18         0.14291
      11 -> 20        -0.10672
      12 -> 23         0.50011
      12 -> 24         0.21714
      13 -> 32        -0.14638

 Excited State  49:      Singlet-A     12.9528 eV   95.72 nm  f=0.0044  <S**2>=0.000
      12 -> 23        -0.20376
      13 -> 30        -0.16705
      13 -> 31         0.13802
      13 -> 32        -0.38106
      13 -> 33         0.41624

 Excited State  50:      Singlet-A     13.0283 eV   95.17 nm  f=0.0383  <S**2>=0.000
       9 -> 18         0.10779
      11 -> 21        -0.10974
      12 -> 24         0.29835
      13 -> 30         0.11946
      13 -> 31        -0.13403
      13 -> 32         0.35459
      13 -> 33         0.31934
      13 -> 34         0.16128
      13 -> 37        -0.13252

 Excited State  51:      Singlet-A     13.0391 eV   95.09 nm  f=0.0166  <S**2>=0.000
      10 -> 22        -0.15960
      11 -> 22        -0.16396
      12 -> 23        -0.24335
      12 -> 24         0.38233
      13 -> 33        -0.32679

 Excited State  52:      Singlet-A     13.1163 eV   94.53 nm  f=0.0296  <S**2>=0.000
       7 -> 14         0.13819
       8 -> 17         0.10028
       9 -> 17        -0.26568
      10 -> 22         0.37365
      10 -> 24        -0.11747
      11 -> 22         0.18197
      12 -> 22         0.22717
      12 -> 24         0.20287

 Excited State  53:      Singlet-A     13.2301 eV   93.71 nm  f=0.0250  <S**2>=0.000
       7 -> 14         0.20733
       8 -> 17        -0.10072
       9 -> 17         0.12476
      10 -> 22        -0.19642
      11 -> 20        -0.10272
      11 -> 22         0.39489
      11 -> 23        -0.23960
      13 -> 34        -0.19373

 Excited State  54:      Singlet-A     13.3018 eV   93.21 nm  f=0.0224  <S**2>=0.000
       7 -> 14         0.19827
      11 -> 22         0.11486
      11 -> 24        -0.19636
      13 -> 30        -0.10398
      13 -> 33        -0.14313
      13 -> 34         0.48330
      13 -> 40        -0.11252

 Excited State  55:      Singlet-A     13.3472 eV   92.89 nm  f=0.0503  <S**2>=0.000
       7 -> 14         0.38213
       7 -> 15        -0.10829
       9 -> 17        -0.15452
       9 -> 18        -0.17182
      10 -> 22        -0.13229
      10 -> 24         0.13510
      11 -> 22        -0.21862
      11 -> 24         0.17019
      11 -> 25        -0.11906
      12 -> 22         0.10906
      12 -> 23         0.11044
      12 -> 25        -0.17479

 Excited State  56:      Singlet-A     13.3922 eV   92.58 nm  f=0.0258  <S**2>=0.000
       9 -> 17         0.37317
       9 -> 18        -0.14573
      10 -> 22         0.21326
      11 -> 24         0.21853
      12 -> 22        -0.14174
      12 -> 25        -0.26555
      13 -> 34         0.11558

 Excited State  57:      Singlet-A     13.4633 eV   92.09 nm  f=0.0574  <S**2>=0.000
       7 -> 14        -0.18437
       8 -> 15         0.28671
       8 -> 16        -0.17231
       9 -> 18        -0.15230
      10 -> 24         0.35560
      11 -> 22         0.17193
      12 -> 24         0.16240
      12 -> 25        -0.16003
      12 -> 26         0.11736

 Excited State  58:      Singlet-A     13.4902 eV   91.91 nm  f=0.0486  <S**2>=0.000
       7 -> 14         0.27104
       9 -> 17         0.16553
       9 -> 19         0.10942
      10 -> 22         0.17960
      10 -> 24         0.10397
      11 -> 23         0.22138
      12 -> 22        -0.11215
      12 -> 24         0.12086
      12 -> 25         0.34969
      12 -> 26        -0.10492
      13 -> 34        -0.15388
      13 -> 35        -0.11078

 Excited State  59:      Singlet-A     13.5560 eV   91.46 nm  f=0.0134  <S**2>=0.000
       9 -> 17        -0.12760
       9 -> 18         0.11189
      10 -> 22        -0.19052
      10 -> 24        -0.17638
      11 -> 22         0.19464
      11 -> 23         0.49759

 Excited State  60:      Singlet-A     13.5824 eV   91.28 nm  f=0.0036  <S**2>=0.000
       8 -> 15         0.11679
       8 -> 16         0.27763
       9 -> 17        -0.16244
       9 -> 19         0.11035
      10 -> 23        -0.22490
      10 -> 24         0.14335
      11 -> 23        -0.12002
      11 -> 24         0.40722
      12 -> 25         0.10794

 Excited State  61:      Singlet-A     13.6403 eV   90.90 nm  f=0.0320  <S**2>=0.000
       8 -> 15         0.17762
       8 -> 16         0.32244
       9 -> 18         0.21351
      10 -> 23        -0.24436
      11 -> 22        -0.19246
      11 -> 24        -0.22336
      12 -> 24        -0.13486
      12 -> 25        -0.15298
      12 -> 27        -0.10602
      13 -> 34        -0.10312

 Excited State  62:      Singlet-A     13.6739 eV   90.67 nm  f=0.0078  <S**2>=0.000
       8 -> 15         0.39072
       8 -> 16        -0.14919
       9 -> 18        -0.10125
       9 -> 19        -0.10934
      10 -> 18         0.10644
      10 -> 23        -0.19003
      10 -> 24        -0.24686
      10 -> 25         0.15426
      13 -> 35        -0.24438

 Excited State  63:      Singlet-A     13.7141 eV   90.41 nm  f=0.0274  <S**2>=0.000
       8 -> 15         0.10837
       9 -> 18        -0.15533
       9 -> 21        -0.11944
      12 -> 25         0.17427
      12 -> 26        -0.16169
      12 -> 27         0.15122
      13 -> 35         0.50397
      13 -> 39         0.14937

 Excited State  64:      Singlet-A     13.8003 eV   89.84 nm  f=0.0239  <S**2>=0.000
       8 -> 15        -0.12188
       8 -> 16         0.24263
       9 -> 18        -0.22293
       9 -> 21        -0.10104
      10 -> 23        -0.14263
      11 -> 23         0.11602
      11 -> 24        -0.18567
      11 -> 25        -0.11565
      12 -> 27         0.16842
      13 -> 35        -0.21050
      13 -> 36         0.23681
      13 -> 37         0.18301
      13 -> 38         0.13831

 Excited State  65:      Singlet-A     13.8196 eV   89.72 nm  f=0.0152  <S**2>=0.000
       8 -> 15         0.25827
       8 -> 16         0.29250
       8 -> 17         0.12883
      10 -> 19        -0.11803
      10 -> 20         0.12447
      10 -> 23         0.38155
      10 -> 24        -0.17652
      13 -> 37         0.13005

 Excited State  66:      Singlet-A     13.8690 eV   89.40 nm  f=0.0153  <S**2>=0.000
       8 -> 15        -0.16685
       8 -> 16         0.15833
       9 -> 18        -0.29353
       9 -> 19        -0.10143
      11 -> 25         0.22491
      12 -> 25         0.18459
      12 -> 26         0.31024
      12 -> 27        -0.17662
      13 -> 36        -0.11586
      13 -> 37        -0.18164

 Excited State  67:      Singlet-A     13.9305 eV   89.00 nm  f=0.0218  <S**2>=0.000
       8 -> 16        -0.11540
      10 -> 23        -0.16147
      11 -> 24         0.13147
      12 -> 26         0.27131
      12 -> 27        -0.22283
      13 -> 34         0.14388
      13 -> 36         0.23526
      13 -> 37         0.33905
      13 -> 40         0.12606

 Excited State  68:      Singlet-A     14.0509 eV   88.24 nm  f=0.0457  <S**2>=0.000
       9 -> 21         0.12419
      10 -> 23         0.11111
      11 -> 25         0.26615
      12 -> 26        -0.22149
      13 -> 31         0.13578
      13 -> 34         0.13307
      13 -> 37        -0.11756
      13 -> 38         0.19564
      13 -> 39         0.24725
      13 -> 40         0.25219

 Excited State  69:      Singlet-A     14.1016 eV   87.92 nm  f=0.0245  <S**2>=0.000
       9 -> 18         0.20285
       9 -> 21        -0.13099
       9 -> 22         0.11135
      10 -> 25        -0.10718
      12 -> 26         0.32603
      12 -> 27         0.31354
      13 -> 38         0.10232
      13 -> 39         0.17879
      13 -> 40         0.18753

 Excited State  70:      Singlet-A     14.1397 eV   87.68 nm  f=0.0715  <S**2>=0.000
       7 -> 16        -0.17807
       8 -> 17        -0.22522
       9 -> 19         0.33055
      10 -> 25         0.18544
      11 -> 25         0.26799
      12 -> 27         0.31692
      13 -> 39        -0.12768

 Excited State  71:      Singlet-A     14.1581 eV   87.57 nm  f=0.0539  <S**2>=0.000
       8 -> 17        -0.15921
       9 -> 18        -0.13336
       9 -> 19         0.33550
       9 -> 20         0.21098
      10 -> 23        -0.11817
      10 -> 24        -0.17862
      10 -> 25        -0.13610
      11 -> 25        -0.21041
      13 -> 37        -0.14505
      13 -> 38         0.11875
      13 -> 39         0.18350

 Excited State  72:      Singlet-A     14.2611 eV   86.94 nm  f=0.0837  <S**2>=0.000
       8 -> 17         0.26689
       9 -> 19         0.12165
      10 -> 25         0.37385
      10 -> 26        -0.27528
      11 -> 25        -0.16573
      13 -> 39         0.20579

 Excited State  73:      Singlet-A     14.2885 eV   86.77 nm  f=0.0593  <S**2>=0.000
       7 -> 15         0.11355
       8 -> 17         0.37329
       9 -> 19         0.13688
       9 -> 20         0.15464

 The electronic state is 1-A.
 Alpha  occ. eigenvalues --  -14.40944 -10.30184 -10.26711  -0.98115  -0.82823
 Alpha  occ. eigenvalues --   -0.69700  -0.57786  -0.55194  -0.51069  -0.45105
 Alpha  occ. eigenvalues --   -0.44625  -0.42730  -0.32237
 Alpha virt. eigenvalues --    0.07006   0.09091   0.10234   0.12786   0.14799
 Alpha virt. eigenvalues --    0.16124   0.17101   0.18215   0.19777   0.20881
 Alpha virt. eigenvalues --    0.21107   0.23202   0.24274   0.25085   0.26430

 Mulliken charges:
               1
     1  C   -1.091066
     2  C   -0.272368
     3  N   -0.598308
     4  H    0.332673
     5  H    0.316614
     6  H    0.296443
     7  H    0.267165
     8  H    0.306157
     9  H    0.219927
    10  H    0.222763
 Sum of Mulliken charges =  -0.00000

 Dipole moment (field-independent basis, Debye):
    X=              0.1435    Y=              0.6095    Z=              1.1175  Tot=              1.2810
 Quadrupole moment (field-independent basis, Debye-Ang):
   XX=            -19.4457   YY=            -20.7188   ZZ=            -21.4115
   XY=              0.7577   XZ=              1.5788   YZ=             -1.7408

 Normal termination of Gaussian 16 at Sun Feb 27 07:01:32 2022.
