 Gaussian 16, Revision C.01,
 Gaussian 16:  EM64L-G16RevC.01  3-Jul-2019

 ----------------------------------------------------------------------
 #P TD(Nstates=10000) wB97XD/Gen SCF(maxcycles=100) Int(Grid=ultrafine)
 ----------------------------------------------------------------------

 ---------------------
 xGDB7_00001_tier4.com
 ---------------------
 Symbolic Z-matrix:
 Charge =  0 Multiplicity = 1

                         Standard orientation:
 ---------------------------------------------------------------------
 Center     Atomic      Atomic             Coordinates (Angstroms)
 Number     Number       Type             X           Y           Z
 ---------------------------------------------------------------------
      1          8           0       -1.023805   -0.438791    0.000000
      2          6           0       -0.000000    0.418952    0.000000
      3          8           0        1.152985    0.109982   -0.000000
      4          1           0       -0.656943   -1.333011    0.000000
      5          1           0       -0.376498    1.449770    0.000000
 ---------------------------------------------------------------------

 SCF Done:  E(RwB97XD) =  -189.785823898     A.U. after   12 cycles

 Excitation energies and oscillator strengths:

 Excited State   1:      Singlet-A"     5.8907 eV  210.48 nm  f=0.0009  <S**2>=0.000
      12 -> 14         0.70212
 This state for optimization and/or second-order correction.
 Total Energy, E(TD-HF/TD-DFT) =  -189.569345695
 Copying the excited state density for this state as the 1-particle RhoCI density.

 Excited State   2:      Singlet-A'     7.8549 eV  157.84 nm  f=0.0269  <S**2>=0.000
      11 -> 14        -0.23274
      12 -> 13         0.63113
      12 -> 16        -0.11373

 Excited State   3:      Singlet-A'     8.4766 eV  146.27 nm  f=0.0725  <S**2>=0.000
      11 -> 14        -0.20064
      12 -> 13        -0.12101
      12 -> 15         0.63988
      12 -> 16         0.10718

 Excited State   4:      Singlet-A"     8.6956 eV  142.58 nm  f=0.0022  <S**2>=0.000
      11 -> 13         0.65767
      11 -> 15         0.15413
      11 -> 18        -0.11151
      11 -> 22         0.12655

 Excited State   5:      Singlet-A'     8.7774 eV  141.25 nm  f=0.1605  <S**2>=0.000
      11 -> 14         0.57774
      12 -> 13         0.17185
      12 -> 15         0.25926
      12 -> 16        -0.18464

 Excited State   6:      Singlet-A"     9.3352 eV  132.81 nm  f=0.0102  <S**2>=0.000
      12 -> 17         0.68069
      12 -> 20         0.14849

 Excited State   7:      Singlet-A"     9.4244 eV  131.56 nm  f=0.0006  <S**2>=0.000
      10 -> 14         0.69571

 Excited State   8:      Singlet-A'     9.4267 eV  131.52 nm  f=0.0932  <S**2>=0.000
      11 -> 14         0.16657
      12 -> 13         0.16057
      12 -> 16         0.62211
      12 -> 18        -0.17914

 Excited State   9:      Singlet-A"     9.7023 eV  127.79 nm  f=0.0031  <S**2>=0.000
      11 -> 13        -0.16247
      11 -> 15         0.67390

 Excited State  10:      Singlet-A'    10.3740 eV  119.51 nm  f=0.0077  <S**2>=0.000
      12 -> 16         0.15677
      12 -> 18         0.51177
      12 -> 21        -0.41164

 Excited State  11:      Singlet-A"    10.4140 eV  119.06 nm  f=0.0364  <S**2>=0.000
       9 -> 13         0.10952
      11 -> 16         0.67418
      11 -> 23        -0.10711

 Excited State  12:      Singlet-A'    10.4324 eV  118.84 nm  f=0.0098  <S**2>=0.000
      11 -> 17         0.61447
      12 -> 19         0.30001

 Excited State  13:      Singlet-A'    10.5055 eV  118.02 nm  f=0.0053  <S**2>=0.000
      11 -> 17        -0.25713
      12 -> 18        -0.21112
      12 -> 19         0.51479
      12 -> 21        -0.27803

 Excited State  14:      Singlet-A'    10.6261 eV  116.68 nm  f=0.0214  <S**2>=0.000
      10 -> 13         0.15349
      11 -> 17        -0.11657
      12 -> 18         0.34581
      12 -> 19         0.29025
      12 -> 21         0.46648
      12 -> 22         0.12734

 Excited State  15:      Singlet-A"    10.8723 eV  114.04 nm  f=0.0078  <S**2>=0.000
      12 -> 17        -0.14828
      12 -> 20         0.68385

 Excited State  16:      Singlet-A'    10.8856 eV  113.90 nm  f=0.0457  <S**2>=0.000
      10 -> 13         0.63332
      10 -> 15         0.11934
      10 -> 22         0.11803
      11 -> 17         0.11527
      12 -> 19        -0.11952

 Excited State  17:      Singlet-A"    11.2272 eV  110.43 nm  f=0.0002  <S**2>=0.000
      11 -> 18         0.53196
      11 -> 19         0.12993
      11 -> 21        -0.37148

 Excited State  18:      Singlet-A'    11.4371 eV  108.41 nm  f=0.0773  <S**2>=0.000
       9 -> 14         0.11812
      10 -> 15        -0.10377
      12 -> 22         0.65487

 Excited State  19:      Singlet-A"    11.5487 eV  107.36 nm  f=0.0000  <S**2>=0.000
       9 -> 13         0.11450
       9 -> 15         0.14958
      11 -> 19         0.63096
      11 -> 21         0.22470

 Excited State  20:      Singlet-A'    11.6836 eV  106.12 nm  f=0.1195  <S**2>=0.000
       9 -> 14        -0.37247
      10 -> 15         0.51505
      10 -> 16        -0.10692
      11 -> 20        -0.13208
      12 -> 22         0.14291

 Excited State  21:      Singlet-A"    11.7180 eV  105.81 nm  f=0.0004  <S**2>=0.000
       8 -> 14         0.12597
      11 -> 13         0.10001
      11 -> 18         0.39125
      11 -> 19        -0.19451
      11 -> 21         0.50100

 Excited State  22:      Singlet-A'    11.8887 eV  104.29 nm  f=0.0170  <S**2>=0.000
       9 -> 14         0.44009
      10 -> 13        -0.12095
      10 -> 15         0.40557
      11 -> 20         0.31034

 Excited State  23:      Singlet-A"    11.9531 eV  103.73 nm  f=0.0017  <S**2>=0.000
       7 -> 14         0.12407
       8 -> 14         0.65817
      11 -> 21        -0.11705

 Excited State  24:      Singlet-A'    12.0904 eV  102.55 nm  f=0.0051  <S**2>=0.000
       9 -> 14        -0.29123
      10 -> 15        -0.11551
      10 -> 16        -0.11382
      11 -> 20         0.59126

 Excited State  25:      Singlet-A"    12.1777 eV  101.81 nm  f=0.0132  <S**2>=0.000
       7 -> 14         0.25215
       9 -> 13        -0.37201
       9 -> 15        -0.10441
      11 -> 22        -0.19139
      12 -> 24         0.42752

 Excited State  26:      Singlet-A"    12.2252 eV  101.42 nm  f=0.0267  <S**2>=0.000
       9 -> 13         0.39421
      10 -> 17         0.10004
      11 -> 22         0.20219
      12 -> 24         0.48107

 Excited State  27:      Singlet-A'    12.3974 eV  100.01 nm  f=0.0303  <S**2>=0.000
       8 -> 13        -0.17541
      10 -> 16         0.45474
      12 -> 23         0.45296

 Excited State  28:      Singlet-A"    12.4434 eV   99.64 nm  f=0.0244  <S**2>=0.000
       7 -> 14        -0.28524
       8 -> 14         0.10510
       9 -> 13        -0.32847
      10 -> 17         0.13647
      11 -> 22         0.49308

 Excited State  29:      Singlet-A"    12.4963 eV   99.22 nm  f=0.0038  <S**2>=0.000
       7 -> 14         0.54760
       8 -> 14        -0.11665
      10 -> 17        -0.12086
      11 -> 22         0.33880
      12 -> 24        -0.16833

 Excited State  30:      Singlet-A"    12.5122 eV   99.09 nm  f=0.0115  <S**2>=0.000
       7 -> 14         0.13409
      10 -> 17         0.65991
      12 -> 24        -0.15691

 Excited State  31:      Singlet-A'    12.5626 eV   98.69 nm  f=0.0359  <S**2>=0.000
       8 -> 13         0.15136
       9 -> 14         0.14932
      10 -> 16        -0.40746
      12 -> 23         0.47794
      12 -> 25         0.10144

 Excited State  32:      Singlet-A"    13.0730 eV   94.84 nm  f=0.0141  <S**2>=0.000
       9 -> 13        -0.11620
       9 -> 15         0.65864
      11 -> 19        -0.12889

 Excited State  33:      Singlet-A'    13.2893 eV   93.30 nm  f=0.0077  <S**2>=0.000
      10 -> 18        -0.17289
      10 -> 21         0.13310
      11 -> 24        -0.38393
      12 -> 25         0.49614

 Excited State  34:      Singlet-A'    13.3520 eV   92.86 nm  f=0.0329  <S**2>=0.000
       8 -> 13         0.45104
       8 -> 15         0.19137
      10 -> 16         0.17779
      10 -> 18         0.15188
      10 -> 19        -0.26110
      12 -> 25         0.25500

 Excited State  35:      Singlet-A'    13.3690 eV   92.74 nm  f=0.0977  <S**2>=0.000
       8 -> 13        -0.12092
       8 -> 15        -0.13328
       8 -> 16        -0.13251
      10 -> 18         0.51023
      10 -> 19         0.30625
      10 -> 21        -0.17317
      12 -> 25         0.15784

 Excited State  36:      Singlet-A'    13.5852 eV   91.26 nm  f=0.0539  <S**2>=0.000
       7 -> 13        -0.11725
      10 -> 18        -0.11903
      10 -> 19         0.12130
      10 -> 21         0.21708
      11 -> 24         0.53368
      12 -> 25         0.26119

 Excited State  37:      Singlet-A"    13.6052 eV   91.13 nm  f=0.0231  <S**2>=0.000
       9 -> 16         0.21652
      11 -> 23         0.62958

 Excited State  38:      Singlet-A'    13.7116 eV   90.42 nm  f=0.0905  <S**2>=0.000
       8 -> 13         0.36794
       8 -> 15        -0.10732
      10 -> 16         0.12261
      10 -> 19         0.43394
      10 -> 21         0.23760
      12 -> 25        -0.17180

 Excited State  39:      Singlet-A'    13.8498 eV   89.52 nm  f=0.0032  <S**2>=0.000
       8 -> 16        -0.13784
       9 -> 17        -0.35967
      10 -> 18         0.29358
      10 -> 19        -0.18837
      10 -> 21         0.40951

 Excited State  40:      Singlet-A"    13.9477 eV   88.89 nm  f=0.0203  <S**2>=0.000
       8 -> 17         0.27187
      10 -> 20         0.64297

 Excited State  41:      Singlet-A'    13.9792 eV   88.69 nm  f=0.0089  <S**2>=0.000
       9 -> 17         0.51833
      10 -> 21         0.35073
      12 -> 26         0.19747

 Excited State  42:      Singlet-A"    14.0145 eV   88.47 nm  f=0.0029  <S**2>=0.000
       9 -> 16         0.60116
       9 -> 23        -0.11001
      11 -> 18        -0.10947
      11 -> 23        -0.19688
      11 -> 25         0.20468

 Excited State  43:      Singlet-A'    14.0520 eV   88.23 nm  f=0.0087  <S**2>=0.000
       7 -> 13         0.11603
       8 -> 15         0.10053
       9 -> 17        -0.19709
      10 -> 22        -0.12255
      12 -> 26         0.60312

 Excited State  44:      Singlet-A"    14.2087 eV   87.26 nm  f=0.0087  <S**2>=0.000
       9 -> 16        -0.13807
       9 -> 21        -0.15074
      11 -> 23         0.14942
      11 -> 25         0.60557

 Excited State  45:      Singlet-A'    14.2784 eV   86.83 nm  f=0.0068  <S**2>=0.000
       7 -> 13         0.47770
       7 -> 15         0.14269
       8 -> 13        -0.14058
       8 -> 15         0.25835
      10 -> 22        -0.22467
      12 -> 26        -0.15451

 Excited State  46:      Singlet-A'    14.3452 eV   86.43 nm  f=0.0796  <S**2>=0.000
       7 -> 13        -0.36204
       7 -> 15        -0.14049
       8 -> 15         0.46549
      10 -> 19         0.16267
      10 -> 22        -0.22160

 Excited State  47:      Singlet-A"    14.3863 eV   86.18 nm  f=0.0052  <S**2>=0.000
      12 -> 27         0.68439

 Excited State  48:      Singlet-A'    14.5513 eV   85.20 nm  f=0.0267  <S**2>=0.000
       7 -> 13         0.11084
       8 -> 15         0.32075
       8 -> 16        -0.14490
      10 -> 19         0.18326
      10 -> 22         0.53410

 Excited State  49:      Singlet-A"    14.7372 eV   84.13 nm  f=0.0405  <S**2>=0.000
       9 -> 18         0.48558
       9 -> 21        -0.39263
      11 -> 25        -0.17152

 Excited State  50:      Singlet-A'    14.7906 eV   83.83 nm  f=0.0215  <S**2>=0.000
       7 -> 13         0.13890
       7 -> 15        -0.42496
      12 -> 28         0.49121
      12 -> 29         0.11327

 Excited State  51:      Singlet-A"    14.8355 eV   83.57 nm  f=0.0344  <S**2>=0.000
       9 -> 19        -0.32324
      11 -> 25         0.12202
      11 -> 26         0.56798

 Excited State  52:      Singlet-A'    14.8500 eV   83.49 nm  f=0.0749  <S**2>=0.000
       7 -> 13        -0.13555
       7 -> 15         0.47031
      12 -> 28         0.45359

 Excited State  53:      Singlet-A"    15.1071 eV   82.07 nm  f=0.0111  <S**2>=0.000
       9 -> 18         0.11359
       9 -> 19         0.52640
       9 -> 21         0.21930
       9 -> 22        -0.11398
      11 -> 26         0.29124
      11 -> 29         0.13341

 Excited State  54:      Singlet-A"    15.1467 eV   81.86 nm  f=0.0000  <S**2>=0.000
       8 -> 17         0.63511
      10 -> 20        -0.27681

 Excited State  55:      Singlet-A'    15.1797 eV   81.68 nm  f=0.0191  <S**2>=0.000
       8 -> 16         0.59624
       8 -> 21         0.11765
       8 -> 23        -0.10213
      10 -> 18         0.19823
      10 -> 22         0.15550

 Excited State  56:      Singlet-A"    15.2940 eV   81.07 nm  f=0.0574  <S**2>=0.000
       9 -> 13         0.10864
       9 -> 18         0.39963
       9 -> 19        -0.23271
       9 -> 21         0.43531
      10 -> 24         0.12285

 Excited State  57:      Singlet-A'    15.3336 eV   80.86 nm  f=0.0564  <S**2>=0.000
       7 -> 15         0.13301
      12 -> 29         0.59921
      12 -> 30         0.27218

 Excited State  58:      Singlet-A"    15.3660 eV   80.69 nm  f=0.0005  <S**2>=0.000
       7 -> 17        -0.23691
      10 -> 24         0.63158

 Excited State  59:      Singlet-A'    15.3926 eV   80.55 nm  f=0.0105  <S**2>=0.000
       9 -> 20         0.51785
      11 -> 27         0.36538
      12 -> 29         0.11922
      12 -> 30        -0.25472

 Excited State  60:      Singlet-A'    15.5068 eV   79.95 nm  f=0.0027  <S**2>=0.000
       9 -> 20         0.13455
      11 -> 27         0.28312
      12 -> 29        -0.20094
      12 -> 30         0.52505
      12 -> 32         0.10459
      12 -> 34         0.15677

 Excited State  61:      Singlet-A"    15.5433 eV   79.77 nm  f=0.0555  <S**2>=0.000
      12 -> 31         0.67637

 Excited State  62:      Singlet-A'    15.5534 eV   79.72 nm  f=0.0487  <S**2>=0.000
       9 -> 20        -0.42795
       9 -> 24         0.10679
      10 -> 23        -0.15222
      11 -> 27         0.47082

 Excited State  63:      Singlet-A'    15.6758 eV   79.09 nm  f=0.0332  <S**2>=0.000
       7 -> 16        -0.26195
       8 -> 18        -0.29176
      10 -> 23         0.50008
      11 -> 27         0.17268

 Excited State  64:      Singlet-A"    15.7526 eV   78.71 nm  f=0.0101  <S**2>=0.000
       7 -> 17         0.64472
      10 -> 24         0.24072

 Excited State  65:      Singlet-A"    15.8056 eV   78.44 nm  f=0.0176  <S**2>=0.000
       9 -> 18         0.14609
       9 -> 22         0.52463
      11 -> 28        -0.35045
      11 -> 30         0.14972

 Excited State  66:      Singlet-A'    15.8550 eV   78.20 nm  f=0.0047  <S**2>=0.000
       7 -> 16         0.57094
       8 -> 18        -0.17258
       8 -> 19         0.12140
       8 -> 21         0.15211
      10 -> 23         0.17624

 Excited State  67:      Singlet-A'    15.9836 eV   77.57 nm  f=0.0259  <S**2>=0.000
       8 -> 18        -0.27154
       8 -> 19        -0.32738
       8 -> 21         0.39994
      10 -> 23        -0.11747
      10 -> 25         0.17760
      12 -> 34         0.15534

 Excited State  68:      Singlet-A"    15.9889 eV   77.54 nm  f=0.0390  <S**2>=0.000
       9 -> 22         0.30357
      11 -> 28         0.56771
      11 -> 29         0.16565

 Excited State  69:      Singlet-A'    16.1427 eV   76.81 nm  f=0.0061  <S**2>=0.000
       7 -> 16        -0.13983
       8 -> 19         0.51643
       8 -> 21         0.20488
      10 -> 23        -0.22926
      10 -> 26         0.12718
      12 -> 29         0.11316
      12 -> 34         0.17002

 Excited State  70:      Singlet-A'    16.2627 eV   76.24 nm  f=0.0307  <S**2>=0.000
       7 -> 21        -0.11813
      10 -> 23        -0.10681
      10 -> 25        -0.14691
      12 -> 30        -0.10471
      12 -> 32         0.61526

 Excited State  71:      Singlet-A"    16.2864 eV   76.13 nm  f=0.0003  <S**2>=0.000
       9 -> 19        -0.12904
       9 -> 22        -0.13952
       9 -> 23         0.12595
      11 -> 26        -0.13577
      11 -> 29         0.61510
      11 -> 30        -0.12273

 Excited State  72:      Singlet-A'    16.3077 eV   76.03 nm  f=0.0162  <S**2>=0.000
       8 -> 13         0.11744
       8 -> 18         0.45205
       8 -> 21         0.41319
      10 -> 16         0.10119
      10 -> 23         0.21171
      10 -> 25         0.11450

 Excited State  73:      Singlet-A'    16.4037 eV   75.58 nm  f=0.0263  <S**2>=0.000
       7 -> 18        -0.10268
       7 -> 21         0.12175
       8 -> 19         0.13873
       8 -> 21        -0.13615
       9 -> 24         0.20851
      10 -> 25         0.48979
      11 -> 31         0.21303
      12 -> 32         0.20831

 Excited State  74:      Singlet-A"    16.4355 eV   75.44 nm  f=0.0017  <S**2>=0.000
       8 -> 20         0.29850
      12 -> 33         0.62344

 Excited State  75:      Singlet-A"    16.4914 eV   75.18 nm  f=0.0007  <S**2>=0.000
       8 -> 20         0.61543
      12 -> 33        -0.29945

 Excited State  76:      Singlet-A'    16.5379 eV   74.97 nm  f=0.0813  <S**2>=0.000
       7 -> 18         0.33024
       7 -> 21        -0.28802
       9 -> 24         0.21407
      11 -> 31         0.28325
      12 -> 34         0.32198

 Excited State  77:      Singlet-A"    16.5606 eV   74.87 nm  f=0.0003  <S**2>=0.000
       9 -> 22        -0.18822
       9 -> 23        -0.10294
      11 -> 30         0.61941
      11 -> 34        -0.17252

 Excited State  78:      Singlet-A'    16.5870 eV   74.75 nm  f=0.0631  <S**2>=0.000
       7 -> 18        -0.21710
       7 -> 21         0.25140
       9 -> 24         0.17003
      10 -> 25        -0.35788
      11 -> 31         0.42861

 Excited State  79:      Singlet-A'    16.8018 eV   73.79 nm  f=0.0573  <S**2>=0.000
       7 -> 18        -0.18249
       7 -> 19        -0.35393
       8 -> 18         0.12575
       8 -> 19        -0.11480
       8 -> 22         0.35765
       9 -> 24        -0.10305
      10 -> 26         0.20465
      12 -> 34         0.24239

 Excited State  80:      Singlet-A'    16.8950 eV   73.39 nm  f=0.0796  <S**2>=0.000
       7 -> 19        -0.20269
       7 -> 21        -0.11398
       8 -> 22         0.12635
       9 -> 24         0.49588
      10 -> 25        -0.10803
      11 -> 31        -0.19032
      12 -> 34        -0.22317
      12 -> 36         0.11713

 Excited State  81:      Singlet-A"    16.9050 eV   73.34 nm  f=0.0040  <S**2>=0.000
       6 -> 14         0.17106
       9 -> 16         0.10815
       9 -> 23         0.46253
       9 -> 25        -0.13547
      11 -> 30         0.18685
      11 -> 32         0.36102
      11 -> 34         0.15590

 Excited State  82:      Singlet-A'    16.9407 eV   73.19 nm  f=0.0346  <S**2>=0.000
       7 -> 19         0.40331
       7 -> 21         0.22090
       9 -> 24         0.20551
      10 -> 26         0.23041
      11 -> 31        -0.27583
      12 -> 34         0.16885

 Excited State  83:      Singlet-A'    17.0599 eV   72.68 nm  f=0.1093  <S**2>=0.000
       7 -> 18         0.16919
       7 -> 19         0.24054
       8 -> 16        -0.10455
       8 -> 22         0.47877
       9 -> 24        -0.18793
      11 -> 31         0.12644
      12 -> 34        -0.19989
      12 -> 36         0.11273

 Excited State  84:      Singlet-A'    17.1323 eV   72.37 nm  f=0.0615  <S**2>=0.000
       7 -> 18         0.20309
       7 -> 19        -0.12228
       7 -> 21         0.13710
       8 -> 22        -0.22114
      10 -> 26         0.50418
      11 -> 31         0.11131
      12 -> 34        -0.11733
      12 -> 36         0.11828

 Excited State  85:      Singlet-A"    17.1433 eV   72.32 nm  f=0.0597  <S**2>=0.000
       6 -> 14         0.60009
       8 -> 24         0.14790
       9 -> 21        -0.11103
       9 -> 23        -0.16624
       9 -> 26         0.10678
      10 -> 27        -0.15494

 Excited State  86:      Singlet-A'    17.2009 eV   72.08 nm  f=0.0173  <S**2>=0.000
       7 -> 13         0.10837
       7 -> 16        -0.13546
       7 -> 18         0.38096
       7 -> 19        -0.15280
       7 -> 21         0.40279
      10 -> 26        -0.20618
      12 -> 34         0.13596
      12 -> 36         0.10666

 Excited State  87:      Singlet-A"    17.2533 eV   71.86 nm  f=0.0001  <S**2>=0.000
       7 -> 20        -0.12640
       9 -> 23        -0.29317
      11 -> 26         0.12281
      11 -> 29         0.15397
      11 -> 30         0.10856
      11 -> 32         0.10996
      11 -> 34         0.50736
      11 -> 37        -0.13006

 Excited State  88:      Singlet-A"    17.3379 eV   71.51 nm  f=0.0018  <S**2>=0.000
       7 -> 20         0.62874
       9 -> 23        -0.13368
      10 -> 27         0.17849
      12 -> 35         0.11566

 Excited State  89:      Singlet-A"    17.4005 eV   71.25 nm  f=0.0083  <S**2>=0.000
       7 -> 20        -0.10199
       9 -> 23        -0.25949
      11 -> 32         0.53019
      11 -> 34        -0.28151

 Excited State  90:      Singlet-A"    17.4664 eV   70.98 nm  f=0.0564  <S**2>=0.000
       6 -> 14         0.13200
       7 -> 20        -0.24255
       8 -> 24        -0.11808
       9 -> 25        -0.14584
      10 -> 27         0.51639
      12 -> 35         0.27935

 Excited State  91:      Singlet-A'    17.5181 eV   70.77 nm  f=0.0063  <S**2>=0.000
       7 -> 21        -0.11267
      11 -> 33        -0.34904
      12 -> 34         0.10610
      12 -> 36         0.54186

 Excited State  92:      Singlet-A"    17.6423 eV   70.28 nm  f=0.0093  <S**2>=0.000
       8 -> 24         0.14131
       9 -> 25         0.45198
      12 -> 35         0.47738

 Excited State  93:      Singlet-A"    17.6736 eV   70.15 nm  f=0.0662  <S**2>=0.000
       6 -> 14         0.10821
       9 -> 25         0.44540
      10 -> 27         0.29709
      11 -> 32         0.12958
      12 -> 35        -0.37355

 Excited State  94:      Singlet-A'    17.7448 eV   69.87 nm  f=0.0564  <S**2>=0.000
       7 -> 22         0.16412
       8 -> 23         0.11107
      10 -> 28         0.23886
      11 -> 33         0.49768

 The electronic state is 1-A'.
 Alpha  occ. eigenvalues --  -19.31780 -19.25723 -10.42976  -1.23226  -1.14196
 Alpha  occ. eigenvalues --   -0.77175  -0.62273  -0.59270  -0.55422  -0.50538
 Alpha  occ. eigenvalues --   -0.42929  -0.38707
 Alpha virt. eigenvalues --    0.05546   0.06104   0.08213   0.10017   0.10880
 Alpha virt. eigenvalues --    0.14019   0.14402   0.15564   0.16602   0.18301
 Alpha virt. eigenvalues --    0.23859   0.24057   0.26016   0.29334   0.30571

 Mulliken charges:
               1
     1  O   -0.445728
     2  C    0.322562
     3  O   -0.534907
     4  H    0.337561
     5  H    0.320513
 Sum of Mulliken charges =  -0.00000

 Dipole moment (field-independent basis, Debye):
    X=             -1.5619    Y=             -0.2885    Z=              0.0000  Tot=              1.5883
 Quadrupole moment (field-independent basis, Debye-Ang):
   XX=            -22.0467   YY=            -12.7302   ZZ=            -16.9982
   XY=             -0.0248   XZ=              0.0000   YZ=              0.0000

 Normal termination of Gaussian 16 at Sun Feb 27 06:38:20 2022.
