 Gaussian 16, Revision C.01,
 Gaussian 16:  EM64L-G16RevC.01  3-Jul-2019

 ----------------------------------------------------------------------
 #P TD(Nstates=10000) wB97XD/Gen SCF(maxcycles=100) Int(Grid=ultrafine)
 ----------------------------------------------------------------------

 ---------------------
 xGDB7_00001_tier4.com
 ---------------------
 Symbolic Z-matrix:
 Charge =  0 Multiplicity = 1

                         Standard orientation:
 ---------------------------------------------------------------------
 Center     Atomic      Atomic             Coordinates (Angstroms)
 Number     Number       Type             X           Y           Z
 ---------------------------------------------------------------------
      1          6           0        0.000284   -0.018657   -1.236532
      2          6           0       -0.000055    0.003295    0.218717
      3          6           0       -0.000323    0.021367    1.415619
      4          1           0        0.273656    0.958689   -1.636635
      5          1           0       -0.987794   -0.279414   -1.618263
      6          1           0        0.715256   -0.752703   -1.610700
      7          1           0       -0.000556    0.037402    2.478776
 ---------------------------------------------------------------------

 SCF Done:  E(RwB97XD) =  -116.655151543     A.U. after   11 cycles

 Excitation energies and oscillator strengths:

 Excited State   1:      Singlet-A      6.7272 eV  184.30 nm  f=0.0000  <S**2>=0.000
      10 -> 14        -0.32290
      10 -> 15         0.35364
      10 -> 18         0.10733
      11 -> 14         0.35367
      11 -> 15         0.32289
      11 -> 17         0.10733
 This state for optimization and/or second-order correction.
 Total Energy, E(TD-HF/TD-DFT) =  -116.407930352
 Copying the excited state density for this state as the 1-particle RhoCI density.

 Excited State   2:      Singlet-A      6.9685 eV  177.92 nm  f=0.0005  <S**2>=0.000
      10 -> 14         0.26195
      10 -> 15         0.40449
      10 -> 17         0.10125
      11 -> 14        -0.40447
      11 -> 15         0.26197
      11 -> 18         0.10125

 Excited State   3:      Singlet-A      6.9685 eV  177.92 nm  f=0.0005  <S**2>=0.000
      10 -> 14         0.40448
      10 -> 15        -0.26196
      10 -> 18        -0.10125
      11 -> 14         0.26196
      11 -> 15         0.40448
      11 -> 17         0.10125

 Excited State   4:      Singlet-A      7.2670 eV  170.61 nm  f=0.0301  <S**2>=0.000
      10 -> 12         0.24389
      11 -> 12         0.62890
      11 -> 13        -0.12315
      11 -> 16        -0.11619

 Excited State   5:      Singlet-A      7.2670 eV  170.61 nm  f=0.0301  <S**2>=0.000
      10 -> 12         0.62890
      10 -> 13        -0.12315
      10 -> 16        -0.11619
      11 -> 12        -0.24389

 Excited State   6:      Singlet-A      8.2657 eV  150.00 nm  f=0.0218  <S**2>=0.000
      11 -> 13         0.65332
      11 -> 16        -0.23446

 Excited State   7:      Singlet-A      8.2657 eV  150.00 nm  f=0.0218  <S**2>=0.000
      10 -> 13         0.65332
      10 -> 16        -0.23447

 Excited State   8:      Singlet-A      8.9248 eV  138.92 nm  f=0.0509  <S**2>=0.000
      10 -> 16         0.10960
      11 -> 12         0.15555
      11 -> 13         0.20555
      11 -> 16         0.62020
      11 -> 19         0.12906

 Excited State   9:      Singlet-A      8.9248 eV  138.92 nm  f=0.0509  <S**2>=0.000
      10 -> 12         0.15555
      10 -> 13         0.20556
      10 -> 16         0.62020
      10 -> 19         0.12908
      11 -> 16        -0.10960

 Excited State  10:      Singlet-A      9.3546 eV  132.54 nm  f=0.6874  <S**2>=0.000
      10 -> 14         0.32246
      10 -> 15         0.29441
      10 -> 17        -0.18835
      10 -> 22        -0.11309
      11 -> 14         0.29441
      11 -> 15        -0.32246
      11 -> 18         0.18836
      11 -> 23        -0.11309

 Excited State  11:      Singlet-A      9.8805 eV  125.48 nm  f=0.0019  <S**2>=0.000
      10 -> 18        -0.46037
      11 -> 17         0.46067

 Excited State  12:      Singlet-A      9.8805 eV  125.48 nm  f=0.0019  <S**2>=0.000
      10 -> 17         0.46053
      11 -> 18         0.46052

 Excited State  13:      Singlet-A      9.9154 eV  125.04 nm  f=0.0000  <S**2>=0.000
      10 -> 18         0.45424
      10 -> 21         0.11021
      11 -> 17         0.45398
      11 -> 20        -0.11017

 Excited State  14:      Singlet-A     10.2650 eV  120.78 nm  f=0.3592  <S**2>=0.000
      10 -> 14        -0.13026
      10 -> 15        -0.11893
      10 -> 17        -0.43865
      11 -> 14        -0.11893
      11 -> 15         0.13027
      11 -> 18         0.43865

 Excited State  15:      Singlet-A     10.3466 eV  119.83 nm  f=0.0000  <S**2>=0.000
      10 -> 18         0.11274
      10 -> 20         0.23703
      10 -> 21        -0.40244
      11 -> 17         0.11272
      11 -> 20         0.40251
      11 -> 21         0.23695

 Excited State  16:      Singlet-A     10.4016 eV  119.20 nm  f=0.0055  <S**2>=0.000
      10 -> 19         0.11169
      10 -> 20         0.30209
      10 -> 21         0.34218
      10 -> 22         0.10922
      10 -> 23         0.12460
      11 -> 20         0.34294
      11 -> 21        -0.30297
      11 -> 22         0.12458
      11 -> 23        -0.10923

 Excited State  17:      Singlet-A     10.4016 eV  119.20 nm  f=0.0055  <S**2>=0.000
      10 -> 20        -0.34333
      10 -> 21         0.30238
      10 -> 22        -0.12461
      10 -> 23         0.10923
      11 -> 19        -0.10181
      11 -> 20         0.30321
      11 -> 21         0.34420
      11 -> 22         0.10923
      11 -> 23         0.12460

 Excited State  18:      Singlet-A     10.4964 eV  118.12 nm  f=0.0053  <S**2>=0.000
      10 -> 20         0.41029
      10 -> 21         0.24153
      11 -> 20        -0.24165
      11 -> 21         0.41030

 Excited State  19:      Singlet-A     10.5885 eV  117.09 nm  f=0.0204  <S**2>=0.000
      11 -> 16        -0.12176
      11 -> 19         0.65739

 Excited State  20:      Singlet-A     10.5885 eV  117.09 nm  f=0.0204  <S**2>=0.000
      10 -> 16        -0.12176
      10 -> 19         0.65598

 Excited State  21:      Singlet-A     11.0074 eV  112.64 nm  f=0.0133  <S**2>=0.000
      10 -> 17        -0.10672
      10 -> 20        -0.14911
      10 -> 22         0.40045
      10 -> 23         0.19660
      11 -> 18        -0.10672
      11 -> 21         0.14840
      11 -> 22         0.19664
      11 -> 23        -0.40044

 Excited State  22:      Singlet-A     11.0074 eV  112.64 nm  f=0.0133  <S**2>=0.000
      10 -> 18         0.10669
      10 -> 21        -0.14923
      10 -> 22        -0.19657
      10 -> 23         0.40035
      11 -> 17        -0.10674
      11 -> 20        -0.14856
      11 -> 22         0.40054
      11 -> 23         0.19668

 Excited State  23:      Singlet-A     11.0403 eV  112.30 nm  f=0.0000  <S**2>=0.000
      10 -> 18         0.11270
      10 -> 22        -0.24035
      10 -> 23         0.40545
      11 -> 17         0.11265
      11 -> 22        -0.40526
      11 -> 23        -0.24030

 Excited State  24:      Singlet-A     11.5576 eV  107.27 nm  f=0.1298  <S**2>=0.000
       9 -> 12         0.65981
       9 -> 13         0.20242

 Excited State  25:      Singlet-A     11.5577 eV  107.27 nm  f=0.1298  <S**2>=0.000
       8 -> 12         0.65981
       8 -> 13         0.20243

 Excited State  26:      Singlet-A     11.8639 eV  104.51 nm  f=0.0133  <S**2>=0.000
       7 -> 14        -0.19913
       7 -> 15         0.10975
      10 -> 24         0.17476
      10 -> 25         0.10435
      11 -> 24         0.51511
      11 -> 25         0.30762
      11 -> 37         0.12834

 Excited State  27:      Singlet-A     11.8639 eV  104.51 nm  f=0.0133  <S**2>=0.000
       7 -> 14        -0.10976
       7 -> 15        -0.19912
      10 -> 24         0.51511
      10 -> 25         0.30762
      10 -> 37         0.12835
      11 -> 24        -0.17475
      11 -> 25        -0.10437

 Excited State  28:      Singlet-A     11.9018 eV  104.17 nm  f=0.2099  <S**2>=0.000
       7 -> 12        -0.18892
      10 -> 22         0.36332
      10 -> 23         0.21541
      10 -> 26         0.13847
      11 -> 22        -0.21540
      11 -> 23         0.36332
      11 -> 27         0.13847

 Excited State  29:      Singlet-A     12.1785 eV  101.81 nm  f=0.0000  <S**2>=0.000
       8 -> 14        -0.37463
       8 -> 15         0.29133
       9 -> 14         0.29156
       9 -> 15         0.37476
      10 -> 27         0.10328
      11 -> 26        -0.10329

 Excited State  30:      Singlet-A     12.2986 eV  100.81 nm  f=0.0060  <S**2>=0.000
       7 -> 14         0.35816
       7 -> 15        -0.14929
       8 -> 14         0.16428
       8 -> 15         0.31904
       9 -> 14        -0.31909
       9 -> 15         0.16448
      11 -> 25         0.21431

 Excited State  31:      Singlet-A     12.2987 eV  100.81 nm  f=0.0060  <S**2>=0.000
       7 -> 14         0.14931
       7 -> 15         0.35819
       8 -> 14         0.31906
       8 -> 15        -0.16442
       9 -> 14         0.16426
       9 -> 15         0.31895
      10 -> 25         0.21442

 Excited State  32:      Singlet-A     12.3012 eV  100.79 nm  f=0.1737  <S**2>=0.000
       6 -> 13        -0.10334
       7 -> 12         0.65647
      10 -> 22         0.11491
      11 -> 23         0.11497

 Excited State  33:      Singlet-A     12.3491 eV  100.40 nm  f=0.0147  <S**2>=0.000
       8 -> 14         0.10596
       8 -> 15        -0.16481
       9 -> 14         0.16474
       9 -> 15         0.10587
      10 -> 24         0.16848
      10 -> 25        -0.31088
      11 -> 24        -0.24062
      11 -> 25         0.44401

 Excited State  34:      Singlet-A     12.3491 eV  100.40 nm  f=0.0147  <S**2>=0.000
       8 -> 14        -0.16473
       8 -> 15        -0.10578
       9 -> 14         0.10580
       9 -> 15        -0.16476
      10 -> 24        -0.24059
      10 -> 25         0.44404
      11 -> 24        -0.16848
      11 -> 25         0.31096

 Excited State  35:      Singlet-A     12.5337 eV   98.92 nm  f=0.0091  <S**2>=0.000
       7 -> 14         0.17690
       7 -> 15         0.46770
       8 -> 14        -0.21702
       8 -> 15         0.12115
       9 -> 14        -0.12109
       9 -> 15        -0.21703
      10 -> 24         0.23090
      11 -> 24        -0.11705

 Excited State  36:      Singlet-A     12.5337 eV   98.92 nm  f=0.0091  <S**2>=0.000
       7 -> 14         0.46771
       7 -> 15        -0.17692
       8 -> 14        -0.12111
       8 -> 15        -0.21703
       9 -> 14         0.21700
       9 -> 15        -0.12113
      10 -> 24         0.11706
      11 -> 24         0.23088

 Excited State  37:      Singlet-A     12.5986 eV   98.41 nm  f=0.0000  <S**2>=0.000
      10 -> 27        -0.41679
      10 -> 28        -0.13279
      10 -> 29        -0.15914
      11 -> 26         0.41681
      11 -> 28         0.15917
      11 -> 29        -0.13274

 Excited State  38:      Singlet-A     12.6625 eV   97.91 nm  f=0.0309  <S**2>=0.000
      10 -> 26         0.38165
      10 -> 28         0.20449
      10 -> 29        -0.17057
      11 -> 27         0.38166
      11 -> 28         0.17059
      11 -> 29         0.20447

 Excited State  39:      Singlet-A     12.8911 eV   96.18 nm  f=0.0346  <S**2>=0.000
       7 -> 13         0.14034
       7 -> 16         0.10783
       8 -> 14         0.27206
       8 -> 15         0.34970
       9 -> 14         0.34953
       9 -> 15        -0.27182
      10 -> 28        -0.10504
      11 -> 29        -0.10552

 Excited State  40:      Singlet-A     12.8943 eV   96.15 nm  f=0.1827  <S**2>=0.000
       9 -> 13         0.19290
       9 -> 16         0.19631
      10 -> 26        -0.21397
      10 -> 27         0.34715
      10 -> 29         0.11848
      11 -> 26         0.34711
      11 -> 27         0.21407
      11 -> 28         0.11844

 Excited State  41:      Singlet-A     12.8943 eV   96.15 nm  f=0.1828  <S**2>=0.000
       8 -> 13         0.19273
       8 -> 16         0.19616
      10 -> 26        -0.34701
      10 -> 27        -0.21409
      10 -> 28        -0.11875
      11 -> 26        -0.21414
      11 -> 27         0.34724
      11 -> 29         0.11819

 Excited State  42:      Singlet-A     12.9696 eV   95.60 nm  f=0.0915  <S**2>=0.000
       9 -> 12        -0.13801
       9 -> 13         0.44145
       9 -> 16         0.39421
      10 -> 26         0.16430
      10 -> 27        -0.11297
      11 -> 26        -0.11298
      11 -> 27        -0.16428

 Excited State  43:      Singlet-A     12.9697 eV   95.60 nm  f=0.0914  <S**2>=0.000
       8 -> 12        -0.13803
       8 -> 13         0.44155
       8 -> 16         0.39431
      10 -> 26         0.11290
      10 -> 27         0.16411
      11 -> 26         0.16410
      11 -> 27        -0.11289

 Excited State  44:      Singlet-A     13.2402 eV   93.64 nm  f=0.0120  <S**2>=0.000
      10 -> 26         0.13839
      10 -> 28        -0.16227
      10 -> 29         0.41811
      11 -> 27        -0.13844
      11 -> 28         0.41824
      11 -> 29         0.16216

 Excited State  45:      Singlet-A     13.2402 eV   93.64 nm  f=0.0120  <S**2>=0.000
      10 -> 27         0.13841
      10 -> 28        -0.41815
      10 -> 29        -0.16219
      11 -> 26         0.13842
      11 -> 28        -0.16224
      11 -> 29         0.41820

 Excited State  46:      Singlet-A     13.3039 eV   93.19 nm  f=0.0000  <S**2>=0.000
      10 -> 27        -0.19780
      10 -> 28         0.27799
      10 -> 29         0.33335
      11 -> 26         0.19776
      11 -> 28        -0.33313
      11 -> 29         0.27800

 Excited State  47:      Singlet-A     13.4867 eV   91.93 nm  f=0.0313  <S**2>=0.000
       6 -> 12        -0.16625
       7 -> 13         0.61409
       7 -> 16         0.16238

 Excited State  48:      Singlet-A     13.7957 eV   89.87 nm  f=0.0625  <S**2>=0.000
       8 -> 18        -0.43663
       9 -> 17         0.43699
      11 -> 30        -0.10431

 Excited State  49:      Singlet-A     13.7957 eV   89.87 nm  f=0.0625  <S**2>=0.000
       8 -> 17         0.43675
       9 -> 18         0.43682
      10 -> 30         0.10436

 Excited State  50:      Singlet-A     13.8177 eV   89.73 nm  f=0.2536  <S**2>=0.000
       6 -> 13        -0.18665
       7 -> 13        -0.10277
       7 -> 16         0.38387
      10 -> 26        -0.17157
      10 -> 28         0.22968
      10 -> 29        -0.19166
      11 -> 27        -0.17157
      11 -> 28         0.19159
      11 -> 29         0.22974

 Excited State  51:      Singlet-A     13.8838 eV   89.30 nm  f=0.0335  <S**2>=0.000
      10 -> 30         0.11106
      11 -> 30         0.64289

 Excited State  52:      Singlet-A     13.8839 eV   89.30 nm  f=0.0334  <S**2>=0.000
      10 -> 30         0.64291
      11 -> 30        -0.11108

 Excited State  53:      Singlet-A     13.9342 eV   88.98 nm  f=0.0005  <S**2>=0.000
       8 -> 17        -0.12614
       9 -> 12         0.12989
       9 -> 13        -0.39214
       9 -> 16         0.41251
       9 -> 18        -0.12612
       9 -> 19        -0.15429
       9 -> 24        -0.10764
      11 -> 30         0.10217
      11 -> 31         0.18383

 Excited State  54:      Singlet-A     13.9342 eV   88.98 nm  f=0.0005  <S**2>=0.000
       8 -> 12         0.12992
       8 -> 13        -0.39220
       8 -> 16         0.41257
       8 -> 18         0.12529
       8 -> 19        -0.15422
       8 -> 24        -0.10767
       9 -> 17        -0.12667
      10 -> 30         0.10196
      10 -> 31         0.18390

 Excited State  55:      Singlet-A     13.9467 eV   88.90 nm  f=0.0000  <S**2>=0.000
       8 -> 18         0.47520
       9 -> 17         0.47443

 Excited State  56:      Singlet-A     14.0326 eV   88.35 nm  f=0.0494  <S**2>=0.000
       6 -> 13        -0.10763
       7 -> 16         0.48386
       8 -> 17         0.11186
       9 -> 18        -0.11184
      10 -> 26         0.12220
      10 -> 28        -0.15305
      10 -> 29         0.12770
      10 -> 34         0.11325
      11 -> 27         0.12220
      11 -> 28        -0.12768
      11 -> 29        -0.15308
      11 -> 33         0.11325

 Excited State  57:      Singlet-A     14.2366 eV   87.09 nm  f=0.0375  <S**2>=0.000
       6 -> 14         0.16427
       6 -> 15        -0.14884
       7 -> 18        -0.17856
       9 -> 13         0.14107
       9 -> 16        -0.16005
      11 -> 31         0.53950
      11 -> 32        -0.10991
      11 -> 37         0.17084

 Excited State  58:      Singlet-A     14.2366 eV   87.09 nm  f=0.0375  <S**2>=0.000
       6 -> 14         0.14883
       6 -> 15         0.16427
       7 -> 17         0.17857
       8 -> 13         0.14111
       8 -> 16        -0.16009
      10 -> 31         0.53949
      10 -> 32        -0.10991
      10 -> 37         0.17070

 Excited State  59:      Singlet-A     14.2798 eV   86.83 nm  f=0.0000  <S**2>=0.000
       8 -> 20         0.16785
       8 -> 21        -0.44266
       9 -> 20         0.44275
       9 -> 21         0.16784

 Excited State  60:      Singlet-A     14.3244 eV   86.55 nm  f=0.0056  <S**2>=0.000
       7 -> 16        -0.10270
       8 -> 17         0.43423
       9 -> 18        -0.43419

 Excited State  61:      Singlet-A     14.4196 eV   85.98 nm  f=0.0454  <S**2>=0.000
       6 -> 15         0.16733
       7 -> 17         0.27029
       7 -> 18         0.51996
      10 -> 31        -0.11594
      11 -> 31         0.23734

 Excited State  62:      Singlet-A     14.4196 eV   85.98 nm  f=0.0454  <S**2>=0.000
       6 -> 14         0.16734
       7 -> 17         0.51996
       7 -> 18        -0.27028
      10 -> 31        -0.23734
      11 -> 31        -0.11594

 Excited State  63:      Singlet-A     14.6186 eV   84.81 nm  f=0.0549  <S**2>=0.000
       6 -> 14         0.23477
       7 -> 21        -0.11200
       8 -> 20        -0.37914
       9 -> 21         0.38034
      10 -> 34         0.15906
      11 -> 33        -0.15892

 Excited State  64:      Singlet-A     14.6187 eV   84.81 nm  f=0.0549  <S**2>=0.000
       6 -> 15        -0.23479
       7 -> 20         0.11201
       8 -> 21         0.38002
       9 -> 20         0.37973
      10 -> 33        -0.15901
      11 -> 34        -0.15899

 Excited State  65:      Singlet-A     14.6414 eV   84.68 nm  f=0.0171  <S**2>=0.000
       6 -> 12        -0.13208
       8 -> 17         0.13363
       8 -> 20         0.42105
       8 -> 21         0.15954
       9 -> 18        -0.13375
       9 -> 20        -0.15925
       9 -> 21         0.41980

 Excited State  66:      Singlet-A     14.8225 eV   83.65 nm  f=0.0076  <S**2>=0.000
       6 -> 12         0.58657
       6 -> 13        -0.17138
       6 -> 16        -0.12416
       7 -> 13         0.20471
       7 -> 16        -0.10976
      10 -> 34         0.10303
      11 -> 33         0.10312

 Excited State  67:      Singlet-A     14.8847 eV   83.30 nm  f=0.0016  <S**2>=0.000
       6 -> 14        -0.20546
       7 -> 17         0.18153
      10 -> 31         0.16139
      10 -> 32         0.46921
      10 -> 33         0.11303
      10 -> 34         0.12593
      10 -> 36         0.14017
      11 -> 32         0.17014
      11 -> 33        -0.12596
      11 -> 34         0.11290

 Excited State  68:      Singlet-A     14.8848 eV   83.30 nm  f=0.0016  <S**2>=0.000
       6 -> 15         0.20545
       7 -> 18        -0.18152
      10 -> 32        -0.17013
      10 -> 33        -0.12603
      10 -> 34         0.11295
      11 -> 31         0.16139
      11 -> 32         0.46923
      11 -> 33        -0.11291
      11 -> 34        -0.12590
      11 -> 36         0.14019

 Excited State  69:      Singlet-A     14.9474 eV   82.95 nm  f=0.0000  <S**2>=0.000
      10 -> 33        -0.43490
      10 -> 34         0.22014
      11 -> 33         0.22043
      11 -> 34         0.43497

 Excited State  70:      Singlet-A     14.9773 eV   82.78 nm  f=0.0064  <S**2>=0.000
       8 -> 20         0.13414
       9 -> 19        -0.10403
       9 -> 21        -0.13311
      10 -> 33        -0.13164
      10 -> 34         0.38769
      11 -> 32        -0.23622
      11 -> 33        -0.38753
      11 -> 34        -0.13135

 Excited State  71:      Singlet-A     14.9774 eV   82.78 nm  f=0.0064  <S**2>=0.000
       8 -> 19        -0.10131
       8 -> 21         0.13511
       9 -> 20         0.13412
      10 -> 32        -0.23624
      10 -> 33         0.38755
      10 -> 34         0.13153
      11 -> 33        -0.13146
      11 -> 34         0.38764

 Excited State  72:      Singlet-A     15.1758 eV   81.70 nm  f=0.0036  <S**2>=0.000
       7 -> 20         0.47826
       7 -> 21        -0.35085
       8 -> 19         0.13141
       9 -> 19        -0.20379
      11 -> 36         0.10105

 Excited State  73:      Singlet-A     15.1759 eV   81.70 nm  f=0.0036  <S**2>=0.000
       7 -> 20         0.35093
       7 -> 21         0.47818
       8 -> 19         0.20207
       9 -> 19         0.13182
      10 -> 36        -0.10104

 Excited State  74:      Singlet-A     15.2359 eV   81.38 nm  f=0.1934  <S**2>=0.000
       6 -> 14         0.35611
       6 -> 15        -0.18870
       7 -> 18         0.12385
       8 -> 20         0.12201
       9 -> 16        -0.10413
       9 -> 19        -0.25006
       9 -> 21        -0.11942
      10 -> 32         0.10272
      11 -> 31        -0.11344
      11 -> 32         0.28707
      11 -> 37         0.18200

 Excited State  75:      Singlet-A     15.2359 eV   81.38 nm  f=0.1935  <S**2>=0.000
       6 -> 14         0.18868
       6 -> 15         0.35610
       7 -> 17        -0.12388
       8 -> 16        -0.10409
       8 -> 19        -0.24772
       8 -> 21         0.12423
       9 -> 20         0.12161

 The electronic state is 1-A.
 Alpha  occ. eigenvalues --  -10.30547 -10.28791 -10.27108  -0.88299  -0.80138
 Alpha  occ. eigenvalues --   -0.61813  -0.54201  -0.52218  -0.52218  -0.35405
 Alpha  occ. eigenvalues --   -0.35405
 Alpha virt. eigenvalues --    0.06550   0.09288   0.10965   0.10965   0.11711
 Alpha virt. eigenvalues --    0.15762   0.15762   0.18996   0.19007   0.19007
 Alpha virt. eigenvalues --    0.22010   0.22010   0.25281   0.25866   0.28731

 Mulliken charges:
               1
     1  C   -0.953931
     2  C   -0.110831
     3  C   -0.344791
     4  H    0.305291
     5  H    0.305299
     6  H    0.305289
     7  H    0.493674
 Sum of Mulliken charges =  -0.00000

 Dipole moment (field-independent basis, Debye):
    X=              0.0002    Y=             -0.0124    Z=             -0.8229  Tot=              0.8230
 Quadrupole moment (field-independent basis, Debye-Ang):
   XX=            -19.5727   YY=            -19.5713   ZZ=            -13.9226
   XY=             -0.0000   XZ=             -0.0012   YZ=              0.0853

 Normal termination of Gaussian 16 at Sun Feb 27 06:42:03 2022.
