 Gaussian 16, Revision C.01,
 Gaussian 16:  EM64L-G16RevC.01  3-Jul-2019

 ----------------------------------------------------------------------
 #P TD(Nstates=10000) wB97XD/Gen SCF(maxcycles=100) Int(Grid=ultrafine)
 ----------------------------------------------------------------------

 ---------------------
 xGDB7_00001_tier4.com
 ---------------------
 Symbolic Z-matrix:
 Charge =  0 Multiplicity = 1

                         Standard orientation:
 ---------------------------------------------------------------------
 Center     Atomic      Atomic             Coordinates (Angstroms)
 Number     Number       Type             X           Y           Z
 ---------------------------------------------------------------------
      1          6           0        0.000000    0.000000    0.761397
      2          6           0       -0.000000   -0.000000   -0.761397
      3          1           0        0.000000    1.017110    1.157248
      4          1           0        0.880843   -0.508555    1.157248
      5          1           0       -0.880843   -0.508555    1.157248
      6          1           0        0.880843    0.508555   -1.157248
      7          1           0       -0.880843    0.508555   -1.157248
      8          1           0       -0.000000   -1.017110   -1.157248
 ---------------------------------------------------------------------

 SCF Done:  E(RwB97XD) =  -79.8330751317     A.U. after   10 cycles

 Excitation energies and oscillator strengths:

 Excited State   1:      Singlet-EG     9.1216 eV  135.92 nm  f=0.0000  <S**2>=0.000
       9 -> 10         0.69327
 This state for optimization and/or second-order correction.
 Total Energy, E(TD-HF/TD-DFT) =  -79.4978642199
 Copying the excited state density for this state as the 1-particle RhoCI density.

 Excited State   2:      Singlet-EG     9.1216 eV  135.92 nm  f=0.0000  <S**2>=0.000
       8 -> 10         0.69327

 Excited State   3:      Singlet-EU     9.9511 eV  124.59 nm  f=0.1227  <S**2>=0.000
       6 -> 10         0.13394
       8 -> 11         0.68235

 Excited State   4:      Singlet-EU     9.9512 eV  124.59 nm  f=0.1227  <S**2>=0.000
       5 -> 10         0.13394
       9 -> 11         0.68235

 Excited State   5:      Singlet-A1G    9.9586 eV  124.50 nm  f=0.0000  <S**2>=0.000
       7 -> 10         0.69629

 Excited State   6:      Singlet-A2U   10.7159 eV  115.70 nm  f=0.2971  <S**2>=0.000
       7 -> 11         0.69059

 Excited State   7:      Singlet-EG    10.8401 eV  114.38 nm  f=0.0580  <S**2>=0.000
       8 -> 12         0.48731
       9 -> 13         0.48733

 Excited State   8:      Singlet-EG    10.8401 eV  114.38 nm  f=0.0580  <S**2>=0.000
       8 -> 13         0.48732
       9 -> 12        -0.48731

 Excited State   9:      Singlet-EG    10.9347 eV  113.39 nm  f=0.0000  <S**2>=0.000
       8 -> 12         0.49238
       9 -> 13        -0.49236

 Excited State  10:      Singlet-EG    11.0602 eV  112.10 nm  f=0.1485  <S**2>=0.000
       7 -> 11         0.10607
       8 -> 13         0.48840
       9 -> 12         0.48841

 Excited State  11:      Singlet-EU    11.3497 eV  109.24 nm  f=0.0000  <S**2>=0.000
       8 -> 14        -0.47121
       8 -> 17         0.14048
       9 -> 15         0.47123
       9 -> 18        -0.14047

 Excited State  12:      Singlet-EU    11.5225 eV  107.60 nm  f=0.0000  <S**2>=0.000
       8 -> 14         0.48364
       9 -> 15         0.48362

 Excited State  13:      Singlet-EU    11.5225 eV  107.60 nm  f=0.0000  <S**2>=0.000
       8 -> 15        -0.48363
       9 -> 14         0.48363

 Excited State  14:      Singlet-EU    11.5732 eV  107.13 nm  f=0.0000  <S**2>=0.000
       8 -> 15         0.46548
       8 -> 18        -0.15741
       9 -> 14         0.46548
       9 -> 17        -0.15741

 Excited State  15:      Singlet-EU    11.6138 eV  106.76 nm  f=0.0489  <S**2>=0.000
       7 -> 12         0.69659

 Excited State  16:      Singlet-EU    11.6138 eV  106.76 nm  f=0.0489  <S**2>=0.000
       7 -> 13         0.69659

 Excited State  17:      Singlet-EG    11.8132 eV  104.95 nm  f=0.0000  <S**2>=0.000
       6 -> 11        -0.29381
       8 -> 16         0.62136

 Excited State  18:      Singlet-EG    11.8132 eV  104.95 nm  f=0.0000  <S**2>=0.000
       5 -> 11        -0.29381
       9 -> 16         0.62136

 Excited State  19:      Singlet-EU    11.8875 eV  104.30 nm  f=0.0993  <S**2>=0.000
       5 -> 10         0.67141
       5 -> 16         0.10731
       9 -> 11        -0.11487

 Excited State  20:      Singlet-EU    11.8875 eV  104.30 nm  f=0.0993  <S**2>=0.000
       6 -> 10         0.67141
       6 -> 16         0.10731
       8 -> 11        -0.11487

 Excited State  21:      Singlet-EG    12.0526 eV  102.87 nm  f=0.0000  <S**2>=0.000
       7 -> 14         0.66393
       7 -> 17        -0.14125
       7 -> 31        -0.11049

 Excited State  22:      Singlet-EG    12.0526 eV  102.87 nm  f=0.0000  <S**2>=0.000
       7 -> 15         0.66393
       7 -> 18        -0.14125
       7 -> 32        -0.11049

 Excited State  23:      Singlet-EU    12.5267 eV   98.98 nm  f=0.0000  <S**2>=0.000
       5 -> 13         0.18726
       6 -> 12         0.18735
       7 -> 14         0.13864
       8 -> 17         0.44008
       9 -> 18         0.43986

 Excited State  24:      Singlet-EU    12.5267 eV   98.98 nm  f=0.0000  <S**2>=0.000
       5 -> 12        -0.18730
       6 -> 13         0.18730
       7 -> 15        -0.13865
       8 -> 18         0.43997
       9 -> 17        -0.43997

 Excited State  25:      Singlet-EU    12.5295 eV   98.95 nm  f=0.0000  <S**2>=0.000
       5 -> 13         0.18621
       6 -> 12        -0.18612
       8 -> 14        -0.12750
       8 -> 17        -0.44002
       9 -> 15         0.12752
       9 -> 18         0.44023

 Excited State  26:      Singlet-A1G   12.7523 eV   97.22 nm  f=0.0000  <S**2>=0.000
       5 -> 12        -0.10615
       6 -> 13        -0.10615
       7 -> 16         0.58518
       8 -> 18        -0.24762
       9 -> 17        -0.24762

 Excited State  27:      Singlet-EG    12.9727 eV   95.57 nm  f=0.0000  <S**2>=0.000
       6 -> 11         0.61662
       8 -> 16         0.28914

 Excited State  28:      Singlet-EG    12.9727 eV   95.57 nm  f=0.0000  <S**2>=0.000
       5 -> 11         0.61662
       9 -> 16         0.28914

 Excited State  29:      Singlet-EG    13.0377 eV   95.10 nm  f=0.0000  <S**2>=0.000
       5 -> 15        -0.19132
       6 -> 14         0.19131
       8 -> 20        -0.44434
       9 -> 21         0.44437

 Excited State  30:      Singlet-EU    13.0892 eV   94.72 nm  f=0.0000  <S**2>=0.000
       7 -> 16         0.32670
       8 -> 15         0.16068
       8 -> 18         0.39812
       9 -> 14         0.16068
       9 -> 17         0.39812

 Excited State  31:      Singlet-EU    13.1728 eV   94.12 nm  f=0.0024  <S**2>=0.000
       5 -> 10        -0.11780
       5 -> 16         0.13197
       8 -> 20         0.18564
       9 -> 19         0.59843
       9 -> 21         0.18555
       9 -> 24        -0.10123
       9 -> 33        -0.11616

 Excited State  32:      Singlet-EU    13.1729 eV   94.12 nm  f=0.0024  <S**2>=0.000
       6 -> 10        -0.11779
       6 -> 16         0.13197
       8 -> 19         0.59842
       8 -> 21        -0.18560
       8 -> 24        -0.10123
       8 -> 33        -0.11615
       9 -> 20         0.18560

 Excited State  33:      Singlet-EG    13.3724 eV   92.72 nm  f=0.0000  <S**2>=0.000
       7 -> 14         0.13099
       7 -> 17         0.68240

 Excited State  34:      Singlet-EG    13.3724 eV   92.72 nm  f=0.0000  <S**2>=0.000
       7 -> 15         0.13099
       7 -> 18         0.68240

 Excited State  35:      Singlet-EG    13.4865 eV   91.93 nm  f=0.1724  <S**2>=0.000
       5 -> 14        -0.17548
       6 -> 15        -0.17548
       7 -> 19         0.13252
       8 -> 21         0.45334
       9 -> 20         0.45329

 Excited State  36:      Singlet-EG    13.5001 eV   91.84 nm  f=0.1945  <S**2>=0.000
       7 -> 20         0.29444
       8 -> 20         0.39925
       9 -> 19        -0.23209
       9 -> 21         0.39926

 Excited State  37:      Singlet-EG    13.5001 eV   91.84 nm  f=0.1945  <S**2>=0.000
       7 -> 21         0.29444
       8 -> 19        -0.23211
       8 -> 21        -0.39922
       9 -> 20         0.39929

 Excited State  38:      Singlet-EU    13.7408 eV   90.23 nm  f=0.0000  <S**2>=0.000
       5 -> 13         0.45021
       6 -> 12         0.44962
       8 -> 17        -0.19120
       9 -> 18        -0.19142

 Excited State  39:      Singlet-EU    13.7408 eV   90.23 nm  f=0.0000  <S**2>=0.000
       5 -> 12         0.44992
       6 -> 13        -0.44992
       8 -> 18         0.19131
       9 -> 17        -0.19131

 Excited State  40:      Singlet-EU    13.7443 eV   90.21 nm  f=0.0000  <S**2>=0.000
       5 -> 13        -0.45543
       6 -> 12         0.45601
       8 -> 17        -0.17633
       9 -> 18         0.17609

 Excited State  41:      Singlet-A2U   13.9438 eV   88.92 nm  f=0.0000  <S**2>=0.000
       5 -> 14         0.32545
       5 -> 17        -0.11879
       6 -> 15         0.32554
       6 -> 18        -0.11885
       7 -> 19         0.40883
       8 -> 22        -0.16271
       9 -> 23        -0.16263

 Excited State  42:      Singlet-EU    13.9573 eV   88.83 nm  f=0.0012  <S**2>=0.000
       5 -> 14        -0.17257
       5 -> 17         0.12731
       6 -> 15         0.17241
       6 -> 18        -0.12725
       7 -> 21         0.52531
       8 -> 19         0.12955
       8 -> 21         0.15218
       8 -> 22        -0.15583
       9 -> 20        -0.15221
       9 -> 23         0.15591

 Excited State  43:      Singlet-EU    13.9573 eV   88.83 nm  f=0.0012  <S**2>=0.000
       5 -> 15        -0.17248
       5 -> 18         0.12728
       6 -> 14        -0.17248
       6 -> 17         0.12728
       7 -> 20         0.52532
       8 -> 20        -0.15219
       8 -> 23         0.15587
       9 -> 19         0.12955
       9 -> 21        -0.15219
       9 -> 22         0.15587

 Excited State  44:      Singlet-EU    14.1035 eV   87.91 nm  f=0.0000  <S**2>=0.000
       5 -> 12         0.46950
       6 -> 13         0.46950
       7 -> 16         0.16789

 Excited State  45:      Singlet-EG    14.1519 eV   87.61 nm  f=0.0000  <S**2>=0.000
       5 -> 15         0.40329
       5 -> 18        -0.13192
       6 -> 14        -0.40328
       6 -> 17         0.13192
       8 -> 20        -0.20184
       8 -> 23         0.15422
       9 -> 21         0.20183
       9 -> 22        -0.15422

 Excited State  46:      Singlet-EG    14.3190 eV   86.59 nm  f=0.2941  <S**2>=0.000
       5 -> 15         0.43395
       6 -> 14         0.43396
       7 -> 20         0.26238
       9 -> 19         0.12042
       9 -> 24         0.11600

 Excited State  47:      Singlet-EG    14.3190 eV   86.59 nm  f=0.2941  <S**2>=0.000
       5 -> 14        -0.43396
       6 -> 15         0.43396
       7 -> 21        -0.26239
       8 -> 19        -0.12041
       8 -> 24        -0.11600

 Excited State  48:      Singlet-A2U   14.4658 eV   85.71 nm  f=0.3128  <S**2>=0.000
       5 -> 14        -0.20979
       5 -> 17         0.13676
       6 -> 15        -0.20979
       6 -> 18         0.13676
       7 -> 19         0.54214
       8 -> 21        -0.16235
       9 -> 20        -0.16235

 Excited State  49:      Singlet-EG    14.5592 eV   85.16 nm  f=0.0000  <S**2>=0.000
       5 -> 15        -0.19136
       5 -> 18        -0.15736
       6 -> 14         0.19136
       6 -> 17         0.15736
       8 -> 23         0.42667
       9 -> 22        -0.42667

 Excited State  50:      Singlet-EG    14.6839 eV   84.44 nm  f=0.1751  <S**2>=0.000
       5 -> 18         0.11764
       6 -> 17         0.11764
       7 -> 20        -0.17216
       8 -> 20         0.14150
       8 -> 23         0.43030
       9 -> 21         0.14150
       9 -> 22         0.43031

 Excited State  51:      Singlet-EG    14.6839 eV   84.44 nm  f=0.1751  <S**2>=0.000
       5 -> 17         0.11764
       6 -> 18        -0.11764
       7 -> 21        -0.17216
       8 -> 21        -0.14150
       8 -> 22        -0.43029
       9 -> 20         0.14150
       9 -> 23         0.43031

 Excited State  52:      Singlet-EG    14.7583 eV   84.01 nm  f=0.2089  <S**2>=0.000
       5 -> 14         0.21304
       5 -> 17         0.11796
       6 -> 15         0.21305
       6 -> 18         0.11796
       8 -> 22         0.42044
       9 -> 23         0.42043

 Excited State  53:      Singlet-EU    14.8106 eV   83.71 nm  f=0.0159  <S**2>=0.000
       9 -> 19         0.10657
       9 -> 24         0.66472

 Excited State  54:      Singlet-EU    14.8106 eV   83.71 nm  f=0.0159  <S**2>=0.000
       8 -> 19         0.10657
       8 -> 24         0.66473

 Excited State  55:      Singlet-EU    14.8528 eV   83.48 nm  f=0.0197  <S**2>=0.000
       5 -> 16         0.65187
       7 -> 23         0.12624
       9 -> 19        -0.11257

 Excited State  56:      Singlet-EU    14.8528 eV   83.48 nm  f=0.0197  <S**2>=0.000
       6 -> 16         0.65187
       7 -> 22         0.12625
       8 -> 19        -0.11256

 Excited State  57:      Singlet-EG    15.1729 eV   81.71 nm  f=0.0000  <S**2>=0.000
       9 -> 25         0.69348

 Excited State  58:      Singlet-EG    15.1729 eV   81.71 nm  f=0.0000  <S**2>=0.000
       8 -> 25         0.69348

 Excited State  59:      Singlet-EU    15.4341 eV   80.33 nm  f=0.0706  <S**2>=0.000
       5 -> 16        -0.11488
       7 -> 23         0.67095

 Excited State  60:      Singlet-EU    15.4341 eV   80.33 nm  f=0.0706  <S**2>=0.000
       6 -> 16        -0.11488
       7 -> 22         0.67095

 Excited State  61:      Singlet-A2U   15.4411 eV   80.29 nm  f=0.1649  <S**2>=0.000
       5 -> 17        -0.33984
       6 -> 18        -0.33986
       7 -> 24         0.46470
       8 -> 22         0.10723
       9 -> 23         0.10722

 Excited State  62:      Singlet-EG    15.6311 eV   79.32 nm  f=0.0000  <S**2>=0.000
       5 -> 18        -0.44287
       6 -> 17         0.44295
       8 -> 23        -0.20025
       9 -> 22         0.20022

 Excited State  63:      Singlet-EG    15.6395 eV   79.28 nm  f=0.0369  <S**2>=0.000
       5 -> 18         0.44462
       6 -> 17         0.44454
       8 -> 23        -0.16578
       8 -> 29        -0.10282
       9 -> 22        -0.16581

 Excited State  64:      Singlet-EG    15.6395 eV   79.28 nm  f=0.0369  <S**2>=0.000
       5 -> 17         0.44458
       6 -> 18        -0.44458
       8 -> 22         0.16580
       9 -> 23        -0.16580
       9 -> 29         0.10282

 Excited State  65:      Singlet-EG    15.8397 eV   78.27 nm  f=0.0000  <S**2>=0.000
       5 -> 19         0.63253
       5 -> 21         0.11266
       5 -> 24        -0.10226
       5 -> 33        -0.13146
       6 -> 20         0.11209
       9 -> 30         0.15485

 Excited State  66:      Singlet-EG    15.8397 eV   78.27 nm  f=0.0000  <S**2>=0.000
       5 -> 20         0.11235
       6 -> 19         0.63253
       6 -> 21        -0.11243
       6 -> 24        -0.10225
       6 -> 33        -0.13146
       8 -> 30         0.15485

 Excited State  67:      Singlet-A2U   15.8418 eV   78.26 nm  f=0.2554  <S**2>=0.000
       5 -> 14         0.11069
       5 -> 17         0.27867
       6 -> 15         0.11069
       6 -> 18         0.27867
       7 -> 24         0.48928
       8 -> 22        -0.14661
       9 -> 23        -0.14661

 Excited State  68:      Singlet-EU    15.8581 eV   78.18 nm  f=0.0000  <S**2>=0.000
       5 -> 21        -0.47443
       6 -> 20         0.47457

 Excited State  69:      Singlet-A1G   15.8994 eV   77.98 nm  f=0.0000  <S**2>=0.000
       5 -> 20        -0.19689
       6 -> 21        -0.19685
       7 -> 25         0.61475
       8 -> 32         0.10407
       9 -> 31         0.10404

 Excited State  70:      Singlet-EU    16.0476 eV   77.26 nm  f=0.0000  <S**2>=0.000
       5 -> 20         0.45588
       6 -> 19        -0.12882
       6 -> 21        -0.45584
       8 -> 30        -0.10143
       8 -> 32         0.12895
       9 -> 31        -0.12895

 Excited State  71:      Singlet-EU    16.0476 eV   77.26 nm  f=0.0000  <S**2>=0.000
       5 -> 19        -0.12880
       5 -> 21         0.45587
       6 -> 20         0.45586
       8 -> 31        -0.12895
       9 -> 30        -0.10142
       9 -> 32        -0.12895

 Excited State  72:      Singlet-EU    16.0835 eV   77.09 nm  f=0.0000  <S**2>=0.000
       5 -> 20         0.44269
       6 -> 21         0.44274
       7 -> 25         0.29058

 Excited State  73:      Singlet-EU    16.2996 eV   76.07 nm  f=0.0387  <S**2>=0.000
       8 -> 26         0.67890
       9 -> 29        -0.10408

 Excited State  74:      Singlet-EU    16.2996 eV   76.07 nm  f=0.0387  <S**2>=0.000
       8 -> 29         0.10414
       9 -> 26         0.67889

 Excited State  75:      Singlet-EG    16.3130 eV   76.00 nm  f=0.0000  <S**2>=0.000
       8 -> 27        -0.48311
       9 -> 28         0.48315

 Excited State  76:      Singlet-EU    16.3197 eV   75.97 nm  f=0.0012  <S**2>=0.000
       8 -> 29         0.67374

 Excited State  77:      Singlet-EU    16.3197 eV   75.97 nm  f=0.0012  <S**2>=0.000
       9 -> 29         0.67375

 Excited State  78:      Singlet-EG    16.5135 eV   75.08 nm  f=0.1273  <S**2>=0.000
       7 -> 27         0.12032
       8 -> 27         0.44958
       8 -> 29        -0.11590
       9 -> 28         0.44952
       9 -> 33        -0.15218

 Excited State  79:      Singlet-EG    16.5135 eV   75.08 nm  f=0.1273  <S**2>=0.000
       7 -> 28         0.12035
       8 -> 28        -0.44955
       8 -> 33        -0.15212
       9 -> 27         0.44957
       9 -> 29         0.11589

 Excited State  80:      Singlet-EU    16.5218 eV   75.04 nm  f=0.0000  <S**2>=0.000
       8 -> 31        -0.47694
       9 -> 32         0.47698

 Excited State  81:      Singlet-EU    16.7653 eV   73.95 nm  f=0.0000  <S**2>=0.000
       5 -> 19        -0.12277
       5 -> 22        -0.13069
       6 -> 23        -0.13070
       7 -> 31         0.12031
       8 -> 31         0.44493
       9 -> 32         0.44488

 Excited State  82:      Singlet-EU    16.7653 eV   73.95 nm  f=0.0000  <S**2>=0.000
       5 -> 23        -0.13069
       6 -> 19        -0.12276
       6 -> 22         0.13070
       7 -> 32         0.12031
       8 -> 32        -0.44491
       9 -> 31         0.44491

 Excited State  83:      Singlet-EG    16.8012 eV   73.79 nm  f=0.4789  <S**2>=0.000
       8 -> 28         0.48338
       9 -> 27         0.48336

 Excited State  84:      Singlet-EU    16.8871 eV   73.42 nm  f=0.0173  <S**2>=0.000
       5 -> 25         0.16926
       7 -> 27         0.47239
       9 -> 33         0.45621

 Excited State  85:      Singlet-EU    16.8871 eV   73.42 nm  f=0.0173  <S**2>=0.000
       6 -> 25         0.16925
       7 -> 28         0.47240
       8 -> 33         0.45621

 Excited State  86:      Singlet-EG    16.9496 eV   73.15 nm  f=0.0000  <S**2>=0.000
       5 -> 24         0.29997
       9 -> 30         0.61259

 Excited State  87:      Singlet-EG    16.9496 eV   73.15 nm  f=0.0000  <S**2>=0.000
       6 -> 24         0.29996
       8 -> 30         0.61259

 Excited State  88:      Singlet-A2U   17.0157 eV   72.86 nm  f=0.0221  <S**2>=0.000
       4 -> 10        -0.28771
       7 -> 26         0.62522

 Excited State  89:      Singlet-EU    17.0463 eV   72.73 nm  f=0.0000  <S**2>=0.000
       4 -> 11        -0.12447
       5 -> 23        -0.10227
       6 -> 22        -0.10226
       7 -> 25        -0.10656
       8 -> 32         0.44095
       9 -> 31         0.44096

 Excited State  90:      Singlet-A1U   17.0892 eV   72.55 nm  f=0.0000  <S**2>=0.000
       7 -> 29         0.70522

 Excited State  91:      Singlet-EG    17.1307 eV   72.38 nm  f=0.0000  <S**2>=0.000
       7 -> 14         0.11838
       7 -> 31         0.67255

 Excited State  92:      Singlet-EG    17.1307 eV   72.38 nm  f=0.0000  <S**2>=0.000
       7 -> 15         0.11838
       7 -> 32         0.67255

 Excited State  93:      Singlet-A2U   17.1358 eV   72.35 nm  f=0.0027  <S**2>=0.000
       4 -> 10         0.60681
       7 -> 26         0.31122
       7 -> 33         0.13495

 Excited State  94:      Singlet-EU    17.3176 eV   71.59 nm  f=0.0000  <S**2>=0.000
       5 -> 20         0.10072
       5 -> 23         0.43009
       6 -> 21        -0.10071
       6 -> 22        -0.43004
       6 -> 24        -0.17731
       8 -> 30         0.10092

 Excited State  95:      Singlet-EU    17.3176 eV   71.59 nm  f=0.0000  <S**2>=0.000
       5 -> 21         0.10071
       5 -> 22         0.43008
       5 -> 24        -0.17732
       6 -> 20         0.10071
       6 -> 23         0.43004
       9 -> 30         0.10093

 Excited State  96:      Singlet-EU    17.3362 eV   71.52 nm  f=0.3220  <S**2>=0.000
       5 -> 25        -0.13738
       7 -> 27         0.47033
       8 -> 27        -0.13516
       9 -> 28        -0.13517
       9 -> 33        -0.41237

 Excited State  97:      Singlet-EU    17.3362 eV   71.52 nm  f=0.3220  <S**2>=0.000
       6 -> 25        -0.13739
       7 -> 28         0.47031
       8 -> 28         0.13515
       8 -> 33        -0.41240
       9 -> 27        -0.13516

 Excited State  98:      Singlet-EU    17.3477 eV   71.47 nm  f=0.0000  <S**2>=0.000
       5 -> 22        -0.47637
       6 -> 23         0.47640
       8 -> 37        -0.10332
       9 -> 38        -0.10331

 Excited State  99:      Singlet-EU    17.3761 eV   71.35 nm  f=0.0000  <S**2>=0.000
       4 -> 11        -0.11730
       5 -> 23         0.44124
       6 -> 22         0.44129
       8 -> 35        -0.13312
       9 -> 34        -0.13311

 Excited State 100:      Singlet-EG    17.5603 eV   70.60 nm  f=0.0000  <S**2>=0.000
       5 -> 19         0.15409
       5 -> 22         0.12879
       5 -> 24         0.57381
       6 -> 23         0.12878
       9 -> 30        -0.26311

 Excited State 101:      Singlet-EG    17.5603 eV   70.60 nm  f=0.0000  <S**2>=0.000
       5 -> 23         0.12877
       6 -> 19         0.15409
       6 -> 22        -0.12878
       6 -> 24         0.57382
       8 -> 30        -0.26311

 Excited State 102:      Singlet-A1G   17.6933 eV   70.07 nm  f=0.0000  <S**2>=0.000
       4 -> 11        -0.18121
       7 -> 30         0.66758

 Excited State 103:      Singlet-A1G   17.9237 eV   69.17 nm  f=0.0000  <S**2>=0.000
       4 -> 11         0.63295
       7 -> 30         0.14150
       8 -> 32         0.10308
       9 -> 31         0.10308

 Excited State 104:      Singlet-EU    18.0015 eV   68.87 nm  f=0.0350  <S**2>=0.000

 The electronic state is 1-A1G.
 Alpha  occ. eigenvalues --  -10.26835 -10.26812  -0.85219  -0.70971  -0.52178
 Alpha  occ. eigenvalues --   -0.52178  -0.45120  -0.42403  -0.42403
 Alpha virt. eigenvalues --    0.07363   0.09460   0.13988   0.13988   0.16318
 Alpha virt. eigenvalues --    0.16318   0.18359   0.20376   0.20376   0.23112
 Alpha virt. eigenvalues --    0.23853   0.23853   0.28055   0.28055   0.28152

 Mulliken charges:
               1
     1  C   -0.890742
     2  C   -0.890742
     3  H    0.296914
     4  H    0.296914
     5  H    0.296914
     6  H    0.296914
     7  H    0.296914
     8  H    0.296914
 Sum of Mulliken charges =   0.00000

 Dipole moment (field-independent basis, Debye):
    X=             -0.0000    Y=             -0.0000    Z=              0.0000  Tot=              0.0000
 Quadrupole moment (field-independent basis, Debye-Ang):
   XX=            -14.8047   YY=            -14.8047   ZZ=            -15.5264
   XY=             -0.0000   XZ=             -0.0000   YZ=             -0.0000

 Normal termination of Gaussian 16 at Sun Feb 27 06:41:32 2022.
