 Gaussian 16, Revision C.01,
 Gaussian 16:  EM64L-G16RevC.01  3-Jul-2019

 ----------------------------------------------------------------------
 #P TD(Nstates=10000) wB97XD/Gen SCF(maxcycles=100) Int(Grid=ultrafine)
 ----------------------------------------------------------------------

 ---------------------
 xGDB7_00001_tier4.com
 ---------------------
 Symbolic Z-matrix:
 Charge =  0 Multiplicity = 1

                         Standard orientation:
 ---------------------------------------------------------------------
 Center     Atomic      Atomic             Coordinates (Angstroms)
 Number     Number       Type             X           Y           Z
 ---------------------------------------------------------------------
      1          8           0        0.000000    0.000000    0.596896
      2          8           0        0.000000    0.000000   -0.596896
 ---------------------------------------------------------------------

 SCF Done:  E(RwB97XD) =  -150.279491503     A.U. after   11 cycles

 Excitation energies and oscillator strengths:

 Excited state symmetry could not be determined.
 Excited State   1:      Singlet-?Sym    0.0054 eV 228148.70 nm  f=0.0000  <S**2>=0.000
       8 ->  9        -4.97589
       8 -> 14         0.15190
       8 <-  9        -4.92548
       8 <- 14         0.14980
 This state for optimization and/or second-order correction.
 Total Energy, E(TD-HF/TD-DFT) =  -150.279291794
 Copying the excited state density for this state as the 1-particle RhoCI density.

 Excited state symmetry could not be determined.
 Excited State   2:      Singlet-?Sym    6.8323 eV  181.47 nm  f=0.0000  <S**2>=0.000
       7 ->  9         0.70541

 Excited state symmetry could not be determined.
 Excited State   3:      Singlet-?Sym    7.5571 eV  164.06 nm  f=0.0198  <S**2>=0.000
       8 -> 10         0.69188
       8 -> 17        -0.14091

 Excited state symmetry could not be determined.
 Excited State   4:      Singlet-?Sym    7.5957 eV  163.23 nm  f=0.0000  <S**2>=0.000
       8 -> 11         0.66263
       8 -> 16        -0.24115

 Excited state symmetry could not be determined.
 Excited State   5:      Singlet-?Sym    7.7286 eV  160.42 nm  f=0.0000  <S**2>=0.000
       5 ->  9         0.70649

 Excited state symmetry could not be determined.
 Excited State   6:      Singlet-?Sym    8.0661 eV  153.71 nm  f=0.0000  <S**2>=0.000
       8 -> 12         0.70424

 Excited state symmetry could not be determined.
 Excited State   7:      Singlet-?Sym    8.1943 eV  151.31 nm  f=0.0552  <S**2>=0.000
       6 ->  9         0.13734
       8 -> 13         0.69172

 Excited state symmetry could not be determined.
 Excited State   8:      Singlet-?Sym    9.4232 eV  131.57 nm  f=0.0000  <S**2>=0.000
       8 -> 11         0.24056
       8 -> 16         0.66010

 Excited state symmetry could not be determined.
 Excited State   9:      Singlet-?Sym    9.6665 eV  128.26 nm  f=0.0000  <S**2>=0.000
       8 -> 14         0.70397

 Excited state symmetry could not be determined.
 Excited State  10:      Singlet-?Sym    9.9197 eV  124.99 nm  f=0.0000  <S**2>=0.000
       8 -> 15         0.70548

 Excited state symmetry could not be determined.
 Excited State  11:      Singlet-?Sym   10.3246 eV  120.09 nm  f=0.1208  <S**2>=0.000
       5 -> 18         0.13127
       6 ->  9         0.67505
       8 -> 13        -0.14037
       6 <-  9        -0.10474

 Excited state symmetry could not be determined.
 Excited State  12:      Singlet-?Sym   11.0538 eV  112.16 nm  f=0.0002  <S**2>=0.000
       8 -> 10         0.12859
       8 -> 17         0.62606
       8 -> 18        -0.29469

 Excited state symmetry could not be determined.
 Excited State  13:      Singlet-?Sym   13.6680 eV   90.71 nm  f=0.0928  <S**2>=0.000
       7 -> 11         0.11722
       8 -> 17         0.28556
       8 -> 18         0.62874

 Excited state symmetry could not be determined.
 Excited State  14:      Singlet-?Sym   14.2954 eV   86.73 nm  f=0.0000  <S**2>=0.000
       8 -> 19         0.70247

 Excited state symmetry could not be determined.
 Excited State  15:      Singlet-?Sym   14.3268 eV   86.54 nm  f=0.0000  <S**2>=0.000
       8 -> 20         0.70233

 Excited state symmetry could not be determined.
 Excited State  16:      Singlet-?Sym   15.1306 eV   81.94 nm  f=0.0000  <S**2>=0.000
       6 -> 10         0.68857
       6 -> 17        -0.14390

 Excited state symmetry could not be determined.
 Excited State  17:      Singlet-?Sym   15.1334 eV   81.93 nm  f=0.0000  <S**2>=0.000
       7 -> 10         0.68760
       7 -> 17        -0.13925

 Excited state symmetry could not be determined.
 Excited State  18:      Singlet-?Sym   15.1696 eV   81.73 nm  f=0.1206  <S**2>=0.000
       6 -> 11         0.65816
       6 -> 16        -0.24989

 Excited state symmetry could not be determined.
 Excited State  19:      Singlet-?Sym   15.2177 eV   81.47 nm  f=0.0650  <S**2>=0.000
       7 -> 11         0.64741
       7 -> 16        -0.24765
       8 -> 18        -0.11568

 Excited State  20:      Singlet-SGU   15.4960 eV   80.01 nm  f=0.1702  <S**2>=0.000
       5 -> 10         0.69158
       5 -> 17        -0.12050

 Excited state symmetry could not be determined.
 Excited State  21:      Singlet-?Sym   15.5601 eV   79.68 nm  f=0.0000  <S**2>=0.000
       6 -> 13         0.13125
       7 -> 12         0.69097

 Excited state symmetry could not be determined.
 Excited State  22:      Singlet-?Sym   15.6057 eV   79.45 nm  f=0.0000  <S**2>=0.000
       6 -> 12         0.61437
       7 -> 13        -0.33454

 Excited state symmetry could not be determined.
 Excited State  23:      Singlet-?Sym   15.7803 eV   78.57 nm  f=0.0000  <S**2>=0.000
       6 -> 13         0.69328
       7 -> 12        -0.13159

 Excited State  24:      Singlet-SGG   15.7970 eV   78.49 nm  f=0.0000  <S**2>=0.000
       5 -> 11         0.54107
       5 -> 16        -0.13343
       6 -> 12        -0.15260
       7 -> 13        -0.40308

 Excited state symmetry could not be determined.
 Excited State  25:      Singlet-?Sym   16.0615 eV   77.19 nm  f=0.0167  <S**2>=0.000
       5 -> 12         0.69582

 Excited state symmetry could not be determined.
 Excited State  26:      Singlet-?Sym   16.0825 eV   77.09 nm  f=0.0000  <S**2>=0.000
       5 -> 11         0.38968
       5 -> 16        -0.17272
       6 -> 12         0.29860
       7 -> 13         0.46901

 Excited state symmetry could not be determined.
 Excited State  27:      Singlet-?Sym   16.2439 eV   76.33 nm  f=0.0297  <S**2>=0.000
       5 -> 13         0.70369

 Excited state symmetry could not be determined.
 Excited State  28:      Singlet-?Sym   16.5654 eV   74.85 nm  f=0.0374  <S**2>=0.000
       4 ->  9         0.65087
       5 -> 12         0.10181
       6 -> 16         0.20978

 Excited state symmetry could not be determined.
 Excited State  29:      Singlet-?Sym   16.9496 eV   73.15 nm  f=0.0349  <S**2>=0.000
       7 -> 11         0.24814
       7 -> 16         0.65093

 Excited state symmetry could not be determined.
 Excited State  30:      Singlet-?Sym   17.0059 eV   72.91 nm  f=0.0000  <S**2>=0.000
       8 -> 21         0.69607

 Excited state symmetry could not be determined.
 Excited State  31:      Singlet-?Sym   17.0495 eV   72.72 nm  f=0.0620  <S**2>=0.000
       4 ->  9        -0.21100
       6 -> 11         0.24482
       6 -> 16         0.62297

 Excited state symmetry could not be determined.
 Excited State  32:      Singlet-?Sym   17.1801 eV   72.17 nm  f=0.0000  <S**2>=0.000
       7 -> 14         0.69447

 Excited state symmetry could not be determined.
 Excited State  33:      Singlet-?Sym   17.2284 eV   71.97 nm  f=0.0000  <S**2>=0.000
       6 -> 14         0.59856
       7 -> 15        -0.36788

 Excited state symmetry could not be determined.
 Excited State  34:      Singlet-?Sym   17.3154 eV   71.60 nm  f=0.0000  <S**2>=0.000
       6 -> 15         0.70070

 Excited state symmetry could not be determined.
 Excited State  35:      Singlet-?Sym   17.3300 eV   71.54 nm  f=0.0266  <S**2>=0.000
       6 -> 14         0.36452
       7 -> 15         0.59267

 Excited State  36:      Singlet-SGG   17.4408 eV   71.09 nm  f=0.0000  <S**2>=0.000
       5 -> 11         0.20566
       5 -> 16         0.66837

 Excited state symmetry could not be determined.
 Excited State  37:      Singlet-?Sym   17.6163 eV   70.38 nm  f=0.0000  <S**2>=0.000
       5 -> 14         0.70299

 Excited state symmetry could not be determined.
 Excited State  38:      Singlet-?Sym   17.6995 eV   70.05 nm  f=0.0000  <S**2>=0.000
       5 -> 15         0.70355

 Excited state symmetry could not be determined.
 Excited State  39:      Singlet-?Sym   18.4449 eV   67.22 nm  f=0.0000  <S**2>=0.000
       6 -> 10         0.13582
       6 -> 17         0.61159
       6 -> 18        -0.31698

 Excited state symmetry could not be determined.
 Excited State  40:      Singlet-?Sym   18.5324 eV   66.90 nm  f=0.0000  <S**2>=0.000
       7 -> 10         0.12710
       7 -> 17         0.61292
       7 -> 18        -0.30963

 Excited state symmetry could not be determined.
 Excited State  41:      Singlet-?Sym   18.7540 eV   66.11 nm  f=0.0000  <S**2>=0.000
       8 -> 22         0.70019

 Excited state symmetry could not be determined.
 Excited State  42:      Singlet-?Sym   18.7662 eV   66.07 nm  f=0.0000  <S**2>=0.000
       8 -> 25         0.69946

 Excited state symmetry could not be determined.
 Excited State  43:      Singlet-?Sym   18.7954 eV   65.97 nm  f=0.0463  <S**2>=0.000
       8 -> 23         0.69367

 Excited state symmetry could not be determined.
 Excited State  44:      Singlet-?Sym   18.8673 eV   65.71 nm  f=0.1359  <S**2>=0.000
       5 -> 17        -0.15542
       8 -> 26         0.67146
       8 -> 30        -0.10542

 Excited state symmetry could not be determined.
 Excited State  45:      Singlet-?Sym   19.2656 eV   64.36 nm  f=0.0000  <S**2>=0.000
       8 -> 24         0.69128

 Excited state symmetry could not be determined.
 Excited State  46:      Singlet-?Sym   19.3918 eV   63.94 nm  f=0.1623  <S**2>=0.000
       8 -> 28         0.69478

 Excited state symmetry could not be determined.
 Excited State  47:      Singlet-?Sym   19.4046 eV   63.89 nm  f=0.1935  <S**2>=0.000
       8 -> 27         0.68944

 Excited State  48:      Singlet-SGU   19.6490 eV   63.10 nm  f=0.5172  <S**2>=0.000
       5 -> 10         0.10199
       5 -> 17         0.54473
       8 -> 26         0.19411
       8 -> 30         0.36538

 Excited state symmetry could not be determined.
 Excited State  49:      Singlet-?Sym   19.8092 eV   62.59 nm  f=0.0000  <S**2>=0.000
       8 -> 29         0.70434

 Excited state symmetry could not be determined.
 Excited State  50:      Singlet-?Sym   20.7108 eV   59.86 nm  f=0.1119  <S**2>=0.000
       5 -> 17        -0.36045
       5 -> 18        -0.24072
       8 -> 30         0.53381

 Excited state symmetry could not be determined.
 Excited State  51:      Singlet-?Sym   21.1154 eV   58.72 nm  f=0.0000  <S**2>=0.000
       7 -> 17         0.29455
       7 -> 18         0.60959
       8 -> 31         0.18233

 Excited state symmetry could not be determined.
 Excited State  52:      Singlet-?Sym   21.1882 eV   58.52 nm  f=0.0000  <S**2>=0.000
       6 -> 17         0.31388
       6 -> 18         0.62778

 Excited state symmetry could not be determined.
 Excited State  53:      Singlet-?Sym   21.6561 eV   57.25 nm  f=0.0055  <S**2>=0.000
       6 -> 20        -0.49242
       7 -> 19         0.49413
       8 -> 27        -0.11395

 Excited state symmetry could not be determined.
 Excited State  54:      Singlet-?Sym   21.6575 eV   57.25 nm  f=0.0060  <S**2>=0.000
       6 -> 19         0.49832
       7 -> 20         0.48789
       8 -> 28        -0.11483

 Excited state symmetry could not be determined.
 Excited State  55:      Singlet-?Sym   22.2746 eV   55.66 nm  f=0.3745  <S**2>=0.000
       6 -> 19        -0.49217
       7 -> 20         0.50265

 Excited state symmetry could not be determined.
 Excited State  56:      Singlet-?Sym   22.3683 eV   55.43 nm  f=0.4593  <S**2>=0.000
       4 ->  9         0.10689
       6 -> 20         0.49000
       7 -> 19         0.49208

 Excited state symmetry could not be determined.
 Excited State  57:      Singlet-?Sym   22.3959 eV   55.36 nm  f=0.0000  <S**2>=0.000
       5 -> 19         0.70548

 Excited state symmetry could not be determined.
 Excited State  58:      Singlet-?Sym   22.3993 eV   55.35 nm  f=0.0000  <S**2>=0.000
       5 -> 20         0.70540

 Excited state symmetry could not be determined.
 Excited State  59:      Singlet-?Sym   22.4356 eV   55.26 nm  f=0.0000  <S**2>=0.000
       7 -> 18        -0.16388
       8 -> 31         0.67763

 Excited State  60:      Singlet-SGG   22.8459 eV   54.27 nm  f=0.0000  <S**2>=0.000
       4 -> 10         0.69262
       4 -> 17        -0.11251

 Excited State  61:      Singlet-SGU   22.8982 eV   54.15 nm  f=0.0446  <S**2>=0.000
       4 -> 11         0.59083
       4 -> 16        -0.19516
       5 -> 18        -0.30865

 Excited state symmetry could not be determined.
 Excited State  62:      Singlet-?Sym   23.3071 eV   53.20 nm  f=0.0000  <S**2>=0.000
       4 -> 12         0.70155

 Excited state symmetry could not be determined.
 Excited State  63:      Singlet-?Sym   23.5007 eV   52.76 nm  f=0.0000  <S**2>=0.000
       4 -> 13         0.69916

 Excited State  64:      Singlet-SGU   24.3733 eV   50.87 nm  f=0.5037  <S**2>=0.000
       4 -> 11         0.26177
       4 -> 16        -0.12737
       5 -> 18         0.51222
       5 -> 23        -0.15727
       6 ->  9        -0.13476
       6 -> 22        -0.17082
       7 -> 24        -0.16548
       8 -> 30         0.19094

 Excited State  65:      Singlet-SGU   24.6045 eV   50.39 nm  f=0.0023  <S**2>=0.000
       4 -> 11         0.24116
       4 -> 16         0.64906

 Excited state symmetry could not be determined.
 Excited State  66:      Singlet-?Sym   24.6715 eV   50.25 nm  f=0.0656  <S**2>=0.000
       7 -> 21         0.68930

 Excited state symmetry could not be determined.
 Excited State  67:      Singlet-?Sym   24.6978 eV   50.20 nm  f=0.0658  <S**2>=0.000
       6 -> 21         0.69582

 Excited state symmetry could not be determined.
 Excited State  68:      Singlet-?Sym   24.8653 eV   49.86 nm  f=0.0064  <S**2>=0.000
       4 -> 14         0.69466
       5 -> 25         0.11213

 Excited state symmetry could not be determined.
 Excited State  69:      Singlet-?Sym   24.9540 eV   49.69 nm  f=0.0061  <S**2>=0.000
       4 -> 15         0.69612
       5 -> 26         0.10346

 Excited state symmetry could not be determined.
 Excited State  70:      Singlet-?Sym   24.9972 eV   49.60 nm  f=0.0000  <S**2>=0.000
       5 -> 21         0.68549

 Excited state symmetry could not be determined.
 Excited State  71:      Singlet-?Sym   26.2140 eV   47.30 nm  f=0.0000  <S**2>=0.000
       4 -> 17        -0.31350
       4 -> 18         0.16501
       6 -> 25         0.56613
       7 -> 26         0.19757

 Excited state symmetry could not be determined.
 Excited State  72:      Singlet-?Sym   26.2833 eV   47.17 nm  f=0.0000  <S**2>=0.000
       6 -> 23         0.68126
       6 -> 28        -0.13378

 Excited state symmetry could not be determined.
 Excited State  73:      Singlet-?Sym   26.3076 eV   47.13 nm  f=0.0000  <S**2>=0.000
       6 -> 27        -0.12255
       7 -> 23         0.68492

 Excited state symmetry could not be determined.
 Excited State  74:      Singlet-?Sym   26.3323 eV   47.08 nm  f=0.0043  <S**2>=0.000
       5 -> 23        -0.18066
       5 -> 28         0.14352
       6 -> 22         0.55735
       7 -> 24        -0.35409

 Excited state symmetry could not be determined.
 Excited State  75:      Singlet-?Sym   26.3590 eV   47.04 nm  f=0.0000  <S**2>=0.000
       5 -> 27         0.14833
       6 -> 24         0.50010
       7 -> 22         0.46792

 Excited state symmetry could not be determined.
 Excited State  76:      Singlet-?Sym   26.3597 eV   47.04 nm  f=0.0000  <S**2>=0.000
       6 -> 26         0.35750
       7 -> 25         0.59856

 Excited state symmetry could not be determined.
 Excited State  77:      Singlet-?Sym   26.3844 eV   46.99 nm  f=0.0000  <S**2>=0.000
       4 -> 17        -0.19453
       6 -> 25        -0.33192
       7 -> 26         0.57765

 Excited state symmetry could not be determined.
 Excited State  78:      Singlet-?Sym   26.4815 eV   46.82 nm  f=0.0000  <S**2>=0.000
       6 -> 24        -0.48210
       7 -> 22         0.51217

 Excited state symmetry could not be determined.
 Excited State  79:      Singlet-?Sym   26.5099 eV   46.77 nm  f=0.0121  <S**2>=0.000
       5 -> 23         0.49557
       6 -> 22        -0.13524
       7 -> 24        -0.46525

 Excited state symmetry could not be determined.
 Excited State  80:      Singlet-?Sym   26.5137 eV   46.76 nm  f=0.0000  <S**2>=0.000
       5 -> 22         0.68197

 Excited state symmetry could not be determined.
 Excited State  81:      Singlet-?Sym   26.5339 eV   46.73 nm  f=0.0000  <S**2>=0.000
       6 -> 26         0.60826
       7 -> 25        -0.35829

 Excited state symmetry could not be determined.
 Excited State  82:      Singlet-?Sym   26.5972 eV   46.62 nm  f=0.0000  <S**2>=0.000
       5 -> 24         0.68494
       6 -> 27         0.10836

 Excited state symmetry could not be determined.
 Excited State  83:      Singlet-?Sym   26.6676 eV   46.49 nm  f=0.2241  <S**2>=0.000
       5 -> 26        -0.46468
       7 -> 21        -0.12259
       7 -> 31        -0.10383
       8 -> 32         0.49685

 Excited state symmetry could not be determined.
 Excited State  84:      Singlet-?Sym   26.7210 eV   46.40 nm  f=0.2321  <S**2>=0.000
       4 -> 14        -0.11508
       5 -> 25         0.68352

 Excited state symmetry could not be determined.
 Excited State  85:      Singlet-?Sym   26.8276 eV   46.22 nm  f=0.0000  <S**2>=0.000
       6 -> 28        -0.47161
       7 -> 27         0.52468

 Excited state symmetry could not be determined.
 Excited State  86:      Singlet-?Sym   26.8285 eV   46.21 nm  f=0.0000  <S**2>=0.000
       6 -> 27         0.50388
       7 -> 28         0.49109

 Excited State  87:      Singlet-SGG   26.8592 eV   46.16 nm  f=0.0000  <S**2>=0.000
       4 -> 17         0.49500
       6 -> 25         0.15438
       6 -> 29        -0.31437
       7 -> 26         0.30293
       7 -> 30        -0.10981

 Excited state symmetry could not be determined.
 Excited State  88:      Singlet-?Sym   27.0187 eV   45.89 nm  f=0.0000  <S**2>=0.000
       5 -> 22        -0.13123
       6 -> 23         0.12898
       6 -> 28         0.49622
       7 -> 27         0.45959

 Excited state symmetry could not be determined.
 Excited State  89:      Singlet-?Sym   27.0275 eV   45.87 nm  f=0.0311  <S**2>=0.000
       5 -> 26         0.50726
       8 -> 32         0.47247

 Excited state symmetry could not be determined.
 Excited State  90:      Singlet-?Sym   27.0489 eV   45.84 nm  f=0.0000  <S**2>=0.000
       5 -> 24         0.12470
       6 -> 27        -0.46691
       7 -> 23        -0.11754
       7 -> 28         0.50132

 Excited state symmetry could not be determined.
 Excited State  91:      Singlet-?Sym   27.1062 eV   45.74 nm  f=0.0000  <S**2>=0.000
       6 -> 30         0.22090
       7 -> 29         0.65198
       8 -> 34         0.10435

 Excited state symmetry could not be determined.
 Excited State  92:      Singlet-?Sym   27.2004 eV   45.58 nm  f=0.0000  <S**2>=0.000
       4 -> 17         0.13835
       6 -> 25         0.12711
       6 -> 29         0.48596
       7 -> 30        -0.46234

 Excited state symmetry could not be determined.
 Excited State  93:      Singlet-?Sym   27.3402 eV   45.35 nm  f=0.0000  <S**2>=0.000
       4 -> 19         0.12518
       5 -> 27         0.67806
       6 -> 24        -0.11588
       7 -> 22        -0.10462

 Excited state symmetry could not be determined.
 Excited State  94:      Singlet-?Sym   27.3524 eV   45.33 nm  f=0.0001  <S**2>=0.000
       4 -> 20         0.12598
       5 -> 28         0.67592
       6 -> 22        -0.14646

 Excited state symmetry could not be determined.
 Excited State  95:      Singlet-?Sym   27.7224 eV   44.72 nm  f=0.0000  <S**2>=0.000
       6 -> 30         0.66841
       7 -> 29        -0.22372

 Excited state symmetry could not be determined.
 Excited State  96:      Singlet-?Sym   27.9403 eV   44.37 nm  f=0.0542  <S**2>=0.000
       5 -> 18         0.19943
       5 -> 23         0.41790
       6 ->  9        -0.10298
       6 -> 22         0.33250
       7 -> 24         0.33841
       8 -> 30         0.10927

 Excited state symmetry could not be determined.
 Excited State  97:      Singlet-?Sym   27.9441 eV   44.37 nm  f=0.0038  <S**2>=0.000
       5 -> 29         0.70217

 Excited state symmetry could not be determined.
 Excited State  98:      Singlet-?Sym   28.4118 eV   43.64 nm  f=0.0043  <S**2>=0.000
       5 -> 30         0.70389

 Excited state symmetry could not be determined.
 Excited State  99:      Singlet-?Sym   28.9432 eV   42.84 nm  f=0.0000  <S**2>=0.000
       4 -> 17         0.19600
       5 -> 31        -0.17023
       6 -> 25         0.12661
       6 -> 29         0.29718
       7 -> 26         0.14249
       7 -> 30         0.46839
       8 -> 35        -0.26818

 Excited state symmetry could not be determined.
 Excited State 100:      Singlet-?Sym   29.1219 eV   42.57 nm  f=0.0000  <S**2>=0.000
       3 ->  9         0.69481

 Excited State 101:      Singlet-SGG   29.5518 eV   41.95 nm  f=0.0000  <S**2>=0.000
       4 -> 17         0.17966
       4 -> 18         0.64875
       5 -> 31        -0.16615

 Excited state symmetry could not be determined.
 Excited State 102:      Singlet-?Sym   29.6721 eV   41.78 nm  f=0.0000  <S**2>=0.000
       8 -> 33         0.70025

 Excited state symmetry could not be determined.
 Excited State 103:      Singlet-?Sym   29.7198 eV   41.72 nm  f=0.0000  <S**2>=0.000
       4 -> 19         0.69371
       5 -> 27        -0.13306

 Excited state symmetry could not be determined.
 Excited State 104:      Singlet-?Sym   29.7224 eV   41.71 nm  f=0.0005  <S**2>=0.000
       4 -> 20         0.69322
       5 -> 28        -0.13338

 Excited state symmetry could not be determined.
 Excited State 105:      Singlet-?Sym   29.9844 eV   41.35 nm  f=0.0466  <S**2>=0.000
       6 -> 31         0.70516

 Excited state symmetry could not be determined.
 Excited State 106:      Singlet-?Sym   30.1266 eV   41.15 nm  f=0.0449  <S**2>=0.000
       7 -> 31         0.69408
       8 -> 32         0.12892

 Excited state symmetry could not be determined.
 Excited State 107:      Singlet-?Sym   30.1462 eV   41.13 nm  f=0.0000  <S**2>=0.000
       7 -> 29        -0.11143
       8 -> 34         0.69668

 Excited State 108:      Singlet-SGG   30.4503 eV   40.72 nm  f=0.0000  <S**2>=0.000
       4 -> 18         0.17621
       5 -> 31         0.48690
       8 -> 35        -0.46212

 Excited state symmetry could not be determined.
 Excited State 109:      Singlet-?Sym   32.0958 eV   38.63 nm  f=0.0000  <S**2>=0.000
       5 -> 31         0.43286
       6 -> 29         0.20752
       7 -> 30         0.18850
       8 -> 35         0.43692

 Excited state symmetry could not be determined.
 Excited State 110:      Singlet-?Sym   32.2631 eV   38.43 nm  f=0.0712  <S**2>=0.000
       4 -> 21         0.69383

 Excited state symmetry could not be determined.
 Excited State 111:      Singlet-?Sym   34.0114 eV   36.45 nm  f=0.0000  <S**2>=0.000
       4 -> 25         0.67597
       6 -> 32        -0.18933

 Excited state symmetry could not be determined.
 Excited State 112:      Singlet-?Sym   34.1218 eV   36.34 nm  f=0.0214  <S**2>=0.000
       4 -> 22         0.69963

 Excited state symmetry could not be determined.
 Excited State 113:      Singlet-?Sym   34.1364 eV   36.32 nm  f=0.0000  <S**2>=0.000
       4 -> 23         0.69451

 Excited state symmetry could not be determined.
 Excited State 114:      Singlet-?Sym   34.1645 eV   36.29 nm  f=0.0000  <S**2>=0.000
       4 -> 26         0.68932
       7 -> 32        -0.12984

 Excited state symmetry could not be determined.
 Excited State 115:      Singlet-?Sym   34.1719 eV   36.28 nm  f=0.0217  <S**2>=0.000
       4 -> 24         0.70013

 Excited state symmetry could not be determined.
 Excited State 116:      Singlet-?Sym   34.5633 eV   35.87 nm  f=0.0000  <S**2>=0.000
       4 -> 25         0.19035
       6 -> 32         0.67758

 Unable to determine electronic state:  partially filled degenerate orbitals.
 Alpha  occ. eigenvalues --  -19.41014 -19.40986  -1.40322  -0.89909  -0.63401
 Alpha  occ. eigenvalues --   -0.61895  -0.61768  -0.34137
 Alpha virt. eigenvalues --   -0.09964   0.08909   0.12163   0.12681   0.13291
 Alpha virt. eigenvalues --    0.16826   0.17120   0.17186   0.27033   0.37551
 Alpha virt. eigenvalues --    0.40129   0.40140   0.48402   0.54545   0.54564

 Mulliken charges:
               1
     1  O    0.000000
     2  O    0.000000
 Sum of Mulliken charges =   0.00000

 Dipole moment (field-independent basis, Debye):
    X=             -0.0000    Y=             -0.0000    Z=             -0.0000  Tot=              0.0000
 Quadrupole moment (field-independent basis, Debye-Ang):
   XX=             -9.1304   YY=            -11.0067   ZZ=            -10.5672
   XY=              0.0000   XZ=              0.0000   YZ=              0.0000

 Normal termination of Gaussian 16 at Sun Feb 27 06:39:38 2022.
