 Gaussian 16, Revision C.01,
 Gaussian 16:  EM64L-G16RevC.01  3-Jul-2019

 ----------------------------------------------------------------------
 #P TD(Nstates=10000) wB97XD/Gen SCF(maxcycles=100) Int(Grid=ultrafine)
 ----------------------------------------------------------------------

 ---------------------
 xGDB7_00001_tier4.com
 ---------------------
 Symbolic Z-matrix:
 Charge =  0 Multiplicity = 1

                         Standard orientation:
 ---------------------------------------------------------------------
 Center     Atomic      Atomic             Coordinates (Angstroms)
 Number     Number       Type             X           Y           Z
 ---------------------------------------------------------------------
      1          9           0        0.000000    1.098813   -0.289120
      2          6           0       -0.000000   -0.000000    0.499944
      3          9           0       -0.000000   -1.098813   -0.289120
      4          1           0       -0.911346    0.000000    1.102246
      5          1           0        0.911346   -0.000000    1.102246
 ---------------------------------------------------------------------

 SCF Done:  E(RwB97XD) =  -239.027198054     A.U. after   11 cycles

 Excitation energies and oscillator strengths:

 Excited State   1:      Singlet-B1     9.2846 eV  133.54 nm  f=0.0298  <S**2>=0.000
      13 -> 14         0.68573
      13 -> 18         0.11695
 This state for optimization and/or second-order correction.
 Total Energy, E(TD-HF/TD-DFT) =  -238.685995768
 Copying the excited state density for this state as the 1-particle RhoCI density.

 Excited State   2:      Singlet-A2     9.9496 eV  124.61 nm  f=0.0000  <S**2>=0.000
      13 -> 15         0.62983
      13 -> 19        -0.23665
      13 -> 23         0.17488

 Excited State   3:      Singlet-B1    10.3844 eV  119.40 nm  f=0.0233  <S**2>=0.000
      13 -> 16         0.63923
      13 -> 18         0.20620
      13 -> 21         0.17436

 Excited State   4:      Singlet-A1    10.5885 eV  117.09 nm  f=0.0610  <S**2>=0.000
      13 -> 17         0.69634

 Excited State   5:      Singlet-B2    11.1050 eV  111.65 nm  f=0.0260  <S**2>=0.000
      11 -> 15        -0.19701
      12 -> 14         0.65227
      12 -> 16         0.10153

 Excited State   6:      Singlet-A1    11.3265 eV  109.46 nm  f=0.0082  <S**2>=0.000
      11 -> 14         0.61068
      12 -> 15        -0.31574

 Excited State   7:      Singlet-B1    11.6571 eV  106.36 nm  f=0.0801  <S**2>=0.000
      10 -> 15         0.11150
      13 -> 14        -0.11788
      13 -> 16        -0.25786
      13 -> 18         0.55198
      13 -> 21         0.29166

 Excited State   8:      Singlet-A2    11.6672 eV  106.27 nm  f=0.0000  <S**2>=0.000
      10 -> 14         0.57393
      10 -> 16         0.14136
      13 -> 19        -0.31129
      13 -> 23         0.15312

 Excited State   9:      Singlet-A1    11.9409 eV  103.83 nm  f=0.0117  <S**2>=0.000
      11 -> 14         0.30903
      12 -> 15         0.53869
      12 -> 19        -0.15369
      12 -> 23         0.16739
      13 -> 22        -0.18539

 Excited State  10:      Singlet-A2    12.0886 eV  102.56 nm  f=0.0000  <S**2>=0.000
      10 -> 14         0.34554
      10 -> 16        -0.11213
      10 -> 18         0.12875
      13 -> 15         0.27259
      13 -> 19         0.50361
      13 -> 23        -0.12022

 Excited State  11:      Singlet-B2    12.0993 eV  102.47 nm  f=0.0156  <S**2>=0.000
      11 -> 15        -0.39266
      11 -> 23        -0.12285
      12 -> 14        -0.22076
      12 -> 16         0.50447

 Excited State  12:      Singlet-B1    12.1448 eV  102.09 nm  f=0.0183  <S**2>=0.000
      10 -> 15        -0.43548
      10 -> 19         0.12880
      13 -> 18        -0.22530
      13 -> 21         0.45958

 Excited State  13:      Singlet-B2    12.3027 eV  100.78 nm  f=0.0214  <S**2>=0.000
      10 -> 17        -0.26460
      11 -> 15        -0.18932
      12 -> 16        -0.12680
      13 -> 20         0.59401

 Excited State  14:      Singlet-A1    12.3483 eV  100.41 nm  f=0.1391  <S**2>=0.000
      11 -> 16         0.64129
      11 -> 18         0.15582
      12 -> 19        -0.11707
      13 -> 22        -0.15237

 Excited State  15:      Singlet-A2    12.3646 eV  100.27 nm  f=0.0000  <S**2>=0.000
      12 -> 17         0.69293

 Excited State  16:      Singlet-B1    12.5336 eV   98.92 nm  f=0.0292  <S**2>=0.000
      11 -> 17         0.68614
      12 -> 20        -0.11635

 Excited State  17:      Singlet-B2    12.5979 eV   98.42 nm  f=0.0429  <S**2>=0.000
      10 -> 17        -0.13581
      11 -> 15         0.45119
      11 -> 19        -0.12632
      12 -> 16         0.43378
      13 -> 20         0.21032

 Excited State  18:      Singlet-A2    12.6180 eV   98.26 nm  f=0.0000  <S**2>=0.000
      10 -> 16         0.50504
      10 -> 18         0.17130
      13 -> 15         0.11715
      13 -> 23        -0.40562

 Excited State  19:      Singlet-A1    12.6603 eV   97.93 nm  f=0.0152  <S**2>=0.000
      11 -> 16         0.11509
      12 -> 15         0.16373
      13 -> 22         0.65260

 Excited State  20:      Singlet-B1    12.6898 eV   97.70 nm  f=0.0104  <S**2>=0.000
      10 -> 15         0.45649
      10 -> 19        -0.16284
      10 -> 23         0.17269
      13 -> 18        -0.26988
      13 -> 21         0.38031

 Excited State  21:      Singlet-B2    13.1238 eV   94.47 nm  f=0.0306  <S**2>=0.000
      10 -> 17         0.63281
      13 -> 20         0.29298

 Excited State  22:      Singlet-A2    13.1687 eV   94.15 nm  f=0.0000  <S**2>=0.000
      10 -> 14        -0.10761
      10 -> 16         0.38710
      10 -> 21         0.10475
      13 -> 19         0.27380
      13 -> 23         0.47647
      13 -> 30        -0.10518

 Excited State  23:      Singlet-B2    13.2924 eV   93.27 nm  f=0.0000  <S**2>=0.000
      11 -> 19         0.21038
      12 -> 18         0.52978
      12 -> 21         0.33188
      12 -> 25        -0.10079

 Excited State  24:      Singlet-A1    13.4088 eV   92.47 nm  f=0.0028  <S**2>=0.000
      11 -> 18         0.43515
      11 -> 21         0.20748
      12 -> 15         0.12367
      12 -> 19         0.43215
      12 -> 23        -0.16513

 Excited State  25:      Singlet-A1    13.8087 eV   89.79 nm  f=0.0163  <S**2>=0.000
      11 -> 16         0.20340
      11 -> 18        -0.31173
      11 -> 21        -0.32222
      12 -> 15         0.19123
      12 -> 19         0.41017
      12 -> 23        -0.14585

 Excited State  26:      Singlet-B2    13.8799 eV   89.33 nm  f=0.1308  <S**2>=0.000
       8 -> 15        -0.10149
      11 -> 19        -0.22162
      11 -> 23         0.14243
      12 -> 18        -0.26648
      12 -> 21         0.57463

 Excited State  27:      Singlet-A2    13.8978 eV   89.21 nm  f=0.0000  <S**2>=0.000
      10 -> 14        -0.11297
      10 -> 16        -0.21608
      10 -> 18         0.47935
      10 -> 21         0.40467
      10 -> 25        -0.11457

 Excited State  28:      Singlet-B1    14.0034 eV   88.54 nm  f=0.0212  <S**2>=0.000
       8 -> 17        -0.10660
      11 -> 22         0.38312
      12 -> 20         0.56590

 Excited State  29:      Singlet-A2    14.0368 eV   88.33 nm  f=0.0000  <S**2>=0.000
      11 -> 20         0.27580
      12 -> 22         0.62838

 Excited State  30:      Singlet-B1    14.0789 eV   88.06 nm  f=0.0041  <S**2>=0.000
      10 -> 15         0.18816
      10 -> 19         0.43846
      10 -> 23        -0.17957
      13 -> 24        -0.25433
      13 -> 25        -0.28410
      13 -> 27         0.21210

 Excited State  31:      Singlet-B2    14.1430 eV   87.66 nm  f=0.0086  <S**2>=0.000
      10 -> 22         0.13333
      11 -> 15         0.18704
      11 -> 19         0.54260
      12 -> 18        -0.30680

 Excited State  32:      Singlet-B1    14.2658 eV   86.91 nm  f=0.0066  <S**2>=0.000
       7 -> 16        -0.11504
      10 -> 19         0.31152
      11 -> 22        -0.21292
      12 -> 20         0.13505
      13 -> 24        -0.23776
      13 -> 25         0.43353
      13 -> 27        -0.23060

 Excited State  33:      Singlet-A1    14.2912 eV   86.76 nm  f=0.0034  <S**2>=0.000
      10 -> 20         0.13806
      11 -> 18        -0.36357
      11 -> 21         0.51260
      12 -> 19         0.15564
      12 -> 23         0.17506

 Excited State  34:      Singlet-A2    14.4518 eV   85.79 nm  f=0.0000  <S**2>=0.000
      10 -> 18        -0.21114
      10 -> 21         0.24651
      11 -> 20         0.53787
      12 -> 22        -0.25239

 Excited State  35:      Singlet-B1    14.4524 eV   85.79 nm  f=0.0094  <S**2>=0.000
      11 -> 22         0.52873
      12 -> 20        -0.34969
      13 -> 25         0.22290

 Excited State  36:      Singlet-A2    14.5329 eV   85.31 nm  f=0.0000  <S**2>=0.000
       7 -> 15        -0.12261
      10 -> 18        -0.36563
      10 -> 21         0.43478
      11 -> 20        -0.32658
      12 -> 22         0.12196
      13 -> 30         0.11164

 Excited State  37:      Singlet-A1    14.6770 eV   84.47 nm  f=0.0119  <S**2>=0.000
       8 -> 14         0.20425
      10 -> 20         0.24277
      11 -> 18         0.12931
      11 -> 21        -0.18259
      12 -> 19         0.20657
      12 -> 23         0.50047
      12 -> 30        -0.10822

 Excited State  38:      Singlet-B1    14.7003 eV   84.34 nm  f=0.0947  <S**2>=0.000
       7 -> 14        -0.11812
      10 -> 15         0.11058
      10 -> 19         0.24126
      10 -> 23        -0.18795
      13 -> 24         0.58495

 Excited State  39:      Singlet-B2    14.7848 eV   83.86 nm  f=0.0128  <S**2>=0.000
       9 -> 14        -0.15911
      10 -> 22         0.54152
      11 -> 19        -0.21368
      11 -> 23        -0.30694

 Excited State  40:      Singlet-A1    14.8394 eV   83.55 nm  f=0.0000  <S**2>=0.000
      10 -> 20         0.61921
      12 -> 19        -0.11317
      12 -> 23        -0.25001

 Excited State  41:      Singlet-B2    14.9497 eV   82.93 nm  f=0.0008  <S**2>=0.000
       9 -> 14         0.43460
       9 -> 18         0.10043
      10 -> 22         0.32080
      11 -> 23         0.33189
      13 -> 26        -0.13894

 Excited State  42:      Singlet-B1    15.0461 eV   82.40 nm  f=0.0510  <S**2>=0.000
       7 -> 14         0.58257
      10 -> 19         0.18658
      10 -> 23         0.22565
      13 -> 24         0.13797
      13 -> 25        -0.15215

 Excited State  43:      Singlet-B2    15.0579 eV   82.34 nm  f=0.0153  <S**2>=0.000
       9 -> 14         0.47294
       9 -> 16         0.11045
       9 -> 18         0.11482
      10 -> 22        -0.12574
      11 -> 15         0.11169
      11 -> 23        -0.40169
      13 -> 26         0.11887

 Excited State  44:      Singlet-A1    15.2091 eV   81.52 nm  f=0.0088  <S**2>=0.000
       8 -> 14         0.64222
       8 -> 18         0.13247
      12 -> 23        -0.17572

 Excited State  45:      Singlet-B1    15.3729 eV   80.65 nm  f=0.0898  <S**2>=0.000
       7 -> 14        -0.29892
      10 -> 19         0.17937
      10 -> 23         0.41132
      13 -> 25        -0.26255
      13 -> 27        -0.31369

 Excited State  46:      Singlet-B1    15.5400 eV   79.78 nm  f=0.0010  <S**2>=0.000
       7 -> 14        -0.10579
      10 -> 15        -0.10368
      10 -> 23         0.37274
      13 -> 25         0.21915
      13 -> 27         0.51167

 Excited State  47:      Singlet-B2    15.7002 eV   78.97 nm  f=0.0002  <S**2>=0.000
       8 -> 15         0.35772
       8 -> 19        -0.14928
       8 -> 23         0.13229
      10 -> 22         0.11130
      12 -> 24         0.10172
      13 -> 26         0.52341

 Excited State  48:      Singlet-A1    15.7445 eV   78.75 nm  f=0.0373  <S**2>=0.000
       7 -> 17        -0.14535
       9 -> 15         0.57597
       9 -> 19        -0.15099
       9 -> 23         0.12291
      13 -> 28        -0.21836
      13 -> 29         0.12508

 Excited State  49:      Singlet-A2    15.7564 eV   78.69 nm  f=0.0000  <S**2>=0.000
       7 -> 15         0.58293
       7 -> 19        -0.26610
       7 -> 23         0.20224
      10 -> 18        -0.10600
      10 -> 21         0.11514

 Excited State  50:      Singlet-B2    15.7981 eV   78.48 nm  f=0.2604  <S**2>=0.000
       8 -> 15         0.47408
       8 -> 19        -0.16359
       8 -> 23         0.11305
       9 -> 16         0.17099
      10 -> 22        -0.10177
      12 -> 25        -0.10016
      13 -> 26        -0.38745

 Excited State  51:      Singlet-A1    15.9368 eV   77.80 nm  f=0.0352  <S**2>=0.000
       8 -> 16         0.27817
       9 -> 15         0.16814
      11 -> 25        -0.20662
      11 -> 27         0.15327
      13 -> 28         0.50885
      13 -> 29         0.10393

 Excited State  52:      Singlet-B2    16.0277 eV   77.36 nm  f=0.0003  <S**2>=0.000
       8 -> 19         0.11405
       9 -> 14        -0.13200
       9 -> 16         0.58372
       9 -> 18         0.13118
      11 -> 23         0.11235
      12 -> 24        -0.22385

 Excited State  53:      Singlet-A2    16.0334 eV   77.33 nm  f=0.0000  <S**2>=0.000
      10 -> 21        -0.11828
      13 -> 23         0.17866
      13 -> 30         0.65522

 Excited State  54:      Singlet-A1    16.0670 eV   77.17 nm  f=0.0006  <S**2>=0.000
       8 -> 16         0.48952
       8 -> 18         0.16022
       8 -> 21         0.13515
       9 -> 15        -0.15419
      13 -> 28        -0.34040
      13 -> 29         0.19745

 Excited State  55:      Singlet-A1    16.1924 eV   76.57 nm  f=0.0540  <S**2>=0.000
       7 -> 17        -0.35632
       8 -> 16        -0.10702
       9 -> 15        -0.15841
      11 -> 24         0.21344
      11 -> 25         0.16595
      11 -> 27        -0.12866
      13 -> 28         0.15555
      13 -> 29         0.43910

 Excited State  56:      Singlet-B1    16.2052 eV   76.51 nm  f=0.0129  <S**2>=0.000
       7 -> 16        -0.23424
       8 -> 17         0.62992

 Excited State  57:      Singlet-A2    16.2069 eV   76.50 nm  f=0.0000  <S**2>=0.000
       9 -> 17         0.68930

 Excited State  58:      Singlet-B2    16.3335 eV   75.91 nm  f=0.0086  <S**2>=0.000
       8 -> 15        -0.14863
       9 -> 16         0.16143
      12 -> 24         0.62409
      12 -> 25        -0.15714

 Excited State  59:      Singlet-B1    16.3731 eV   75.72 nm  f=0.0434  <S**2>=0.000
       7 -> 16         0.59709
       7 -> 18         0.15183
       7 -> 21         0.12040
       8 -> 17         0.26295

 Excited State  60:      Singlet-A1    16.3914 eV   75.64 nm  f=0.0153  <S**2>=0.000
       7 -> 17        -0.32093
       8 -> 16         0.14852
      11 -> 24        -0.32425
      11 -> 25         0.35911
      11 -> 27        -0.15674
      13 -> 29        -0.26120

 Excited State  61:      Singlet-A1    16.5764 eV   74.80 nm  f=0.0984  <S**2>=0.000
       7 -> 17         0.20366
       8 -> 16         0.24830
      11 -> 24         0.46056
      11 -> 25         0.24181
      11 -> 27        -0.18839
      13 -> 28         0.13689
      13 -> 29        -0.17114

 Excited State  62:      Singlet-B2    16.6181 eV   74.61 nm  f=0.0979  <S**2>=0.000
       9 -> 16         0.19771
       9 -> 21        -0.19570
      11 -> 23        -0.15233
      12 -> 21         0.13623
      12 -> 24         0.10308
      12 -> 25         0.48640
      12 -> 27        -0.25551

 Excited State  63:      Singlet-A1    16.7361 eV   74.08 nm  f=0.1584  <S**2>=0.000
       7 -> 17         0.40217
      11 -> 24        -0.29945
      11 -> 25         0.18609
      11 -> 27        -0.20011
      13 -> 29         0.33123
      13 -> 31         0.11934

 Excited State  64:      Singlet-A2    16.7584 eV   73.98 nm  f=0.0000  <S**2>=0.000
      10 -> 21         0.15905
      10 -> 24         0.21510
      10 -> 25         0.49834
      10 -> 27        -0.35504
      10 -> 32        -0.11038

 Excited State  65:      Singlet-A2    16.8641 eV   73.52 nm  f=0.0000  <S**2>=0.000
       7 -> 15        -0.11014
      10 -> 24         0.62243
      10 -> 25        -0.20258
      13 -> 33         0.14304

 Excited State  66:      Singlet-A1    17.1726 eV   72.20 nm  f=0.0373  <S**2>=0.000
       7 -> 22         0.15033
      11 -> 27         0.10398
      13 -> 31         0.65398

 Excited State  67:      Singlet-B1    17.2061 eV   72.06 nm  f=0.0406  <S**2>=0.000
       7 -> 18        -0.12961
       7 -> 21        -0.15216
      13 -> 32         0.64160
      13 -> 34         0.15179

 Excited State  68:      Singlet-B2    17.2271 eV   71.97 nm  f=0.0257  <S**2>=0.000
       9 -> 21         0.11323
      12 -> 25         0.39069
      12 -> 27         0.51890

 Excited State  69:      Singlet-B2    17.2705 eV   71.79 nm  f=0.0319  <S**2>=0.000
       8 -> 19        -0.14668
       9 -> 14        -0.12779
       9 -> 16        -0.13516
       9 -> 18         0.57086
       9 -> 21         0.17898
      11 -> 30        -0.17715

 Excited State  70:      Singlet-A1    17.3624 eV   71.41 nm  f=0.0137  <S**2>=0.000
       8 -> 16        -0.21277
       8 -> 18         0.44079
       8 -> 21         0.35059
       9 -> 15         0.10684
       9 -> 23        -0.11384
      11 -> 25         0.21915
      11 -> 27         0.12800

 Excited State  71:      Singlet-A2    17.3770 eV   71.35 nm  f=0.0000  <S**2>=0.000
      10 -> 24        -0.14117
      13 -> 33         0.66621

 Excited State  72:      Singlet-B1    17.4130 eV   71.20 nm  f=0.0141  <S**2>=0.000
       7 -> 14        -0.11744
       7 -> 16        -0.19744
       7 -> 18         0.46723
       7 -> 21         0.24493
      11 -> 29        -0.10170
      12 -> 26         0.16329
      13 -> 32         0.23748
      13 -> 34        -0.15193

 Excited State  73:      Singlet-A1    17.4975 eV   70.86 nm  f=0.0124  <S**2>=0.000
       8 -> 18        -0.26636
      11 -> 25         0.32766
      11 -> 27         0.46360
      12 -> 30         0.20586

 Excited State  74:      Singlet-B1    17.5653 eV   70.58 nm  f=0.0092  <S**2>=0.000
       7 -> 18        -0.10049
       8 -> 22        -0.24659
       9 -> 20         0.12362
      12 -> 26         0.56942
      13 -> 34         0.26102

 Excited State  75:      Singlet-A2    17.6632 eV   70.19 nm  f=0.0000  <S**2>=0.000
       8 -> 20        -0.21409
       9 -> 22        -0.12242
      11 -> 26         0.48868
      12 -> 28         0.35352
      12 -> 29        -0.16716

 Excited State  76:      Singlet-A1    17.7082 eV   70.02 nm  f=0.0017  <S**2>=0.000
       8 -> 18        -0.22578
       8 -> 21         0.28862
       9 -> 19         0.28335
      11 -> 25        -0.11113
      11 -> 27        -0.25043
      12 -> 30         0.41101

 Excited State  77:      Singlet-A2    17.7083 eV   70.01 nm  f=0.0000  <S**2>=0.000
       7 -> 15        -0.11092
       7 -> 19        -0.21028
       7 -> 23         0.11351
       8 -> 20        -0.19823
       9 -> 22         0.30927
      10 -> 25        -0.19582
      10 -> 27        -0.20908
      11 -> 26        -0.30845
      12 -> 28         0.28171

 Excited State  78:      Singlet-B2    17.7186 eV   69.97 nm  f=0.0107  <S**2>=0.000
       8 -> 15         0.23014
       8 -> 19         0.48411
       8 -> 23        -0.18098
       9 -> 21         0.28201
      12 -> 27        -0.22728

 Excited State  79:      Singlet-A2    17.7361 eV   69.91 nm  f=0.0000  <S**2>=0.000
       7 -> 15         0.11731
       7 -> 19         0.19694
       7 -> 23        -0.13497
       8 -> 20        -0.16999
       9 -> 22         0.24472
      10 -> 25         0.29292
      10 -> 27         0.32209
      12 -> 28         0.29892
      13 -> 35        -0.14034

 Excited State  80:      Singlet-A1    17.7839 eV   69.72 nm  f=0.0186  <S**2>=0.000
       8 -> 21        -0.14210
       9 -> 15         0.15009
       9 -> 19         0.56157
      10 -> 26         0.12945
      12 -> 30        -0.24813

 Excited State  81:      Singlet-B1    17.7893 eV   69.70 nm  f=0.0536  <S**2>=0.000
       7 -> 18         0.13910
       7 -> 21         0.10018
       8 -> 22        -0.14051
       9 -> 20         0.13263
      11 -> 29        -0.21933
      12 -> 26        -0.31094
      13 -> 34         0.50647

 Excited State  82:      Singlet-B1    17.8148 eV   69.60 nm  f=0.0197  <S**2>=0.000
       8 -> 22        -0.19339
       9 -> 20         0.49414
      11 -> 28        -0.36891
      13 -> 34        -0.20425

 Excited State  83:      Singlet-A2    17.8347 eV   69.52 nm  f=0.0000  <S**2>=0.000
       8 -> 20        -0.12111
      11 -> 26         0.14135
      12 -> 22         0.10496
      12 -> 29         0.66255

 Excited State  84:      Singlet-A2    17.9399 eV   69.11 nm  f=0.0000  <S**2>=0.000
       7 -> 15         0.23469
       7 -> 19         0.42691
       7 -> 23        -0.13654
       9 -> 22         0.24361
      10 -> 25        -0.16088
      10 -> 27        -0.32894
      12 -> 28        -0.11612

 Excited State  85:      Singlet-B2    17.9614 eV   69.03 nm  f=0.0626  <S**2>=0.000
       8 -> 15        -0.13916
       8 -> 19        -0.27719
       9 -> 18        -0.28863
       9 -> 21         0.49912
      10 -> 29        -0.14214

 Excited State  86:      Singlet-A2    18.0054 eV   68.86 nm  f=0.0000  <S**2>=0.000
       7 -> 19        -0.18631
       9 -> 22         0.45235
      10 -> 27         0.13007
      11 -> 26         0.30468
      12 -> 28        -0.31608

 Excited State  87:      Singlet-B1    18.0407 eV   68.72 nm  f=0.0682  <S**2>=0.000
       7 -> 18         0.30208
       7 -> 21        -0.34509
       8 -> 22        -0.16134
      10 -> 30        -0.25256
      11 -> 28         0.10040
      11 -> 29         0.38598

 Excited State  88:      Singlet-B1    18.0760 eV   68.59 nm  f=0.0013  <S**2>=0.000
       7 -> 18        -0.18118
       7 -> 21         0.33162
       8 -> 22        -0.30288
       9 -> 20        -0.10451
      10 -> 30         0.20538
      11 -> 28         0.18957
      11 -> 29         0.36605
      12 -> 26        -0.12118

 Excited State  89:      Singlet-A1    18.1051 eV   68.48 nm  f=0.0579  <S**2>=0.000

 The electronic state is 1-A1.
 Alpha  occ. eigenvalues --  -24.82369 -24.82368 -10.44776  -1.36581  -1.30791
 Alpha  occ. eigenvalues --   -0.81140  -0.64882  -0.64531  -0.64202  -0.52378
 Alpha  occ. eigenvalues --   -0.51010  -0.50153  -0.43806
 Alpha virt. eigenvalues --    0.06919   0.10500   0.11159   0.11356   0.15909
 Alpha virt. eigenvalues --    0.16023   0.16898   0.17514   0.17995   0.21538
 Alpha virt. eigenvalues --    0.25494   0.28480   0.31212   0.31365   0.32080

 Mulliken charges:
               1
     1  F   -0.262924
     2  C    0.224060
     3  F   -0.262924
     4  H    0.150894
     5  H    0.150894
 Sum of Mulliken charges =  -0.00000

 Dipole moment (field-independent basis, Debye):
    X=              0.0000    Y=              0.0000    Z=              1.9070  Tot=              1.9070
 Quadrupole moment (field-independent basis, Debye-Ang):
   XX=            -15.2216   YY=            -18.9880   ZZ=            -15.3239
   XY=             -0.0000   XZ=              0.0000   YZ=              0.0000

 Normal termination of Gaussian 16 at Sun Feb 27 06:40:43 2022.
