 Gaussian 16, Revision C.01,
 Gaussian 16:  EM64L-G16RevC.01  3-Jul-2019

 ----------------------------------------------------------------------
 #P TD(Nstates=10000) wB97XD/Gen SCF(maxcycles=100) Int(Grid=ultrafine)
 ----------------------------------------------------------------------

 ---------------------
 xGDB7_00001_tier4.com
 ---------------------
 Symbolic Z-matrix:
 Charge =  0 Multiplicity = 1

                         Standard orientation:
 ---------------------------------------------------------------------
 Center     Atomic      Atomic             Coordinates (Angstroms)
 Number     Number       Type             X           Y           Z
 ---------------------------------------------------------------------
      1          8           0        0.000000   -0.000000    0.116015
      2          1           0        0.000000    0.761895   -0.464058
      3          1           0       -0.000000   -0.761895   -0.464058
 ---------------------------------------------------------------------

 SCF Done:  E(RwB97XD) =  -76.4408847047     A.U. after   11 cycles

 Excitation energies and oscillator strengths:

 Excited State   1:      Singlet-B1     7.5522 eV  164.17 nm  f=0.0542  <S**2>=0.000
       5 ->  6         0.69649
 This state for optimization and/or second-order correction.
 Total Energy, E(TD-HF/TD-DFT) =  -76.1633450808
 Copying the excited state density for this state as the 1-particle RhoCI density.

 Excited State   2:      Singlet-A2     9.1515 eV  135.48 nm  f=0.0000  <S**2>=0.000
       5 ->  7         0.68337
       5 -> 10         0.14198
       5 -> 16        -0.10083

 Excited State   3:      Singlet-A1     9.6669 eV  128.26 nm  f=0.0915  <S**2>=0.000
       4 ->  6         0.65052
       5 ->  8         0.24346

 Excited State   4:      Singlet-B1    10.0664 eV  123.17 nm  f=0.0072  <S**2>=0.000
       5 ->  9         0.69668

 Excited State   5:      Singlet-A1    10.3260 eV  120.07 nm  f=0.0115  <S**2>=0.000
       4 ->  6        -0.23103
       4 ->  9        -0.11854
       5 ->  8         0.65155

 Excited State   6:      Singlet-B2    11.2866 eV  109.85 nm  f=0.0130  <S**2>=0.000
       4 ->  7         0.69159
       4 -> 10         0.10023

 Excited State   7:      Singlet-A2    11.4496 eV  108.29 nm  f=0.0000  <S**2>=0.000
       5 ->  7        -0.15139
       5 -> 10         0.68106

 Excited State   8:      Singlet-B1    12.0428 eV  102.95 nm  f=0.0038  <S**2>=0.000
       4 ->  8         0.67856
       5 -> 11         0.16322

 Excited State   9:      Singlet-A1    12.2714 eV  101.04 nm  f=0.0168  <S**2>=0.000
       4 ->  6        -0.10836
       4 ->  9         0.68094

 Excited State  10:      Singlet-B1    12.2770 eV  100.99 nm  f=0.0307  <S**2>=0.000
       4 ->  8        -0.17033
       5 -> 11         0.67567

 Excited State  11:      Singlet-B2    13.0759 eV   94.82 nm  f=0.0484  <S**2>=0.000
       4 -> 10        -0.13268
       5 -> 12         0.68884

 Excited State  12:      Singlet-B1    13.2100 eV   93.86 nm  f=0.0294  <S**2>=0.000
       5 -> 11        -0.10444
       5 -> 13         0.68420

 Excited State  13:      Singlet-B2    13.5392 eV   91.57 nm  f=0.0707  <S**2>=0.000
       3 ->  6         0.66495
       4 -> 10        -0.20920

 Excited State  14:      Singlet-B2    13.8136 eV   89.75 nm  f=0.2435  <S**2>=0.000
       3 ->  6         0.21544
       4 -> 10         0.64763
       5 -> 12         0.13959

 Excited State  15:      Singlet-A1    13.8699 eV   89.39 nm  f=0.0533  <S**2>=0.000
       4 -> 11         0.14141
       4 -> 13         0.11644
       5 -> 14         0.66162

 Excited State  16:      Singlet-A1    14.3391 eV   86.47 nm  f=0.0188  <S**2>=0.000
       4 -> 11         0.68528
       5 -> 14        -0.13489

 Excited State  17:      Singlet-B1    14.8075 eV   83.73 nm  f=0.1339  <S**2>=0.000
       5 -> 15         0.69942

 Excited State  18:      Singlet-A2    15.0992 eV   82.11 nm  f=0.0000  <S**2>=0.000
       4 -> 12         0.17968
       5 -> 16         0.65687
       5 -> 17         0.14183

 Excited State  19:      Singlet-A1    15.1981 eV   81.58 nm  f=0.0040  <S**2>=0.000
       3 ->  7         0.49478
       3 -> 10         0.11175
       4 -> 13         0.47285

 Excited State  20:      Singlet-A2    15.2027 eV   81.55 nm  f=0.0000  <S**2>=0.000
       4 -> 12         0.67977
       5 -> 16        -0.17176

 Excited State  21:      Singlet-B1    15.9670 eV   77.65 nm  f=0.0857  <S**2>=0.000
       4 -> 14         0.69651

 Excited State  22:      Singlet-A2    16.0160 eV   77.41 nm  f=0.0000  <S**2>=0.000
       3 ->  8         0.69618
       3 -> 14        -0.10627

 Excited State  23:      Singlet-A1    16.0630 eV   77.19 nm  f=0.0793  <S**2>=0.000
       3 ->  7         0.48066
       3 -> 10        -0.10083
       4 -> 13        -0.47402
       5 -> 14         0.13503

 Excited State  24:      Singlet-B2    16.1566 eV   76.74 nm  f=0.0313  <S**2>=0.000
       3 ->  9         0.69623

 Excited State  25:      Singlet-A2    16.4740 eV   75.26 nm  f=0.0000  <S**2>=0.000
       5 -> 16        -0.16068
       5 -> 17         0.67928

 Excited State  26:      Singlet-A1    16.9351 eV   73.21 nm  f=0.0014  <S**2>=0.000
       4 -> 15         0.69944

 Excited State  27:      Singlet-B2    17.2500 eV   71.88 nm  f=0.0001  <S**2>=0.000
       4 -> 16         0.69067

 Excited State  28:      Singlet-A1    17.9644 eV   69.02 nm  f=0.2174  <S**2>=0.000
       3 -> 10         0.67992
       4 -> 13        -0.13307

 Excited State  29:      Singlet-B2    18.2293 eV   68.01 nm  f=0.0913  <S**2>=0.000
       3 -> 11         0.60327
       4 -> 17        -0.34206

 Excited State  30:      Singlet-B2    18.7801 eV   66.02 nm  f=0.0703  <S**2>=0.000
       3 -> 11         0.34191
       4 -> 17         0.60286

 Excited State  31:      Singlet-A2    18.8149 eV   65.90 nm  f=0.0000  <S**2>=0.000
       5 -> 18         0.69731

 Excited State  32:      Singlet-B1    18.9430 eV   65.45 nm  f=0.0001  <S**2>=0.000
       3 -> 12         0.54273
       5 -> 19         0.44403

 Excited State  33:      Singlet-B2    19.1704 eV   64.67 nm  f=0.0077  <S**2>=0.000
       3 -> 13         0.68793

 Excited State  34:      Singlet-B1    19.2267 eV   64.49 nm  f=0.2242  <S**2>=0.000
       3 -> 12        -0.44688
       4 -> 20        -0.10227
       5 -> 19         0.53091

 Excited State  35:      Singlet-A1    19.7070 eV   62.91 nm  f=0.0604  <S**2>=0.000
       4 -> 19         0.18607
       5 -> 20         0.66399

 Excited State  36:      Singlet-A2    19.7469 eV   62.79 nm  f=0.0000  <S**2>=0.000
       3 ->  8         0.10673
       3 -> 14         0.69589

 Excited State  37:      Singlet-B1    20.7520 eV   59.75 nm  f=0.0190  <S**2>=0.000
       5 -> 21         0.69822

 Excited State  38:      Singlet-B2    20.8300 eV   59.52 nm  f=0.0102  <S**2>=0.000
       3 -> 15         0.55050
       4 -> 18         0.35239
       5 -> 22        -0.25390

 Excited State  39:      Singlet-B2    20.9481 eV   59.19 nm  f=0.0367  <S**2>=0.000
       3 -> 15        -0.43495
       4 -> 18         0.45100
       5 -> 22        -0.31591

 Excited State  40:      Singlet-A1    20.9497 eV   59.18 nm  f=0.0917  <S**2>=0.000
       3 -> 16        -0.25527
       4 -> 19         0.63814
       5 -> 20        -0.14003

 Excited State  41:      Singlet-B1    21.5530 eV   57.53 nm  f=0.2043  <S**2>=0.000
       4 -> 20         0.68954

 Excited State  42:      Singlet-A1    21.6337 eV   57.31 nm  f=0.0031  <S**2>=0.000
       3 -> 16         0.61576
       4 -> 19         0.21882
       4 -> 21         0.11185
       5 -> 20        -0.13885
       5 -> 24        -0.12022

 Excited State  43:      Singlet-B2    21.6422 eV   57.29 nm  f=0.3440  <S**2>=0.000
       3 -> 11        -0.10246
       4 -> 18         0.38609
       5 -> 22         0.55989

 Excited State  44:      Singlet-A1    22.6351 eV   54.78 nm  f=0.0077  <S**2>=0.000
       3 -> 17         0.64869
       4 -> 21        -0.21188
       5 -> 24        -0.11932

 Excited State  45:      Singlet-A1    22.9296 eV   54.07 nm  f=0.2635  <S**2>=0.000
       3 -> 17         0.23062
       4 -> 21         0.64936

 Excited State  46:      Singlet-A2    23.2349 eV   53.36 nm  f=0.0000  <S**2>=0.000
       4 -> 22         0.70339

 Excited State  47:      Singlet-B1    24.7428 eV   50.11 nm  f=0.0000  <S**2>=0.000
       5 -> 23         0.70476

 Excited State  48:      Singlet-B2    25.0814 eV   49.43 nm  f=0.0698  <S**2>=0.000
       3 -> 19         0.69487

 Excited State  49:      Singlet-A1    25.3112 eV   48.98 nm  f=0.1620  <S**2>=0.000
       3 -> 18         0.67573
       4 -> 23        -0.12705

 Excited State  50:      Singlet-A2    25.6682 eV   48.30 nm  f=0.0000  <S**2>=0.000
       3 -> 20         0.70127

 Excited State  51:      Singlet-B1    25.8330 eV   47.99 nm  f=0.0161  <S**2>=0.000
       5 -> 25         0.70345

 Excited State  52:      Singlet-A2    26.0567 eV   47.58 nm  f=0.0000  <S**2>=0.000
       5 -> 26         0.70264

 Excited State  53:      Singlet-A1    26.2392 eV   47.25 nm  f=0.0212  <S**2>=0.000
       2 ->  6        -0.25912
       4 -> 25         0.26675
       5 -> 24         0.57883

 Excited State  54:      Singlet-A1    26.8125 eV   46.24 nm  f=0.0415  <S**2>=0.000
       3 -> 18         0.12271
       4 -> 23         0.69087

 Excited State  55:      Singlet-B2    27.3069 eV   45.40 nm  f=0.2256  <S**2>=0.000
       3 -> 21         0.65905
       4 -> 26        -0.20640

 Excited State  56:      Singlet-A1    27.3453 eV   45.34 nm  f=0.0017  <S**2>=0.000
       2 ->  6         0.61353
       4 -> 25         0.29289
       5 -> 24         0.14013

 Excited State  57:      Singlet-B1    27.4256 eV   45.21 nm  f=0.1401  <S**2>=0.000
       3 -> 22         0.65853
       4 -> 24         0.24450

 Excited State  58:      Singlet-B1    27.9236 eV   44.40 nm  f=0.0593  <S**2>=0.000
       3 -> 22        -0.23502
       4 -> 24         0.65575

 Excited State  59:      Singlet-B2    28.4672 eV   43.55 nm  f=0.0478  <S**2>=0.000
       2 ->  7        -0.36450
       3 -> 21         0.11412
       4 -> 26         0.57490

 Excited State  60:      Singlet-B2    28.8582 eV   42.96 nm  f=0.0184  <S**2>=0.000
       2 ->  7         0.58316
       3 -> 21         0.16597
       4 -> 26         0.33438

 Excited State  61:      Singlet-A1    29.4452 eV   42.11 nm  f=0.0034  <S**2>=0.000
       2 ->  6        -0.12928
       2 ->  9         0.64499
       4 -> 25         0.20167

 Excited State  62:      Singlet-B1    29.5537 eV   41.95 nm  f=0.0017  <S**2>=0.000
       2 ->  8         0.69442

 Excited State  63:      Singlet-A1    30.3798 eV   40.81 nm  f=0.0132  <S**2>=0.000
       2 ->  6        -0.13537
       2 ->  9        -0.25140
       2 -> 13        -0.11867
       3 -> 26        -0.30299
       3 -> 27        -0.10017
       4 -> 25         0.46512
       5 -> 24        -0.22164

 Excited State  64:      Singlet-A2    30.7104 eV   40.37 nm  f=0.0000  <S**2>=0.000
       5 -> 27         0.70311

 Excited State  65:      Singlet-B2    30.9881 eV   40.01 nm  f=0.0002  <S**2>=0.000
       2 ->  7        -0.11855
       2 -> 10         0.67481
       3 -> 23         0.13394

 Excited State  66:      Singlet-B2    31.3054 eV   39.60 nm  f=0.1158  <S**2>=0.000
       2 -> 10        -0.14081
       3 -> 23         0.67245

 Excited State  67:      Singlet-A2    31.6113 eV   39.22 nm  f=0.0000  <S**2>=0.000
       3 -> 24         0.70207

 Excited State  68:      Singlet-A1    31.7289 eV   39.08 nm  f=0.0016  <S**2>=0.000
       2 -> 11         0.68705
       3 -> 26        -0.13574

 Excited State  69:      Singlet-B2    31.9347 eV   38.82 nm  f=0.0001  <S**2>=0.000
       3 -> 25         0.69619

 Excited State  70:      Singlet-A2    32.4815 eV   38.17 nm  f=0.0000  <S**2>=0.000
       2 -> 12         0.70373

 Excited State  71:      Singlet-A1    32.7195 eV   37.89 nm  f=0.0007  <S**2>=0.000
       2 -> 13         0.62773
       3 -> 26        -0.29152

 Excited State  72:      Singlet-B2    32.9189 eV   37.66 nm  f=0.0671  <S**2>=0.000
       4 -> 27         0.69164

 Excited State  73:      Singlet-B1    33.1972 eV   37.35 nm  f=0.0105  <S**2>=0.000
       2 -> 14         0.60862
       5 -> 28         0.34434

 Excited State  74:      Singlet-B1    33.4040 eV   37.12 nm  f=0.1376  <S**2>=0.000
       2 -> 14        -0.34366
       5 -> 28         0.61533

 Excited State  75:      Singlet-A1    33.4543 eV   37.06 nm  f=0.0642  <S**2>=0.000
       2 -> 13         0.23319
       2 -> 15        -0.40267
       3 -> 26         0.46127
       3 -> 27        -0.11397
       4 -> 25         0.14778
       5 -> 24        -0.11031

 Excited State  76:      Singlet-B2    34.7759 eV   35.65 nm  f=0.0172  <S**2>=0.000
       2 -> 16         0.69561

 Excited State  77:      Singlet-A1    35.0395 eV   35.38 nm  f=0.0791  <S**2>=0.000
       2 -> 13         0.13086
       2 -> 15         0.52280
       3 -> 26         0.22913
       3 -> 27        -0.25682
       4 -> 25         0.11704
       4 -> 28         0.23825

 Excited State  78:      Singlet-A1    35.3346 eV   35.09 nm  f=0.0005  <S**2>=0.000
       2 -> 15        -0.14468
       3 -> 26        -0.10900
       3 -> 27         0.16273
       4 -> 28         0.65567

 Excited State  79:      Singlet-B2    35.9273 eV   34.51 nm  f=0.0049  <S**2>=0.000
       2 -> 17         0.69801

 Excited State  80:      Singlet-A1    38.3727 eV   32.31 nm  f=0.0001  <S**2>=0.000
       2 -> 19         0.58235
       3 -> 27         0.36580

 Excited State  81:      Singlet-B2    38.4992 eV   32.20 nm  f=0.0032  <S**2>=0.000
       2 -> 18         0.70222

 Excited State  82:      Singlet-A1    38.8386 eV   31.92 nm  f=0.0000  <S**2>=0.000
       2 -> 15         0.16840
       2 -> 19        -0.38753
       2 -> 23         0.10511
       3 -> 26         0.11758
       3 -> 27         0.48397
       4 -> 25         0.13579
       5 -> 24        -0.12410

 Excited State  83:      Singlet-B2    39.1587 eV   31.66 nm  f=0.0054  <S**2>=0.000
       3 -> 28         0.70370

 Excited State  84:      Singlet-B1    39.2251 eV   31.61 nm  f=0.0001  <S**2>=0.000
       2 -> 20         0.70360

 Excited State  85:      Singlet-A1    40.4521 eV   30.65 nm  f=0.0047  <S**2>=0.000
       2 -> 21         0.70283

 Excited State  86:      Singlet-A2    40.7766 eV   30.41 nm  f=0.0000  <S**2>=0.000
       2 -> 22         0.70502

 Excited State  87:      Singlet-A1    44.6760 eV   27.75 nm  f=0.0011  <S**2>=0.000
       2 -> 23         0.68031
       2 -> 25        -0.13874

 Excited State  88:      Singlet-B1    45.2687 eV   27.39 nm  f=0.0803  <S**2>=0.000
       2 -> 24         0.70425

 Excited State  89:      Singlet-A1    45.7082 eV   27.13 nm  f=0.0990  <S**2>=0.000
       2 -> 23         0.12709
       2 -> 25         0.68830

 Excited State  90:      Singlet-B2    45.8839 eV   27.02 nm  f=0.0313  <S**2>=0.000
       2 -> 26         0.70491

 Excited State  91:      Singlet-B2    47.7869 eV   25.95 nm  f=0.1727  <S**2>=0.000
       5 -> 29         0.68978

 Excited State  92:      Singlet-B1    49.0531 eV   25.28 nm  f=0.0015  <S**2>=0.000
       5 -> 30         0.70287

 Excited State  93:      Singlet-A2    49.1234 eV   25.24 nm  f=0.0000  <S**2>=0.000
       4 -> 29         0.70670

 Excited State  94:      Singlet-A1    49.8009 eV   24.90 nm  f=0.0324  <S**2>=0.000
       4 -> 30         0.31005
       5 -> 31         0.63132

 Excited State  95:      Singlet-B2    50.5468 eV   24.53 nm  f=0.0391  <S**2>=0.000
       2 -> 27         0.70102

 Excited State  96:      Singlet-B1    51.8248 eV   23.92 nm  f=0.0323  <S**2>=0.000
       3 -> 29         0.15966
       4 -> 31         0.64184
       5 -> 33         0.24153

 Excited State  97:      Singlet-A1    52.6225 eV   23.56 nm  f=0.2749  <S**2>=0.000
       2 -> 28        -0.14660
       3 -> 32         0.15841
       4 -> 30         0.59272
       4 -> 33         0.15319
       5 -> 31        -0.26566

 Excited State  98:      Singlet-A2    52.7089 eV   23.52 nm  f=0.0000  <S**2>=0.000
       5 -> 32         0.70611

 Excited State  99:      Singlet-B1    53.1417 eV   23.33 nm  f=0.0268  <S**2>=0.000
       3 -> 29         0.57847
       5 -> 33        -0.40585

 Excited State 100:      Singlet-A1    53.5022 eV   23.17 nm  f=0.0678  <S**2>=0.000
       2 -> 28         0.68071
       4 -> 30         0.13256

 Excited State 101:      Singlet-B2    55.0344 eV   22.53 nm  f=0.0070  <S**2>=0.000
       3 -> 30        -0.48602
       4 -> 32         0.51266

 Excited State 102:      Singlet-A2    55.4946 eV   22.34 nm  f=0.0000  <S**2>=0.000
       3 -> 31         0.70130

 Excited State 103:      Singlet-A1    55.7496 eV   22.24 nm  f=0.0673  <S**2>=0.000
       3 -> 32        -0.13259
       4 -> 33         0.68046

 Excited State 104:      Singlet-A2    56.1548 eV   22.08 nm  f=0.0000  <S**2>=0.000
       5 -> 34         0.70174

 Excited State 105:      Singlet-B2    56.7160 eV   21.86 nm  f=0.1432  <S**2>=0.000
       3 -> 30         0.46996
       3 -> 33        -0.22925
       4 -> 32         0.44589
       4 -> 34         0.10590

 Excited State 106:      Singlet-B1    56.9804 eV   21.76 nm  f=0.7665  <S**2>=0.000
       3 -> 29         0.36640
       4 -> 31        -0.27889
       4 -> 35         0.10166
       5 -> 33         0.51477

 Excited State 107:      Singlet-B2    58.3910 eV   21.23 nm  f=0.0145  <S**2>=0.000
       3 -> 33         0.11766
       4 -> 34         0.69157

 Excited State 108:      Singlet-A1    60.2294 eV   20.59 nm  f=0.1899  <S**2>=0.000
       3 -> 32         0.64332
       3 -> 34         0.13666
       4 -> 30        -0.12026
       5 -> 31         0.10295
       5 -> 35        -0.17919

 Excited State 109:      Singlet-B2    60.3438 eV   20.55 nm  f=0.1232  <S**2>=0.000
       3 -> 30         0.15525
       3 -> 33         0.64743
       4 -> 32         0.14198
       5 -> 36        -0.14382

 Excited State 110:      Singlet-A1    62.3563 eV   19.88 nm  f=0.0003  <S**2>=0.000
       3 -> 32        -0.12625
       3 -> 34         0.69174

 Excited State 111:      Singlet-A1    63.8318 eV   19.42 nm  f=0.1614  <S**2>=0.000
       3 -> 32         0.14815
       5 -> 35         0.67007

 Excited State 112:      Singlet-B1    65.3017 eV   18.99 nm  f=0.0715  <S**2>=0.000
       4 -> 35         0.68811
       5 -> 37        -0.12046

 Excited State 113:      Singlet-B2    65.6599 eV   18.88 nm  f=0.1778  <S**2>=0.000
       3 -> 33         0.10044
       5 -> 36         0.68328

 Excited State 114:      Singlet-A2    66.6655 eV   18.60 nm  f=0.0000  <S**2>=0.000
       2 -> 29         0.42004
       4 -> 36         0.56828

 Excited State 115:      Singlet-A2    67.0550 eV   18.49 nm  f=0.0000  <S**2>=0.000
       2 -> 29         0.56530
       4 -> 36        -0.41900

 Excited State 116:      Singlet-B1    68.2317 eV   18.17 nm  f=0.0760  <S**2>=0.000
       3 -> 36        -0.12871
       4 -> 35         0.10889
       5 -> 37         0.68327

 Excited State 117:      Singlet-A2    68.7124 eV   18.04 nm  f=0.0000  <S**2>=0.000
       3 -> 35         0.70356

 Excited State 118:      Singlet-A1    69.2457 eV   17.90 nm  f=0.0314  <S**2>=0.000
       2 -> 30         0.68730
       4 -> 37         0.15977

 Excited State 119:      Singlet-B1    69.3176 eV   17.89 nm  f=0.0223  <S**2>=0.000
       2 -> 31         0.69338
       3 -> 36         0.11562

 Excited State 120:      Singlet-A1    70.6474 eV   17.55 nm  f=0.0448  <S**2>=0.000
       2 -> 30        -0.15572
       4 -> 37         0.67743

 Excited State 121:      Singlet-B1    71.1255 eV   17.43 nm  f=0.1022  <S**2>=0.000
       2 -> 31        -0.11925
       3 -> 36         0.67919
       5 -> 37         0.10482

 Excited State 122:      Singlet-B2    73.0463 eV   16.97 nm  f=0.0027  <S**2>=0.000
       2 -> 32         0.70357

 Excited State 123:      Singlet-A1    73.5057 eV   16.87 nm  f=0.0000  <S**2>=0.000
       2 -> 33         0.70237

 Excited State 124:      Singlet-B2    73.7099 eV   16.82 nm  f=0.0020  <S**2>=0.000
       3 -> 37         0.69609

 Excited State 125:      Singlet-B1    74.2027 eV   16.71 nm  f=0.0226  <S**2>=0.000
       5 -> 38         0.70527

 Excited State 126:      Singlet-A2    75.0573 eV   16.52 nm  f=0.0000  <S**2>=0.000
       5 -> 39         0.70369

 Excited State 127:      Singlet-B2    75.3213 eV   16.46 nm  f=0.0059  <S**2>=0.000
       2 -> 34         0.69628

 Excited State 128:      Singlet-A1    76.4546 eV   16.22 nm  f=0.0325  <S**2>=0.000
       3 -> 39        -0.11483
       4 -> 38         0.69560

 Excited State 129:      Singlet-B2    77.3066 eV   16.04 nm  f=0.0534  <S**2>=0.000
       3 -> 38         0.10665
       4 -> 39         0.69178

 Excited State 130:      Singlet-B1    80.0344 eV   15.49 nm  f=0.0003  <S**2>=0.000
       5 -> 40         0.70197

 Excited State 131:      Singlet-B2    80.4901 eV   15.40 nm  f=0.0302  <S**2>=0.000
       3 -> 38         0.69214
       4 -> 39        -0.10304

 Excited State 132:      Singlet-A1    80.8269 eV   15.34 nm  f=0.0177  <S**2>=0.000
       3 -> 39         0.66617
       4 -> 38         0.10750
       4 -> 40         0.19032

 Excited State 133:      Singlet-A2    81.5732 eV   15.20 nm  f=0.0000  <S**2>=0.000
       5 -> 41         0.70089

 Excited State 134:      Singlet-A1    81.6895 eV   15.18 nm  f=0.0234  <S**2>=0.000
       3 -> 39        -0.10769
       4 -> 40         0.49593
       5 -> 42        -0.48697

 Excited State 135:      Singlet-B1    82.2591 eV   15.07 nm  f=0.0162  <S**2>=0.000
       2 -> 35         0.69456
       4 -> 42         0.11354

 Excited State 136:      Singlet-B2    83.4498 eV   14.86 nm  f=0.0405  <S**2>=0.000
       3 -> 40        -0.11674
       4 -> 41         0.69471

 Excited State 137:      Singlet-B1    83.7988 eV   14.80 nm  f=0.0109  <S**2>=0.000
       2 -> 35        -0.11663
       4 -> 42         0.69623

 Excited State 138:      Singlet-A2    84.0640 eV   14.75 nm  f=0.0000  <S**2>=0.000
       2 -> 36         0.69952

 Excited State 139:      Singlet-A1    84.9479 eV   14.60 nm  f=0.0010  <S**2>=0.000
       3 -> 39        -0.13298
       3 -> 41         0.37165
       4 -> 40         0.40830
       5 -> 42         0.40558

 Excited State 140:      Singlet-B2    85.9815 eV   14.42 nm  f=0.0009  <S**2>=0.000
       3 -> 40         0.69515
       4 -> 41         0.11715

 Excited State 141:      Singlet-A1    87.3130 eV   14.20 nm  f=0.0239  <S**2>=0.000
       2 -> 37         0.67306
       3 -> 41         0.19047

 Excited State 142:      Singlet-A2    87.7989 eV   14.12 nm  f=0.0000  <S**2>=0.000
       3 -> 42         0.70253

 Excited State 143:      Singlet-A1    89.6442 eV   13.83 nm  f=0.0001  <S**2>=0.000
       2 -> 37        -0.18691
       3 -> 41         0.49145
       4 -> 40        -0.17276
       4 -> 43        -0.37073
       5 -> 42        -0.19532

 Excited State 144:      Singlet-B1    89.6448 eV   13.83 nm  f=0.0327  <S**2>=0.000
       5 -> 43         0.70576

 Excited State 145:      Singlet-A1    93.4960 eV   13.26 nm  f=0.0032  <S**2>=0.000
       2 -> 38         0.61821
       4 -> 43        -0.31972

 Excited State 146:      Singlet-A1    94.2359 eV   13.16 nm  f=0.0210  <S**2>=0.000

 The electronic state is 1-A1.
 Alpha  occ. eigenvalues --  -19.25483  -1.11776  -0.62622  -0.48149  -0.40633
 Alpha virt. eigenvalues --    0.06374   0.10395   0.13233   0.13425   0.20703
 Alpha virt. eigenvalues --    0.23368   0.26205   0.27372   0.29303   0.33035
 Alpha virt. eigenvalues --    0.34505   0.38509   0.49447   0.50128   0.52987

 Mulliken charges:
               1
     1  O   -0.676583
     2  H    0.338291
     3  H    0.338291
 Sum of Mulliken charges =   0.00000

 Dipole moment (field-independent basis, Debye):
    X=             -0.0000    Y=              0.0000    Z=             -1.8699  Tot=              1.8699
 Quadrupole moment (field-independent basis, Debye-Ang):
   XX=             -7.7512   YY=             -4.3140   ZZ=             -6.3590
   XY=              0.0000   XZ=              0.0000   YZ=             -0.0000

 Normal termination of Gaussian 16 at Sun Feb 27 06:37:10 2022.
