 Gaussian 16, Revision C.01,
 Gaussian 16:  EM64L-G16RevC.01  3-Jul-2019

 ----------------------------------------------------------------------
 #P TD(Nstates=10000) wB97XD/Gen SCF(maxcycles=100) Int(Grid=ultrafine)
 ----------------------------------------------------------------------

 ---------------------
 xGDB7_00001_tier4.com
 ---------------------
 Symbolic Z-matrix:
 Charge =  0 Multiplicity = 1

                         Standard orientation:
 ---------------------------------------------------------------------
 Center     Atomic      Atomic             Coordinates (Angstroms)
 Number     Number       Type             X           Y           Z
 ---------------------------------------------------------------------
      1          6           0        0.000000    1.163894   -0.193136
      2          8           0       -0.000000   -0.000000    0.585449
      3          6           0       -0.000000   -1.163894   -0.193136
      4          1           0        0.000000    2.015478    0.485827
      5          1           0       -0.890390    1.219204   -0.834404
      6          1           0        0.890390    1.219204   -0.834404
      7          1           0       -0.000000   -2.015478    0.485827
      8          1           0        0.890390   -1.219204   -0.834404
      9          1           0       -0.890390   -1.219204   -0.834404
 ---------------------------------------------------------------------

 SCF Done:  E(RwB97XD) =  -155.039538222     A.U. after   11 cycles

 Excitation energies and oscillator strengths:

 Excited State   1:      Singlet-B1     6.9496 eV  178.41 nm  f=0.0274  <S**2>=0.000
      13 -> 14         0.66571
      13 -> 18        -0.19963
 This state for optimization and/or second-order correction.
 Total Energy, E(TD-HF/TD-DFT) =  -154.784145514
 Copying the excited state density for this state as the 1-particle RhoCI density.

 Excited State   2:      Singlet-A2     7.9355 eV  156.24 nm  f=0.0000  <S**2>=0.000
      13 -> 15         0.69087

 Excited State   3:      Singlet-B1     7.9620 eV  155.72 nm  f=0.0401  <S**2>=0.000
      13 -> 14        -0.15859
      13 -> 16         0.60455
      13 -> 18        -0.29166

 Excited State   4:      Singlet-A1     8.2934 eV  149.50 nm  f=0.0452  <S**2>=0.000
      13 -> 17         0.69989

 Excited State   5:      Singlet-B1     8.4577 eV  146.59 nm  f=0.0179  <S**2>=0.000
      13 -> 14         0.14031
      13 -> 16         0.33535
      13 -> 18         0.59044

 Excited State   6:      Singlet-A1     8.7209 eV  142.17 nm  f=0.0148  <S**2>=0.000
      12 -> 14         0.65745
      12 -> 16         0.13661
      12 -> 18        -0.16361

 Excited State   7:      Singlet-A2     9.2268 eV  134.37 nm  f=0.0000  <S**2>=0.000
      13 -> 19         0.68860

 Excited State   8:      Singlet-B1     9.4444 eV  131.28 nm  f=0.0031  <S**2>=0.000
      13 -> 21         0.69458

 Excited State   9:      Singlet-A1     9.5138 eV  130.32 nm  f=0.0005  <S**2>=0.000
      12 -> 16         0.28641
      12 -> 18        -0.13600
      13 -> 20         0.60895

 Excited State  10:      Singlet-B2     9.5253 eV  130.16 nm  f=0.0005  <S**2>=0.000
      11 -> 14         0.28788
      12 -> 15         0.62455

 Excited State  11:      Singlet-A1     9.6737 eV  128.17 nm  f=0.1397  <S**2>=0.000
      11 -> 15        -0.10863
      12 -> 14        -0.17363
      12 -> 16         0.53796
      12 -> 18        -0.20568
      13 -> 20        -0.32570

 Excited State  12:      Singlet-B1    10.0406 eV  123.48 nm  f=0.0450  <S**2>=0.000
      12 -> 17         0.69844

 Excited State  13:      Singlet-B2    10.1376 eV  122.30 nm  f=0.0891  <S**2>=0.000
      13 -> 22         0.68053

 Excited State  14:      Singlet-A1    10.2309 eV  121.19 nm  f=0.0008  <S**2>=0.000
      11 -> 15         0.12212
      12 -> 16         0.29739
      12 -> 18         0.61003

 Excited State  15:      Singlet-B1    10.3206 eV  120.13 nm  f=0.0015  <S**2>=0.000
      13 -> 23         0.68614

 Excited State  16:      Singlet-B2    10.3484 eV  119.81 nm  f=0.0858  <S**2>=0.000
      11 -> 14         0.59465
      11 -> 18        -0.20140
      12 -> 15        -0.26963

 Excited State  17:      Singlet-A2    10.5175 eV  117.88 nm  f=0.0000  <S**2>=0.000
      10 -> 14         0.49381
      10 -> 18        -0.21762
      13 -> 24         0.40467

 Excited State  18:      Singlet-A2    10.7400 eV  115.44 nm  f=0.0000  <S**2>=0.000
      10 -> 14        -0.42648
      13 -> 24         0.53952

 Excited State  19:      Singlet-B2    10.7994 eV  114.81 nm  f=0.0320  <S**2>=0.000
      11 -> 14         0.12087
      11 -> 16        -0.27167
      12 -> 19         0.60836

 Excited State  20:      Singlet-B2    10.9719 eV  113.00 nm  f=0.0026  <S**2>=0.000
      13 -> 25         0.68350

 Excited State  21:      Singlet-B1    11.0827 eV  111.87 nm  f=0.0289  <S**2>=0.000
      12 -> 20         0.69128

 Excited State  22:      Singlet-A1    11.0999 eV  111.70 nm  f=0.0176  <S**2>=0.000
       8 -> 14        -0.15337
      11 -> 15         0.64150
      12 -> 14        -0.12410
      12 -> 18        -0.12164

 Excited State  23:      Singlet-A1    11.3019 eV  109.70 nm  f=0.0606  <S**2>=0.000
      12 -> 21         0.68213

 Excited State  24:      Singlet-B2    11.3617 eV  109.12 nm  f=0.1768  <S**2>=0.000
      11 -> 14         0.13513
      11 -> 16        -0.34024
      11 -> 18         0.48086
      12 -> 15        -0.10429
      12 -> 19        -0.27455
      12 -> 24        -0.11423

 Excited State  25:      Singlet-A2    11.4363 eV  108.41 nm  f=0.0000  <S**2>=0.000
      10 -> 16         0.14430
      10 -> 18        -0.10481
      11 -> 17        -0.28052
      12 -> 22         0.21031
      13 -> 27         0.51723
      13 -> 31         0.12017

 Excited State  26:      Singlet-A2    11.4591 eV  108.20 nm  f=0.0000  <S**2>=0.000
      10 -> 14        -0.10490
      11 -> 17         0.52063
      12 -> 22        -0.28228
      13 -> 27         0.30440

 Excited State  27:      Singlet-B1    11.4830 eV  107.97 nm  f=0.0909  <S**2>=0.000
       9 -> 14        -0.17633
      10 -> 15         0.65187
      13 -> 28         0.11494

 Excited State  28:      Singlet-A1    11.7103 eV  105.88 nm  f=0.0005  <S**2>=0.000
      12 -> 23        -0.21014
      13 -> 26         0.63474

 Excited State  29:      Singlet-B2    11.7296 eV  105.70 nm  f=0.0814  <S**2>=0.000
      11 -> 16         0.51977
      11 -> 18         0.39051
      12 -> 19         0.13815
      12 -> 24        -0.14120

 Excited State  30:      Singlet-A2    11.7866 eV  105.19 nm  f=0.0000  <S**2>=0.000
      10 -> 16         0.46137
      10 -> 18        -0.38524
      11 -> 17         0.10719
      12 -> 22         0.14013
      13 -> 27        -0.23420

 Excited State  31:      Singlet-A2    12.0296 eV  103.07 nm  f=0.0000  <S**2>=0.000
      10 -> 16        -0.19140
      11 -> 17         0.33154
      12 -> 22         0.56223
      12 -> 25         0.10166

 Excited State  32:      Singlet-A1    12.1241 eV  102.26 nm  f=0.0082  <S**2>=0.000
      11 -> 19         0.19502
      12 -> 23         0.60897
      13 -> 26         0.22836

 Excited State  33:      Singlet-B2    12.1678 eV  101.90 nm  f=0.0016  <S**2>=0.000
      10 -> 17         0.66977
      11 -> 16        -0.11802

 Excited State  34:      Singlet-A2    12.2538 eV  101.18 nm  f=0.0000  <S**2>=0.000
      10 -> 14         0.16188
      10 -> 16         0.36458
      10 -> 18         0.36673
      10 -> 21        -0.17697
      11 -> 20        -0.16028
      12 -> 25         0.16934
      13 -> 30        -0.15240
      13 -> 31        -0.23104

 Excited State  35:      Singlet-B1    12.2710 eV  101.04 nm  f=0.0339  <S**2>=0.000
      10 -> 15        -0.11636
      13 -> 18         0.10767
      13 -> 28         0.57549
      13 -> 29        -0.26650
      13 -> 32         0.18892

 Excited State  36:      Singlet-A2    12.3560 eV  100.34 nm  f=0.0000  <S**2>=0.000
      10 -> 16        -0.20753
      10 -> 18        -0.27200
      10 -> 21        -0.12968
      11 -> 20        -0.35548
      12 -> 22        -0.13322
      12 -> 25         0.39084
      13 -> 31        -0.13454

 Excited State  37:      Singlet-B2    12.4745 eV   99.39 nm  f=0.0186  <S**2>=0.000
      11 -> 18         0.16192
      12 -> 24         0.65634

 Excited State  38:      Singlet-A1    12.5826 eV   98.54 nm  f=0.1014  <S**2>=0.000
       8 -> 14         0.15163
       8 -> 16         0.13734
      11 -> 19         0.60561
      12 -> 23        -0.22531

 Excited State  39:      Singlet-A2    12.6157 eV   98.28 nm  f=0.0000  <S**2>=0.000
      10 -> 18         0.20174
      10 -> 21         0.11536
      11 -> 20        -0.25669
      12 -> 25         0.21490
      13 -> 27        -0.17381
      13 -> 30         0.32746
      13 -> 31         0.38014
      13 -> 37        -0.13429

 Excited State  40:      Singlet-B1    12.7344 eV   97.36 nm  f=0.0684  <S**2>=0.000
       9 -> 14         0.19599
      10 -> 19         0.22839
      13 -> 28         0.25601
      13 -> 29         0.54907

 Excited State  41:      Singlet-B2    12.8171 eV   96.73 nm  f=0.0003  <S**2>=0.000
       7 -> 14         0.18289
      11 -> 21         0.61688
      11 -> 23         0.10597
      12 -> 27        -0.20421

 Excited State  42:      Singlet-B1    12.8988 eV   96.12 nm  f=0.0005  <S**2>=0.000
       9 -> 14         0.27993
       9 -> 16         0.12747
       9 -> 18        -0.10395
      10 -> 19         0.41306
      11 -> 22        -0.12082
      12 -> 26         0.10731
      13 -> 28        -0.21983
      13 -> 29        -0.16960
      13 -> 32         0.29795

 Excited State  43:      Singlet-A2    12.9126 eV   96.02 nm  f=0.0000  <S**2>=0.000
      11 -> 20         0.48426
      12 -> 25         0.47794

 Excited State  44:      Singlet-B1    13.0009 eV   95.37 nm  f=0.0004  <S**2>=0.000
       8 -> 17         0.18364
       9 -> 14         0.12938
      11 -> 22         0.50858
      12 -> 26        -0.37542

 Excited State  45:      Singlet-A2    13.1118 eV   94.56 nm  f=0.0000  <S**2>=0.000
      10 -> 21        -0.28358
      13 -> 30        -0.42538
      13 -> 31         0.43223

 Excited State  46:      Singlet-A1    13.1227 eV   94.48 nm  f=0.0162  <S**2>=0.000
       8 -> 14         0.58107
       8 -> 18        -0.25554
      11 -> 15         0.12127
      11 -> 19        -0.17923
      11 -> 24        -0.15791

 Excited State  47:      Singlet-B1    13.1291 eV   94.43 nm  f=0.0526  <S**2>=0.000
       9 -> 14         0.44541
       9 -> 16        -0.14956
       9 -> 18        -0.18101
      10 -> 15         0.13553
      10 -> 19        -0.41711
      13 -> 32         0.14407

 Excited State  48:      Singlet-B2    13.1402 eV   94.35 nm  f=0.0188  <S**2>=0.000
       7 -> 14         0.49662
       7 -> 18        -0.10698
      10 -> 20        -0.34744
      11 -> 23        -0.15941
      12 -> 27         0.22119

 Excited State  49:      Singlet-B1    13.2095 eV   93.86 nm  f=0.0512  <S**2>=0.000
       9 -> 14        -0.26146
      10 -> 15        -0.10059
      10 -> 19        -0.10990
      13 -> 29         0.23754
      13 -> 32         0.55224

 Excited State  50:      Singlet-B2    13.2296 eV   93.72 nm  f=0.0026  <S**2>=0.000
       7 -> 14         0.42116
      10 -> 20         0.44111
      11 -> 21        -0.16891
      12 -> 27        -0.22158

 Excited State  51:      Singlet-A2    13.2665 eV   93.46 nm  f=0.0000  <S**2>=0.000
      10 -> 21         0.55507
      10 -> 23         0.10572
      13 -> 30        -0.35234

 Excited State  52:      Singlet-B2    13.3362 eV   92.97 nm  f=0.2823  <S**2>=0.000
       8 -> 15        -0.13179
      10 -> 20         0.34513
      11 -> 21         0.21938
      11 -> 23        -0.31800
      12 -> 27         0.40204

 Excited State  53:      Singlet-B1    13.5591 eV   91.44 nm  f=0.0225  <S**2>=0.000
      11 -> 22         0.36831
      11 -> 25         0.17524
      12 -> 26         0.51814

 Excited State  54:      Singlet-A1    13.6005 eV   91.16 nm  f=0.0424  <S**2>=0.000
       8 -> 14        -0.11478
      11 -> 24        -0.11109
      12 -> 28         0.10580
      13 -> 33         0.64536

 Excited State  55:      Singlet-A1    13.6701 eV   90.70 nm  f=0.0000  <S**2>=0.000
       7 -> 15        -0.13830
       8 -> 14         0.22984
       8 -> 18         0.22592
      10 -> 22         0.23951
      11 -> 24         0.45661
      12 -> 28        -0.10407
      13 -> 33         0.21679

 Excited State  56:      Singlet-B2    13.7079 eV   90.45 nm  f=0.0449  <S**2>=0.000
       7 -> 14         0.10562
       8 -> 15         0.13117
      11 -> 23         0.51360
      12 -> 27         0.37794

 Excited State  57:      Singlet-A1    13.8551 eV   89.49 nm  f=0.0242  <S**2>=0.000
       7 -> 15         0.27393
       9 -> 17         0.23798
      10 -> 22         0.42494
      11 -> 19        -0.10278
      12 -> 28         0.30713
      12 -> 32         0.14131
      13 -> 36        -0.10390

 Excited State  58:      Singlet-B1    13.8703 eV   89.39 nm  f=0.0049  <S**2>=0.000
       9 -> 18         0.16874
      10 -> 24         0.17989
      11 -> 25         0.26731
      12 -> 26        -0.14657
      13 -> 34         0.43034
      13 -> 35         0.30268

 Excited State  59:      Singlet-B1    13.9437 eV   88.92 nm  f=0.0002  <S**2>=0.000
       8 -> 17        -0.11493
       8 -> 20         0.12120
       9 -> 14         0.10927
       9 -> 16        -0.11353
       9 -> 18         0.18674
      10 -> 24         0.16099
      11 -> 25         0.37072
      12 -> 26        -0.17306
      13 -> 34        -0.29059
      13 -> 35        -0.30893

 Excited State  60:      Singlet-A1    13.9612 eV   88.81 nm  f=0.0135  <S**2>=0.000
       7 -> 15         0.41498
       8 -> 14         0.12745
       8 -> 16        -0.20208
      10 -> 22        -0.27783
      11 -> 24         0.17709
      12 -> 28         0.20749
      13 -> 36         0.23746

 Excited State  61:      Singlet-A2    13.9752 eV   88.72 nm  f=0.0000  <S**2>=0.000
       9 -> 15         0.59337
      10 -> 14         0.13101
      10 -> 23         0.30079

 Excited State  62:      Singlet-B1    14.0346 eV   88.34 nm  f=0.0385  <S**2>=0.000
       9 -> 16        -0.13314
      10 -> 24        -0.14495
      13 -> 34        -0.40402
      13 -> 35         0.49613

 Excited State  63:      Singlet-A1    14.0653 eV   88.15 nm  f=0.0012  <S**2>=0.000
       7 -> 15        -0.32972
       8 -> 16        -0.10483
      10 -> 22        -0.19502
      11 -> 24         0.10155
      11 -> 27         0.11636
      12 -> 28         0.36114
      12 -> 29        -0.16377
      13 -> 36        -0.30720
      13 -> 39        -0.12430

 Excited State  64:      Singlet-B2    14.0833 eV   88.04 nm  f=0.0392  <S**2>=0.000
       7 -> 16        -0.27322
       8 -> 15         0.55337
      11 -> 23        -0.20056
      12 -> 31        -0.15423

 Excited State  65:      Singlet-B1    14.1726 eV   87.48 nm  f=0.1443  <S**2>=0.000
       8 -> 17        -0.18502
       9 -> 16         0.42749
       9 -> 18        -0.28257
      10 -> 19        -0.13971
      10 -> 24        -0.17701
      11 -> 25         0.31261

 Excited State  66:      Singlet-B2    14.1759 eV   87.46 nm  f=0.1217  <S**2>=0.000
       7 -> 16         0.54992
       7 -> 18        -0.24739
       8 -> 15         0.27300
      12 -> 31        -0.10457

 Excited State  67:      Singlet-A1    14.2378 eV   87.08 nm  f=0.1209  <S**2>=0.000
       7 -> 15        -0.24908
       8 -> 16         0.23692
       9 -> 17        -0.13476
      10 -> 25        -0.12314
      12 -> 28         0.28391
      13 -> 36         0.47469

 Excited State  68:      Singlet-A2    14.2659 eV   86.91 nm  f=0.0000  <S**2>=0.000
       9 -> 15        -0.30346
       9 -> 19        -0.13318
      10 -> 16         0.13726
      10 -> 23         0.55812
      13 -> 31        -0.10611

 Excited State  69:      Singlet-A1    14.2927 eV   86.75 nm  f=0.0129  <S**2>=0.000
       8 -> 16         0.42947
       8 -> 18        -0.13490
       9 -> 17         0.27524
      10 -> 22        -0.25329
      10 -> 25        -0.12648
      11 -> 24         0.27213

 Excited State  70:      Singlet-A2    14.3923 eV   86.15 nm  f=0.0000  <S**2>=0.000
       7 -> 17         0.68021
       7 -> 20         0.10869

 Excited State  71:      Singlet-A1    14.4542 eV   85.78 nm  f=0.0136  <S**2>=0.000
       7 -> 15        -0.10392
       8 -> 16        -0.30263
       9 -> 17         0.48107
      10 -> 25        -0.21360
      11 -> 24        -0.12461
      13 -> 36         0.21666
      13 -> 39        -0.11644

 Excited State  72:      Singlet-B1    14.4571 eV   85.76 nm  f=0.1234  <S**2>=0.000
       8 -> 17         0.25044
       9 -> 16         0.39892
       9 -> 18         0.16334
      10 -> 19        -0.15826
      10 -> 24         0.36462
      13 -> 34        -0.14927
      13 -> 35         0.13579

 Excited State  73:      Singlet-A1    14.4921 eV   85.55 nm  f=0.0167  <S**2>=0.000
       8 -> 16        -0.17265
       8 -> 18        -0.19144
      11 -> 24         0.17516
      11 -> 27        -0.29984
      12 -> 28         0.21366
      12 -> 29         0.42540
      12 -> 32        -0.18978

 Excited State  74:      Singlet-B2    14.5072 eV   85.46 nm  f=0.0192  <S**2>=0.000
       7 -> 16         0.11307
       7 -> 18         0.13946
       8 -> 15         0.17818
      12 -> 27        -0.12446
      12 -> 30         0.40464
      12 -> 31         0.41741
      12 -> 37        -0.16036

 Excited State  75:      Singlet-B1    14.5533 eV   85.19 nm  f=0.0450  <S**2>=0.000
       8 -> 17         0.56108
       9 -> 16        -0.10826
       9 -> 18        -0.16080
      10 -> 24        -0.10701
      11 -> 22        -0.19537
      11 -> 25         0.22197

 Excited State  76:      Singlet-A2    14.6215 eV   84.80 nm  f=0.0000  <S**2>=0.000
      13 -> 30         0.14280
      13 -> 31         0.14429
      13 -> 37         0.64193

 Excited State  77:      Singlet-B2    14.6750 eV   84.49 nm  f=0.0644  <S**2>=0.000
       7 -> 16         0.22215
       7 -> 18         0.44303
       9 -> 22         0.10809
      10 -> 26         0.10636
      12 -> 31        -0.13099
      13 -> 38        -0.41689

 Excited State  78:      Singlet-A1    14.6793 eV   84.46 nm  f=0.0019  <S**2>=0.000
       8 -> 16         0.10568
       8 -> 18         0.37263
       9 -> 17         0.14783
      11 -> 24        -0.23807
      11 -> 27         0.15857
      12 -> 28         0.15731
      12 -> 29         0.31761
      12 -> 32        -0.18488
      13 -> 39         0.14550

 Excited State  79:      Singlet-B2    14.7523 eV   84.04 nm  f=0.0896  <S**2>=0.000
       7 -> 16         0.14543
       7 -> 18         0.39283
      10 -> 26        -0.12852
      12 -> 30        -0.15719
      13 -> 38         0.46831
      13 -> 40         0.13148

 Excited State  80:      Singlet-A2    14.7721 eV   83.93 nm  f=0.0000  <S**2>=0.000
       8 -> 22         0.18980
      11 -> 26         0.64185

 Excited State  81:      Singlet-A1    14.7734 eV   83.92 nm  f=0.0515  <S**2>=0.000
       8 -> 16         0.11237
       8 -> 21        -0.18121
       9 -> 17         0.12419
       9 -> 20         0.26993
      10 -> 22        -0.12555
      10 -> 25         0.46505
      11 -> 27        -0.20321
      12 -> 32         0.15261
      13 -> 36         0.12708

 Excited State  82:      Singlet-B1    14.8190 eV   83.67 nm  f=0.0227  <S**2>=0.000
       9 -> 14        -0.11947
       9 -> 16        -0.19064
       9 -> 18        -0.43045
       9 -> 21         0.10091
      10 -> 24         0.44048

 Excited State  83:      Singlet-B2    14.8658 eV   83.40 nm  f=0.0037  <S**2>=0.000
      11 -> 23         0.11935
      11 -> 28        -0.15047
      12 -> 30         0.49110
      12 -> 31        -0.40489
      13 -> 38         0.10596

 Excited State  84:      Singlet-A1    14.9127 eV   83.14 nm  f=0.0049  <S**2>=0.000
       8 -> 18        -0.12655
      11 -> 27         0.28158
      12 -> 29         0.34380
      12 -> 32         0.46857

 Excited State  85:      Singlet-A1    14.9977 eV   82.67 nm  f=0.0448  <S**2>=0.000
       7 -> 19         0.11800
       8 -> 21        -0.10371
       9 -> 20        -0.14157
      11 -> 27        -0.17491
      12 -> 32         0.17715
      12 -> 34         0.12341
      13 -> 39         0.56549

 Excited State  86:      Singlet-B2    15.0391 eV   82.44 nm  f=0.2010  <S**2>=0.000
       9 -> 22        -0.11525
      10 -> 26        -0.38440
      13 -> 38        -0.23440
      13 -> 40         0.48310

 Excited State  87:      Singlet-A2    15.1079 eV   82.07 nm  f=0.0000  <S**2>=0.000
      13 -> 41         0.60991
      13 -> 44        -0.24190

 Excited State  88:      Singlet-B1    15.1433 eV   81.87 nm  f=0.1007  <S**2>=0.000
       9 -> 21         0.44610
       9 -> 23         0.10305
      10 -> 27         0.36812
      11 -> 25        -0.14485
      12 -> 33        -0.21724
      12 -> 36         0.18181

 Excited State  89:      Singlet-A1    15.1504 eV   81.84 nm  f=0.1261  <S**2>=0.000
       8 -> 18        -0.33349
       9 -> 17         0.14715
      10 -> 25         0.21297
      11 -> 27         0.35416
      12 -> 32        -0.26960
      12 -> 35         0.14514
      13 -> 39         0.21219

 Excited State  90:      Singlet-B2    15.2823 eV   81.13 nm  f=0.0039  <S**2>=0.000
       7 -> 21         0.11143
       8 -> 19         0.58068
      11 -> 28        -0.25046
      11 -> 32        -0.11526
      12 -> 31         0.11799

 Excited State  91:      Singlet-A1    15.3987 eV   80.52 nm  f=0.0001  <S**2>=0.000
       7 -> 19         0.63579
      10 -> 25         0.11675
      12 -> 34        -0.19032
      12 -> 35        -0.10373

 Excited State  92:      Singlet-A2    15.4008 eV   80.51 nm  f=0.0000  <S**2>=0.000
       7 -> 20         0.56103
       9 -> 19        -0.32277
      10 -> 23        -0.10408
      13 -> 44         0.13174

 Excited State  93:      Singlet-B2    15.4294 eV   80.36 nm  f=0.1061  <S**2>=0.000
       7 -> 21        -0.27621
       9 -> 22         0.21650
      10 -> 26         0.43263
      13 -> 40         0.39572

 Excited State  94:      Singlet-B1    15.4388 eV   80.31 nm  f=0.0090  <S**2>=0.000
      10 -> 27         0.34862
      12 -> 33         0.58847

 Excited State  95:      Singlet-A2    15.4612 eV   80.19 nm  f=0.0000  <S**2>=0.000

 The electronic state is 1-A1.
 Alpha  occ. eigenvalues --  -19.25413 -10.32231 -10.32230  -1.14226  -0.82190
 Alpha  occ. eigenvalues --   -0.73397  -0.56742  -0.56417  -0.56404  -0.48054
 Alpha  occ. eigenvalues --   -0.46161  -0.40747  -0.34475
 Alpha virt. eigenvalues --    0.06611   0.08855   0.10913   0.11383   0.13189
 Alpha virt. eigenvalues --    0.14579   0.16195   0.17607   0.18138   0.18673
 Alpha virt. eigenvalues --    0.20146   0.22167   0.24183   0.24663   0.27156

 Mulliken charges:
               1
     1  C   -0.669279
     2  O   -0.337806
     3  C   -0.669279
     4  H    0.261347
     5  H    0.288418
     6  H    0.288418
     7  H    0.261347
     8  H    0.288418
     9  H    0.288418
 Sum of Mulliken charges =   0.00000

 Dipole moment (field-independent basis, Debye):
    X=              0.0000    Y=             -0.0000    Z=             -1.2581  Tot=              1.2581
 Quadrupole moment (field-independent basis, Debye-Ang):
   XX=            -20.1089   YY=            -17.4395   ZZ=            -21.2863
   XY=             -0.0000   XZ=             -0.0000   YZ=             -0.0000

 Normal termination of Gaussian 16 at Sun Feb 27 06:43:43 2022.
