 Gaussian 16, Revision C.01,
 Gaussian 16:  EM64L-G16RevC.01  3-Jul-2019

 ----------------------------------------------------------------------
 #P TD(Nstates=10000) wB97XD/Gen SCF(maxcycles=100) Int(Grid=ultrafine)
 ----------------------------------------------------------------------

 ---------------------
 xGDB7_00001_tier4.com
 ---------------------
 Symbolic Z-matrix:
 Charge =  0 Multiplicity = 1

                         Standard orientation:
 ---------------------------------------------------------------------
 Center     Atomic      Atomic             Coordinates (Angstroms)
 Number     Number       Type             X           Y           Z
 ---------------------------------------------------------------------
      1          8           0       -1.028621   -0.395177   -0.000000
      2          7           0       -0.000000    0.526228   -0.000000
      3          6           0        1.132746   -0.030907    0.000000
      4          1           0       -1.816572    0.151791   -0.000000
      5          1           0        1.994262    0.623439    0.000000
      6          1           0        1.254802   -1.111965    0.000000
 ---------------------------------------------------------------------

 SCF Done:  E(RwB97XD) =  -169.828561520     A.U. after   12 cycles

 Excitation energies and oscillator strengths:

 Excited State   1:      Singlet-A"     5.9393 eV  208.75 nm  f=0.0008  <S**2>=0.000
      11 -> 13         0.70089
 This state for optimization and/or second-order correction.
 Total Energy, E(TD-HF/TD-DFT) =  -169.610296271
 Copying the excited state density for this state as the 1-particle RhoCI density.

 Excited State   2:      Singlet-A'     6.9000 eV  179.69 nm  f=0.1861  <S**2>=0.000
      12 -> 13         0.68776

 Excited State   3:      Singlet-A"     7.1979 eV  172.25 nm  f=0.0005  <S**2>=0.000
      12 -> 14         0.66019
      12 -> 15        -0.16870
      12 -> 21         0.13460

 Excited State   4:      Singlet-A'     7.6738 eV  161.57 nm  f=0.0134  <S**2>=0.000
      11 -> 14         0.65494
      11 -> 15        -0.17835
      11 -> 21         0.11435

 Excited State   5:      Singlet-A"     7.9886 eV  155.20 nm  f=0.0253  <S**2>=0.000
      12 -> 14         0.17953
      12 -> 15         0.64558
      12 -> 18         0.11269
      12 -> 19         0.10073

 Excited State   6:      Singlet-A'     8.5485 eV  145.04 nm  f=0.0236  <S**2>=0.000
      11 -> 14         0.18405
      11 -> 15         0.65082
      11 -> 19         0.10038
      12 -> 17        -0.10945

 Excited State   7:      Singlet-A"     8.7812 eV  141.19 nm  f=0.0166  <S**2>=0.000
      12 -> 15        -0.10445
      12 -> 16         0.67657

 Excited State   8:      Singlet-A"     8.8878 eV  139.50 nm  f=0.0003  <S**2>=0.000
      12 -> 15        -0.14508
      12 -> 18         0.53612
      12 -> 19         0.19875
      12 -> 20         0.22309
      12 -> 21        -0.17511
      12 -> 23         0.17545
      12 -> 26        -0.10017

 Excited State   9:      Singlet-A'     9.1383 eV  135.68 nm  f=0.0914  <S**2>=0.000
      11 -> 16         0.36305
      11 -> 18        -0.20590
      11 -> 19        -0.18695
      11 -> 21         0.13581
      12 -> 17         0.48067

 Excited State  10:      Singlet-A'     9.2396 eV  134.19 nm  f=0.0559  <S**2>=0.000
      11 -> 16         0.52073
      11 -> 19        -0.11159
      12 -> 17        -0.43464

 Excited State  11:      Singlet-A"     9.5603 eV  129.69 nm  f=0.0291  <S**2>=0.000
      11 -> 17         0.69444

 Excited State  12:      Singlet-A"     9.6046 eV  129.09 nm  f=0.0000  <S**2>=0.000
       8 -> 13         0.10422
      10 -> 13         0.68844

 Excited State  13:      Singlet-A'     9.6849 eV  128.02 nm  f=0.1155  <S**2>=0.000
      11 -> 16         0.19800
      11 -> 18         0.56298
      11 -> 19         0.10134
      11 -> 20         0.16434
      11 -> 23         0.13011
      12 -> 17         0.22588

 Excited State  14:      Singlet-A"     9.7497 eV  127.17 nm  f=0.0077  <S**2>=0.000
      12 -> 18        -0.14602
      12 -> 19         0.64375
      12 -> 20        -0.16215

 Excited State  15:      Singlet-A"     9.9687 eV  124.37 nm  f=0.0178  <S**2>=0.000
      12 -> 18        -0.34206
      12 -> 20         0.56675
      12 -> 21        -0.13844

 Excited State  16:      Singlet-A'    10.2129 eV  121.40 nm  f=0.0271  <S**2>=0.000
      11 -> 16         0.16937
      11 -> 18        -0.15267
      11 -> 19         0.64039

 Excited State  17:      Singlet-A'    10.4733 eV  118.38 nm  f=0.0140  <S**2>=0.000
      11 -> 18        -0.25275
      11 -> 20         0.62779

 Excited State  18:      Singlet-A"    10.5070 eV  118.00 nm  f=0.0066  <S**2>=0.000
       8 -> 13         0.10481
      12 -> 14        -0.11029
      12 -> 18         0.12627
      12 -> 20         0.23769
      12 -> 21         0.60860

 Excited State  19:      Singlet-A'    10.6942 eV  115.94 nm  f=0.0769  <S**2>=0.000
       9 -> 13         0.65546
      11 -> 23        -0.13987

 Excited State  20:      Singlet-A'    11.0780 eV  111.92 nm  f=0.0287  <S**2>=0.000
      11 -> 14        -0.11588
      11 -> 18         0.11492
      11 -> 20         0.16462
      11 -> 21         0.63756

 Excited State  21:      Singlet-A"    11.1140 eV  111.56 nm  f=0.0028  <S**2>=0.000
       8 -> 13         0.67403
      12 -> 21        -0.10794

 Excited State  22:      Singlet-A"    11.3194 eV  109.53 nm  f=0.0220  <S**2>=0.000
       9 -> 14         0.59711
       9 -> 15        -0.22926
       9 -> 21         0.13797
      12 -> 23         0.15554

 Excited State  23:      Singlet-A'    11.6311 eV  106.60 nm  f=0.1882  <S**2>=0.000
      10 -> 14         0.64388
      10 -> 15         0.18500

 Excited State  24:      Singlet-A'    11.7571 eV  105.46 nm  f=0.0857  <S**2>=0.000
      12 -> 22         0.65898
      12 -> 24        -0.17151

 Excited State  25:      Singlet-A"    11.7821 eV  105.23 nm  f=0.0071  <S**2>=0.000
       9 -> 14        -0.17997
      12 -> 18        -0.12808
      12 -> 20        -0.11102
      12 -> 21         0.14055
      12 -> 23         0.58305
      12 -> 26        -0.16017

 Excited State  26:      Singlet-A'    11.9993 eV  103.33 nm  f=0.0735  <S**2>=0.000
       8 -> 14         0.20310
      10 -> 14        -0.11274
      10 -> 15         0.57392
      12 -> 24         0.25178

 Excited State  27:      Singlet-A"    12.0668 eV  102.75 nm  f=0.0005  <S**2>=0.000
      11 -> 22         0.67075
      11 -> 24        -0.14161

 Excited State  28:      Singlet-A'    12.2088 eV  101.55 nm  f=0.0972  <S**2>=0.000
       9 -> 13        -0.12931
      10 -> 15        -0.23616
      10 -> 16        -0.14317
      10 -> 18        -0.14194
      11 -> 23        -0.31363
      12 -> 24         0.46382

 Excited State  29:      Singlet-A"    12.2571 eV  101.15 nm  f=0.0388  <S**2>=0.000
       9 -> 14         0.20409
       9 -> 15         0.44441
       9 -> 16         0.11229
       9 -> 18         0.18467
       9 -> 19         0.16756
      12 -> 23        -0.14832
      12 -> 25        -0.25709
      12 -> 26        -0.24536

 Excited State  30:      Singlet-A'    12.3594 eV  100.32 nm  f=0.0440  <S**2>=0.000
      11 -> 18        -0.10874
      11 -> 23         0.52469
      12 -> 22         0.14779
      12 -> 24         0.34709

 Excited State  31:      Singlet-A"    12.4294 eV   99.75 nm  f=0.0204  <S**2>=0.000
       9 -> 14         0.13196
       9 -> 15         0.22679
      12 -> 23         0.17576
      12 -> 25        -0.14211
      12 -> 26         0.57803

 Excited State  32:      Singlet-A"    12.4955 eV   99.22 nm  f=0.0011  <S**2>=0.000
      10 -> 17        -0.11034
      11 -> 22         0.12699
      11 -> 24         0.61838
      12 -> 25         0.23385

 Excited State  33:      Singlet-A"    12.6060 eV   98.35 nm  f=0.0225  <S**2>=0.000
       9 -> 15         0.31626
      11 -> 24        -0.24692
      12 -> 25         0.53946

 Excited State  34:      Singlet-A'    12.7235 eV   97.44 nm  f=0.0329  <S**2>=0.000
       8 -> 14         0.15713
      10 -> 16        -0.17941
      10 -> 18        -0.19367
      10 -> 19        -0.13279
      11 -> 23         0.14070
      11 -> 25         0.39911
      11 -> 26         0.39951

 Excited State  35:      Singlet-A'    12.8701 eV   96.33 nm  f=0.0309  <S**2>=0.000
       8 -> 14         0.53495
       8 -> 15        -0.15128
       8 -> 21         0.10082
      10 -> 14         0.10764
      10 -> 15        -0.12809
      10 -> 16        -0.17165
      11 -> 23         0.11278
      11 -> 25        -0.24660

 Excited State  36:      Singlet-A"    12.9216 eV   95.95 nm  f=0.0177  <S**2>=0.000
       7 -> 13         0.62946
       9 -> 16         0.13150
       9 -> 18        -0.13747

 Excited State  37:      Singlet-A'    12.9700 eV   95.59 nm  f=0.0711  <S**2>=0.000
      10 -> 16         0.11153
      10 -> 18         0.15210
      11 -> 25        -0.36111
      11 -> 26         0.53393

 Excited State  38:      Singlet-A"    13.0092 eV   95.31 nm  f=0.0003  <S**2>=0.000
       7 -> 13        -0.19797
       9 -> 16         0.60033
       9 -> 18        -0.18247
       9 -> 19        -0.11235
       9 -> 21         0.11902

 Excited State  39:      Singlet-A'    13.1627 eV   94.19 nm  f=0.0047  <S**2>=0.000
       8 -> 14         0.21764
      10 -> 15        -0.12499
      10 -> 16         0.54608
      10 -> 18         0.10459
      11 -> 25         0.21103
      12 -> 24         0.11120

 Excited State  40:      Singlet-A"    13.2177 eV   93.80 nm  f=0.0026  <S**2>=0.000
       7 -> 13         0.14488
       9 -> 15        -0.21305
       9 -> 16         0.26608
       9 -> 18         0.42566
       9 -> 20         0.20536
       9 -> 21        -0.14700
       9 -> 23         0.18739
      12 -> 25         0.11793
      12 -> 26         0.12055

 Excited State  41:      Singlet-A'    13.2465 eV   93.60 nm  f=0.0202  <S**2>=0.000
       9 -> 17         0.58468
      10 -> 16        -0.14875
      10 -> 18         0.20480
      10 -> 19         0.11241
      11 -> 25         0.10199
      12 -> 24         0.12184
      12 -> 27        -0.12361

 Excited State  42:      Singlet-A'    13.4290 eV   92.33 nm  f=0.0059  <S**2>=0.000
       9 -> 17        -0.26385
      10 -> 18         0.31620
      10 -> 19         0.42696
      10 -> 23         0.10017
      11 -> 25         0.25000

 Excited State  43:      Singlet-A"    13.4910 eV   91.90 nm  f=0.0008  <S**2>=0.000
       8 -> 17        -0.10381
      10 -> 17         0.67191
      11 -> 24         0.11164

 Excited State  44:      Singlet-A'    13.5550 eV   91.47 nm  f=0.0361  <S**2>=0.000
       9 -> 17         0.16494
      10 -> 16        -0.10339
      12 -> 27         0.65707

 Excited State  45:      Singlet-A"    13.6291 eV   90.97 nm  f=0.0004  <S**2>=0.000
      12 -> 28         0.61056
      12 -> 29        -0.26675

 Excited State  46:      Singlet-A'    13.7368 eV   90.26 nm  f=0.0084  <S**2>=0.000
       8 -> 14         0.19750
       8 -> 15         0.58967
       8 -> 16         0.14351
      10 -> 18         0.13921
      11 -> 28        -0.13307

 Excited State  47:      Singlet-A"    13.9337 eV   88.98 nm  f=0.0072  <S**2>=0.000
       9 -> 19         0.15074
      11 -> 27         0.66513

 Excited State  48:      Singlet-A'    13.9935 eV   88.60 nm  f=0.0415  <S**2>=0.000
       8 -> 16        -0.12925
       8 -> 19         0.10446
       9 -> 17         0.13181
      10 -> 16         0.15556
      10 -> 18        -0.41086
      10 -> 19         0.42397
      11 -> 28        -0.14965

 Excited State  49:      Singlet-A"    14.0367 eV   88.33 nm  f=0.1176  <S**2>=0.000
       9 -> 18         0.13835
       9 -> 20        -0.15518
       9 -> 21         0.10624
      12 -> 28         0.27490
      12 -> 29         0.58174

 Excited State  50:      Singlet-A"    14.1249 eV   87.78 nm  f=0.0179  <S**2>=0.000
       9 -> 19         0.57028
       9 -> 20        -0.28407
      11 -> 27        -0.17927
      12 -> 25         0.10523

 Excited State  51:      Singlet-A'    14.1776 eV   87.45 nm  f=0.0248  <S**2>=0.000
       8 -> 15         0.10511
      10 -> 19         0.13727
      11 -> 28         0.53567
      11 -> 29        -0.14788
      12 -> 30         0.32978

 Excited State  52:      Singlet-A'    14.2053 eV   87.28 nm  f=0.0597  <S**2>=0.000
       8 -> 16        -0.13330
       8 -> 18        -0.12754
      10 -> 20         0.61377
      11 -> 29        -0.11237
      12 -> 30        -0.11854

 Excited State  53:      Singlet-A'    14.2496 eV   87.01 nm  f=0.0154  <S**2>=0.000
       8 -> 15        -0.14720
      10 -> 19        -0.11813
      10 -> 20         0.14739
      11 -> 28        -0.28073
      12 -> 30         0.57503

 Excited State  54:      Singlet-A"    14.3190 eV   86.59 nm  f=0.0037  <S**2>=0.000
       9 -> 18        -0.38404
       9 -> 19         0.25198
       9 -> 20         0.39384
       9 -> 21        -0.19617
      12 -> 29         0.18998

 Excited State  55:      Singlet-A"    14.4502 eV   85.80 nm  f=0.0422  <S**2>=0.000
       8 -> 17         0.26087
      11 -> 30         0.61278

 Excited State  56:      Singlet-A'    14.5059 eV   85.47 nm  f=0.0155  <S**2>=0.000
       7 -> 14        -0.12041
       8 -> 15        -0.11240
       8 -> 16         0.61791
      10 -> 20         0.15698
      10 -> 21         0.10522

 Excited State  57:      Singlet-A'    14.6178 eV   84.82 nm  f=0.0069  <S**2>=0.000
      10 -> 20         0.10155
      11 -> 28         0.18690
      11 -> 29         0.63931

 Excited State  58:      Singlet-A"    14.7270 eV   84.19 nm  f=0.0124  <S**2>=0.000
       9 -> 14        -0.10314
       9 -> 19         0.10305
       9 -> 20         0.30312
       9 -> 21         0.54039
      12 -> 32         0.12184

 Excited State  59:      Singlet-A"    14.7609 eV   83.99 nm  f=0.0026  <S**2>=0.000
       8 -> 17         0.61838
      11 -> 30        -0.28420

 Excited State  60:      Singlet-A'    14.7978 eV   83.79 nm  f=0.1189  <S**2>=0.000
       8 -> 18         0.49114
       8 -> 19         0.21365
       8 -> 20         0.15330
       8 -> 21        -0.13811
       8 -> 23         0.10954
      10 -> 18         0.11464
      10 -> 21         0.12391
      11 -> 29        -0.12046

 Excited State  61:      Singlet-A"    14.9068 eV   83.17 nm  f=0.0034  <S**2>=0.000
       6 -> 13        -0.17394
      12 -> 31         0.63717
      12 -> 32         0.11284
      12 -> 33         0.10341

 Excited State  62:      Singlet-A'    14.9223 eV   83.09 nm  f=0.2100  <S**2>=0.000
       7 -> 14         0.48072
       8 -> 18        -0.14283
      10 -> 14        -0.11100
      10 -> 21         0.39548

 Excited State  63:      Singlet-A'    15.0033 eV   82.64 nm  f=0.0553  <S**2>=0.000
       7 -> 14        -0.41138
       8 -> 18        -0.21131
       8 -> 19         0.11368
      10 -> 18         0.11779
      10 -> 21         0.42458
      11 -> 31         0.11807

 Excited State  64:      Singlet-A"    15.1291 eV   81.95 nm  f=0.0021  <S**2>=0.000
       6 -> 13        -0.10587
       9 -> 20        -0.11476
       9 -> 21        -0.15082
      12 -> 32         0.60216
      12 -> 33        -0.23206

 Excited State  65:      Singlet-A'    15.3079 eV   80.99 nm  f=0.0169  <S**2>=0.000
       7 -> 15         0.18484
       8 -> 18         0.16429
       8 -> 19        -0.25778
      11 -> 31         0.54402

 Excited State  66:      Singlet-A"    15.3548 eV   80.75 nm  f=0.0015  <S**2>=0.000
      12 -> 31         0.15568
      12 -> 32        -0.14890
      12 -> 33        -0.31550
      12 -> 34         0.55434

 Excited State  67:      Singlet-A'    15.4043 eV   80.49 nm  f=0.0491  <S**2>=0.000
       7 -> 14         0.12622
       7 -> 15        -0.19676
       8 -> 19         0.40975
       8 -> 20        -0.24585
      11 -> 31         0.32765
      11 -> 32         0.15286

 Excited State  68:      Singlet-A"    15.4905 eV   80.04 nm  f=0.0021  <S**2>=0.000
       6 -> 13         0.34715
       8 -> 22         0.12357
      10 -> 22         0.55882

 Excited State  69:      Singlet-A"    15.5035 eV   79.97 nm  f=0.0033  <S**2>=0.000
      12 -> 32         0.13585
      12 -> 33         0.53267
      12 -> 34         0.37632

 Excited State  70:      Singlet-A'    15.5194 eV   79.89 nm  f=0.0132  <S**2>=0.000
       7 -> 15         0.53550
       7 -> 18         0.10819
       8 -> 19         0.16079
       8 -> 20        -0.13373
      11 -> 32         0.29356

 Excited State  71:      Singlet-A'    15.6239 eV   79.36 nm  f=0.1565  <S**2>=0.000
       7 -> 15        -0.22060
       8 -> 18         0.14510
       8 -> 19        -0.31442
       8 -> 20        -0.21639
      10 -> 21         0.16986
      11 -> 32         0.42402
      11 -> 34         0.12280

 Excited State  72:      Singlet-A'    15.6733 eV   79.11 nm  f=0.0100  <S**2>=0.000
       8 -> 18        -0.22258
       8 -> 20         0.42235
       8 -> 21        -0.12333
      11 -> 32         0.38045
      11 -> 33        -0.13635
      11 -> 34        -0.15970

 Excited State  73:      Singlet-A'    15.8802 eV   78.07 nm  f=0.0412  <S**2>=0.000
       7 -> 18        -0.11845
      10 -> 23        -0.19535
      11 -> 32         0.11361
      11 -> 33         0.58536

 Excited State  74:      Singlet-A"    15.9372 eV   77.80 nm  f=0.2095  <S**2>=0.000
       6 -> 13         0.48323
       9 -> 23         0.12073
      10 -> 22        -0.24953
      10 -> 24        -0.25920
      12 -> 31         0.11267
      12 -> 32         0.15860

 Excited State  75:      Singlet-A'    15.9575 eV   77.70 nm  f=0.0326  <S**2>=0.000
       7 -> 15         0.11314
       7 -> 16        -0.10199
       7 -> 18        -0.11264
       8 -> 20         0.13758
      10 -> 23        -0.21981
      11 -> 33        -0.18164
      11 -> 34         0.54350

 Excited State  76:      Singlet-A"    15.9921 eV   77.53 nm  f=0.0147  <S**2>=0.000
       9 -> 18        -0.14887
       9 -> 20        -0.14118
       9 -> 21         0.15641
       9 -> 23         0.58863
       9 -> 26        -0.16239
      10 -> 24         0.12630

 Excited State  77:      Singlet-A'    16.0100 eV   77.44 nm  f=0.0077  <S**2>=0.000
       7 -> 16         0.13519
       7 -> 18         0.12585
       7 -> 20         0.10305
       8 -> 20         0.23469
       8 -> 21         0.18251
       9 -> 24        -0.21163
      10 -> 21         0.10228
      10 -> 23         0.32437
      11 -> 33         0.16092
      11 -> 34         0.24048
      12 -> 35         0.21209

 Excited State  78:      Singlet-A"    16.0186 eV   77.40 nm  f=0.0522  <S**2>=0.000
       6 -> 13         0.17815
       7 -> 17        -0.26741
      10 -> 22        -0.22338
      10 -> 24         0.53209

 Excited State  79:      Singlet-A'    16.1458 eV   76.79 nm  f=0.0055  <S**2>=0.000
       8 -> 21        -0.27506
       9 -> 22         0.50014
       9 -> 24        -0.29624
      11 -> 33        -0.13175

 Excited State  80:      Singlet-A'    16.2000 eV   76.53 nm  f=0.0658  <S**2>=0.000
       7 -> 16        -0.17127
       8 -> 18         0.10726
       8 -> 20         0.13012
       8 -> 21         0.40826
       9 -> 22         0.26534
       9 -> 24        -0.12138
      10 -> 23        -0.15050
      11 -> 34        -0.20736
      12 -> 35        -0.24488

 Excited State  81:      Singlet-A'    16.2980 eV   76.07 nm  f=0.0098  <S**2>=0.000
       7 -> 16         0.57771
      12 -> 35        -0.28579

 Excited State  82:      Singlet-A'    16.3788 eV   75.70 nm  f=0.0527  <S**2>=0.000
       7 -> 15         0.10913
       7 -> 16        -0.13503
       7 -> 18        -0.30914
       7 -> 19        -0.20055
       9 -> 22         0.11513
       9 -> 24         0.10857
      10 -> 23         0.43349
      12 -> 35        -0.20695

 Excited State  83:      Singlet-A'    16.4770 eV   75.25 nm  f=0.0035  <S**2>=0.000
       7 -> 19         0.12359
       9 -> 22         0.31881
       9 -> 24         0.51915
       9 -> 27         0.10831
      10 -> 25        -0.13761
      12 -> 35         0.12118
      12 -> 37         0.13996

 Excited State  84:      Singlet-A"    16.5872 eV   74.75 nm  f=0.0014  <S**2>=0.000
       9 -> 23         0.10189
       9 -> 25        -0.25129
       9 -> 26         0.48987
      11 -> 35         0.13564
      12 -> 36         0.34028

 Excited State  85:      Singlet-A'    16.6337 eV   74.54 nm  f=0.2250  <S**2>=0.000
       6 -> 15         0.10037
       7 -> 18        -0.12767
       7 -> 19        -0.23530
       8 -> 21         0.24589
      10 -> 25         0.30833
      12 -> 35         0.38226

 Excited State  86:      Singlet-A"    16.6607 eV   74.42 nm  f=0.0044  <S**2>=0.000
       7 -> 17         0.60688
      10 -> 24         0.25324
      10 -> 27        -0.12831
      11 -> 35         0.10870

 Excited State  87:      Singlet-A"    16.7102 eV   74.20 nm  f=0.0395  <S**2>=0.000
       9 -> 23        -0.11741
       9 -> 25        -0.13400
       9 -> 26        -0.35404
      11 -> 35        -0.15861
      12 -> 36         0.50102

 Excited State  88:      Singlet-A"    16.8098 eV   73.76 nm  f=0.0137  <S**2>=0.000
       7 -> 17        -0.11109
       9 -> 26        -0.18851
      11 -> 35         0.63673

 Excited State  89:      Singlet-A'    16.8229 eV   73.70 nm  f=0.0064  <S**2>=0.000
       6 -> 14        -0.10154
       7 -> 16        -0.10967
       7 -> 18         0.29231
       7 -> 21        -0.13404
      10 -> 25         0.34778
      10 -> 26         0.36274
      12 -> 35        -0.10874
      12 -> 37         0.15253

 Excited State  90:      Singlet-A"    16.8634 eV   73.52 nm  f=0.0007  <S**2>=0.000
       9 -> 23         0.11187
       9 -> 25         0.57643
       9 -> 26         0.11612
       9 -> 29        -0.10239
      12 -> 32        -0.11468
      12 -> 36         0.25071
      12 -> 38        -0.11492

 Excited State  91:      Singlet-A'    16.9105 eV   73.32 nm  f=0.0052  <S**2>=0.000
       7 -> 19        -0.14577
       9 -> 22        -0.11294
      10 -> 25        -0.11181
      10 -> 26        -0.16651
      11 -> 36         0.11973

 The electronic state is 1-A'.
 Alpha  occ. eigenvalues --  -19.29949 -14.49819 -10.31872  -1.20310  -0.96950
 Alpha  occ. eigenvalues --   -0.71090  -0.63036  -0.56471  -0.51390  -0.51167
 Alpha  occ. eigenvalues --   -0.37365  -0.35910
 Alpha virt. eigenvalues --    0.05560   0.06862   0.08603   0.11445   0.13298
 Alpha virt. eigenvalues --    0.14427   0.15609   0.17954   0.19309   0.24342
 Alpha virt. eigenvalues --    0.24836   0.25391   0.26688   0.26764   0.30304

 Mulliken charges:
               1
     1  O   -0.365457
     2  N   -0.302322
     3  C   -0.387169
     4  H    0.368329
     5  H    0.343879
     6  H    0.342741
 Sum of Mulliken charges =  -0.00000

 Dipole moment (field-independent basis, Debye):
    X=              0.2625    Y=             -0.1728    Z=              0.0000  Tot=              0.3143
 Quadrupole moment (field-independent basis, Debye-Ang):
   XX=            -11.7961   YY=            -19.3695   ZZ=            -19.1412
   XY=             -1.4795   XZ=             -0.0000   YZ=              0.0000

 Normal termination of Gaussian 16 at Sun Feb 27 06:40:33 2022.
