 Gaussian 16, Revision C.01,
 Gaussian 16:  EM64L-G16RevC.01  3-Jul-2019

 ----------------------------------------------------------------------
 #P TD(Nstates=10000) wB97XD/Gen SCF(maxcycles=100) Int(Grid=ultrafine)
 ----------------------------------------------------------------------

 ---------------------
 xGDB7_00001_tier4.com
 ---------------------
 Symbolic Z-matrix:
 Charge =  0 Multiplicity = 1

                         Standard orientation:
 ---------------------------------------------------------------------
 Center     Atomic      Atomic             Coordinates (Angstroms)
 Number     Number       Type             X           Y           Z
 ---------------------------------------------------------------------
      1          6           0       -0.026655   -0.220923    1.206915
      2          7           0       -0.026655    0.579675   -0.000000
      3          6           0       -0.026655   -0.220923   -1.206915
      4          1           0        0.028929    0.427196    2.082330
      5          1           0        0.800836   -0.947383    1.258571
      6          1           0       -0.961718   -0.783094    1.269367
      7          1           0        0.770359    1.199905   -0.000000
      8          1           0       -0.961718   -0.783094   -1.269367
      9          1           0        0.800836   -0.947383   -1.258571
     10          1           0        0.028929    0.427196   -2.082330
 ---------------------------------------------------------------------

 SCF Done:  E(RwB97XD) =  -135.174303542     A.U. after   12 cycles

 Excitation energies and oscillator strengths:

 Excited State   1:      Singlet-A'     5.8464 eV  212.07 nm  f=0.0009  <S**2>=0.000
      13 -> 14         0.63673
      13 -> 16         0.27480
 This state for optimization and/or second-order correction.
 Total Energy, E(TD-HF/TD-DFT) =  -134.959450702
 Copying the excited state density for this state as the 1-particle RhoCI density.

 Excited State   2:      Singlet-A'     6.8438 eV  181.16 nm  f=0.0587  <S**2>=0.000
      13 -> 14        -0.26828
      13 -> 16         0.63968

 Excited State   3:      Singlet-A"     6.9508 eV  178.37 nm  f=0.0029  <S**2>=0.000
      13 -> 15         0.69383

 Excited State   4:      Singlet-A'     7.6971 eV  161.08 nm  f=0.0930  <S**2>=0.000
      13 -> 17         0.67763
      13 -> 20        -0.16039

 Excited State   5:      Singlet-A'     7.8081 eV  158.79 nm  f=0.0160  <S**2>=0.000
      13 -> 14         0.11244
      13 -> 18         0.67092
      13 -> 21         0.11309

 Excited State   6:      Singlet-A'     8.5242 eV  145.45 nm  f=0.0063  <S**2>=0.000
      13 -> 17         0.15036
      13 -> 20         0.64738
      13 -> 21        -0.18901

 Excited State   7:      Singlet-A"     8.5650 eV  144.76 nm  f=0.0184  <S**2>=0.000
      13 -> 19         0.68957

 Excited State   8:      Singlet-A'     8.7307 eV  142.01 nm  f=0.0034  <S**2>=0.000
      13 -> 18        -0.11753
      13 -> 20         0.18355
      13 -> 21         0.65814

 Excited State   9:      Singlet-A"     9.2667 eV  133.80 nm  f=0.0633  <S**2>=0.000
      13 -> 22         0.68732

 Excited State  10:      Singlet-A"     9.5480 eV  129.85 nm  f=0.0025  <S**2>=0.000
      13 -> 23         0.65396
      13 -> 25         0.20265

 Excited State  11:      Singlet-A'     9.6369 eV  128.66 nm  f=0.0023  <S**2>=0.000
      11 -> 14        -0.20398
      13 -> 24         0.65009

 Excited State  12:      Singlet-A"     9.7246 eV  127.50 nm  f=0.0580  <S**2>=0.000
      11 -> 15         0.16381
      12 -> 14         0.64883
      12 -> 16         0.10978

 Excited State  13:      Singlet-A'     9.7817 eV  126.75 nm  f=0.0302  <S**2>=0.000
      11 -> 14         0.60919
      11 -> 16         0.12923
      12 -> 15         0.20411
      13 -> 24         0.20633

 Excited State  14:      Singlet-A"     9.9374 eV  124.77 nm  f=0.0417  <S**2>=0.000
      13 -> 23        -0.19072
      13 -> 25         0.65186

 Excited State  15:      Singlet-A"    10.2793 eV  120.62 nm  f=0.0021  <S**2>=0.000
      10 -> 14         0.60008
      11 -> 15         0.28110

 Excited State  16:      Singlet-A'    10.5736 eV  117.26 nm  f=0.0800  <S**2>=0.000
      11 -> 16        -0.42220
      12 -> 15         0.46044
      13 -> 26         0.24287

 Excited State  17:      Singlet-A"    10.6084 eV  116.87 nm  f=0.0178  <S**2>=0.000
      13 -> 27         0.66364
      13 -> 33        -0.12505

 Excited State  18:      Singlet-A"    10.7003 eV  115.87 nm  f=0.0120  <S**2>=0.000
      10 -> 14         0.19646
      11 -> 15        -0.27961
      12 -> 16         0.57433
      12 -> 18        -0.10994

 Excited State  19:      Singlet-A'    10.7266 eV  115.59 nm  f=0.1048  <S**2>=0.000
      10 -> 15        -0.14586
      11 -> 14        -0.13620
      11 -> 16         0.46850
      12 -> 15         0.17998
      13 -> 26         0.41137

 Excited State  20:      Singlet-A'    10.8450 eV  114.32 nm  f=0.0325  <S**2>=0.000
       8 -> 14        -0.11653
      10 -> 15         0.12749
      11 -> 14         0.14648
      11 -> 16        -0.18046
      12 -> 15        -0.38536
      13 -> 26         0.48430

 Excited State  21:      Singlet-A"    10.9165 eV  113.57 nm  f=0.0036  <S**2>=0.000
       9 -> 14         0.14441
      10 -> 14        -0.21202
      11 -> 15         0.46550
      12 -> 14        -0.17317
      12 -> 16         0.34841
      12 -> 18         0.14355

 Excited State  22:      Singlet-A'    11.2981 eV  109.74 nm  f=0.0331  <S**2>=0.000
       8 -> 14        -0.15317
      10 -> 15         0.52886
      11 -> 16         0.14057
      11 -> 17         0.12191
      11 -> 18         0.23368
      13 -> 28        -0.19219
      13 -> 29         0.10782

 Excited State  23:      Singlet-A'    11.3947 eV  108.81 nm  f=0.0348  <S**2>=0.000
      10 -> 15         0.19844
      11 -> 17         0.23956
      13 -> 28         0.40487
      13 -> 29        -0.33481
      13 -> 31        -0.20848
      13 -> 34         0.11438

 Excited State  24:      Singlet-A"    11.4209 eV  108.56 nm  f=0.0252  <S**2>=0.000
      10 -> 16         0.65915
      11 -> 19         0.14454

 Excited State  25:      Singlet-A"    11.5142 eV  107.68 nm  f=0.0920  <S**2>=0.000
      12 -> 17         0.64734
      12 -> 18         0.13180

 Excited State  26:      Singlet-A"    11.5746 eV  107.12 nm  f=0.1468  <S**2>=0.000
       9 -> 14        -0.14265
      11 -> 15        -0.11030
      12 -> 17        -0.15438
      12 -> 18         0.61592

 Excited State  27:      Singlet-A'    11.5777 eV  107.09 nm  f=0.0514  <S**2>=0.000
      10 -> 15        -0.13759
      11 -> 17         0.58379
      11 -> 18        -0.17031
      12 -> 22        -0.10547
      13 -> 28        -0.21935
      13 -> 31         0.10601

 Excited State  28:      Singlet-A'    11.7202 eV  105.79 nm  f=0.0390  <S**2>=0.000
      11 -> 17         0.16364
      11 -> 18         0.15040
      13 -> 28         0.35582
      13 -> 29         0.47465
      13 -> 31        -0.11683
      13 -> 32        -0.20131

 Excited State  29:      Singlet-A'    11.7838 eV  105.22 nm  f=0.0480  <S**2>=0.000
       9 -> 15         0.13408
      10 -> 15        -0.12592
      11 -> 18         0.48070
      13 -> 29        -0.11626
      13 -> 31         0.31415
      13 -> 32         0.21575

 Excited State  30:      Singlet-A'    11.8581 eV  104.56 nm  f=0.1170  <S**2>=0.000
      10 -> 15         0.10059
      11 -> 18        -0.28993
      13 -> 28         0.27922
      13 -> 29         0.12385
      13 -> 31         0.49696

 Excited State  31:      Singlet-A"    11.9202 eV  104.01 nm  f=0.0211  <S**2>=0.000
      10 -> 17        -0.15176
      10 -> 18         0.10077
      10 -> 21        -0.10794
      13 -> 27         0.12948
      13 -> 30         0.50403
      13 -> 33         0.32769
      13 -> 37         0.14889

 Excited State  32:      Singlet-A"    11.9399 eV  103.84 nm  f=0.0535  <S**2>=0.000
       8 -> 15         0.12028
       9 -> 14         0.58274
       9 -> 16         0.15003
      10 -> 18        -0.16450
      11 -> 15        -0.16246
      12 -> 18         0.10871
      12 -> 20        -0.10232

 Excited State  33:      Singlet-A'    12.0584 eV  102.82 nm  f=0.0429  <S**2>=0.000
       8 -> 14        -0.27741
       8 -> 16        -0.14616
      12 -> 19        -0.12346
      13 -> 29         0.23015
      13 -> 31        -0.22462
      13 -> 32         0.47621
      13 -> 34         0.11725

 Excited State  34:      Singlet-A"    12.1626 eV  101.94 nm  f=0.0163  <S**2>=0.000
       9 -> 14        -0.11632
      10 -> 17         0.52379
      11 -> 19         0.25607
      11 -> 22        -0.11420
      12 -> 20        -0.15796
      13 -> 30         0.22323

 Excited State  35:      Singlet-A"    12.1945 eV  101.67 nm  f=0.0711  <S**2>=0.000
       9 -> 16         0.13796
      10 -> 17         0.10082
      10 -> 18         0.43544
      11 -> 19         0.23384
      13 -> 30        -0.27966
      13 -> 33         0.27173

 Excited State  36:      Singlet-A'    12.2528 eV  101.19 nm  f=0.0295  <S**2>=0.000
       8 -> 14         0.40655
       8 -> 16         0.17963
      10 -> 15         0.17798
      12 -> 19         0.25922
      13 -> 29         0.14641
      13 -> 32         0.31328

 Excited State  37:      Singlet-A"    12.2877 eV  100.90 nm  f=0.0001  <S**2>=0.000
       9 -> 14         0.11458
      10 -> 18         0.21549
      10 -> 21         0.11734
      11 -> 25        -0.11963
      12 -> 20         0.49979
      13 -> 30         0.23256
      13 -> 33        -0.23118

 Excited State  38:      Singlet-A'    12.3232 eV  100.61 nm  f=0.0114  <S**2>=0.000
       8 -> 14         0.17945
      11 -> 20         0.54803
      11 -> 21        -0.15040
      12 -> 19        -0.26178
      13 -> 34         0.12406

 Excited State  39:      Singlet-A"    12.3723 eV  100.21 nm  f=0.0000  <S**2>=0.000
       8 -> 15         0.13650
       9 -> 16         0.10247
      10 -> 18        -0.31529
      11 -> 19         0.11526
      12 -> 20         0.35865
      12 -> 21        -0.16812
      13 -> 30        -0.13719
      13 -> 33         0.32875

 Excited State  40:      Singlet-A"    12.4147 eV   99.87 nm  f=0.0540  <S**2>=0.000
       9 -> 14        -0.16784
       9 -> 16         0.29524
      10 -> 16        -0.10763
      10 -> 17        -0.32261
      10 -> 20        -0.11035
      11 -> 19         0.38598
      12 -> 21        -0.10548
      13 -> 33        -0.19434

 Excited State  41:      Singlet-A'    12.4372 eV   99.69 nm  f=0.0465  <S**2>=0.000
       8 -> 14        -0.26194
       8 -> 16         0.15358
       8 -> 18         0.11010
      10 -> 15        -0.11602
      11 -> 20         0.27567
      12 -> 19         0.46983
      13 -> 34         0.16513

 Excited State  42:      Singlet-A'    12.4809 eV   99.34 nm  f=0.0108  <S**2>=0.000
       9 -> 15        -0.14234
      11 -> 20         0.13240
      11 -> 21         0.61076
      12 -> 23        -0.13730

 Excited State  43:      Singlet-A'    12.5030 eV   99.16 nm  f=0.0696  <S**2>=0.000
       8 -> 14         0.11688
      11 -> 20        -0.18980
      13 -> 32        -0.13682
      13 -> 34         0.61320

 Excited State  44:      Singlet-A"    12.5850 eV   98.52 nm  f=0.0076  <S**2>=0.000
      10 -> 18        -0.11708
      10 -> 20        -0.10626
      10 -> 21         0.12171
      11 -> 19         0.13356
      12 -> 21         0.61377

 Excited State  45:      Singlet-A'    12.8388 eV   96.57 nm  f=0.0173  <S**2>=0.000
       7 -> 16        -0.10168
       8 -> 16        -0.14521
       8 -> 17        -0.17825
       9 -> 15        -0.15577
      10 -> 19         0.42092
      11 -> 24         0.15920
      12 -> 22         0.38290

 Excited State  46:      Singlet-A'    12.8785 eV   96.27 nm  f=0.0162  <S**2>=0.000
       8 -> 16         0.26244
      10 -> 19        -0.27560
      12 -> 19        -0.18462
      12 -> 22         0.47323

 Excited State  47:      Singlet-A"    12.8864 eV   96.21 nm  f=0.0139  <S**2>=0.000
       8 -> 15        -0.10425
       9 -> 16         0.47598
      10 -> 18        -0.10300
      10 -> 20         0.23164
      10 -> 21        -0.25472
      11 -> 19        -0.20034
      12 -> 21         0.16844

 Excited State  48:      Singlet-A"    12.9359 eV   95.84 nm  f=0.0014  <S**2>=0.000
       9 -> 16         0.15442
       9 -> 17        -0.22597
      10 -> 17         0.13247
      10 -> 20        -0.24959
      10 -> 21         0.34076
      11 -> 19        -0.22214
      11 -> 22         0.32737
      12 -> 20        -0.12452

 Excited State  49:      Singlet-A'    12.9574 eV   95.69 nm  f=0.0879  <S**2>=0.000
       9 -> 15         0.59985
      11 -> 18        -0.14273
      11 -> 21         0.13801
      11 -> 24         0.10154
      12 -> 22         0.10487

 Excited State  50:      Singlet-A"    12.9913 eV   95.44 nm  f=0.0162  <S**2>=0.000
       9 -> 16        -0.23665
       9 -> 17        -0.18059
       9 -> 18         0.10622
      10 -> 20         0.28709
      10 -> 21        -0.13715
      11 -> 19         0.18420
      11 -> 22         0.44468

 Excited State  51:      Singlet-A'    13.1150 eV   94.54 nm  f=0.0171  <S**2>=0.000
       7 -> 14         0.10903
       8 -> 14         0.14589
       8 -> 16        -0.27565
       8 -> 18         0.16037
       9 -> 15        -0.11309
      10 -> 23        -0.10067
      11 -> 21         0.12209
      12 -> 19         0.13780
      12 -> 23         0.42055
      13 -> 35         0.26693

 Excited State  52:      Singlet-A"    13.1192 eV   94.51 nm  f=0.0391  <S**2>=0.000
       8 -> 15         0.19893
      10 -> 20         0.40928
      10 -> 21         0.33660
      11 -> 23        -0.23845
      11 -> 25        -0.22585
      12 -> 20        -0.10383

 Excited State  53:      Singlet-A'    13.1755 eV   94.10 nm  f=0.0311  <S**2>=0.000
       8 -> 16         0.13479
      10 -> 19         0.12420
      12 -> 23        -0.12956
      13 -> 35         0.51053
      13 -> 36        -0.21300
      13 -> 39         0.21469

 Excited State  54:      Singlet-A"    13.3397 eV   92.94 nm  f=0.0000  <S**2>=0.000
       8 -> 15         0.50419
       9 -> 17         0.10329
       9 -> 18         0.22395
      11 -> 23         0.28902
      12 -> 24         0.13013

 Excited State  55:      Singlet-A'    13.4035 eV   92.50 nm  f=0.0230  <S**2>=0.000
       8 -> 16         0.32225
       8 -> 18         0.11885
      10 -> 19         0.20500
      10 -> 22        -0.24151
      11 -> 24         0.17276
      12 -> 22        -0.12649
      12 -> 23         0.29813
      13 -> 35        -0.15998
      13 -> 36        -0.16952
      13 -> 41         0.11099

 Excited State  56:      Singlet-A"    13.4500 eV   92.18 nm  f=0.0098  <S**2>=0.000
       8 -> 15         0.11142
       9 -> 18        -0.28751
      10 -> 21        -0.12538
      11 -> 23        -0.22210
      12 -> 24         0.45589
      13 -> 37        -0.18254
      13 -> 38        -0.11901

 Excited State  57:      Singlet-A'    13.4539 eV   92.15 nm  f=0.0333  <S**2>=0.000
       7 -> 14        -0.10698
       8 -> 16         0.19689
       8 -> 17        -0.12057
      10 -> 19         0.15106
      11 -> 24        -0.10317
      12 -> 25         0.28560
      13 -> 35         0.13654
      13 -> 36         0.47947

 Excited State  58:      Singlet-A'    13.4953 eV   91.87 nm  f=0.0933  <S**2>=0.000
       7 -> 14         0.57394
       7 -> 16         0.15271
       7 -> 18        -0.11202
      12 -> 25        -0.11966
      13 -> 36         0.19393

 Excited State  59:      Singlet-A"    13.5061 eV   91.80 nm  f=0.0214  <S**2>=0.000
       8 -> 15        -0.29316
       8 -> 19         0.10591
       9 -> 18         0.19613
      10 -> 18        -0.10496
      10 -> 21         0.16746
      11 -> 23         0.29355
      11 -> 25        -0.10324
      12 -> 24         0.39146

 Excited State  60:      Singlet-A'    13.5823 eV   91.28 nm  f=0.0597  <S**2>=0.000
       8 -> 17         0.13747
       8 -> 18        -0.10197
      10 -> 22         0.28842
      12 -> 25         0.33696
      13 -> 35        -0.18340
      13 -> 36        -0.16447
      13 -> 39         0.33918
      13 -> 41         0.10347

 Excited State  61:      Singlet-A"    13.6105 eV   91.09 nm  f=0.0242  <S**2>=0.000
      12 -> 24         0.21207
      13 -> 30        -0.10898
      13 -> 33        -0.20759
      13 -> 37         0.52009
      13 -> 38         0.29532

 Excited State  62:      Singlet-A'    13.6490 eV   90.84 nm  f=0.0011  <S**2>=0.000
       8 -> 18         0.11171
      10 -> 22        -0.15967
      11 -> 24        -0.30378
      12 -> 25        -0.28616
      13 -> 35        -0.17946
      13 -> 39         0.39796
      13 -> 41         0.13035

 Excited State  63:      Singlet-A"    13.6850 eV   90.60 nm  f=0.0052  <S**2>=0.000
       9 -> 17         0.57184
       9 -> 18        -0.14793
      11 -> 22         0.29786

 Excited State  64:      Singlet-A'    13.6908 eV   90.56 nm  f=0.0140  <S**2>=0.000
       8 -> 16        -0.19419
       8 -> 17        -0.10037
      10 -> 19        -0.24141
      10 -> 22        -0.21716
      11 -> 24         0.41660
      12 -> 25         0.15542
      12 -> 27         0.11214
      13 -> 39         0.25197

 Excited State  65:      Singlet-A"    13.7825 eV   89.96 nm  f=0.0039  <S**2>=0.000
       9 -> 18        -0.17285
      10 -> 20         0.10112
      10 -> 21         0.14148
      11 -> 25         0.18814
      13 -> 37        -0.21354
      13 -> 38         0.41441
      13 -> 40        -0.34937

 Excited State  66:      Singlet-A"    13.8356 eV   89.61 nm  f=0.1632  <S**2>=0.000
       9 -> 18        -0.16732
       9 -> 20        -0.14813
       9 -> 21        -0.11020
      10 -> 20         0.13268
      10 -> 21         0.17424
      11 -> 23         0.19257
      11 -> 25         0.37244
      13 -> 37         0.22337
      13 -> 38        -0.33987

 Excited State  67:      Singlet-A"    13.9086 eV   89.14 nm  f=0.0174  <S**2>=0.000
      10 -> 20         0.10497
      10 -> 24        -0.10105
      11 -> 25         0.20516
      13 -> 38         0.23132
      13 -> 40         0.55587
      13 -> 43         0.10439

 Excited State  68:      Singlet-A'    13.9102 eV   89.13 nm  f=0.0510  <S**2>=0.000
       7 -> 14        -0.14636
       8 -> 17        -0.28025
      10 -> 22         0.34088
      11 -> 24         0.18313
      12 -> 22        -0.11133
      12 -> 23         0.18717
      12 -> 25        -0.17517
      13 -> 39         0.13662
      13 -> 41        -0.29641

 Excited State  69:      Singlet-A'    14.0083 eV   88.51 nm  f=0.0165  <S**2>=0.000
       8 -> 17         0.17654
       8 -> 20         0.10607
      10 -> 22         0.24106
      11 -> 24         0.16089
      12 -> 25        -0.13590
      13 -> 36         0.24141
      13 -> 39        -0.10216
      13 -> 41         0.45034

 Excited State  70:      Singlet-A"    14.0319 eV   88.36 nm  f=0.0146  <S**2>=0.000
       8 -> 19         0.11965
       9 -> 18         0.34875
       9 -> 20        -0.23983
       9 -> 21         0.18350
      10 -> 24        -0.24202
      11 -> 23        -0.29612
      11 -> 25         0.21230
      11 -> 27        -0.13887
      13 -> 40        -0.10619

 Excited State  71:      Singlet-A'    14.0402 eV   88.31 nm  f=0.1108  <S**2>=0.000
       7 -> 14         0.14781
       8 -> 18         0.40284
      10 -> 22         0.10484
      10 -> 23        -0.39684
      12 -> 23        -0.21104

 Excited State  72:      Singlet-A"    14.1837 eV   87.41 nm  f=0.0105  <S**2>=0.000
       7 -> 15        -0.13439
       8 -> 19        -0.14309
       9 -> 18         0.17893
      10 -> 24         0.50350
      11 -> 23        -0.14478
      11 -> 25         0.19186
      11 -> 27         0.15527

 Excited State  73:      Singlet-A'    14.1962 eV   87.34 nm  f=0.0956  <S**2>=0.000
       7 -> 14        -0.10541
       8 -> 17         0.43317
       8 -> 21         0.17984
      11 -> 24         0.17150
      11 -> 26         0.12350
      12 -> 22         0.11653
      12 -> 25        -0.12343
      12 -> 27        -0.19337
      13 -> 36         0.11736
      13 -> 39         0.13587
      13 -> 41        -0.24941

 Excited State  74:      Singlet-A"    14.2814 eV   86.82 nm  f=0.1065  <S**2>=0.000
       7 -> 15        -0.19769
       9 -> 17        -0.11213
       9 -> 18        -0.16428
       9 -> 20        -0.31568
       9 -> 21         0.37028
      10 -> 24         0.12831
      11 -> 23         0.11303
      11 -> 25        -0.15759
      11 -> 27        -0.28506

 Excited State  75:      Singlet-A'    14.3006 eV   86.70 nm  f=0.0033  <S**2>=0.000
       8 -> 17         0.19747
       8 -> 18        -0.14378
       8 -> 21        -0.25032
      10 -> 23        -0.30181
      10 -> 25        -0.24510
      12 -> 27         0.32119
      13 -> 41        -0.20921

 Excited State  76:      Singlet-A"    14.3613 eV   86.33 nm  f=0.0027  <S**2>=0.000
      10 -> 24         0.11565
      13 -> 42         0.57286
      13 -> 43         0.16809
      13 -> 45        -0.23884

 Excited State  77:      Singlet-A'    14.3968 eV   86.12 nm  f=0.0967  <S**2>=0.000
       7 -> 14        -0.12088
       7 -> 16         0.54588
       8 -> 18         0.16131
       9 -> 19         0.22210
      10 -> 19         0.12023
      12 -> 23        -0.11561
      12 -> 27         0.15046

 Excited State  78:      Singlet-A"    14.4751 eV   85.65 nm  f=0.0112  <S**2>=0.000
       7 -> 15         0.21379
       8 -> 22        -0.15617
      12 -> 26         0.59241

 Excited State  79:      Singlet-A'    14.4877 eV   85.58 nm  f=0.1651  <S**2>=0.000
       7 -> 16        -0.13333
       8 -> 20         0.26758
      10 -> 25         0.39701
      11 -> 26         0.16725
      12 -> 27         0.35730

 Excited State  80:      Singlet-A"    14.5035 eV   85.49 nm  f=0.0404  <S**2>=0.000
       7 -> 15         0.51371
       8 -> 19        -0.10943
       9 -> 21         0.10170
      10 -> 24         0.16020
      11 -> 27        -0.24637
      12 -> 26        -0.19945

 The electronic state is 1-A'.
 Alpha  occ. eigenvalues --  -14.41605 -10.29490 -10.29489  -1.00132  -0.79743
 Alpha  occ. eigenvalues --   -0.72180  -0.57862  -0.53124  -0.52186  -0.46991
 Alpha  occ. eigenvalues --   -0.44780  -0.44458  -0.30516
 Alpha virt. eigenvalues --    0.07009   0.09221   0.10513   0.13594   0.14168
 Alpha virt. eigenvalues --    0.16107   0.17167   0.18024   0.18412   0.20649
 Alpha virt. eigenvalues --    0.20681   0.22039   0.24607   0.24972   0.28148

 Mulliken charges:
               1
     1  C   -0.892166
     2  N   -0.349013
     3  C   -0.892166
     4  H    0.322631
     5  H    0.312149
     6  H    0.313692
     7  H    0.236401
     8  H    0.313692
     9  H    0.312149
    10  H    0.322631
 Sum of Mulliken charges =  -0.00000

 Dipole moment (field-independent basis, Debye):
    X=              0.9381    Y=             -0.3692    Z=              0.0000  Tot=              1.0081
 Quadrupole moment (field-independent basis, Debye-Ang):
   XX=            -20.8223   YY=            -21.4394   ZZ=            -19.8233
   XY=              2.1425   XZ=              0.0000   YZ=             -0.0000

 Normal termination of Gaussian 16 at Sun Feb 27 06:49:07 2022.
