 Gaussian 16, Revision C.01,
 Gaussian 16:  EM64L-G16RevC.01  3-Jul-2019

 ----------------------------------------------------------------------
 #P TD(Nstates=10000) wB97XD/Gen SCF(maxcycles=100) Int(Grid=ultrafine)
 ----------------------------------------------------------------------

 ---------------------
 xGDB7_00001_tier4.com
 ---------------------
 Symbolic Z-matrix:
 Charge =  0 Multiplicity = 1

                         Standard orientation:
 ---------------------------------------------------------------------
 Center     Atomic      Atomic             Coordinates (Angstroms)
 Number     Number       Type             X           Y           Z
 ---------------------------------------------------------------------
      1          6           0       -0.049078    0.702042   -0.000000
      2          7           0       -0.049078   -0.754243    0.000000
      3          1           0        0.946109    1.166603   -0.000000
      4          1           0       -0.587574    1.062597    0.877770
      5          1           0       -0.587574    1.062597   -0.877770
      6          1           0        0.433525   -1.112175    0.812504
      7          1           0        0.433525   -1.112175   -0.812504
 ---------------------------------------------------------------------

 SCF Done:  E(RwB97XD) =  -95.8674013261     A.U. after   11 cycles

 Excitation energies and oscillator strengths:

 Excited State   1:      Singlet-A'     6.0629 eV  204.50 nm  f=0.0138  <S**2>=0.000
       9 -> 10         0.65201
       9 -> 11         0.25145
 This state for optimization and/or second-order correction.
 Total Energy, E(TD-HF/TD-DFT) =  -95.6445926813
 Copying the excited state density for this state as the 1-particle RhoCI density.

 Excited State   2:      Singlet-A'     7.2387 eV  171.28 nm  f=0.0434  <S**2>=0.000
       9 -> 10        -0.24647
       9 -> 11         0.64845

 Excited State   3:      Singlet-A"     7.7620 eV  159.73 nm  f=0.0066  <S**2>=0.000
       9 -> 12         0.68555
       9 -> 14        -0.11415

 Excited State   4:      Singlet-A'     8.3704 eV  148.12 nm  f=0.0835  <S**2>=0.000
       9 -> 13         0.68524
       9 -> 18        -0.12539

 Excited State   5:      Singlet-A"     8.8456 eV  140.16 nm  f=0.0002  <S**2>=0.000
       9 -> 12         0.10072
       9 -> 14         0.67682
       9 -> 17         0.12180

 Excited State   6:      Singlet-A'     9.1577 eV  135.39 nm  f=0.0016  <S**2>=0.000
       9 -> 15         0.66242
       9 -> 16         0.17188

 Excited State   7:      Singlet-A'     9.3376 eV  132.78 nm  f=0.0152  <S**2>=0.000
       9 -> 15        -0.16732
       9 -> 16         0.67184

 Excited State   8:      Singlet-A"     9.6548 eV  128.42 nm  f=0.0156  <S**2>=0.000
       8 -> 10         0.69205

 Excited State   9:      Singlet-A"    10.0242 eV  123.68 nm  f=0.0003  <S**2>=0.000
       9 -> 14        -0.10924
       9 -> 17         0.67852

 Excited State  10:      Singlet-A'    10.3972 eV  119.25 nm  f=0.0075  <S**2>=0.000
       7 -> 10         0.15619
       9 -> 13         0.12212
       9 -> 18         0.65586

 Excited State  11:      Singlet-A"    10.5468 eV  117.56 nm  f=0.0923  <S**2>=0.000
       8 -> 11         0.68631

 Excited State  12:      Singlet-A'    10.7383 eV  115.46 nm  f=0.0551  <S**2>=0.000
       7 -> 10         0.62735
       9 -> 18        -0.14026
       9 -> 19        -0.21902

 Excited State  13:      Singlet-A'    10.9603 eV  113.12 nm  f=0.0236  <S**2>=0.000
       7 -> 10         0.24222
       9 -> 19         0.61183
       9 -> 22         0.10167
       9 -> 24        -0.11094

 Excited State  14:      Singlet-A"    11.1084 eV  111.61 nm  f=0.0187  <S**2>=0.000
       9 -> 20         0.68568
       9 -> 26         0.10205

 Excited State  15:      Singlet-A'    11.4333 eV  108.44 nm  f=0.1857  <S**2>=0.000
       6 -> 10         0.14131
       7 -> 11        -0.26036
       8 -> 12         0.61322

 Excited State  16:      Singlet-A'    11.5610 eV  107.24 nm  f=0.0594  <S**2>=0.000
       6 -> 10        -0.12702
       7 -> 11         0.45346
       8 -> 12         0.28881
       9 -> 21         0.40068

 Excited State  17:      Singlet-A'    11.6420 eV  106.50 nm  f=0.0671  <S**2>=0.000
       6 -> 10         0.33665
       7 -> 11        -0.28631
       8 -> 12        -0.12740
       9 -> 21         0.49365

 Excited State  18:      Singlet-A"    11.6821 eV  106.13 nm  f=0.0310  <S**2>=0.000
       8 -> 13         0.68994

 Excited State  19:      Singlet-A'    11.8961 eV  104.22 nm  f=0.0831  <S**2>=0.000
       6 -> 10         0.55030
       7 -> 11         0.32399
       9 -> 19         0.11350
       9 -> 21        -0.16849
       9 -> 22        -0.11771

 Excited State  20:      Singlet-A'    12.1913 eV  101.70 nm  f=0.0111  <S**2>=0.000
       7 -> 11         0.10875
       9 -> 22         0.64636

 Excited State  21:      Singlet-A"    12.2859 eV  100.92 nm  f=0.0196  <S**2>=0.000
       7 -> 12        -0.28377
       9 -> 23         0.62296

 Excited State  22:      Singlet-A'    12.3407 eV  100.47 nm  f=0.0109  <S**2>=0.000
       6 -> 11        -0.10758
       8 -> 14         0.64241
       8 -> 17         0.13875
       9 -> 22        -0.10414

 Excited State  23:      Singlet-A"    12.4252 eV   99.78 nm  f=0.0906  <S**2>=0.000
       7 -> 12         0.62446
       9 -> 23         0.28826

 Excited State  24:      Singlet-A"    12.5608 eV   98.71 nm  f=0.0593  <S**2>=0.000
       5 -> 10         0.17259
       5 -> 11         0.18711
       8 -> 15         0.61295
       8 -> 16        -0.16118

 Excited State  25:      Singlet-A'    12.6006 eV   98.40 nm  f=0.0205  <S**2>=0.000
       6 -> 11         0.47343
       9 -> 21        -0.11205
       9 -> 24        -0.45160

 Excited State  26:      Singlet-A"    12.6376 eV   98.11 nm  f=0.0032  <S**2>=0.000
       7 -> 14        -0.14964
       8 -> 15         0.14739
       8 -> 16         0.64890

 Excited State  27:      Singlet-A'    12.7522 eV   97.23 nm  f=0.2862  <S**2>=0.000
       6 -> 11         0.44292
       7 -> 13         0.10060
       9 -> 24         0.47743
       9 -> 25        -0.11716

 Excited State  28:      Singlet-A'    12.8643 eV   96.38 nm  f=0.0265  <S**2>=0.000
       7 -> 13         0.54585
       8 -> 17         0.12839
       9 -> 25         0.38818

 Excited State  29:      Singlet-A'    12.9130 eV   96.01 nm  f=0.1042  <S**2>=0.000
       6 -> 11         0.14804
       7 -> 13        -0.37370
       9 -> 25         0.53107

 Excited State  30:      Singlet-A"    13.1402 eV   94.36 nm  f=0.0022  <S**2>=0.000
       5 -> 10        -0.37849
       5 -> 11        -0.10219
       6 -> 12         0.17827
       7 -> 14         0.48338
       8 -> 15         0.21263

 Excited State  31:      Singlet-A"    13.2237 eV   93.76 nm  f=0.1020  <S**2>=0.000
       5 -> 10         0.49891
       5 -> 11         0.12349
       6 -> 12         0.19324
       7 -> 14         0.37044
       8 -> 16         0.13276
       9 -> 26        -0.10512

 Excited State  32:      Singlet-A"    13.3841 eV   92.64 nm  f=0.0000  <S**2>=0.000
       6 -> 12         0.15918
       9 -> 26         0.62057
       9 -> 28        -0.18024
       9 -> 30         0.11392

 Excited State  33:      Singlet-A"    13.4529 eV   92.16 nm  f=0.0890  <S**2>=0.000
       6 -> 12         0.60548
       7 -> 14        -0.24821
       7 -> 17        -0.11297
       9 -> 28         0.11334

 Excited State  34:      Singlet-A'    13.5075 eV   91.79 nm  f=0.0147  <S**2>=0.000
       5 -> 12        -0.11361
       6 -> 13         0.29629
       7 -> 15        -0.17240
       7 -> 16        -0.12458
       8 -> 17         0.54701
       9 -> 27         0.10501

 Excited State  35:      Singlet-A"    13.7199 eV   90.37 nm  f=0.0040  <S**2>=0.000
       5 -> 13         0.13033
       8 -> 18         0.67319

 Excited State  36:      Singlet-A'    13.7358 eV   90.26 nm  f=0.0037  <S**2>=0.000
       6 -> 13         0.13404
       7 -> 15         0.59603
       9 -> 27         0.17538
       9 -> 29        -0.16536
       9 -> 31        -0.10974

 Excited State  37:      Singlet-A'    13.7526 eV   90.15 nm  f=0.0689  <S**2>=0.000
       6 -> 13         0.43523
       7 -> 15         0.12013
       7 -> 16         0.35862
       9 -> 27        -0.25395
       9 -> 29         0.26411

 Excited State  38:      Singlet-A'    13.8675 eV   89.41 nm  f=0.0151  <S**2>=0.000
       6 -> 13        -0.22795
       7 -> 16         0.44108
       8 -> 14        -0.11202
       8 -> 17         0.24340
       9 -> 27        -0.18769
       9 -> 29        -0.31150
       9 -> 31        -0.10359

 Excited State  39:      Singlet-A"    13.8883 eV   89.27 nm  f=0.0058  <S**2>=0.000
       9 -> 26         0.23989
       9 -> 28         0.57952
       9 -> 30        -0.26664

 Excited State  40:      Singlet-A'    13.8889 eV   89.27 nm  f=0.0016  <S**2>=0.000
       6 -> 13        -0.18943
       7 -> 16         0.28469
       8 -> 17         0.10474
       9 -> 27         0.46201
       9 -> 29         0.31761
       9 -> 31         0.11720

 Excited State  41:      Singlet-A"    14.1276 eV   87.76 nm  f=0.0141  <S**2>=0.000
       5 -> 11         0.17185
       6 -> 14         0.41652
       6 -> 17         0.10424
       7 -> 17         0.13881
       8 -> 19        -0.20859
       9 -> 28         0.16789
       9 -> 30         0.39787

 Excited State  42:      Singlet-A'    14.2126 eV   87.24 nm  f=0.1555  <S**2>=0.000
       5 -> 12        -0.12769
       6 -> 13         0.27657
       7 -> 15        -0.18317
       7 -> 16         0.20935
       8 -> 17        -0.24491
       9 -> 27         0.33370
       9 -> 29        -0.33000

 Excited State  43:      Singlet-A"    14.2465 eV   87.03 nm  f=0.0429  <S**2>=0.000
       5 -> 10        -0.16835
       5 -> 11         0.51823
       6 -> 14        -0.14138
       7 -> 17         0.15519
       8 -> 19        -0.20964
       9 -> 28        -0.10400
       9 -> 30        -0.22663

 Excited State  44:      Singlet-A"    14.3081 eV   86.65 nm  f=0.0001  <S**2>=0.000
       6 -> 14         0.48801
       9 -> 28        -0.23973
       9 -> 30        -0.41130

 Excited State  45:      Singlet-A"    14.5124 eV   85.43 nm  f=0.0303  <S**2>=0.000
       5 -> 10         0.11662
       5 -> 11        -0.31440
       6 -> 14        -0.14640
       7 -> 14        -0.11410
       7 -> 17         0.43778
       8 -> 19        -0.34315

 Excited State  46:      Singlet-A'    14.6626 eV   84.56 nm  f=0.0110  <S**2>=0.000
       5 -> 12        -0.18420
       6 -> 15         0.58120
       8 -> 20         0.18010
       9 -> 31        -0.18402

 Excited State  47:      Singlet-A'    14.7263 eV   84.19 nm  f=0.0845  <S**2>=0.000
       6 -> 16        -0.26674
       7 -> 18         0.28660
       8 -> 20         0.53473
       9 -> 31         0.10890

 Excited State  48:      Singlet-A"    14.7555 eV   84.03 nm  f=0.1005  <S**2>=0.000
       7 -> 17         0.46165
       7 -> 20         0.10600
       8 -> 19         0.44336
       8 -> 21         0.15171
       8 -> 22         0.11963

 Excited State  49:      Singlet-A'    14.7880 eV   83.84 nm  f=0.1025  <S**2>=0.000
       7 -> 18         0.59255
       8 -> 20        -0.27512
       9 -> 31        -0.15707

 Excited State  50:      Singlet-A'    14.9963 eV   82.68 nm  f=0.1178  <S**2>=0.000
       5 -> 12         0.37604
       6 -> 16         0.45234
       8 -> 20         0.17003
       9 -> 31        -0.26738

 Excited State  51:      Singlet-A'    15.0016 eV   82.65 nm  f=0.0140  <S**2>=0.000
       6 -> 15         0.14896
       6 -> 16         0.33397
       7 -> 18         0.13744
       7 -> 19         0.10438
       9 -> 29        -0.20583
       9 -> 31         0.51894

 Excited State  52:      Singlet-A"    15.2004 eV   81.57 nm  f=0.0863  <S**2>=0.000
       5 -> 13        -0.19895
       5 -> 16        -0.12027
       7 -> 20        -0.15772
       8 -> 19        -0.13326
       8 -> 21         0.58983
       8 -> 24        -0.10106

 Excited State  53:      Singlet-A'    15.2036 eV   81.55 nm  f=0.0020  <S**2>=0.000
       5 -> 12         0.48641
       6 -> 15         0.25309
       6 -> 16        -0.26888
       8 -> 20        -0.15873

 Excited State  54:      Singlet-A"    15.3259 eV   80.90 nm  f=0.0079  <S**2>=0.000
       5 -> 13         0.54243
       5 -> 15         0.12283
       5 -> 18        -0.13326
       7 -> 20         0.18905
       8 -> 18        -0.10353
       8 -> 21         0.25233
       8 -> 24         0.13157

 Excited State  55:      Singlet-A"    15.4429 eV   80.29 nm  f=0.0195  <S**2>=0.000
       6 -> 17         0.50060
       7 -> 20         0.16919
       8 -> 22         0.40053
       9 -> 32         0.12400

 Excited State  56:      Singlet-A"    15.4819 eV   80.08 nm  f=0.0534  <S**2>=0.000
       5 -> 13         0.14669
       6 -> 17        -0.34495
       7 -> 20        -0.13675
       8 -> 19        -0.10249
       8 -> 22         0.53694
       9 -> 32        -0.10631

 Excited State  57:      Singlet-A'    15.5968 eV   79.49 nm  f=0.1010  <S**2>=0.000
       5 -> 14        -0.18706
       6 -> 18        -0.31544
       7 -> 19         0.49480
       8 -> 23         0.18995

 Excited State  58:      Singlet-A"    15.6093 eV   79.43 nm  f=0.0301  <S**2>=0.000
       5 -> 13        -0.21165
       6 -> 17        -0.26728
       7 -> 20         0.28920
       9 -> 32         0.51041

 Excited State  59:      Singlet-A'    15.7076 eV   78.93 nm  f=0.0371  <S**2>=0.000
       5 -> 12        -0.10116
       5 -> 14        -0.26911
       6 -> 15        -0.10232
       6 -> 18         0.53728
       7 -> 19         0.18343
       8 -> 23         0.11566
       9 -> 34         0.14722

 Excited State  60:      Singlet-A'    15.7939 eV   78.50 nm  f=0.0759  <S**2>=0.000
       5 -> 14        -0.32600
       5 -> 17        -0.14236
       6 -> 15         0.10273
       6 -> 19        -0.10780
       7 -> 19        -0.29415
       8 -> 23         0.39333
       9 -> 33         0.24940

 Excited State  61:      Singlet-A"    15.8492 eV   78.23 nm  f=0.0107  <S**2>=0.000
       5 -> 13         0.21796
       5 -> 15        -0.28629
       6 -> 17         0.10708
       7 -> 20        -0.29675
       8 -> 24        -0.32929
       9 -> 32         0.34471

 Excited State  62:      Singlet-A"    15.8859 eV   78.05 nm  f=0.0283  <S**2>=0.000
       5 -> 15         0.12602
       7 -> 20        -0.39025
       8 -> 19         0.11192
       8 -> 24         0.47107
       8 -> 27         0.12063
       9 -> 32         0.22017

 Excited State  63:      Singlet-A'    16.0386 eV   77.30 nm  f=0.1034  <S**2>=0.000
       5 -> 14         0.31539
       8 -> 23         0.45757
       9 -> 33        -0.36512

 Excited State  64:      Singlet-A'    16.0494 eV   77.25 nm  f=0.0173  <S**2>=0.000
       5 -> 14         0.30898
       6 -> 19        -0.11509
       7 -> 19         0.22352
       7 -> 21        -0.22996
       8 -> 23         0.15146
       9 -> 33         0.47059

 Excited State  65:      Singlet-A"    16.1916 eV   76.57 nm  f=0.0001  <S**2>=0.000
       5 -> 15         0.35435
       5 -> 18         0.15485
       8 -> 25         0.55408

 Excited State  66:      Singlet-A'    16.2542 eV   76.28 nm  f=0.0232  <S**2>=0.000
       5 -> 14         0.12370
       6 -> 18         0.21614
       7 -> 21         0.45322
       8 -> 23         0.10792
       9 -> 34        -0.40233

 Excited State  67:      Singlet-A'    16.3191 eV   75.97 nm  f=0.0061  <S**2>=0.000
       6 -> 19         0.30355
       7 -> 21         0.29345
       9 -> 33         0.13914
       9 -> 34         0.42846
       9 -> 36        -0.14532
       9 -> 38        -0.14873

 Excited State  68:      Singlet-A"    16.3370 eV   75.89 nm  f=0.0552  <S**2>=0.000
       5 -> 15         0.30184
       5 -> 16         0.47729
       6 -> 20        -0.14828
       7 -> 20        -0.12985
       8 -> 24        -0.18753
       8 -> 25        -0.18318
       9 -> 37        -0.13591

 Excited State  69:      Singlet-A"    16.5180 eV   75.06 nm  f=0.0062  <S**2>=0.000
       5 -> 15        -0.34212
       5 -> 16         0.41499
       8 -> 21         0.15900
       8 -> 24         0.19498
       8 -> 25         0.31559

 Excited State  70:      Singlet-A'    16.5255 eV   75.03 nm  f=0.0442  <S**2>=0.000
       7 -> 22         0.65843
       9 -> 34        -0.10369

 Excited State  71:      Singlet-A"    16.6943 eV   74.27 nm  f=0.0126  <S**2>=0.000
       6 -> 20         0.20279
       7 -> 23        -0.23279
       9 -> 35         0.58246
       9 -> 37         0.17127

 Excited State  72:      Singlet-A'    16.7167 eV   74.17 nm  f=0.0399  <S**2>=0.000
       5 -> 17         0.10059
       6 -> 19        -0.12860
       6 -> 21        -0.11237
       7 -> 21         0.18186
       9 -> 34         0.17902
       9 -> 36         0.59717

 Excited State  73:      Singlet-A"    16.7337 eV   74.09 nm  f=0.0025  <S**2>=0.000
       6 -> 20         0.53817
       7 -> 23        -0.16223
       9 -> 35        -0.18399
       9 -> 37        -0.30467

 Excited State  74:      Singlet-A'    16.8400 eV   73.62 nm  f=0.1464  <S**2>=0.000
       5 -> 17        -0.10722
       6 -> 19         0.51206
       7 -> 21        -0.20597
       7 -> 24        -0.14891
       9 -> 34        -0.11438
       9 -> 36         0.24241
       9 -> 38         0.17686

 Excited State  75:      Singlet-A"    16.9173 eV   73.29 nm  f=0.0254  <S**2>=0.000
       5 -> 16         0.12229
       6 -> 20         0.27583
       7 -> 23         0.28904
       8 -> 27         0.13394
       9 -> 35        -0.16394
       9 -> 37         0.48428

 Excited State  76:      Singlet-A'    16.9401 eV   73.19 nm  f=0.0298  <S**2>=0.000
       6 -> 19         0.15797
       7 -> 19         0.10103
       7 -> 24         0.46565
       7 -> 25        -0.18671
       8 -> 26        -0.35822
       9 -> 38         0.17247

 Excited State  77:      Singlet-A"    17.0529 eV   72.71 nm  f=0.0004  <S**2>=0.000
       6 -> 23        -0.13083
       7 -> 23         0.45706
       8 -> 27         0.27318
       8 -> 29        -0.15695
       9 -> 35         0.25098
       9 -> 37        -0.26346

 Excited State  78:      Singlet-A"    17.1174 eV   72.43 nm  f=0.0474  <S**2>=0.000
       5 -> 18         0.20211
       6 -> 20        -0.10147
       7 -> 23        -0.23392
       7 -> 26        -0.11172
       8 -> 27         0.49476
       8 -> 29        -0.23527

 Excited State  79:      Singlet-A'    17.1465 eV   72.31 nm  f=0.0485  <S**2>=0.000
       5 -> 17         0.54476
       6 -> 21        -0.28462
       7 -> 24        -0.11836
       7 -> 25         0.10709
       8 -> 23         0.12078
       9 -> 36        -0.11384
       9 -> 38         0.15308

 Excited State  80:      Singlet-A"    17.2697 eV   71.79 nm  f=0.0001  <S**2>=0.000
       5 -> 13         0.10681
       5 -> 18         0.60535
       7 -> 23         0.20152
       8 -> 25        -0.12633
       8 -> 27        -0.13927

 Excited State  81:      Singlet-A'    17.2826 eV   71.74 nm  f=0.0133  <S**2>=0.000
       5 -> 17        -0.30013
       6 -> 21        -0.33387
       7 -> 25         0.41008
       8 -> 28        -0.14789
       9 -> 38         0.20451

 Excited State  82:      Singlet-A'    17.2986 eV   71.67 nm  f=0.0886  <S**2>=0.000
       6 -> 21         0.13601
       7 -> 24         0.29367
       7 -> 25        -0.13377
       8 -> 26         0.50683
       8 -> 28        -0.17457
       9 -> 38         0.15006

 Excited State  83:      Singlet-A'    17.4225 eV   71.16 nm  f=0.0297  <S**2>=0.000
       6 -> 21         0.25484
       7 -> 24         0.17956
       7 -> 25         0.34725
       7 -> 27        -0.11233
       8 -> 28         0.36348
       8 -> 30         0.27877
       9 -> 38         0.10135

 Excited State  84:      Singlet-A'    17.4739 eV   70.95 nm  f=0.0375  <S**2>=0.000
       6 -> 19        -0.16408
       6 -> 22         0.14198
       7 -> 24        -0.24297
       7 -> 25        -0.20721
       8 -> 30         0.15029
       9 -> 34         0.11414
       9 -> 38         0.49149

 Excited State  85:      Singlet-A"    17.4858 eV   70.91 nm  f=0.1077  <S**2>=0.000
       7 -> 26        -0.11762
       8 -> 24        -0.10016
       8 -> 27         0.24033
       8 -> 29         0.59421

 Excited State  86:      Singlet-A'    17.5085 eV   70.81 nm  f=0.1428  <S**2>=0.000
       6 -> 21        -0.37198
       6 -> 22         0.21639
       7 -> 25        -0.23738
       8 -> 26         0.16269
       8 -> 28         0.38399
       8 -> 30         0.15548

 Excited State  87:      Singlet-A'    17.5992 eV   70.45 nm  f=0.1491  <S**2>=0.000
       6 -> 22         0.48432
       7 -> 25         0.10927
       8 -> 26        -0.13462
       8 -> 30        -0.42374

 Excited State  88:      Singlet-A"    17.8675 eV   69.39 nm  f=0.0595  <S**2>=0.000
       5 -> 19         0.45143
       5 -> 21         0.13032
       5 -> 24        -0.11550
       6 -> 23        -0.26831
       7 -> 26         0.26228
       7 -> 28         0.13778
       8 -> 29         0.12618
       8 -> 31        -0.16324

 Excited State  89:      Singlet-A'    17.8763 eV   69.36 nm  f=0.0444  <S**2>=0.000
       6 -> 22         0.36003
       7 -> 27         0.12397
       8 -> 28        -0.30556
       8 -> 30         0.39882
       9 -> 38        -0.12906

 Excited State  90:      Singlet-A"    17.9471 eV   69.08 nm  f=0.0012  <S**2>=0.000
       5 -> 19         0.37829
       6 -> 23         0.50489
       7 -> 26        -0.18581

 Excited State  91:      Singlet-A"    18.0585 eV   68.66 nm  f=0.0535  <S**2>=0.000
       5 -> 19        -0.16689
       6 -> 23         0.33928
       7 -> 26         0.50891
       8 -> 31        -0.21333

 Excited State  92:      Singlet-A'    18.0989 eV   68.50 nm  f=0.0019  <S**2>=0.000
       4 -> 10         0.44941
       5 -> 20        -0.34036
       6 -> 24         0.28038
       7 -> 27        -0.19926

 Excited State  93:      Singlet-A'    18.1205 eV   68.42 nm  f=0.0150  <S**2>=0.000
       4 -> 10         0.29544
       5 -> 20         0.48500
       6 -> 25         0.17552
       7 -> 27        -0.23786
       8 -> 32        -0.14541

 The electronic state is 1-A'.
 Alpha  occ. eigenvalues --  -14.41107 -10.29587  -0.97640  -0.75522  -0.57972
 Alpha  occ. eigenvalues --   -0.52712  -0.48920  -0.45059  -0.32281
 Alpha virt. eigenvalues --    0.07091   0.09919   0.13453   0.14797   0.16641
 Alpha virt. eigenvalues --    0.18026   0.19328   0.21237   0.21568   0.25531
 Alpha virt. eigenvalues --    0.26339   0.27772   0.28599   0.29704   0.31149

 Mulliken charges:
               1
     1  C   -0.750521
     2  N   -0.569071
     3  H    0.273561
     4  H    0.302088
     5  H    0.302088
     6  H    0.220927
     7  H    0.220927
 Sum of Mulliken charges =   0.00000

 Dipole moment (field-independent basis, Debye):
    X=              1.2705    Y=              0.3467    Z=             -0.0000  Tot=              1.3170
 Quadrupole moment (field-independent basis, Debye-Ang):
   XX=            -15.0260   YY=            -14.3572   ZZ=            -12.5673
   XY=             -2.1227   XZ=              0.0000   YZ=             -0.0000

 Normal termination of Gaussian 16 at Sun Feb 27 06:41:55 2022.
