 Gaussian 16, Revision C.01,
 Gaussian 16:  EM64L-G16RevC.01  3-Jul-2019

 ----------------------------------------------------------------------
 #P TD(Nstates=10000) wB97XD/Gen SCF(maxcycles=100) Int(Grid=ultrafine)
 ----------------------------------------------------------------------

 ---------------------
 xGDB7_00001_tier4.com
 ---------------------
 Symbolic Z-matrix:
 Charge =  0 Multiplicity = 1

                         Standard orientation:
 ---------------------------------------------------------------------
 Center     Atomic      Atomic             Coordinates (Angstroms)
 Number     Number       Type             X           Y           Z
 ---------------------------------------------------------------------
      1          6           0        0.000000    0.000000   -0.524273
      2          8           0        0.000000    0.000000    0.670793
      3          1           0        0.000000    0.939221   -1.110351
      4          1           0       -0.000000   -0.939221   -1.110351
 ---------------------------------------------------------------------

 SCF Done:  E(RwB97XD) =  -114.512517709     A.U. after   11 cycles

 Excitation energies and oscillator strengths:

 Excited State   1:      Singlet-A2     4.0343 eV  307.33 nm  f=0.0000  <S**2>=0.000
       8 ->  9         0.70324
 This state for optimization and/or second-order correction.
 Total Energy, E(TD-HF/TD-DFT) =  -114.364261291
 Copying the excited state density for this state as the 1-particle RhoCI density.

 Excited State   2:      Singlet-B2     7.2404 eV  171.24 nm  f=0.0247  <S**2>=0.000
       8 -> 10         0.69263
       8 -> 14         0.10680

 Excited State   3:      Singlet-A1     8.4453 eV  146.81 nm  f=0.0777  <S**2>=0.000
       8 -> 11         0.70078

 Excited State   4:      Singlet-B2     8.4847 eV  146.13 nm  f=0.0669  <S**2>=0.000
       8 -> 12         0.65844
       8 -> 14        -0.23874

 Excited State   5:      Singlet-A2     8.8681 eV  139.81 nm  f=0.0000  <S**2>=0.000
       8 -> 13         0.70047

 Excited State   6:      Singlet-B1     9.2594 eV  133.90 nm  f=0.0001  <S**2>=0.000
       6 ->  9         0.70122

 Excited State   7:      Singlet-A1     9.6019 eV  129.12 nm  f=0.0789  <S**2>=0.000
       7 ->  9         0.61686
       8 -> 15        -0.31096

 Excited State   8:      Singlet-B2     9.6307 eV  128.74 nm  f=0.0088  <S**2>=0.000
       8 -> 12         0.23438
       8 -> 14         0.63902
       8 -> 16         0.12313

 Excited State   9:      Singlet-B2    10.1551 eV  122.09 nm  f=0.0321  <S**2>=0.000
       8 -> 14        -0.11096
       8 -> 16         0.68902

 Excited State  10:      Singlet-A2    10.3363 eV  119.95 nm  f=0.0000  <S**2>=0.000
       5 ->  9         0.70000

 Excited State  11:      Singlet-A1    10.8988 eV  113.76 nm  f=0.1765  <S**2>=0.000
       7 ->  9         0.29539
       8 -> 15         0.62487

 Excited State  12:      Singlet-B1    10.9512 eV  113.21 nm  f=0.0513  <S**2>=0.000
       7 -> 10         0.68915
       7 -> 14         0.12316

 Excited State  13:      Singlet-B1    11.3424 eV  109.31 nm  f=0.0173  <S**2>=0.000
       8 -> 17         0.69961

 Excited State  14:      Singlet-A2    12.1074 eV  102.40 nm  f=0.0000  <S**2>=0.000
       7 -> 11         0.65178
       8 -> 18        -0.24936

 Excited State  15:      Singlet-A2    12.1644 eV  101.92 nm  f=0.0000  <S**2>=0.000
       7 -> 11         0.25350
       8 -> 18         0.64870

 Excited State  16:      Singlet-B1    12.2217 eV  101.45 nm  f=0.0386  <S**2>=0.000
       7 -> 12         0.66960
       7 -> 14        -0.18039

 Excited State  17:      Singlet-A1    12.5351 eV   98.91 nm  f=0.0092  <S**2>=0.000
       6 -> 10         0.53507
       7 -> 13        -0.44178

 Excited State  18:      Singlet-A1    12.6902 eV   97.70 nm  f=0.0021  <S**2>=0.000
       6 -> 10         0.42977
       7 -> 13         0.53494

 Excited State  19:      Singlet-B2    12.9062 eV   96.07 nm  f=0.0072  <S**2>=0.000
       8 -> 19         0.69427

 Excited State  20:      Singlet-B1    13.3823 eV   92.65 nm  f=0.0027  <S**2>=0.000
       7 -> 10        -0.11932
       7 -> 12         0.16347
       7 -> 14         0.64261
       7 -> 16         0.18671

 Excited State  21:      Singlet-B2    13.4129 eV   92.44 nm  f=0.1741  <S**2>=0.000
       5 -> 10         0.63114
       6 -> 11        -0.27191

 Excited State  22:      Singlet-A1    13.5029 eV   91.82 nm  f=0.1641  <S**2>=0.000
       6 -> 12         0.68040
       6 -> 14        -0.12640

 Excited State  23:      Singlet-B2    13.6111 eV   91.09 nm  f=0.0083  <S**2>=0.000
       5 -> 10         0.26308
       6 -> 11         0.64246

 Excited State  24:      Singlet-B1    13.6610 eV   90.76 nm  f=0.0562  <S**2>=0.000
       4 ->  9         0.14871
       7 -> 12        -0.11687
       7 -> 14        -0.16183
       7 -> 16         0.65071

 Excited State  25:      Singlet-B2    13.7920 eV   89.90 nm  f=0.1331  <S**2>=0.000
       8 -> 20         0.67149
       8 -> 23        -0.12416

 Excited State  26:      Singlet-B1    13.9203 eV   89.07 nm  f=0.0257  <S**2>=0.000
       6 -> 13         0.69960

 Excited State  27:      Singlet-A1    13.9378 eV   88.96 nm  f=0.0496  <S**2>=0.000
       8 -> 21         0.67345
       8 -> 22         0.17427

 Excited State  28:      Singlet-A2    14.0180 eV   88.45 nm  f=0.0000  <S**2>=0.000
       7 -> 15         0.69617

 Excited State  29:      Singlet-A1    14.4908 eV   85.56 nm  f=0.2922  <S**2>=0.000
       5 -> 11        -0.10047
       6 -> 14        -0.14381
       8 -> 21        -0.15593
       8 -> 22         0.64391

 Excited State  30:      Singlet-B2    14.5414 eV   85.26 nm  f=0.0038  <S**2>=0.000
       5 -> 12        -0.13012
       8 -> 23         0.66488

 Excited State  31:      Singlet-A1    14.8313 eV   83.60 nm  f=0.0649  <S**2>=0.000
       5 -> 11        -0.26436
       6 -> 12         0.11344
       6 -> 14         0.60977

 Excited State  32:      Singlet-B2    14.9843 eV   82.74 nm  f=0.0112  <S**2>=0.000
       5 -> 12         0.55840
       5 -> 14        -0.30790
       7 -> 17        -0.15990
       8 -> 20         0.12496
       8 -> 23         0.13768

 Excited State  33:      Singlet-A1    15.0377 eV   82.45 nm  f=0.0280  <S**2>=0.000
       5 -> 11         0.62371
       6 -> 14         0.23317
       8 -> 22         0.13242

 Excited State  34:      Singlet-B2    15.0407 eV   82.43 nm  f=0.0635  <S**2>=0.000
       5 -> 12         0.13380
       5 -> 14        -0.11859
       7 -> 17         0.66713

 Excited State  35:      Singlet-A2    15.0427 eV   82.42 nm  f=0.0000  <S**2>=0.000
       8 -> 24         0.69275

 Excited State  36:      Singlet-B1    15.1322 eV   81.93 nm  f=0.0016  <S**2>=0.000
       4 ->  9        -0.33745
       8 -> 25         0.60214

 Excited State  37:      Singlet-A1    15.2116 eV   81.51 nm  f=0.0024  <S**2>=0.000
       6 -> 16         0.68431

 Excited State  38:      Singlet-A2    15.3236 eV   80.91 nm  f=0.0000  <S**2>=0.000
       5 -> 13         0.68421

 Excited State  39:      Singlet-B2    15.4497 eV   80.25 nm  f=0.0096  <S**2>=0.000
       6 -> 15         0.67778
       8 -> 26        -0.11021

 Excited State  40:      Singlet-B1    15.5491 eV   79.74 nm  f=0.3010  <S**2>=0.000
       4 ->  9         0.57452
       7 -> 16        -0.14962
       8 -> 25         0.35289

 Excited State  41:      Singlet-B2    15.5931 eV   79.51 nm  f=0.0197  <S**2>=0.000
       5 -> 12         0.12735
       5 -> 14         0.11240
       6 -> 15         0.10121
       8 -> 26         0.66043

 Excited State  42:      Singlet-A1    16.0913 eV   77.05 nm  f=0.0001  <S**2>=0.000
       5 -> 11         0.11264
       5 -> 15        -0.21027
       7 -> 18         0.63083
       8 -> 27        -0.17035

 Excited State  43:      Singlet-B2    16.1797 eV   76.63 nm  f=0.1794  <S**2>=0.000
       5 -> 10        -0.10593
       5 -> 12         0.23513
       5 -> 14         0.54691
       5 -> 16         0.28251
       8 -> 26        -0.14712

 Excited State  44:      Singlet-B2    16.4976 eV   75.15 nm  f=0.0651  <S**2>=0.000
       5 -> 12        -0.22157
       5 -> 14        -0.22626
       5 -> 16         0.60590

 Excited State  45:      Singlet-B1    16.5725 eV   74.81 nm  f=0.0259  <S**2>=0.000
       7 -> 19         0.69197

 Excited State  46:      Singlet-A2    16.6054 eV   74.66 nm  f=0.0000  <S**2>=0.000
       6 -> 17         0.69696

 Excited State  47:      Singlet-A1    16.8451 eV   73.60 nm  f=0.0100  <S**2>=0.000
       4 -> 10         0.14634
       5 -> 15         0.63755
       7 -> 18         0.16288
       8 -> 27        -0.16754

 Excited State  48:      Singlet-A2    16.9043 eV   73.34 nm  f=0.0000  <S**2>=0.000
       8 -> 28         0.69991

 Excited State  49:      Singlet-A1    17.1626 eV   72.24 nm  f=0.0393  <S**2>=0.000
       4 -> 10         0.14388
       6 -> 19         0.18766
       6 -> 20        -0.10076
       7 -> 18         0.18592
       8 -> 27         0.58666

 Excited State  50:      Singlet-B1    17.3704 eV   71.38 nm  f=0.0454  <S**2>=0.000
       4 -> 13        -0.12462
       5 -> 17        -0.22615
       6 -> 18         0.62225
       7 -> 20         0.15699

 Excited State  51:      Singlet-B1    17.4481 eV   71.06 nm  f=0.0034  <S**2>=0.000
       6 -> 18        -0.14545
       7 -> 20         0.67315
       7 -> 23        -0.10143

 Excited State  52:      Singlet-B2    17.5205 eV   70.77 nm  f=0.0401  <S**2>=0.000
       8 -> 29         0.66124
       8 -> 32        -0.14372

 Excited State  53:      Singlet-A1    17.5454 eV   70.66 nm  f=0.0092  <S**2>=0.000
       4 -> 10         0.63949
       4 -> 12         0.13925
       5 -> 15        -0.12648
       7 -> 18        -0.11027

 Excited State  54:      Singlet-B1    17.6256 eV   70.34 nm  f=0.0897  <S**2>=0.000
       5 -> 17         0.62196
       6 -> 18         0.25686
       7 -> 23        -0.16747

 Excited State  55:      Singlet-A2    17.6629 eV   70.19 nm  f=0.0000  <S**2>=0.000
       7 -> 21         0.65752
       7 -> 22        -0.22901

 Excited State  56:      Singlet-A2    17.8426 eV   69.49 nm  f=0.0000  <S**2>=0.000
       7 -> 21         0.23444
       7 -> 22         0.65307

 Excited State  57:      Singlet-A1    18.2531 eV   67.93 nm  f=0.0463  <S**2>=0.000
       6 -> 19         0.61261
       7 -> 24         0.27990
       8 -> 27        -0.11895

 Excited State  58:      Singlet-A2    18.3425 eV   67.59 nm  f=0.0000  <S**2>=0.000
       5 -> 18         0.68968

 Excited State  59:      Singlet-B2    18.3567 eV   67.54 nm  f=0.0121  <S**2>=0.000
       4 -> 11         0.13101
       5 -> 19        -0.22157
       8 -> 29        -0.10383
       8 -> 31         0.50567
       8 -> 32        -0.37961

 Excited State  60:      Singlet-B1    18.4395 eV   67.24 nm  f=0.2052  <S**2>=0.000
       4 ->  9         0.11342
       4 -> 13         0.13128
       5 -> 17         0.16154
       7 -> 23         0.64725

 Excited State  61:      Singlet-A1    18.4995 eV   67.02 nm  f=0.0051  <S**2>=0.000
       7 -> 24        -0.13415
       8 -> 30         0.67027

 Excited State  62:      Singlet-A1    18.6599 eV   66.44 nm  f=0.0168  <S**2>=0.000
       4 -> 10         0.14031
       4 -> 12        -0.32820
       4 -> 14         0.24735
       6 -> 19        -0.18475
       6 -> 20        -0.31394
       7 -> 24         0.38005

 Excited State  63:      Singlet-B2    18.7002 eV   66.30 nm  f=0.0024  <S**2>=0.000
       4 -> 11         0.65470
       4 -> 15         0.12246
       8 -> 32         0.10807

 Excited State  64:      Singlet-B2    18.9440 eV   65.45 nm  f=0.0162  <S**2>=0.000
       6 -> 22        -0.11150
       7 -> 25         0.67509

 Excited State  65:      Singlet-A1    19.0030 eV   65.24 nm  f=0.0323  <S**2>=0.000
       4 -> 12         0.40416
       4 -> 14        -0.28969
       5 -> 22        -0.12033
       7 -> 24         0.39717
       8 -> 27         0.11470
       8 -> 30         0.14103

 Excited State  66:      Singlet-B2    19.1539 eV   64.73 nm  f=0.0665  <S**2>=0.000
       5 -> 19         0.33252
       6 -> 21         0.44214
       8 -> 31         0.34095
       8 -> 32         0.22652

 Excited State  67:      Singlet-B2    19.1851 eV   64.63 nm  f=0.0158  <S**2>=0.000
       5 -> 19        -0.44786
       6 -> 21         0.48452
       8 -> 31        -0.16701

 Excited State  68:      Singlet-A1    19.1881 eV   64.62 nm  f=0.0005  <S**2>=0.000
       4 -> 12        -0.21705
       6 -> 19        -0.14310
       6 -> 20         0.57257
       7 -> 24         0.21682
       8 -> 27         0.12038

 Excited State  69:      Singlet-B1    19.2984 eV   64.25 nm  f=0.0002  <S**2>=0.000
       4 -> 13         0.51300
       7 -> 23        -0.10504
       7 -> 26         0.44318

 Excited State  70:      Singlet-B2    19.3158 eV   64.19 nm  f=0.0380  <S**2>=0.000
       5 -> 19        -0.34195
       6 -> 21        -0.17751
       8 -> 29         0.11952
       8 -> 31         0.24129
       8 -> 32         0.50058

 Excited State  71:      Singlet-B1    19.4265 eV   63.82 nm  f=0.0360  <S**2>=0.000
       4 -> 13        -0.43294
       7 -> 26         0.52306

 Excited State  72:      Singlet-B2    19.4994 eV   63.58 nm  f=0.1618  <S**2>=0.000
       6 -> 22         0.65722
       7 -> 25         0.10229

 Excited State  73:      Singlet-A1    19.7007 eV   62.93 nm  f=0.0818  <S**2>=0.000
       4 -> 14         0.26903
       4 -> 16         0.26398
       6 -> 23         0.55790

 Excited State  74:      Singlet-A1    19.9209 eV   62.24 nm  f=0.0086  <S**2>=0.000
       4 -> 12        -0.15072
       4 -> 14        -0.24894
       4 -> 16        -0.35385
       5 -> 21        -0.27038
       6 -> 20        -0.11127
       6 -> 23         0.36940
       7 -> 24        -0.12445
       7 -> 28         0.15953

 Excited State  75:      Singlet-A2    19.9389 eV   62.18 nm  f=0.0000  <S**2>=0.000
       7 -> 27         0.22097
       8 -> 33         0.65035

 Excited State  76:      Singlet-A2    20.0809 eV   61.74 nm  f=0.0000  <S**2>=0.000
       7 -> 27         0.64112
       8 -> 33        -0.24120

 Excited State  77:      Singlet-A1    20.1698 eV   61.47 nm  f=0.0032  <S**2>=0.000
       4 -> 14        -0.12493
       4 -> 16        -0.23933
       5 -> 21         0.59232
       7 -> 28         0.13186
       8 -> 34         0.17693

 Excited State  78:      Singlet-B2    20.1940 eV   61.40 nm  f=0.0009  <S**2>=0.000
       4 -> 15         0.17369
       5 -> 20         0.62773
       5 -> 23        -0.22755

 Excited State  79:      Singlet-B1    20.2274 eV   61.30 nm  f=0.0050  <S**2>=0.000
       6 -> 24         0.69526

 Excited State  80:      Singlet-A1    20.3056 eV   61.06 nm  f=0.0029  <S**2>=0.000
       4 -> 12         0.28480
       4 -> 14         0.38308
       4 -> 16        -0.26022
       5 -> 21        -0.12642
       5 -> 22        -0.15992
       7 -> 28         0.34950

 Excited State  81:      Singlet-A1    20.4293 eV   60.69 nm  f=0.0014  <S**2>=0.000
       4 -> 12        -0.17424
       4 -> 14        -0.16586
       4 -> 16         0.37428
       5 -> 22        -0.29192
       7 -> 28         0.43482

 Excited State  82:      Singlet-A2    20.4603 eV   60.60 nm  f=0.0000  <S**2>=0.000
       4 -> 17        -0.15846
       6 -> 25         0.66485
       7 -> 27        -0.12537

 Excited State  83:      Singlet-B2    20.5736 eV   60.26 nm  f=0.0033  <S**2>=0.000
       4 -> 11        -0.10664
       4 -> 15         0.61163
       5 -> 20        -0.20255
       5 -> 23        -0.11896
       6 -> 21        -0.10453
       6 -> 22         0.10927

 Excited State  84:      Singlet-B2    20.9041 eV   59.31 nm  f=0.0820  <S**2>=0.000
       4 -> 15         0.19539
       5 -> 20         0.16855
       5 -> 23         0.62504
       5 -> 26         0.10924

 Excited State  85:      Singlet-B1    21.0943 eV   58.78 nm  f=0.0260  <S**2>=0.000
       7 -> 29         0.68248

 Excited State  86:      Singlet-A2    21.1826 eV   58.53 nm  f=0.0000  <S**2>=0.000
       4 -> 17         0.41175
       5 -> 24         0.54133
       7 -> 30        -0.10304

 Excited State  87:      Singlet-A1    21.2424 eV   58.37 nm  f=0.0064  <S**2>=0.000
       4 -> 19         0.10397
       5 -> 22         0.31724
       6 -> 26         0.53287
       7 -> 28         0.15469
       8 -> 34         0.17156

 Excited State  88:      Singlet-A1    21.2730 eV   58.28 nm  f=0.0245  <S**2>=0.000
       5 -> 21        -0.12660
       5 -> 22        -0.34324
       6 -> 26         0.19550
       6 -> 29        -0.19834
       7 -> 28        -0.27167
       8 -> 34         0.40184

 Excited State  89:      Singlet-B1    21.4578 eV   57.78 nm  f=0.0444  <S**2>=0.000
       5 -> 25         0.64864
       8 -> 35        -0.20881

 Excited State  90:      Singlet-A1    21.4715 eV   57.74 nm  f=0.3472  <S**2>=0.000
       5 -> 22         0.28451
       6 -> 26        -0.33053
       8 -> 34         0.49739

 Excited State  91:      Singlet-B2    21.5336 eV   57.58 nm  f=0.0067  <S**2>=0.000
       6 -> 27         0.66459
       8 -> 36        -0.13458

 Excited State  92:      Singlet-A2    21.5934 eV   57.42 nm  f=0.0000  <S**2>=0.000
       4 -> 17         0.53576
       5 -> 24        -0.43346
       6 -> 25         0.12333

 Excited State  93:      Singlet-B1    21.8112 eV   56.84 nm  f=0.0088  <S**2>=0.000
       4 -> 18         0.22914
       5 -> 25         0.15037
       6 -> 28        -0.18744
       7 -> 31         0.40357
       7 -> 32        -0.36274
       8 -> 35         0.27950

 Excited State  94:      Singlet-B2    21.9529 eV   56.48 nm  f=0.0279  <S**2>=0.000
       5 -> 26         0.34275
       8 -> 36         0.59156

 Excited State  95:      Singlet-B1    22.0799 eV   56.15 nm  f=0.0218  <S**2>=0.000
       4 -> 18        -0.23023
       5 -> 25         0.15970
       6 -> 28         0.57336
       7 -> 32        -0.11152
       8 -> 35         0.22874

 Excited State  96:      Singlet-A2    22.1079 eV   56.08 nm  f=0.0000  <S**2>=0.000
       4 -> 17         0.10262
       7 -> 30         0.68678

 Excited State  97:      Singlet-B1    22.1277 eV   56.03 nm  f=0.1008  <S**2>=0.000
       4 -> 18         0.31117
       7 -> 31        -0.30203
       7 -> 32         0.24935
       8 -> 35         0.48240

 Excited State  98:      Singlet-B2    22.2567 eV   55.71 nm  f=0.2472  <S**2>=0.000
       5 -> 26         0.57575
       6 -> 27        -0.12271
       8 -> 36        -0.32542

 Excited State  99:      Singlet-B1    22.4141 eV   55.32 nm  f=0.0138  <S**2>=0.000
       4 -> 18         0.51431
       5 -> 25        -0.13807
       6 -> 28         0.33987
       7 -> 31         0.10295
       8 -> 35        -0.26704

 Excited State 100:      Singlet-A1    22.4438 eV   55.24 nm  f=0.2823  <S**2>=0.000
       4 -> 19        -0.33292
       6 -> 29         0.58281

 Excited State 101:      Singlet-A1    22.9921 eV   53.92 nm  f=0.0238  <S**2>=0.000
       4 -> 20         0.10746
       5 -> 27         0.64198
       6 -> 32         0.10619
       7 -> 33        -0.15850

 Excited State 102:      Singlet-B1    23.0245 eV   53.85 nm  f=0.0782  <S**2>=0.000
       7 -> 31         0.45881
       7 -> 32         0.51849

 Excited State 103:      Singlet-A2    23.0679 eV   53.75 nm  f=0.0000  <S**2>=0.000
       5 -> 28         0.69448

 Excited State 104:      Singlet-A1    23.4406 eV   52.89 nm  f=0.0081  <S**2>=0.000
       4 -> 19        -0.36956
       6 -> 29        -0.24756
       6 -> 31         0.39999
       6 -> 32        -0.28031
       7 -> 33         0.20104

 Excited State 105:      Singlet-A1    23.7484 eV   52.21 nm  f=0.0518  <S**2>=0.000
       4 -> 19         0.10319
       4 -> 20         0.10109
       5 -> 27         0.12344
       6 -> 31        -0.19318
       7 -> 33         0.63151

 Excited State 106:      Singlet-B2    23.7653 eV   52.17 nm  f=0.0059  <S**2>=0.000
       4 -> 21         0.19462
       4 -> 22        -0.12393
       5 -> 29        -0.12141
       6 -> 30         0.64579

 Excited State 107:      Singlet-A1    23.8712 eV   51.94 nm  f=0.0412  <S**2>=0.000
       4 -> 19         0.42672
       5 -> 22        -0.13606
       5 -> 27         0.12538
       5 -> 30        -0.19618
       6 -> 29         0.13783
       6 -> 31         0.30958
       6 -> 32        -0.26704

 Excited State 108:      Singlet-B2    24.0428 eV   51.57 nm  f=0.0043  <S**2>=0.000
       4 -> 21         0.49750
       5 -> 29        -0.39995
       6 -> 30        -0.24909
       8 -> 37         0.11577

 Excited State 109:      Singlet-B2    24.0966 eV   51.45 nm  f=0.0011  <S**2>=0.000
       4 -> 21         0.38396
       4 -> 22        -0.23385
       5 -> 29         0.44941
       8 -> 37        -0.24699

 Excited State 110:      Singlet-A1    24.1968 eV   51.24 nm  f=0.0084  <S**2>=0.000
       4 -> 20         0.58505
       4 -> 23        -0.23249
       5 -> 27        -0.12520
       6 -> 31        -0.14281
       6 -> 32        -0.17787

 Excited State 111:      Singlet-B2    24.3235 eV   50.97 nm  f=0.0126  <S**2>=0.000
       4 -> 21         0.21389
       4 -> 22         0.60276
       5 -> 29         0.17646
       5 -> 31        -0.13178

 Excited State 112:      Singlet-A1    24.4358 eV   50.74 nm  f=0.0070  <S**2>=0.000
       4 -> 20         0.31007
       4 -> 23         0.30209
       6 -> 31         0.33178
       6 -> 32         0.39295
       8 -> 38         0.12979

 Excited State 113:      Singlet-B1    24.6375 eV   50.32 nm  f=0.1124  <S**2>=0.000
       4 -> 24        -0.11709
       6 -> 33         0.68241

 Excited State 114:      Singlet-A1    24.7356 eV   50.12 nm  f=0.0033  <S**2>=0.000
       4 -> 23         0.44754
       5 -> 30         0.40051
       6 -> 32        -0.28692

 Excited State 115:      Singlet-B2    24.7636 eV   50.07 nm  f=0.0001  <S**2>=0.000
       5 -> 29         0.10977
       5 -> 31         0.56888
       5 -> 32        -0.25492
       8 -> 37         0.11193
       8 -> 39        -0.24855

 Excited State 116:      Singlet-A1    24.8503 eV   49.89 nm  f=0.0042  <S**2>=0.000
       4 -> 23        -0.34140
       5 -> 30         0.53239
       6 -> 31         0.20231
       6 -> 32         0.17377

 Excited State 117:      Singlet-A2    24.9246 eV   49.74 nm  f=0.0000  <S**2>=0.000
       7 -> 34         0.70039

 Excited State 118:      Singlet-B2    24.9290 eV   49.73 nm  f=0.0241  <S**2>=0.000
       4 -> 22        -0.10831
       5 -> 29         0.23902
       8 -> 37         0.47988
       8 -> 39         0.41488

 Excited State 119:      Singlet-B1    25.3081 eV   48.99 nm  f=0.0061  <S**2>=0.000
       4 -> 24         0.68541

 The electronic state is 1-A1.
 Alpha  occ. eigenvalues --  -19.27044 -10.38616  -1.17274  -0.73387  -0.59311
 Alpha  occ. eigenvalues --   -0.54776  -0.49637  -0.35942
 Alpha virt. eigenvalues --    0.02195   0.06635   0.11006   0.11597   0.12676
 Alpha virt. eigenvalues --    0.16228   0.17757   0.17933   0.24037   0.26698
 Alpha virt. eigenvalues --    0.28145   0.31770   0.32516   0.34477   0.34613

 Mulliken charges:
               1
     1  C   -0.070136
     2  O   -0.435372
     3  H    0.252754
     4  H    0.252754
 Sum of Mulliken charges =  -0.00000

 Dipole moment (field-independent basis, Debye):
    X=             -0.0000    Y=              0.0000    Z=             -2.4003  Tot=              2.4003
 Quadrupole moment (field-independent basis, Debye-Ang):
   XX=            -11.6351   YY=            -11.5178   ZZ=            -12.1850
   XY=              0.0000   XZ=              0.0000   YZ=              0.0000

 Normal termination of Gaussian 16 at Sun Feb 27 06:39:51 2022.
