 Gaussian 16, Revision C.01,
 Gaussian 16:  EM64L-G16RevC.01  3-Jul-2019

 ----------------------------------------------------------------------
 #P TD(Nstates=10000) wB97XD/Gen SCF(maxcycles=100) Int(Grid=ultrafine)
 ----------------------------------------------------------------------

 ---------------------
 xGDB7_00001_tier4.com
 ---------------------
 Symbolic Z-matrix:
 Charge =  0 Multiplicity = 1

                         Standard orientation:
 ---------------------------------------------------------------------
 Center     Atomic      Atomic             Coordinates (Angstroms)
 Number     Number       Type             X           Y           Z
 ---------------------------------------------------------------------
      1          6           0        0.000000    0.865978    0.000000
      2          6           0        0.749967   -0.432983    0.000000
      3          6           0       -0.749954   -0.432999    0.000000
      4          1           0       -0.000033    1.451806   -0.909176
      5          1           0       -0.000033    1.451806    0.909176
      6          1           0        1.257295   -0.725894    0.909177
      7          1           0        1.257295   -0.725894   -0.909177
      8          1           0       -1.257302   -0.725899    0.909179
      9          1           0       -1.257302   -0.725899   -0.909179
 ---------------------------------------------------------------------

 SCF Done:  E(RwB97XD) =  -117.901362715     A.U. after   10 cycles

 Excitation energies and oscillator strengths:

 Excited State   1:      Singlet-A'     8.1180 eV  152.73 nm  f=0.0001  <S**2>=0.000
      12 -> 13         0.68474
      12 -> 17         0.10210
 This state for optimization and/or second-order correction.
 Total Energy, E(TD-HF/TD-DFT) =  -117.603030219
 Copying the excited state density for this state as the 1-particle RhoCI density.

 Excited State   2:      Singlet-A'     8.1182 eV  152.72 nm  f=0.0001  <S**2>=0.000
      11 -> 13         0.68474
      11 -> 17         0.10210

 Excited State   3:      Singlet-A'     8.6540 eV  143.27 nm  f=0.0000  <S**2>=0.000
      11 -> 14         0.48085
      11 -> 15        -0.10333
      12 -> 14         0.10359
      12 -> 15         0.48153

 Excited State   4:      Singlet-A'     8.7169 eV  142.23 nm  f=0.0000  <S**2>=0.000
      11 -> 14        -0.10261
      11 -> 15        -0.47631
      12 -> 14         0.47896
      12 -> 15        -0.10278

 Excited State   5:      Singlet-A"     8.7462 eV  141.76 nm  f=0.0000  <S**2>=0.000
      12 -> 16         0.69151
      12 -> 32        -0.10423

 Excited State   6:      Singlet-A"     8.7464 eV  141.75 nm  f=0.0000  <S**2>=0.000
      11 -> 16         0.69151
      11 -> 32        -0.10423

 Excited State   7:      Singlet-A'     8.7556 eV  141.61 nm  f=0.1050  <S**2>=0.000
      11 -> 14         0.38195
      11 -> 15         0.29792
      12 -> 14         0.29627
      12 -> 15        -0.38121

 Excited State   8:      Singlet-A'     8.7556 eV  141.61 nm  f=0.1050  <S**2>=0.000
      11 -> 14        -0.29720
      11 -> 15         0.38264
      12 -> 14         0.38053
      12 -> 15         0.29700

 Excited State   9:      Singlet-A"     9.8327 eV  126.09 nm  f=0.0000  <S**2>=0.000
       9 -> 15         0.19488
      10 -> 13         0.63154
      10 -> 14        -0.19490

 Excited State  10:      Singlet-A"     9.8328 eV  126.09 nm  f=0.0000  <S**2>=0.000
       9 -> 13         0.63153
       9 -> 14         0.19490
      10 -> 15         0.19493

 Excited State  11:      Singlet-A'    10.0703 eV  123.12 nm  f=0.0037  <S**2>=0.000
      12 -> 13        -0.11509
      12 -> 17         0.68289

 Excited State  12:      Singlet-A'    10.0705 eV  123.12 nm  f=0.0037  <S**2>=0.000
      11 -> 13        -0.11509
      11 -> 17         0.68289

 Excited State  13:      Singlet-A"    10.4097 eV  119.10 nm  f=0.2041  <S**2>=0.000
       9 -> 14        -0.47451
      10 -> 15         0.47456

 Excited State  14:      Singlet-A"    10.6188 eV  116.76 nm  f=0.0000  <S**2>=0.000
       9 -> 15         0.37850
       9 -> 21        -0.10677
      10 -> 14         0.37905
      10 -> 22         0.10684
      11 -> 18        -0.29081
      12 -> 19         0.29093

 Excited State  15:      Singlet-A"    10.6771 eV  116.12 nm  f=0.0000  <S**2>=0.000
       9 -> 13        -0.11301
       9 -> 14         0.14761
       9 -> 15         0.40106
      10 -> 13        -0.23594
      10 -> 14        -0.40090
      10 -> 15         0.14760
      10 -> 17        -0.15373
      12 -> 19         0.10005

 Excited State  16:      Singlet-A"    10.6771 eV  116.12 nm  f=0.0000  <S**2>=0.000
       9 -> 13        -0.23597
       9 -> 14         0.40098
       9 -> 15        -0.14768
       9 -> 17        -0.15372
      10 -> 13         0.11300
      10 -> 14         0.14754
      10 -> 15         0.40097

 Excited State  17:      Singlet-A'    10.6907 eV  115.97 nm  f=0.2732  <S**2>=0.000
      10 -> 16         0.59444
      12 -> 20         0.31888

 Excited State  18:      Singlet-A'    10.6908 eV  115.97 nm  f=0.2731  <S**2>=0.000
       9 -> 16         0.59447
      11 -> 20        -0.31882

 Excited State  19:      Singlet-A"    10.7697 eV  115.12 nm  f=0.0000  <S**2>=0.000
       9 -> 15        -0.28064
      10 -> 14        -0.28012
      11 -> 18        -0.39942
      12 -> 19         0.40003

 Excited State  20:      Singlet-A"    10.8359 eV  114.42 nm  f=0.0000  <S**2>=0.000
       9 -> 15        -0.10441
      10 -> 14         0.10460
      11 -> 18         0.47290
      12 -> 19         0.47222

 Excited State  21:      Singlet-A"    10.8359 eV  114.42 nm  f=0.0000  <S**2>=0.000
       9 -> 14         0.10474
      10 -> 15         0.10424
      11 -> 19        -0.47130
      12 -> 18         0.47383

 Excited State  22:      Singlet-A"    10.8767 eV  113.99 nm  f=0.0006  <S**2>=0.000
      11 -> 19         0.48237
      12 -> 18         0.47975

 Excited State  23:      Singlet-A'    10.9570 eV  113.16 nm  f=0.0429  <S**2>=0.000
      10 -> 16        -0.33116
      12 -> 20         0.58231

 Excited State  24:      Singlet-A'    10.9572 eV  113.15 nm  f=0.0429  <S**2>=0.000
       9 -> 16         0.33109
      11 -> 20         0.58234

 Excited State  25:      Singlet-A'    11.2754 eV  109.96 nm  f=0.0080  <S**2>=0.000
      11 -> 21        -0.47966
      12 -> 22         0.47992

 Excited State  26:      Singlet-A'    11.2754 eV  109.96 nm  f=0.0080  <S**2>=0.000
      11 -> 22         0.47912
      12 -> 21         0.48047

 Excited State  27:      Singlet-A'    11.3530 eV  109.21 nm  f=0.0000  <S**2>=0.000
      11 -> 21        -0.12836
      11 -> 22         0.47664
      12 -> 21        -0.47531
      12 -> 22        -0.12813

 Excited State  28:      Singlet-A'    11.5564 eV  107.29 nm  f=0.0000  <S**2>=0.000
       9 -> 18        -0.12985
      10 -> 19        -0.12985
      11 -> 21         0.44943
      11 -> 22         0.12113
      12 -> 21        -0.12100
      12 -> 22         0.44921

 Excited State  29:      Singlet-A"    11.9343 eV  103.89 nm  f=0.0000  <S**2>=0.000
      10 -> 13        -0.13393
      10 -> 17         0.58051
      11 -> 28        -0.30020

 Excited State  30:      Singlet-A"    11.9343 eV  103.89 nm  f=0.0000  <S**2>=0.000
       9 -> 13        -0.13392
       9 -> 17         0.58042
      12 -> 28        -0.30040

 Excited State  31:      Singlet-A"    12.1356 eV  102.17 nm  f=0.0000  <S**2>=0.000
       9 -> 20        -0.26409
      10 -> 20         0.57047
      10 -> 33        -0.10587
      12 -> 28        -0.17922

 Excited State  32:      Singlet-A"    12.1357 eV  102.17 nm  f=0.0000  <S**2>=0.000
       9 -> 20         0.57046
       9 -> 33        -0.10587
      10 -> 20         0.26407
      11 -> 28         0.17899

 Excited State  33:      Singlet-A'    12.2092 eV  101.55 nm  f=0.0000  <S**2>=0.000
      11 -> 23         0.47103
      11 -> 24        -0.11606
      12 -> 23         0.11622
      12 -> 24         0.47141

 Excited State  34:      Singlet-A"    12.3070 eV  100.74 nm  f=0.0000  <S**2>=0.000
       9 -> 17         0.31480
      10 -> 20         0.17729
      12 -> 28         0.59179

 Excited State  35:      Singlet-A"    12.3071 eV  100.74 nm  f=0.0000  <S**2>=0.000
       9 -> 20        -0.17727
      10 -> 17         0.31463
      11 -> 28         0.59191

 Excited State  36:      Singlet-A'    12.3811 eV  100.14 nm  f=0.0001  <S**2>=0.000
      11 -> 23        -0.10536
      11 -> 24        -0.39364
      12 -> 23         0.52970
      12 -> 24        -0.12222

 Excited State  37:      Singlet-A'    12.3818 eV  100.13 nm  f=0.0071  <S**2>=0.000
      11 -> 23         0.47799
      11 -> 25        -0.12378
      12 -> 24        -0.47733

 Excited State  38:      Singlet-A'    12.3818 eV  100.13 nm  f=0.0070  <S**2>=0.000
      11 -> 24         0.53928
      12 -> 23         0.40628
      12 -> 25         0.12261

 Excited State  39:      Singlet-A"    12.5752 eV   98.59 nm  f=0.0000  <S**2>=0.000
      10 -> 20         0.14541
      11 -> 26         0.42125
      11 -> 27        -0.22313
      12 -> 26         0.22359
      12 -> 27         0.42211

 Excited State  40:      Singlet-A"    12.5752 eV   98.59 nm  f=0.0000  <S**2>=0.000
       9 -> 20        -0.14543
      11 -> 26        -0.22310
      11 -> 27        -0.42116
      12 -> 26         0.42212
      12 -> 27        -0.22362

 Excited State  41:      Singlet-A"    12.6380 eV   98.10 nm  f=0.0731  <S**2>=0.000
      11 -> 26         0.45935
      11 -> 27         0.13669
      12 -> 26         0.13635
      12 -> 27        -0.45840

 Excited State  42:      Singlet-A'    12.6697 eV   97.86 nm  f=0.1696  <S**2>=0.000
       9 -> 18        -0.19739
      10 -> 19         0.19741
      12 -> 25         0.61330

 Excited State  43:      Singlet-A'    12.6699 eV   97.86 nm  f=0.1695  <S**2>=0.000
       9 -> 19         0.19753
      10 -> 18         0.19764
      11 -> 25         0.61320

 Excited State  44:      Singlet-A"    12.6834 eV   97.75 nm  f=0.0000  <S**2>=0.000
      11 -> 26        -0.13846
      11 -> 27         0.46547
      12 -> 26         0.46452
      12 -> 27         0.13823

 Excited State  45:      Singlet-A'    12.7930 eV   96.92 nm  f=0.0000  <S**2>=0.000
       8 -> 13         0.33588
       9 -> 18         0.41175
      10 -> 19         0.41249
      11 -> 21         0.10091
      12 -> 22         0.10094

 Excited State  46:      Singlet-A'    12.8223 eV   96.69 nm  f=0.0124  <S**2>=0.000
       9 -> 16        -0.10169
       9 -> 18         0.41499
       9 -> 19        -0.12644
      10 -> 18        -0.12667
      10 -> 19        -0.41434
      12 -> 25         0.27415

 Excited State  47:      Singlet-A'    12.8223 eV   96.69 nm  f=0.0124  <S**2>=0.000
       9 -> 18         0.12665
       9 -> 19         0.41411
      10 -> 16         0.10167
      10 -> 18         0.41505
      10 -> 19        -0.12641
      11 -> 25        -0.27442

 Excited State  48:      Singlet-A'    12.8851 eV   96.22 nm  f=0.0000  <S**2>=0.000
       9 -> 19         0.47468
       9 -> 26         0.13283
      10 -> 18        -0.47375
      10 -> 27         0.13282

 Excited State  49:      Singlet-A"    13.0920 eV   94.70 nm  f=0.0000  <S**2>=0.000
       7 -> 15        -0.15011
       9 -> 21         0.45198
      10 -> 22         0.45251
      10 -> 25         0.10595

 Excited State  50:      Singlet-A"    13.0920 eV   94.70 nm  f=0.0000  <S**2>=0.000
       7 -> 14         0.15012
       9 -> 22        -0.45205
       9 -> 25         0.10594
      10 -> 21         0.45242

 Excited State  51:      Singlet-A"    13.1193 eV   94.51 nm  f=0.0000  <S**2>=0.000
       9 -> 15         0.12425
       9 -> 21         0.44621
       9 -> 22         0.14141
      10 -> 14         0.12418
      10 -> 21         0.14084
      10 -> 22        -0.44566

 Excited State  52:      Singlet-A'    13.1472 eV   94.30 nm  f=0.0000  <S**2>=0.000
       8 -> 13         0.59312
       8 -> 17         0.11905
       9 -> 18        -0.20651
      10 -> 19        -0.20647
      11 -> 30        -0.10069
      12 -> 29         0.10073

 Excited State  53:      Singlet-A"    13.3577 eV   92.82 nm  f=0.0043  <S**2>=0.000
       9 -> 21        -0.14743
       9 -> 22         0.46588
      10 -> 21         0.46571
      10 -> 22         0.14738

 Excited State  54:      Singlet-A'    13.4150 eV   92.42 nm  f=0.0000  <S**2>=0.000
      11 -> 29         0.47720
      12 -> 30         0.47757

 Excited State  55:      Singlet-A'    13.4623 eV   92.10 nm  f=0.2430  <S**2>=0.000
       8 -> 14         0.63867
      11 -> 30        -0.15280
      12 -> 29        -0.15293

 Excited State  56:      Singlet-A'    13.4623 eV   92.10 nm  f=0.2430  <S**2>=0.000
       8 -> 15         0.63865
      11 -> 29        -0.15316
      12 -> 30         0.15262

 Excited State  57:      Singlet-A"    13.6096 eV   91.10 nm  f=0.1403  <S**2>=0.000
       7 -> 13        -0.13355
       8 -> 16         0.66326

 Excited State  58:      Singlet-A'    13.6979 eV   90.51 nm  f=0.0000  <S**2>=0.000
       8 -> 13        -0.10952
      11 -> 30        -0.46891
      12 -> 29         0.47176

 Excited State  59:      Singlet-A'    13.7234 eV   90.35 nm  f=0.0153  <S**2>=0.000
       8 -> 15         0.23927
      10 -> 28        -0.16485
      11 -> 29         0.43059
      12 -> 30        -0.43036

 Excited State  60:      Singlet-A'    13.7234 eV   90.34 nm  f=0.0153  <S**2>=0.000
       8 -> 14         0.23922
       9 -> 28         0.16481
      11 -> 30         0.43206
      12 -> 29         0.42893

 Excited State  61:      Singlet-A"    13.8865 eV   89.28 nm  f=0.2833  <S**2>=0.000
       7 -> 13         0.65823
       7 -> 17         0.12587
       8 -> 16         0.10785

 Excited State  62:      Singlet-A'    14.0470 eV   88.26 nm  f=0.0001  <S**2>=0.000
      12 -> 31         0.68378

 Excited State  63:      Singlet-A'    14.0471 eV   88.26 nm  f=0.0001  <S**2>=0.000
      11 -> 31         0.68377

 Excited State  64:      Singlet-A"    14.2347 eV   87.10 nm  f=0.0000  <S**2>=0.000
       9 -> 23        -0.29596
      10 -> 24        -0.29663
      12 -> 32         0.53702

 Excited State  65:      Singlet-A"    14.2349 eV   87.10 nm  f=0.0000  <S**2>=0.000
       9 -> 24        -0.29793
      10 -> 23         0.29820
      11 -> 32         0.53501

 Excited State  66:      Singlet-A"    14.2523 eV   86.99 nm  f=0.5713  <S**2>=0.000
       7 -> 13         0.12782
       8 -> 16         0.13520
       9 -> 23        -0.45114
      10 -> 24         0.45809

 Excited State  67:      Singlet-A"    14.2542 eV   86.98 nm  f=0.0001  <S**2>=0.000
       9 -> 23         0.37090
       9 -> 25        -0.17306
      10 -> 24         0.36223
      12 -> 32         0.41277

 Excited State  68:      Singlet-A"    14.2542 eV   86.98 nm  f=0.0000  <S**2>=0.000
       9 -> 24         0.36565
      10 -> 23        -0.36461
      10 -> 25        -0.17327
      11 -> 32         0.41533

 Excited State  69:      Singlet-A'    14.3133 eV   86.62 nm  f=0.0000  <S**2>=0.000
       9 -> 19        -0.13971
       9 -> 26         0.45707
       9 -> 27         0.11470
      10 -> 18         0.13972
      10 -> 26        -0.11472
      10 -> 27         0.45718

 Excited State  70:      Singlet-A'    14.3874 eV   86.18 nm  f=0.3484  <S**2>=0.000
       9 -> 26        -0.15445
      10 -> 27         0.15404
      10 -> 28         0.50248
      12 -> 20        -0.11362
      12 -> 33        -0.39454

 Excited State  71:      Singlet-A'    14.3875 eV   86.17 nm  f=0.3486  <S**2>=0.000
       9 -> 27        -0.15500
       9 -> 28         0.50220
      10 -> 26        -0.15462
      11 -> 20         0.11361
      11 -> 33         0.39444

 Excited State  72:      Singlet-A"    14.4754 eV   85.65 nm  f=0.0000  <S**2>=0.000
       7 -> 15         0.34411
       7 -> 21        -0.10110
      10 -> 25         0.56654
      11 -> 32         0.12142

 Excited State  73:      Singlet-A"    14.4754 eV   85.65 nm  f=0.0000  <S**2>=0.000
       7 -> 14        -0.34443
       7 -> 22        -0.10111
       9 -> 25         0.56640
      12 -> 32         0.12126

 Excited State  74:      Singlet-A"    14.4834 eV   85.60 nm  f=0.0000  <S**2>=0.000
       9 -> 24         0.48178
      10 -> 23         0.48129

 Excited State  75:      Singlet-A'    14.5250 eV   85.36 nm  f=0.0598  <S**2>=0.000
       9 -> 26        -0.43169
      10 -> 27         0.43183
      10 -> 28        -0.27580
      11 -> 31        -0.11432

 Excited State  76:      Singlet-A'    14.5250 eV   85.36 nm  f=0.0598  <S**2>=0.000
       9 -> 27         0.43119
       9 -> 28         0.27665
      10 -> 26         0.43181
      12 -> 31         0.11425

 Excited State  77:      Singlet-A"    14.5565 eV   85.17 nm  f=0.0000  <S**2>=0.000
       7 -> 14         0.47376
       7 -> 15         0.29121
       9 -> 22         0.14615
       9 -> 25         0.23198
      10 -> 21        -0.14614
      10 -> 25        -0.20300

 Excited State  78:      Singlet-A"    14.5566 eV   85.17 nm  f=0.0000  <S**2>=0.000
       7 -> 14        -0.29106
       7 -> 15         0.47390
       9 -> 21         0.14615
       9 -> 25        -0.20321
      10 -> 22         0.14614
      10 -> 25        -0.23170

 Excited State  79:      Singlet-A'    14.5883 eV   84.99 nm  f=0.0000  <S**2>=0.000
       7 -> 16         0.49263
       8 -> 17        -0.25564
       9 -> 27        -0.28060
      10 -> 26         0.28010

 Excited State  80:      Singlet-A'    14.7827 eV   83.87 nm  f=0.2529  <S**2>=0.000
       8 -> 21        -0.15029
       9 -> 26        -0.10842
      10 -> 27         0.10812
      10 -> 28         0.31362
      11 -> 29         0.11301
      12 -> 30        -0.11301
      12 -> 33         0.51693

 Excited State  81:      Singlet-A'    14.7828 eV   83.87 nm  f=0.2527  <S**2>=0.000
       8 -> 22         0.15030
       9 -> 27         0.10859
       9 -> 28        -0.31340
      10 -> 26         0.10828
      11 -> 30         0.11300
      11 -> 33         0.51700
      12 -> 29         0.11298

 Excited State  82:      Singlet-A'    14.8095 eV   83.72 nm  f=0.0000  <S**2>=0.000
       7 -> 16        -0.18032
       8 -> 17         0.42282
       9 -> 27        -0.35293
      10 -> 26         0.35281

 Excited State  83:      Singlet-A'    15.0303 eV   82.49 nm  f=0.0000  <S**2>=0.000
       7 -> 16         0.43582
       8 -> 17         0.46762
       9 -> 27         0.16483
      10 -> 26        -0.16479

 Excited State  84:      Singlet-A'    15.0556 eV   82.35 nm  f=0.0000  <S**2>=0.000
       8 -> 20         0.67915
       8 -> 33        -0.13846

 Excited State  85:      Singlet-A"    15.3398 eV   80.83 nm  f=0.0713  <S**2>=0.000
       9 -> 29        -0.47758
      10 -> 30         0.47782

 Excited State  86:      Singlet-A"    15.4644 eV   80.17 nm  f=0.0000  <S**2>=0.000
       8 -> 19         0.10804
       9 -> 29         0.15158
       9 -> 30        -0.41056
      10 -> 25        -0.10076
      10 -> 29         0.41102
      10 -> 30         0.15152
      10 -> 31        -0.23591

 Excited State  87:      Singlet-A"    15.4644 eV   80.17 nm  f=0.0000  <S**2>=0.000
       8 -> 18        -0.10808
       9 -> 25         0.10075
       9 -> 29         0.41091
       9 -> 30         0.15143
       9 -> 31         0.23589
      10 -> 29        -0.15166
      10 -> 30         0.41067

 Excited State  88:      Singlet-A"    15.5304 eV   79.83 nm  f=0.0000  <S**2>=0.000
       5 -> 16         0.10790
       8 -> 18         0.64195
      11 -> 34        -0.16983

 Excited State  89:      Singlet-A"    15.5305 eV   79.83 nm  f=0.0000  <S**2>=0.000
       6 -> 16         0.10790
       8 -> 19         0.64191
      12 -> 34         0.16999

 Excited State  90:      Singlet-A"    15.5428 eV   79.77 nm  f=0.0000  <S**2>=0.000
       7 -> 20        -0.36240
       7 -> 33         0.10303
       9 -> 30         0.40390
      10 -> 29         0.40332

 Excited State  91:      Singlet-A"    15.7507 eV   78.72 nm  f=0.0000  <S**2>=0.000
       8 -> 19        -0.16959
      12 -> 34         0.66990

 Excited State  92:      Singlet-A"    15.7509 eV   78.72 nm  f=0.0000  <S**2>=0.000
       8 -> 18         0.16944
      11 -> 34         0.66993

 Excited State  93:      Singlet-A'    15.8616 eV   78.17 nm  f=0.0000  <S**2>=0.000
      11 -> 35         0.33234
      11 -> 36        -0.20097
      11 -> 41        -0.27549
      12 -> 35         0.20132
      12 -> 36         0.33251
      12 -> 40         0.27567

 Excited State  94:      Singlet-A"    15.8901 eV   78.03 nm  f=0.0592  <S**2>=0.000
       7 -> 13        -0.11863
       7 -> 17         0.66158
       8 -> 28        -0.11881

 Excited State  95:      Singlet-A'    15.9684 eV   77.64 nm  f=0.0321  <S**2>=0.000
       8 -> 21         0.48278
       8 -> 22         0.10434
      10 -> 32         0.17835
      11 -> 35         0.26479
      11 -> 37         0.12768
      12 -> 36        -0.26462

 Excited State  96:      Singlet-A'    15.9685 eV   77.64 nm  f=0.0321  <S**2>=0.000
       8 -> 21        -0.10434
       8 -> 22         0.48279
       9 -> 32         0.17829
      11 -> 36        -0.26467
      12 -> 35        -0.26475
      12 -> 37         0.12775

 Excited State  97:      Singlet-A"    15.9914 eV   77.53 nm  f=0.0000  <S**2>=0.000
       7 -> 20         0.57210
       7 -> 33        -0.11389
       9 -> 30         0.26770
      10 -> 29         0.26762

 Excited State  98:      Singlet-A"    16.0263 eV   77.36 nm  f=0.0000  <S**2>=0.000
       9 -> 30        -0.15453
      10 -> 29         0.15451
      10 -> 31         0.64140

 Excited State  99:      Singlet-A"    16.0263 eV   77.36 nm  f=0.0000  <S**2>=0.000
       9 -> 29        -0.15453
       9 -> 31         0.64140
      10 -> 30        -0.15450

 Excited State 100:      Singlet-A'    16.2138 eV   76.47 nm  f=0.0000  <S**2>=0.000
      11 -> 35        -0.23974
      11 -> 36        -0.39583
      11 -> 40        -0.12205
      12 -> 35         0.39672
      12 -> 36        -0.23981
      12 -> 41        -0.12242

 Excited State 101:      Singlet-A'    16.2396 eV   76.35 nm  f=0.0229  <S**2>=0.000
       7 -> 18         0.20304
       8 -> 22        -0.23249
       9 -> 32         0.46195
      11 -> 36        -0.11485
      12 -> 35        -0.11370
      12 -> 37        -0.32945

 Excited State 102:      Singlet-A'    16.2396 eV   76.35 nm  f=0.0231  <S**2>=0.000
       7 -> 19         0.20308
       8 -> 21        -0.23246
      10 -> 32         0.46431
      11 -> 35         0.11316
      11 -> 37        -0.32733

 The electronic state is 1-A'.
 Alpha  occ. eigenvalues --  -10.28056 -10.28015 -10.28015  -0.95200  -0.69133
 Alpha  occ. eigenvalues --   -0.69133  -0.58495  -0.55193  -0.44508  -0.44507
 Alpha  occ. eigenvalues --   -0.37791  -0.37790
 Alpha virt. eigenvalues --    0.07898   0.09056   0.09056   0.11069   0.15669
 Alpha virt. eigenvalues --    0.16833   0.16833   0.19395   0.19945   0.19945
 Alpha virt. eigenvalues --    0.23363   0.23363   0.24550   0.24831   0.24831

 Mulliken charges:
               1
     1  C   -0.529462
     2  C   -0.529476
     3  C   -0.529429
     4  H    0.264729
     5  H    0.264729
     6  H    0.264729
     7  H    0.264729
     8  H    0.264725
     9  H    0.264725
 Sum of Mulliken charges =  -0.00000

 Dipole moment (field-independent basis, Debye):
    X=             -0.0000    Y=             -0.0000    Z=              0.0000  Tot=              0.0000
 Quadrupole moment (field-independent basis, Debye-Ang):
   XX=            -20.6484   YY=            -20.6485   ZZ=            -18.3292
   XY=             -0.0001   XZ=              0.0000   YZ=              0.0000

 Normal termination of Gaussian 16 at Sun Feb 27 06:42:35 2022.
