 Gaussian 16, Revision C.01,
 Gaussian 16:  EM64L-G16RevC.01  3-Jul-2019

 ----------------------------------------------------------------------
 #P TD(Nstates=10000) wB97XD/Gen SCF(maxcycles=100) Int(Grid=ultrafine)
 ----------------------------------------------------------------------

 ---------------------
 xGDB7_00001_tier4.com
 ---------------------
 Symbolic Z-matrix:
 Charge =  0 Multiplicity = 1

                         Standard orientation:
 ---------------------------------------------------------------------
 Center     Atomic      Atomic             Coordinates (Angstroms)
 Number     Number       Type             X           Y           Z
 ---------------------------------------------------------------------
      1          6           0        0.046419    0.658432    0.000000
      2          8           0        0.046419   -0.751929    0.000000
      3          1           0       -0.438905    1.073261    0.890797
      4          1           0       -0.438905    1.073261   -0.890797
      5          1           0        1.087855    0.977571    0.000000
      6          1           0       -0.859911   -1.059251    0.000000
 ---------------------------------------------------------------------

 SCF Done:  E(RwB97XD) =  -115.736928869     A.U. after   11 cycles

 Excitation energies and oscillator strengths:

 Excited State   1:      Singlet-A"     6.8963 eV  179.78 nm  f=0.0019  <S**2>=0.000
       9 -> 10         0.65230
       9 -> 11         0.20839
       9 -> 14         0.13677
 This state for optimization and/or second-order correction.
 Total Energy, E(TD-HF/TD-DFT) =  -115.483495062
 Copying the excited state density for this state as the 1-particle RhoCI density.

 Excited State   2:      Singlet-A"     8.1059 eV  152.96 nm  f=0.0372  <S**2>=0.000
       9 -> 10        -0.21706
       9 -> 11         0.65932

 Excited State   3:      Singlet-A'     8.6697 eV  143.01 nm  f=0.0044  <S**2>=0.000
       8 -> 10         0.64552
       8 -> 11         0.14883
       8 -> 14         0.14448
       9 -> 13        -0.16093

 Excited State   4:      Singlet-A'     8.7782 eV  141.24 nm  f=0.0455  <S**2>=0.000
       8 -> 10         0.16567
       9 -> 13         0.67791

 Excited State   5:      Singlet-A"     8.7837 eV  141.15 nm  f=0.0158  <S**2>=0.000
       9 -> 12         0.67927
       9 -> 14        -0.12822

 Excited State   6:      Singlet-A"     9.4348 eV  131.41 nm  f=0.0002  <S**2>=0.000
       9 -> 10        -0.12349
       9 -> 12         0.13291
       9 -> 14         0.66199

 Excited State   7:      Singlet-A'     9.6808 eV  128.07 nm  f=0.0687  <S**2>=0.000
       8 -> 10        -0.15660
       8 -> 11         0.66688

 Excited State   8:      Singlet-A"     9.9358 eV  124.79 nm  f=0.0097  <S**2>=0.000
       9 -> 15         0.66416
       9 -> 17        -0.16406

 Excited State   9:      Singlet-A'    10.3286 eV  120.04 nm  f=0.0176  <S**2>=0.000
       9 -> 16         0.64590
       9 -> 18         0.25084

 Excited State  10:      Singlet-A'    10.4223 eV  118.96 nm  f=0.0665  <S**2>=0.000
       8 -> 12         0.65507
       8 -> 14        -0.21456

 Excited State  11:      Singlet-A"    10.4545 eV  118.59 nm  f=0.0247  <S**2>=0.000
       8 -> 13         0.69583

 Excited State  12:      Singlet-A"    10.9796 eV  112.92 nm  f=0.0012  <S**2>=0.000
       9 -> 15         0.14921
       9 -> 17         0.65942

 Excited State  13:      Singlet-A'    11.0708 eV  111.99 nm  f=0.0277  <S**2>=0.000
       7 -> 10         0.18021
       8 -> 12         0.15915
       8 -> 14         0.47077
       9 -> 16         0.12069
       9 -> 18        -0.41440

 Excited State  14:      Singlet-A'    11.1443 eV  111.25 nm  f=0.0010  <S**2>=0.000
       7 -> 10         0.22503
       7 -> 11         0.15913
       8 -> 12         0.10960
       8 -> 14         0.29092
       8 -> 15         0.23089
       9 -> 16        -0.19147
       9 -> 18         0.46305

 Excited State  15:      Singlet-A'    11.3521 eV  109.22 nm  f=0.0214  <S**2>=0.000
       7 -> 10         0.58912
       7 -> 14         0.12881
       8 -> 12        -0.10841
       8 -> 14        -0.28311
       9 -> 18        -0.10353

 Excited State  16:      Singlet-A"    11.4269 eV  108.50 nm  f=0.0225  <S**2>=0.000
       6 -> 10        -0.37668
       6 -> 14        -0.13344
       9 -> 15        -0.11014
       9 -> 17        -0.12322
       9 -> 19         0.51124

 Excited State  17:      Singlet-A"    11.7315 eV  105.68 nm  f=0.0487  <S**2>=0.000
       6 -> 10         0.53393
       8 -> 16         0.18493
       9 -> 19         0.38383

 Excited State  18:      Singlet-A'    11.7787 eV  105.26 nm  f=0.0228  <S**2>=0.000
       7 -> 10        -0.13337
       8 -> 14        -0.10875
       8 -> 15         0.61908
       8 -> 17        -0.20907
       9 -> 18        -0.14592

 Excited State  19:      Singlet-A"    11.8152 eV  104.94 nm  f=0.0412  <S**2>=0.000
       6 -> 10        -0.14531
       8 -> 16         0.63885
       8 -> 18         0.14997
       9 -> 19        -0.12742

 Excited State  20:      Singlet-A'    12.1857 eV  101.75 nm  f=0.1301  <S**2>=0.000
       7 -> 10        -0.10536
       7 -> 11         0.65502
       8 -> 14        -0.10090

 Excited State  21:      Singlet-A"    12.2758 eV  101.00 nm  f=0.0233  <S**2>=0.000
       6 -> 11         0.43786
       6 -> 14         0.11465
       8 -> 18        -0.10871
       9 -> 20         0.36549
       9 -> 21        -0.26382
       9 -> 22        -0.21752

 Excited State  22:      Singlet-A"    12.5002 eV   99.19 nm  f=0.0021  <S**2>=0.000
       7 -> 13        -0.29046
       8 -> 16        -0.11280
       8 -> 18         0.60188
       9 -> 21        -0.10425

 Excited State  23:      Singlet-A"    12.6296 eV   98.17 nm  f=0.0005  <S**2>=0.000
       6 -> 11         0.49711
       9 -> 20        -0.34215
       9 -> 21         0.25818

 Excited State  24:      Singlet-A'    12.6399 eV   98.09 nm  f=0.0039  <S**2>=0.000
       6 -> 13         0.14830
       7 -> 12         0.19260
       7 -> 14        -0.11296
       8 -> 15         0.17826
       8 -> 17         0.60873

 Excited State  25:      Singlet-A'    13.0794 eV   94.79 nm  f=0.0779  <S**2>=0.000
       6 -> 13         0.12255
       7 -> 12         0.59045
       7 -> 14        -0.21160
       8 -> 17        -0.23424

 Excited State  26:      Singlet-A"    13.0859 eV   94.75 nm  f=0.0178  <S**2>=0.000
       7 -> 13         0.59154
       8 -> 16        -0.13089
       8 -> 18         0.25167
       9 -> 20        -0.16517
       9 -> 21        -0.13849

 Excited State  27:      Singlet-A"    13.1626 eV   94.19 nm  f=0.0281  <S**2>=0.000
       7 -> 13         0.18668
       8 -> 18         0.12238
       9 -> 20         0.42768
       9 -> 21         0.46287
       9 -> 22         0.10633

 Excited State  28:      Singlet-A'    13.3783 eV   92.68 nm  f=0.0878  <S**2>=0.000
       5 -> 10        -0.28309
       6 -> 13         0.35908
       6 -> 16         0.11568
       7 -> 14         0.15645
       8 -> 19         0.36751
       9 -> 23        -0.24596

 Excited State  29:      Singlet-A"    13.4069 eV   92.48 nm  f=0.0055  <S**2>=0.000
       6 -> 12         0.50541
       6 -> 14        -0.26203
       6 -> 17         0.10108
       9 -> 21         0.11526
       9 -> 22        -0.31893
       9 -> 24         0.11801

 Excited State  30:      Singlet-A"    13.4369 eV   92.27 nm  f=0.0008  <S**2>=0.000
       6 -> 11         0.13009
       6 -> 12         0.29503
       6 -> 14        -0.14972
       9 -> 21        -0.22920
       9 -> 22         0.54380

 Excited State  31:      Singlet-A'    13.5006 eV   91.84 nm  f=0.0286  <S**2>=0.000
       5 -> 10        -0.17717
       6 -> 13         0.42230
       7 -> 12        -0.18537
       7 -> 14        -0.12361
       7 -> 15         0.11185
       8 -> 19        -0.32455
       9 -> 23         0.29296

 Excited State  32:      Singlet-A'    13.5591 eV   91.44 nm  f=0.0246  <S**2>=0.000
       5 -> 10         0.31305
       6 -> 13         0.10928
       7 -> 12        -0.10079
       8 -> 19         0.39328
       9 -> 23         0.41009

 Excited State  33:      Singlet-A'    13.7015 eV   90.49 nm  f=0.1548  <S**2>=0.000
       5 -> 10         0.45927
       5 -> 11         0.11047
       5 -> 14         0.10593
       6 -> 13         0.30303
       7 -> 14         0.13034
       8 -> 19        -0.16822
       9 -> 23        -0.30959

 Excited State  34:      Singlet-A"    13.7581 eV   90.12 nm  f=0.1008  <S**2>=0.000
       6 -> 12        -0.13417
       6 -> 15        -0.12567
       9 -> 24         0.64427

 Excited State  35:      Singlet-A'    13.8263 eV   89.67 nm  f=0.0452  <S**2>=0.000
       7 -> 10        -0.11548
       7 -> 12         0.20600
       7 -> 14         0.48786
       7 -> 15         0.23293
       8 -> 20         0.10935
       9 -> 23         0.20191
       9 -> 25        -0.24093

 Excited State  36:      Singlet-A'    14.0031 eV   88.54 nm  f=0.0320  <S**2>=0.000
       7 -> 14        -0.27289
       7 -> 15         0.55911
       7 -> 17        -0.13177
       8 -> 19         0.11091
       9 -> 23        -0.12879
       9 -> 25        -0.16053

 Excited State  37:      Singlet-A'    14.0765 eV   88.08 nm  f=0.1746  <S**2>=0.000
       5 -> 11         0.15000
       6 -> 13        -0.10645
       7 -> 15         0.13905
       8 -> 19        -0.13802
       8 -> 20         0.36247
       8 -> 21        -0.23879
       8 -> 22        -0.17343
       9 -> 25         0.40074

 Excited State  38:      Singlet-A"    14.1549 eV   87.59 nm  f=0.0070  <S**2>=0.000
       6 -> 12        -0.22416
       6 -> 14        -0.35327
       6 -> 15         0.17174
       6 -> 17        -0.12988
       7 -> 16         0.41688
       7 -> 18         0.16781
       9 -> 26        -0.10511

 Excited State  39:      Singlet-A'    14.1841 eV   87.41 nm  f=0.0482  <S**2>=0.000
       5 -> 11        -0.20277
       6 -> 16        -0.11130
       7 -> 14         0.13724
       7 -> 15         0.20523
       8 -> 20        -0.30432
       8 -> 21         0.18226
       8 -> 22         0.11311
       9 -> 25         0.45377

 Excited State  40:      Singlet-A"    14.2152 eV   87.22 nm  f=0.0101  <S**2>=0.000
       6 -> 10        -0.11752
       6 -> 12         0.19419
       6 -> 14         0.41050
       6 -> 15         0.17980
       7 -> 16         0.38825
       7 -> 18         0.14264
       9 -> 24         0.11478

 Excited State  41:      Singlet-A"    14.4205 eV   85.98 nm  f=0.1051  <S**2>=0.000
       6 -> 15         0.53106
       6 -> 17        -0.12036
       7 -> 16        -0.25832
       9 -> 26        -0.21202
       9 -> 28        -0.23147

 Excited State  42:      Singlet-A'    14.5346 eV   85.30 nm  f=0.0446  <S**2>=0.000
       5 -> 10        -0.16233
       5 -> 11         0.54537
       6 -> 16        -0.23188
       8 -> 20        -0.12111
       8 -> 21         0.19630
       9 -> 27         0.14821

 Excited State  43:      Singlet-A"    14.5935 eV   84.96 nm  f=0.0145  <S**2>=0.000
       6 -> 14        -0.14172
       9 -> 19        -0.11772
       9 -> 26         0.57384
       9 -> 28        -0.27739
       9 -> 30        -0.13017

 Excited State  44:      Singlet-A'    14.6313 eV   84.74 nm  f=0.0525  <S**2>=0.000
       5 -> 11        -0.20381
       6 -> 16        -0.20261
       8 -> 20         0.31339
       8 -> 21         0.16913
       8 -> 22         0.15694
       9 -> 27         0.45701

 Excited State  45:      Singlet-A'    14.7887 eV   83.84 nm  f=0.0786  <S**2>=0.000
       5 -> 11         0.14019
       6 -> 16         0.41114
       6 -> 18         0.11065
       7 -> 15         0.10478
       7 -> 17         0.31137
       8 -> 20        -0.14418
       8 -> 22         0.22805
       9 -> 27         0.28035

 Excited State  46:      Singlet-A"    14.8061 eV   83.74 nm  f=0.0318  <S**2>=0.000
       6 -> 15         0.24170
       7 -> 16        -0.21053
       7 -> 18         0.16014
       8 -> 23         0.10047
       9 -> 26         0.26550
       9 -> 28         0.48083
       9 -> 30         0.13965

 Excited State  47:      Singlet-A'    14.8322 eV   83.59 nm  f=0.0361  <S**2>=0.000
       6 -> 16         0.26078
       6 -> 18         0.15539
       8 -> 20         0.26757
       8 -> 21         0.50336
       9 -> 27        -0.20511

 Excited State  48:      Singlet-A'    14.9860 eV   82.73 nm  f=0.2210  <S**2>=0.000
       6 -> 16        -0.22641
       7 -> 17         0.23401
       8 -> 20         0.15699
       8 -> 21        -0.12231
       8 -> 22         0.46342
       9 -> 27        -0.30098

 Excited State  49:      Singlet-A"    15.0121 eV   82.59 nm  f=0.0811  <S**2>=0.000
       6 -> 15        -0.15288
       7 -> 16        -0.18244
       7 -> 18         0.55338
       8 -> 23         0.21315
       8 -> 25        -0.15553
       9 -> 28        -0.19073

 Excited State  50:      Singlet-A"    15.2345 eV   81.38 nm  f=0.0317  <S**2>=0.000
       5 -> 13         0.65174
       6 -> 17         0.10889
       8 -> 23        -0.14612

 Excited State  51:      Singlet-A"    15.2693 eV   81.20 nm  f=0.0052  <S**2>=0.000
       5 -> 13         0.18573
       6 -> 15        -0.10024
       6 -> 17        -0.34826
       7 -> 18        -0.22987
       8 -> 23         0.44987
       8 -> 25         0.14552
       9 -> 30         0.15218

 Excited State  52:      Singlet-A'    15.2781 eV   81.15 nm  f=0.0641  <S**2>=0.000
       6 -> 16        -0.10629
       6 -> 18        -0.15473
       7 -> 17         0.49091
       8 -> 21         0.14644
       8 -> 22        -0.29377
       8 -> 24        -0.19513
       9 -> 29         0.15929

 Excited State  53:      Singlet-A'    15.3708 eV   80.66 nm  f=0.0174  <S**2>=0.000
       5 -> 12         0.45925
       5 -> 14        -0.11359
       6 -> 18        -0.20916
       7 -> 17        -0.11167
       9 -> 29         0.41684

 Excited State  54:      Singlet-A'    15.4068 eV   80.47 nm  f=0.0242  <S**2>=0.000
       5 -> 12         0.45584
       6 -> 16        -0.16243
       6 -> 18         0.21290
       8 -> 24        -0.22160
       9 -> 29        -0.34696

 Excited State  55:      Singlet-A"    15.4395 eV   80.30 nm  f=0.0605  <S**2>=0.000
       6 -> 17         0.40082
       7 -> 18        -0.10507
       8 -> 23         0.42783
       9 -> 30        -0.30335

 Excited State  56:      Singlet-A'    15.4948 eV   80.02 nm  f=0.0175  <S**2>=0.000
       6 -> 18         0.15216
       7 -> 17         0.22297
       7 -> 19         0.18786
       8 -> 22        -0.16197
       8 -> 24         0.54884

 Excited State  57:      Singlet-A'    15.5631 eV   79.67 nm  f=0.0093  <S**2>=0.000
       6 -> 16        -0.11291
       6 -> 18         0.50562
       8 -> 24        -0.11868
       9 -> 25        -0.10396
       9 -> 29         0.40733

 Excited State  58:      Singlet-A"    15.5904 eV   79.53 nm  f=0.0030  <S**2>=0.000
       6 -> 12        -0.10365
       6 -> 17         0.33711
       9 -> 28        -0.20817
       9 -> 30         0.52339

 Excited State  59:      Singlet-A"    15.8134 eV   78.40 nm  f=0.0034  <S**2>=0.000
       5 -> 13        -0.10559
       7 -> 18         0.17942
       8 -> 25         0.65322

 Excited State  60:      Singlet-A'    15.9992 eV   77.49 nm  f=0.0144  <S**2>=0.000
       5 -> 10        -0.11061
       5 -> 12         0.15041
       5 -> 14         0.60027
       7 -> 19         0.19815

 Excited State  61:      Singlet-A"    16.0167 eV   77.41 nm  f=0.0028  <S**2>=0.000
       6 -> 19        -0.11761
       9 -> 31         0.67178

 Excited State  62:      Singlet-A'    16.0712 eV   77.15 nm  f=0.0760  <S**2>=0.000
       5 -> 14        -0.16210
       6 -> 18        -0.10662
       7 -> 19         0.52286
       8 -> 24        -0.19163
       8 -> 26        -0.26893
       8 -> 28         0.18668

 Excited State  63:      Singlet-A"    16.2768 eV   76.17 nm  f=0.0937  <S**2>=0.000
       6 -> 19        -0.38418
       8 -> 27         0.52663

 Excited State  64:      Singlet-A"    16.3204 eV   75.97 nm  f=0.0282  <S**2>=0.000
       6 -> 17        -0.12334
       6 -> 19         0.50263
       8 -> 27         0.40340
       9 -> 30         0.10327

 Excited State  65:      Singlet-A'    16.3444 eV   75.86 nm  f=0.0076  <S**2>=0.000
       5 -> 14         0.10729
       5 -> 15         0.40589
       5 -> 17        -0.11955
       7 -> 19        -0.17658
       7 -> 20        -0.18749
       7 -> 21         0.13548
       7 -> 22         0.12749
       8 -> 26        -0.24681
       8 -> 28         0.29180
       8 -> 30         0.12080

 Excited State  66:      Singlet-A'    16.4163 eV   75.53 nm  f=0.0830  <S**2>=0.000
       5 -> 15         0.14978
       7 -> 22        -0.11394
       8 -> 26        -0.33366
       8 -> 28        -0.31142
       8 -> 30        -0.11216
       9 -> 32         0.44198

 Excited State  67:      Singlet-A'    16.5067 eV   75.11 nm  f=0.0731  <S**2>=0.000
       5 -> 15         0.44070
       7 -> 19         0.22024
       8 -> 26         0.38191
       8 -> 28        -0.18987

 Excited State  68:      Singlet-A"    16.6124 eV   74.63 nm  f=0.0658  <S**2>=0.000
       5 -> 16         0.65090
       5 -> 18         0.12786
       8 -> 29        -0.11676

 Excited State  69:      Singlet-A'    16.6275 eV   74.57 nm  f=0.0223  <S**2>=0.000
       7 -> 21        -0.16178
       8 -> 26         0.22013
       8 -> 28         0.40859
       9 -> 32         0.42449

 Excited State  70:      Singlet-A"    16.9179 eV   73.29 nm  f=0.0075  <S**2>=0.000
       5 -> 16         0.10540
       5 -> 18        -0.11038
       6 -> 20         0.40396
       6 -> 21        -0.25218
       6 -> 22        -0.13922
       8 -> 27         0.10748
       8 -> 29         0.14118
       9 -> 33        -0.39474

 Excited State  71:      Singlet-A'    16.9474 eV   73.16 nm  f=0.0406  <S**2>=0.000
       5 -> 15         0.15400
       5 -> 17        -0.10739
       7 -> 20         0.58327
       8 -> 28         0.17956
       8 -> 30        -0.12223
       9 -> 32        -0.12024

 Excited State  72:      Singlet-A"    16.9960 eV   72.95 nm  f=0.0014  <S**2>=0.000
       6 -> 20        -0.14948
       8 -> 29         0.65059

 Excited State  73:      Singlet-A"    17.1387 eV   72.34 nm  f=0.0056  <S**2>=0.000
       6 -> 20         0.30475
       6 -> 22        -0.13939
       8 -> 29         0.15143
       9 -> 33         0.41907
       9 -> 34        -0.33415
       9 -> 35         0.18778

 Excited State  74:      Singlet-A'    17.2640 eV   71.82 nm  f=0.1715  <S**2>=0.000
       5 -> 17         0.31088
       7 -> 21         0.49769
       8 -> 30        -0.32110

 Excited State  75:      Singlet-A"    17.3354 eV   71.52 nm  f=0.0001  <S**2>=0.000
       6 -> 19        -0.11178
       6 -> 20        -0.10930
       6 -> 21        -0.36264
       6 -> 22        -0.27862
       9 -> 33         0.30791
       9 -> 34         0.37361

 Excited State  76:      Singlet-A'    17.3648 eV   71.40 nm  f=0.0106  <S**2>=0.000
       5 -> 17         0.14393
       5 -> 19         0.12934
       7 -> 20         0.26893
       7 -> 21         0.12170
       7 -> 22         0.41757
       8 -> 30         0.32947
       9 -> 32         0.14085
       9 -> 36        -0.12034

 Excited State  77:      Singlet-A'    17.4343 eV   71.12 nm  f=0.0819  <S**2>=0.000
       5 -> 15         0.11216
       5 -> 17         0.39697
       7 -> 21        -0.31943
       7 -> 22         0.18492
       8 -> 30        -0.19923
       8 -> 31        -0.30287
       9 -> 36         0.12111

 Excited State  78:      Singlet-A"    17.4909 eV   70.89 nm  f=0.0005  <S**2>=0.000
       5 -> 16        -0.10996
       5 -> 18         0.62857
       6 -> 21        -0.17472
       9 -> 34        -0.13474

 Excited State  79:      Singlet-A'    17.5561 eV   70.62 nm  f=0.0194  <S**2>=0.000
       5 -> 15        -0.15846
       5 -> 17        -0.35615
       6 -> 23        -0.12301
       7 -> 22         0.39078
       8 -> 30        -0.36857

 Excited State  80:      Singlet-A"    17.6113 eV   70.40 nm  f=0.0870  <S**2>=0.000
       5 -> 18         0.19859
       6 -> 20         0.32578
       6 -> 21         0.42095
       6 -> 22        -0.12420
       9 -> 34         0.36424

 Excited State  81:      Singlet-A'    17.6609 eV   70.20 nm  f=0.0208  <S**2>=0.000
       5 -> 17         0.16806
       5 -> 19        -0.12106
       7 -> 21        -0.16135
       7 -> 22         0.16978
       8 -> 31         0.58892

 Excited State  82:      Singlet-A"    17.7029 eV   70.04 nm  f=0.0075  <S**2>=0.000
       7 -> 23         0.62372
       8 -> 32         0.28339

 Excited State  83:      Singlet-A"    17.9091 eV   69.23 nm  f=0.0007  <S**2>=0.000
       6 -> 24        -0.12296
       6 -> 26         0.10452
       8 -> 32        -0.10031
       9 -> 33        -0.14337
       9 -> 34         0.17043
       9 -> 35         0.60581
       9 -> 37         0.12124

 Excited State  84:      Singlet-A'    17.9837 eV   68.94 nm  f=0.0076  <S**2>=0.000
       5 -> 19         0.29212
       6 -> 23        -0.22631
       6 -> 25        -0.14831
       7 -> 24         0.33498
       9 -> 36         0.41470

 Excited State  85:      Singlet-A"    17.9937 eV   68.90 nm  f=0.0051  <S**2>=0.000
       6 -> 20         0.22639
       6 -> 21        -0.20662
       6 -> 22         0.52947
       7 -> 25        -0.14959
       8 -> 32         0.13645
       9 -> 33         0.15119
       9 -> 34         0.17682

 Excited State  86:      Singlet-A"    18.0625 eV   68.64 nm  f=0.0060  <S**2>=0.000
       6 -> 22        -0.15903
       7 -> 23        -0.22907
       7 -> 25        -0.32024
       7 -> 27         0.13700
       8 -> 32         0.50081

 Excited State  87:      Singlet-A'    18.1054 eV   68.48 nm  f=0.0368  <S**2>=0.000
       5 -> 19        -0.21287
       7 -> 24         0.54702
       8 -> 31        -0.12209
       9 -> 36        -0.30090

 Excited State  88:      Singlet-A'    18.2085 eV   68.09 nm  f=0.0121  <S**2>=0.000

 The electronic state is 1-A'.
 Alpha  occ. eigenvalues --  -19.25128 -10.32327  -1.12605  -0.78128  -0.60126
 Alpha  occ. eigenvalues --   -0.53028  -0.51616  -0.42472  -0.36476
 Alpha virt. eigenvalues --    0.06326   0.09277   0.11729   0.11731   0.14665
 Alpha virt. eigenvalues --    0.16992   0.17590   0.20468   0.20640   0.23722
 Alpha virt. eigenvalues --    0.27387   0.28693   0.30047   0.30202   0.31138

 Mulliken charges:
               1
     1  C   -0.549928
     2  O   -0.532011
     3  H    0.265016
     4  H    0.265016
     5  H    0.244456
     6  H    0.307452
 Sum of Mulliken charges =  -0.00000

 Dipole moment (field-independent basis, Debye):
    X=             -1.3722    Y=              0.9178    Z=             -0.0000  Tot=              1.6508
 Quadrupole moment (field-independent basis, Debye-Ang):
   XX=            -11.7292   YY=            -13.4118   ZZ=            -13.7962
   XY=              2.1094   XZ=             -0.0000   YZ=             -0.0000

 Normal termination of Gaussian 16 at Sun Feb 27 06:41:32 2022.
