 Gaussian 16, Revision C.01,
 Gaussian 16:  EM64L-G16RevC.01  3-Jul-2019

 ----------------------------------------------------------------------
 #P TD(Nstates=10000) wB97XD/Gen SCF(maxcycles=100) Int(Grid=ultrafine)
 ----------------------------------------------------------------------

 ---------------------
 xGDB7_00001_tier4.com
 ---------------------
 Symbolic Z-matrix:
 Charge =  0 Multiplicity = 1

                         Standard orientation:
 ---------------------------------------------------------------------
 Center     Atomic      Atomic             Coordinates (Angstroms)
 Number     Number       Type             X           Y           Z
 ---------------------------------------------------------------------
      1          7           0       -0.000002   -0.000000   -0.110463
      2          1           0       -0.147185    0.930214    0.257758
      3          1           0       -0.731998   -0.592574    0.257757
      4          1           0        0.879196   -0.337638    0.257728
 ---------------------------------------------------------------------

 SCF Done:  E(RwB97XD) =  -56.5659851549     A.U. after   12 cycles

 Excitation energies and oscillator strengths:

 Excited State   1:      Singlet-A      6.6090 eV  187.60 nm  f=0.0882  <S**2>=0.000
       5 ->  6         0.70054
 This state for optimization and/or second-order correction.
 Total Energy, E(TD-HF/TD-DFT) =  -56.3231101676
 Copying the excited state density for this state as the 1-particle RhoCI density.

 Excited State   2:      Singlet-A      8.8532 eV  140.04 nm  f=0.0153  <S**2>=0.000
       5 ->  7         0.69468

 Excited State   3:      Singlet-A      8.8533 eV  140.04 nm  f=0.0153  <S**2>=0.000
       5 ->  8         0.69468

 Excited State   4:      Singlet-A     10.2831 eV  120.57 nm  f=0.0032  <S**2>=0.000
       5 -> 10         0.69737

 Excited State   5:      Singlet-A     10.2832 eV  120.57 nm  f=0.0032  <S**2>=0.000
       5 -> 11         0.69737

 Excited State   6:      Singlet-A     10.4376 eV  118.79 nm  f=0.0006  <S**2>=0.000
       5 ->  9         0.69185

 Excited State   7:      Singlet-A     11.3379 eV  109.35 nm  f=0.1222  <S**2>=0.000
       5 -> 12         0.70103

 Excited State   8:      Singlet-A     11.5551 eV  107.30 nm  f=0.1042  <S**2>=0.000
       5 -> 13         0.69846

 Excited State   9:      Singlet-A     11.5551 eV  107.30 nm  f=0.1042  <S**2>=0.000
       5 -> 14         0.69846

 Excited State  10:      Singlet-A     11.9386 eV  103.85 nm  f=0.1623  <S**2>=0.000
       4 ->  6         0.69861

 Excited State  11:      Singlet-A     11.9387 eV  103.85 nm  f=0.1623  <S**2>=0.000
       3 ->  6         0.69861

 Excited State  12:      Singlet-A     13.3357 eV   92.97 nm  f=0.0952  <S**2>=0.000
       5 -> 15         0.70002

 Excited State  13:      Singlet-A     14.0716 eV   88.11 nm  f=0.0342  <S**2>=0.000
       3 ->  7        -0.46456
       3 ->  8         0.14943
       4 ->  7         0.14962
       4 ->  8         0.46461

 Excited State  14:      Singlet-A     14.0716 eV   88.11 nm  f=0.0342  <S**2>=0.000
       3 ->  7         0.14954
       3 ->  8         0.46434
       4 ->  7         0.46483
       4 ->  8        -0.14951

 Excited State  15:      Singlet-A     14.1734 eV   87.48 nm  f=0.0000  <S**2>=0.000
       3 ->  8         0.49052
       4 ->  7        -0.49000

 Excited State  16:      Singlet-A     14.5099 eV   85.45 nm  f=0.0001  <S**2>=0.000
       5 -> 16         0.67710

 Excited State  17:      Singlet-A     14.5099 eV   85.45 nm  f=0.0001  <S**2>=0.000
       5 -> 17         0.67710

 Excited State  18:      Singlet-A     15.0106 eV   82.60 nm  f=0.0000  <S**2>=0.000
       5 -> 18         0.70114

 Excited State  19:      Singlet-A     15.0172 eV   82.56 nm  f=0.0505  <S**2>=0.000
       3 ->  7         0.48052
       4 ->  8         0.48048
       5 ->  9         0.12038

 Excited State  20:      Singlet-A     15.2706 eV   81.19 nm  f=0.0040  <S**2>=0.000
       4 ->  9         0.69250

 Excited State  21:      Singlet-A     15.2707 eV   81.19 nm  f=0.0040  <S**2>=0.000
       3 ->  9         0.69250

 Excited State  22:      Singlet-A     15.3617 eV   80.71 nm  f=0.0000  <S**2>=0.000
       3 -> 10         0.48904
       4 -> 11         0.48909

 Excited State  23:      Singlet-A     15.7380 eV   78.78 nm  f=0.0014  <S**2>=0.000
       3 -> 11        -0.49305
       4 -> 10         0.49325

 Excited State  24:      Singlet-A     15.9917 eV   77.53 nm  f=0.2156  <S**2>=0.000
       3 -> 10        -0.21418
       3 -> 11         0.41733
       4 -> 10         0.41715
       4 -> 11         0.21416
       4 -> 12         0.10572
       5 -> 19        -0.12694

 Excited State  25:      Singlet-A     15.9917 eV   77.53 nm  f=0.2156  <S**2>=0.000
       3 -> 10         0.41726
       3 -> 11         0.21422
       3 -> 12        -0.10570
       4 -> 10         0.21412
       4 -> 11        -0.41721
       5 -> 20        -0.12695

 Excited State  26:      Singlet-A     16.6110 eV   74.64 nm  f=0.0007  <S**2>=0.000
       3 -> 13         0.10838
       4 -> 12         0.45476
       4 -> 14        -0.10842
       5 -> 19         0.41922
       5 -> 20         0.27701

 Excited State  27:      Singlet-A     16.6111 eV   74.64 nm  f=0.0007  <S**2>=0.000
       3 -> 12         0.45469
       3 -> 14         0.10839
       4 -> 13         0.10842
       5 -> 19         0.27705
       5 -> 20        -0.41926

 Excited State  28:      Singlet-A     16.8148 eV   73.74 nm  f=0.1081  <S**2>=0.000
       3 -> 13        -0.32364
       3 -> 14        -0.17346
       4 -> 12        -0.22582
       4 -> 13        -0.17345
       4 -> 14         0.32586
       5 -> 19         0.31283
       5 -> 20         0.20217

 Excited State  29:      Singlet-A     16.8148 eV   73.74 nm  f=0.1081  <S**2>=0.000
       3 -> 12         0.22579
       3 -> 13        -0.17280
       3 -> 14         0.32469
       4 -> 13         0.32491
       4 -> 14         0.17417
       5 -> 19        -0.20212
       5 -> 20         0.31277

 Excited State  30:      Singlet-A     16.8237 eV   73.70 nm  f=0.0877  <S**2>=0.000
       3 -> 13         0.45669
       4 -> 14         0.45468
       5 -> 21        -0.28036

 Excited State  31:      Singlet-A     16.9526 eV   73.14 nm  f=0.1215  <S**2>=0.000
       3 -> 13        -0.27124
       3 -> 14        -0.13585
       4 -> 12         0.46575
       4 -> 13        -0.13604
       4 -> 14         0.27111
       5 -> 19        -0.22185
       5 -> 20        -0.15165

 Excited State  32:      Singlet-A     16.9526 eV   73.14 nm  f=0.1215  <S**2>=0.000
       3 -> 12         0.46584
       3 -> 13         0.13596
       3 -> 14        -0.27095
       4 -> 13        -0.27128
       4 -> 14        -0.13587
       5 -> 19        -0.15165
       5 -> 20         0.22185

 Excited State  33:      Singlet-A     17.0411 eV   72.76 nm  f=0.0000  <S**2>=0.000
       3 -> 14         0.49476
       4 -> 13        -0.49440

 Excited State  34:      Singlet-A     17.8009 eV   69.65 nm  f=0.3898  <S**2>=0.000
       3 -> 13         0.19928
       4 -> 14         0.19927
       5 -> 21         0.63877

 Excited State  35:      Singlet-A     18.3860 eV   67.43 nm  f=0.0926  <S**2>=0.000
       5 -> 22         0.62342
       5 -> 23        -0.29241

 Excited State  36:      Singlet-A     18.3860 eV   67.43 nm  f=0.0926  <S**2>=0.000
       5 -> 22         0.29241
       5 -> 23         0.62342

 Excited State  37:      Singlet-A     18.6973 eV   66.31 nm  f=0.0528  <S**2>=0.000
       4 -> 15         0.69933

 Excited State  38:      Singlet-A     18.6973 eV   66.31 nm  f=0.0528  <S**2>=0.000
       3 -> 15         0.69933

 Excited State  39:      Singlet-A     19.8787 eV   62.37 nm  f=0.0000  <S**2>=0.000
       3 -> 16         0.40262
       3 -> 17        -0.27121
       4 -> 16         0.27133
       4 -> 17         0.40277

 Excited State  40:      Singlet-A     20.0954 eV   61.70 nm  f=0.0926  <S**2>=0.000
       3 -> 16         0.45892
       4 -> 17        -0.45885
       4 -> 18         0.21922

 Excited State  41:      Singlet-A     20.0955 eV   61.70 nm  f=0.0926  <S**2>=0.000
       3 -> 17         0.45891
       3 -> 18         0.21912
       4 -> 16         0.45890

 Excited State  42:      Singlet-A     20.2400 eV   61.26 nm  f=0.0255  <S**2>=0.000
       3 -> 16        -0.15425
       4 -> 17         0.15420
       4 -> 18         0.66966

 Excited State  43:      Singlet-A     20.2401 eV   61.26 nm  f=0.0255  <S**2>=0.000
       3 -> 17        -0.15416
       3 -> 18         0.66969
       4 -> 16        -0.15414

 Excited State  44:      Singlet-A     20.5248 eV   60.41 nm  f=0.0726  <S**2>=0.000
       3 -> 16         0.24295
       3 -> 17         0.36067
       4 -> 16        -0.36058
       4 -> 17         0.24290
       5 -> 24        -0.26665
       5 -> 25         0.18833

 Excited State  45:      Singlet-A     22.0202 eV   56.30 nm  f=0.0062  <S**2>=0.000
       5 -> 24         0.59488
       5 -> 25         0.29978

 Excited State  46:      Singlet-A     22.1423 eV   55.99 nm  f=0.0000  <S**2>=0.000
       3 -> 19         0.40449
       3 -> 20         0.28236
       4 -> 19        -0.28258
       4 -> 20         0.40480

 Excited State  47:      Singlet-A     22.2551 eV   55.71 nm  f=0.0228  <S**2>=0.000
       3 -> 19         0.41254
       3 -> 20        -0.23772
       4 -> 19        -0.23799
       4 -> 20        -0.41253
       5 -> 26         0.16612

 Excited State  48:      Singlet-A     22.2551 eV   55.71 nm  f=0.0228  <S**2>=0.000
       3 -> 19         0.23803
       3 -> 20         0.41260
       4 -> 19         0.41248
       4 -> 20        -0.23768
       5 -> 27         0.16611

 Excited State  49:      Singlet-A     22.4108 eV   55.32 nm  f=0.0692  <S**2>=0.000
       3 -> 19        -0.27729
       3 -> 20         0.39723
       4 -> 19        -0.39704
       4 -> 20        -0.27716
       5 -> 25         0.10283

 Excited State  50:      Singlet-A     22.6886 eV   54.65 nm  f=0.0091  <S**2>=0.000
       2 ->  6         0.55438
       5 -> 24         0.12484
       5 -> 25        -0.36800

 Excited State  51:      Singlet-A     22.7880 eV   54.41 nm  f=0.0095  <S**2>=0.000
       4 -> 21         0.67344
       5 -> 26        -0.19475

 Excited State  52:      Singlet-A     22.7881 eV   54.41 nm  f=0.0095  <S**2>=0.000
       3 -> 21         0.67344
       5 -> 27        -0.19476

 Excited State  53:      Singlet-A     23.1528 eV   53.55 nm  f=0.0024  <S**2>=0.000
       3 -> 22         0.13409
       4 -> 21         0.16193
       4 -> 23        -0.13412
       5 -> 26         0.63551

 Excited State  54:      Singlet-A     23.1528 eV   53.55 nm  f=0.0024  <S**2>=0.000
       3 -> 21         0.16195
       3 -> 23         0.13410
       4 -> 22         0.13413
       5 -> 27         0.63551

 Excited State  55:      Singlet-A     23.6075 eV   52.52 nm  f=0.0000  <S**2>=0.000
       3 -> 22         0.36837
       3 -> 23         0.33283
       4 -> 22        -0.33287
       4 -> 23         0.36841

 Excited State  56:      Singlet-A     23.6939 eV   52.33 nm  f=0.1062  <S**2>=0.000
       2 ->  6         0.31306
       3 -> 22         0.26907
       3 -> 23        -0.29780
       4 -> 22         0.29784
       4 -> 23         0.26911
       5 -> 25         0.24820

 Excited State  57:      Singlet-A     24.2046 eV   51.22 nm  f=0.3212  <S**2>=0.000
       2 ->  8         0.17599
       3 -> 22         0.41633
       3 -> 23        -0.15785
       4 -> 22        -0.15784
       4 -> 23        -0.41628
       5 -> 26        -0.14302

 Excited State  58:      Singlet-A     24.2046 eV   51.22 nm  f=0.3212  <S**2>=0.000
       2 ->  7         0.17600
       3 -> 22         0.15786
       3 -> 23         0.41633
       4 -> 22         0.41627
       4 -> 23        -0.15782
       5 -> 27        -0.14303

 Excited State  59:      Singlet-A     24.8157 eV   49.96 nm  f=0.1093  <S**2>=0.000
       2 ->  6         0.26826
       3 -> 17        -0.14785
       3 -> 22        -0.16769
       3 -> 23         0.18559
       3 -> 28         0.10414
       4 -> 16         0.14785
       4 -> 22        -0.18557
       4 -> 23        -0.16767
       4 -> 29         0.10414
       5 -> 24        -0.19341
       5 -> 25         0.37077

 Excited State  60:      Singlet-A     25.3349 eV   48.94 nm  f=0.0032  <S**2>=0.000
       2 ->  7         0.67133
       3 -> 23        -0.10489
       4 -> 22        -0.10488

 Excited State  61:      Singlet-A     25.3349 eV   48.94 nm  f=0.0032  <S**2>=0.000
       2 ->  8         0.67134
       3 -> 22        -0.10489
       4 -> 23         0.10488

 Excited State  62:      Singlet-A     25.8632 eV   47.94 nm  f=0.0342  <S**2>=0.000
       5 -> 28         0.69556

 Excited State  63:      Singlet-A     25.8632 eV   47.94 nm  f=0.0342  <S**2>=0.000
       5 -> 29         0.69557

 Excited State  64:      Singlet-A     26.4630 eV   46.85 nm  f=0.0000  <S**2>=0.000
       2 ->  9         0.68960

 Excited State  65:      Singlet-A     26.6551 eV   46.51 nm  f=0.0032  <S**2>=0.000
       2 -> 10         0.69592

 Excited State  66:      Singlet-A     26.6552 eV   46.51 nm  f=0.0032  <S**2>=0.000
       2 -> 11         0.69593

 Excited State  67:      Singlet-A     27.1287 eV   45.70 nm  f=0.0390  <S**2>=0.000
       4 -> 24         0.65385
       4 -> 25        -0.22426

 Excited State  68:      Singlet-A     27.1288 eV   45.70 nm  f=0.0390  <S**2>=0.000
       3 -> 24         0.65385
       3 -> 25        -0.22427

 Excited State  69:      Singlet-A     27.8253 eV   44.56 nm  f=0.0017  <S**2>=0.000
       2 -> 12         0.68400

 Excited State  70:      Singlet-A     27.9018 eV   44.44 nm  f=0.0019  <S**2>=0.000
       2 -> 13         0.69363

 Excited State  71:      Singlet-A     27.9018 eV   44.44 nm  f=0.0019  <S**2>=0.000
       2 -> 14         0.69363

 Excited State  72:      Singlet-A     28.2224 eV   43.93 nm  f=0.0446  <S**2>=0.000
       3 -> 27         0.15630
       4 -> 24         0.17936
       4 -> 25         0.62541
       4 -> 26        -0.15631

 Excited State  73:      Singlet-A     28.2225 eV   43.93 nm  f=0.0446  <S**2>=0.000
       3 -> 24         0.17936
       3 -> 25         0.62540
       3 -> 26         0.15630
       4 -> 27         0.15635

 Excited State  74:      Singlet-A     28.4727 eV   43.54 nm  f=0.0000  <S**2>=0.000
       3 -> 26         0.49640
       4 -> 27        -0.49638

 Excited State  75:      Singlet-A     28.7242 eV   43.16 nm  f=0.0319  <S**2>=0.000
       5 -> 30         0.68471

 Excited State  76:      Singlet-A     29.1385 eV   42.55 nm  f=0.0941  <S**2>=0.000
       2 -> 15         0.31160
       3 -> 27         0.42408
       4 -> 26         0.42429
       5 -> 30         0.15201

 Excited State  77:      Singlet-A     29.3580 eV   42.23 nm  f=0.2045  <S**2>=0.000
       3 -> 24        -0.15185
       3 -> 25        -0.19258
       3 -> 26         0.38791
       3 -> 27        -0.23999
       4 -> 26         0.23990
       4 -> 27         0.38791

 Excited State  78:      Singlet-A     29.3580 eV   42.23 nm  f=0.2045  <S**2>=0.000
       3 -> 26         0.23995
       3 -> 27         0.38801
       4 -> 24        -0.15184
       4 -> 25        -0.19254
       4 -> 26        -0.38784
       4 -> 27         0.23996

 Excited State  79:      Singlet-A     29.9994 eV   41.33 nm  f=0.0905  <S**2>=0.000
       2 -> 15         0.58735
       3 -> 27        -0.18298
       3 -> 28        -0.19408
       4 -> 26        -0.18294
       4 -> 29        -0.19410

 Excited State  80:      Singlet-A     31.0534 eV   39.93 nm  f=0.0171  <S**2>=0.000
       2 -> 16         0.69450

 Excited State  81:      Singlet-A     31.0534 eV   39.93 nm  f=0.0171  <S**2>=0.000
       2 -> 17         0.69450

 Excited State  82:      Singlet-A     31.2235 eV   39.71 nm  f=0.0000  <S**2>=0.000
       2 -> 18         0.66952
       3 -> 29         0.15547
       4 -> 28        -0.15564

 Excited State  83:      Singlet-A     31.3276 eV   39.58 nm  f=0.0005  <S**2>=0.000
       3 -> 28         0.42908
       3 -> 29        -0.24825
       4 -> 28        -0.24840
       4 -> 29        -0.42908

 Excited State  84:      Singlet-A     31.3276 eV   39.58 nm  f=0.0005  <S**2>=0.000
       3 -> 28         0.24832
       3 -> 29         0.42894
       4 -> 28         0.42922
       4 -> 29        -0.24833

 Excited State  85:      Singlet-A     31.4720 eV   39.40 nm  f=0.0000  <S**2>=0.000
       2 -> 18        -0.22112
       3 -> 29         0.47332
       4 -> 28        -0.47293

 Excited State  86:      Singlet-A     33.2238 eV   37.32 nm  f=0.0003  <S**2>=0.000
       2 -> 19         0.51478
       2 -> 20        -0.47638

 Excited State  87:      Singlet-A     33.2238 eV   37.32 nm  f=0.0003  <S**2>=0.000
       2 -> 19         0.47638
       2 -> 20         0.51478

 Excited State  88:      Singlet-A     33.7905 eV   36.69 nm  f=0.0185  <S**2>=0.000
       2 -> 21         0.68013
       3 -> 28        -0.10794
       4 -> 29        -0.10794

 Excited State  89:      Singlet-A     34.0324 eV   36.43 nm  f=0.0026  <S**2>=0.000
       4 -> 30         0.70221

 Excited State  90:      Singlet-A     34.0325 eV   36.43 nm  f=0.0026  <S**2>=0.000
       3 -> 30         0.70221

 Excited State  91:      Singlet-A     34.5503 eV   35.89 nm  f=0.0009  <S**2>=0.000
       2 -> 12         0.10029
       2 -> 15         0.18337
       2 -> 21         0.18241
       2 -> 24         0.13459
       2 -> 25         0.13941
       3 -> 28         0.40593
       4 -> 29         0.40592
       5 -> 25        -0.11597

 Excited State  92:      Singlet-A     34.7852 eV   35.64 nm  f=0.0161  <S**2>=0.000
       2 -> 22         0.70188

 Excited State  93:      Singlet-A     34.7852 eV   35.64 nm  f=0.0161  <S**2>=0.000
       2 -> 23         0.70188

 Excited State  94:      Singlet-A     38.1640 eV   32.49 nm  f=0.0307  <S**2>=0.000
       2 -> 24         0.66298
       2 -> 25        -0.21653

 Excited State  95:      Singlet-A     39.6965 eV   31.23 nm  f=0.0143  <S**2>=0.000
       2 -> 26         0.69954

 Excited State  96:      Singlet-A     39.6966 eV   31.23 nm  f=0.0143  <S**2>=0.000
       2 -> 27         0.69954

 Excited State  97:      Singlet-A     39.7854 eV   31.16 nm  f=0.0371  <S**2>=0.000
       2 -> 24         0.18574
       2 -> 25         0.64809
       3 -> 28        -0.10277
       4 -> 29        -0.10277

 Excited State  98:      Singlet-A     40.6627 eV   30.49 nm  f=0.1282  <S**2>=0.000
       5 -> 31         0.66402
       5 -> 32         0.14150

 Excited State  99:      Singlet-A     40.6627 eV   30.49 nm  f=0.1282  <S**2>=0.000
       5 -> 31        -0.14150
       5 -> 32         0.66402

 Excited State 100:      Singlet-A     42.5727 eV   29.12 nm  f=0.0490  <S**2>=0.000
       2 -> 28         0.67978
       5 -> 35         0.16854

 Excited State 101:      Singlet-A     42.5728 eV   29.12 nm  f=0.0490  <S**2>=0.000
       2 -> 29         0.67977
       5 -> 34         0.16857

 Excited State 102:      Singlet-A     42.9175 eV   28.89 nm  f=0.0619  <S**2>=0.000
       3 -> 31        -0.18461
       4 -> 32        -0.18461
       5 -> 33         0.65079

 Excited State 103:      Singlet-A     43.1142 eV   28.76 nm  f=0.0003  <S**2>=0.000
       2 -> 29        -0.15355
       5 -> 34         0.67726

 Excited State 104:      Singlet-A     43.1143 eV   28.76 nm  f=0.0003  <S**2>=0.000
       2 -> 28        -0.15353
       5 -> 35         0.67727

 Excited State 105:      Singlet-A     45.5019 eV   27.25 nm  f=0.0000  <S**2>=0.000
       3 -> 32        -0.49633
       4 -> 31         0.49679

 Excited State 106:      Singlet-A     45.5135 eV   27.24 nm  f=0.0014  <S**2>=0.000
       2 -> 30         0.68121

 Excited State 107:      Singlet-A     45.6455 eV   27.16 nm  f=0.0780  <S**2>=0.000
       3 -> 31        -0.21357
       3 -> 32         0.43389
       4 -> 31         0.43358
       4 -> 32         0.21355

 Excited State 108:      Singlet-A     45.6455 eV   27.16 nm  f=0.0780  <S**2>=0.000
       3 -> 31        -0.43370
       3 -> 32        -0.21378
       4 -> 31        -0.21334
       4 -> 32         0.43376

 Excited State 109:      Singlet-A     47.4888 eV   26.11 nm  f=0.3453  <S**2>=0.000
       2 -> 30        -0.13195
       3 -> 31         0.35821
       3 -> 35        -0.30728
       4 -> 32         0.35818
       4 -> 34        -0.30732
       5 -> 33         0.16741

 Excited State 110:      Singlet-A     47.7128 eV   25.99 nm  f=0.0094  <S**2>=0.000
       3 -> 35        -0.13773
       4 -> 33         0.66684
       4 -> 34         0.13774

 Excited State 111:      Singlet-A     47.7129 eV   25.99 nm  f=0.0094  <S**2>=0.000
       3 -> 33         0.66682
       3 -> 34        -0.13774
       4 -> 35        -0.13778

 Excited State 112:      Singlet-A     48.3756 eV   25.63 nm  f=0.0000  <S**2>=0.000
       3 -> 34         0.49845
       4 -> 35        -0.49845

 Excited State 113:      Singlet-A     49.1497 eV   25.23 nm  f=0.3560  <S**2>=0.000
       3 -> 31         0.27965
       3 -> 35         0.38304
       4 -> 32         0.27962
       4 -> 34         0.38307
       5 -> 33         0.20169

 Excited State 114:      Singlet-A     50.4698 eV   24.57 nm  f=0.2601  <S**2>=0.000
       3 -> 33         0.15261
       3 -> 34         0.45165
       4 -> 33         0.12964
       4 -> 35         0.45165

 Excited State 115:      Singlet-A     50.4699 eV   24.57 nm  f=0.2601  <S**2>=0.000
       3 -> 33        -0.12967
       3 -> 35         0.45167
       4 -> 33         0.15258
       4 -> 34        -0.45163

 Excited State 116:      Singlet-A     50.8216 eV   24.40 nm  f=0.0000  <S**2>=0.000
       5 -> 36         0.70636

 Excited State 117:      Singlet-A     54.9830 eV   22.55 nm  f=0.0041  <S**2>=0.000
       5 -> 37         0.69594

 Excited State 118:      Singlet-A     54.9832 eV   22.55 nm  f=0.0041  <S**2>=0.000
       5 -> 38         0.69594

 Excited State 119:      Singlet-A     56.3012 eV   22.02 nm  f=0.0361  <S**2>=0.000
       2 -> 31         0.15298
       3 -> 36         0.14130
       4 -> 36         0.66536

 Excited State 120:      Singlet-A     56.3014 eV   22.02 nm  f=0.0361  <S**2>=0.000
       2 -> 32        -0.15305
       3 -> 36         0.66534
       4 -> 36        -0.14128

 Excited State 121:      Singlet-A     57.0587 eV   21.73 nm  f=0.0253  <S**2>=0.000
       2 -> 31         0.51515
       2 -> 32        -0.44907
       3 -> 36        -0.11729
       4 -> 36        -0.10807

 Excited State 122:      Singlet-A     57.0587 eV   21.73 nm  f=0.0253  <S**2>=0.000
       2 -> 31         0.44907
       2 -> 32         0.51513
       3 -> 36         0.10816
       4 -> 36        -0.11731

 The electronic state is 1-A.
 Alpha  occ. eigenvalues --  -14.41017  -0.95173  -0.55022  -0.55022  -0.35362
 Alpha virt. eigenvalues --    0.07133   0.15269   0.15269   0.20277   0.21399
 Alpha virt. eigenvalues --    0.21399   0.24963   0.25709   0.25709   0.31713
 Alpha virt. eigenvalues --    0.37216   0.37216   0.37613   0.45741   0.45741

 Mulliken charges:
               1
     1  N   -0.702215
     2  H    0.234071
     3  H    0.234071
     4  H    0.234073
 Sum of Mulliken charges =  -0.00000

 Dipole moment (field-independent basis, Debye):
    X=              0.0000    Y=             -0.0000    Z=              1.5143  Tot=              1.5143
 Quadrupole moment (field-independent basis, Debye-Ang):
   XX=             -6.2268   YY=             -6.2269   ZZ=             -9.3292
   XY=              0.0000   XZ=             -0.0001   YZ=              0.0000

 Normal termination of Gaussian 16 at Sun Feb 27 06:37:18 2022.
