 Gaussian 16, Revision C.01,
 Gaussian 16:  EM64L-G16RevC.01  3-Jul-2019

 ----------------------------------------------------------------------
 #P TD(Nstates=10000) wB97XD/Gen SCF(maxcycles=100) Int(Grid=ultrafine)
 ----------------------------------------------------------------------

 ---------------------
 xGDB7_00001_tier4.com
 ---------------------
 Symbolic Z-matrix:
 Charge =  0 Multiplicity = 1

                         Standard orientation:
 ---------------------------------------------------------------------
 Center     Atomic      Atomic             Coordinates (Angstroms)
 Number     Number       Type             X           Y           Z
 ---------------------------------------------------------------------
      1          6           0        0.037922   -0.393776    0.738519
      2          6           0        0.037922   -0.393776   -0.738519
      3          7           0        0.037922    0.865964    0.000000
      4          1           0        0.953211   -0.606479    1.276872
      5          1           0       -0.870248   -0.700655    1.244917
      6          1           0       -0.870248   -0.700655   -1.244917
      7          1           0        0.953211   -0.606479   -1.276872
      8          1           0       -0.886454    1.277834    0.000000
 ---------------------------------------------------------------------

 SCF Done:  E(RwB97XD) =  -133.931715523     A.U. after   11 cycles

 Excitation energies and oscillator strengths:

 Excited State   1:      Singlet-A'     6.7114 eV  184.74 nm  f=0.0026  <S**2>=0.000
      12 -> 13         0.59809
      12 -> 15         0.35098
 This state for optimization and/or second-order correction.
 Total Energy, E(TD-HF/TD-DFT) =  -133.685077168
 Copying the excited state density for this state as the 1-particle RhoCI density.

 Excited State   2:      Singlet-A'     7.4971 eV  165.38 nm  f=0.0432  <S**2>=0.000
      12 -> 13        -0.35104
      12 -> 15         0.59257

 Excited State   3:      Singlet-A"     7.5825 eV  163.51 nm  f=0.0065  <S**2>=0.000
      12 -> 14         0.68998

 Excited State   4:      Singlet-A'     7.9991 eV  155.00 nm  f=0.0776  <S**2>=0.000
      12 -> 16         0.68240

 Excited State   5:      Singlet-A"     8.9240 eV  138.93 nm  f=0.0447  <S**2>=0.000
      12 -> 19         0.64062
      12 -> 21         0.21323

 Excited State   6:      Singlet-A'     8.9669 eV  138.27 nm  f=0.0171  <S**2>=0.000
      11 -> 13         0.62876
      11 -> 15         0.24488
      12 -> 18        -0.12707

 Excited State   7:      Singlet-A'     9.1970 eV  134.81 nm  f=0.0052  <S**2>=0.000
      11 -> 13         0.18233
      12 -> 18         0.65781

 Excited State   8:      Singlet-A"     9.2989 eV  133.33 nm  f=0.0000  <S**2>=0.000
      10 -> 13         0.62715
      10 -> 15         0.28491

 Excited State   9:      Singlet-A'     9.6492 eV  128.49 nm  f=0.0562  <S**2>=0.000
      11 -> 13        -0.21342
      11 -> 15         0.61511
      12 -> 18         0.15779
      12 -> 20         0.16802

 Excited State  10:      Singlet-A"     9.6894 eV  127.96 nm  f=0.0525  <S**2>=0.000
      11 -> 14         0.24431
      12 -> 17         0.62832
      12 -> 21        -0.11931

 Excited State  11:      Singlet-A"     9.7130 eV  127.65 nm  f=0.0149  <S**2>=0.000
       9 -> 13        -0.23274
      10 -> 15         0.18567
      11 -> 14         0.55917
      12 -> 17        -0.27268

 Excited State  12:      Singlet-A'     9.9932 eV  124.07 nm  f=0.0010  <S**2>=0.000
      11 -> 15        -0.17461
      12 -> 20         0.65669

 Excited State  13:      Singlet-A"     9.9949 eV  124.05 nm  f=0.1104  <S**2>=0.000
      10 -> 13        -0.27214
      10 -> 15         0.59022
      11 -> 14        -0.22392

 Excited State  14:      Singlet-A"    10.1074 eV  122.67 nm  f=0.0009  <S**2>=0.000
       9 -> 13         0.61642
      10 -> 15         0.11219
      11 -> 14         0.20438
      12 -> 21        -0.17619

 Excited State  15:      Singlet-A'    10.1206 eV  122.51 nm  f=0.0349  <S**2>=0.000
      10 -> 14         0.68150

 Excited State  16:      Singlet-A'    10.2424 eV  121.05 nm  f=0.0263  <S**2>=0.000
      11 -> 16         0.65632
      12 -> 22         0.17224

 Excited State  17:      Singlet-A"    10.3948 eV  119.27 nm  f=0.0000  <S**2>=0.000
       9 -> 13         0.13881
       9 -> 15         0.15734
      11 -> 14         0.12125
      12 -> 19        -0.22556
      12 -> 21         0.59458

 Excited State  18:      Singlet-A"    10.5248 eV  117.80 nm  f=0.0045  <S**2>=0.000
       9 -> 15         0.23443
      10 -> 16         0.62100
      11 -> 19        -0.13052

 Excited State  19:      Singlet-A'    10.7152 eV  115.71 nm  f=0.0376  <S**2>=0.000
       9 -> 14        -0.41073
      10 -> 19        -0.14679
      11 -> 16        -0.17102
      12 -> 22         0.49382

 Excited State  20:      Singlet-A"    10.7662 eV  115.16 nm  f=0.0363  <S**2>=0.000
       9 -> 15         0.60903
      10 -> 16        -0.26558
      11 -> 19        -0.10007
      12 -> 21        -0.10086

 Excited State  21:      Singlet-A'    10.8467 eV  114.31 nm  f=0.0550  <S**2>=0.000
       9 -> 14         0.52325
      10 -> 19        -0.11184
      11 -> 18         0.12816
      12 -> 22         0.38649

 Excited State  22:      Singlet-A"    11.1762 eV  110.94 nm  f=0.0443  <S**2>=0.000
       9 -> 16         0.16672
      11 -> 19        -0.18325
      12 -> 23         0.63095

 Excited State  23:      Singlet-A"    11.3197 eV  109.53 nm  f=0.1327  <S**2>=0.000
       9 -> 15         0.11828
       9 -> 16        -0.32495
      11 -> 17         0.20513
      11 -> 19         0.43502
      11 -> 21         0.13315
      12 -> 23         0.27936

 Excited State  24:      Singlet-A'    11.3540 eV  109.20 nm  f=0.0261  <S**2>=0.000
      10 -> 19        -0.24244
      11 -> 18        -0.41943
      12 -> 24         0.42134
      12 -> 25        -0.12420
      12 -> 29         0.10722

 Excited State  25:      Singlet-A"    11.4583 eV  108.20 nm  f=0.0108  <S**2>=0.000
       9 -> 16         0.55586
      10 -> 18        -0.11615
      11 -> 19         0.35518

 Excited State  26:      Singlet-A'    11.4777 eV  108.02 nm  f=0.0143  <S**2>=0.000
      11 -> 18         0.48071
      12 -> 24         0.31126
      12 -> 25        -0.33775

 Excited State  27:      Singlet-A'    11.6229 eV  106.67 nm  f=0.0169  <S**2>=0.000
       9 -> 19         0.10908
      11 -> 18         0.15524
      12 -> 24         0.40738
      12 -> 25         0.48242
      12 -> 29        -0.12976

 Excited State  28:      Singlet-A"    11.7252 eV  105.74 nm  f=0.0090  <S**2>=0.000
       9 -> 16         0.11690
      10 -> 18         0.67739

 Excited State  29:      Singlet-A'    11.8448 eV  104.67 nm  f=0.0254  <S**2>=0.000
      10 -> 19         0.42046
      10 -> 21         0.13047
      11 -> 18        -0.16049
      11 -> 20        -0.26442
      12 -> 22         0.14373
      12 -> 24         0.15519
      12 -> 25        -0.22638
      12 -> 29        -0.22433
      12 -> 30         0.11572

 Excited State  30:      Singlet-A"    11.8678 eV  104.47 nm  f=0.0062  <S**2>=0.000
       9 -> 16         0.10335
      11 -> 17         0.64188
      11 -> 19        -0.20731

 Excited State  31:      Singlet-A'    11.9643 eV  103.63 nm  f=0.0012  <S**2>=0.000
       9 -> 19         0.60635
       9 -> 21         0.19206
      10 -> 17         0.13470
      12 -> 25        -0.13165
      12 -> 27         0.15622

 Excited State  32:      Singlet-A'    12.1133 eV  102.35 nm  f=0.0158  <S**2>=0.000
       9 -> 19        -0.13477
      10 -> 19        -0.11457
      12 -> 24        -0.10987
      12 -> 27         0.62952

 Excited State  33:      Singlet-A"    12.1526 eV  102.02 nm  f=0.0648  <S**2>=0.000
      11 -> 17        -0.12432
      12 -> 26         0.65074
      12 -> 28        -0.15088

 Excited State  34:      Singlet-A'    12.2014 eV  101.61 nm  f=0.0232  <S**2>=0.000
      10 -> 17         0.65040
      11 -> 20        -0.11964

 Excited State  35:      Singlet-A'    12.3660 eV  100.26 nm  f=0.0545  <S**2>=0.000
       9 -> 17        -0.11514
      10 -> 17         0.14378
      10 -> 21         0.13433
      11 -> 20         0.47411
      12 -> 25        -0.16980
      12 -> 29        -0.32773
      12 -> 30         0.21237

 Excited State  36:      Singlet-A"    12.4094 eV   99.91 nm  f=0.0007  <S**2>=0.000
       9 -> 18         0.17762
      10 -> 20         0.47036
      11 -> 21        -0.14257
      12 -> 28         0.41461

 Excited State  37:      Singlet-A"    12.4919 eV   99.25 nm  f=0.0015  <S**2>=0.000
       9 -> 18        -0.33089
       9 -> 20        -0.10166
      10 -> 20         0.46624
      12 -> 28        -0.34667

 Excited State  38:      Singlet-A"    12.5187 eV   99.04 nm  f=0.0012  <S**2>=0.000
       9 -> 18         0.52351
      10 -> 20         0.13602
      12 -> 26        -0.16090
      12 -> 28        -0.33846

 Excited State  39:      Singlet-A'    12.6703 eV   97.85 nm  f=0.1044  <S**2>=0.000
      10 -> 19         0.32195
      11 -> 20         0.34157
      12 -> 22         0.11045
      12 -> 27         0.11580
      12 -> 29         0.34631
      12 -> 30        -0.22120

 Excited State  40:      Singlet-A"    12.6900 eV   97.70 nm  f=0.0115  <S**2>=0.000
       9 -> 20         0.12813
      10 -> 20         0.10608
      11 -> 19        -0.16400
      11 -> 21         0.62132
      12 -> 28         0.14718

 Excited State  41:      Singlet-A'    12.7889 eV   96.95 nm  f=0.0220  <S**2>=0.000
       9 -> 17        -0.20788
      10 -> 21        -0.18599
      11 -> 22         0.13543
      12 -> 29         0.26563
      12 -> 30         0.53686

 Excited State  42:      Singlet-A'    12.8493 eV   96.49 nm  f=0.0242  <S**2>=0.000
       8 -> 13         0.31690
       8 -> 15         0.10144
       9 -> 17         0.41802
      10 -> 21         0.23470
      11 -> 22         0.18380
      12 -> 29         0.19692
      12 -> 30         0.19259

 Excited State  43:      Singlet-A'    12.9707 eV   95.59 nm  f=0.0037  <S**2>=0.000
       8 -> 13         0.22479
       9 -> 17        -0.11662
      10 -> 19         0.10422
      10 -> 21        -0.24360
      11 -> 22         0.52197
      11 -> 24        -0.10606
      12 -> 29        -0.14359
      12 -> 30        -0.18025

 Excited State  44:      Singlet-A'    13.0309 eV   95.15 nm  f=0.0267  <S**2>=0.000
       8 -> 13         0.51186
       8 -> 15         0.13389
       9 -> 17        -0.16772
      10 -> 21        -0.16477
      11 -> 22        -0.34603

 Excited State  45:      Singlet-A"    13.1951 eV   93.96 nm  f=0.0273  <S**2>=0.000
      10 -> 22         0.68647

 Excited State  46:      Singlet-A"    13.2323 eV   93.70 nm  f=0.0100  <S**2>=0.000
       8 -> 14        -0.19085
       9 -> 18        -0.17066
       9 -> 20         0.57524
      11 -> 21        -0.11194
      11 -> 23        -0.10070
      12 -> 32         0.16544

 Excited State  47:      Singlet-A'    13.2761 eV   93.39 nm  f=0.0090  <S**2>=0.000
       8 -> 13         0.12201
       8 -> 15        -0.15238
       9 -> 17        -0.37346
      10 -> 21         0.44400
      11 -> 20        -0.12260
      12 -> 33        -0.11823

 Excited State  48:      Singlet-A"    13.3496 eV   92.88 nm  f=0.0290  <S**2>=0.000
       8 -> 14        -0.12597
      11 -> 23         0.66382

 Excited State  49:      Singlet-A'    13.4265 eV   92.34 nm  f=0.0943  <S**2>=0.000
       8 -> 13        -0.16086
       8 -> 15         0.50403
       9 -> 21        -0.21413
      11 -> 24        -0.26165
      11 -> 25         0.12910
      12 -> 31         0.10969

 Excited State  50:      Singlet-A'    13.5602 eV   91.43 nm  f=0.0145  <S**2>=0.000
       8 -> 15        -0.23726
       9 -> 17         0.14305
      11 -> 24        -0.11307
      11 -> 25         0.10464
      12 -> 31         0.57404

 Excited State  51:      Singlet-A'    13.6289 eV   90.97 nm  f=0.0021  <S**2>=0.000
       8 -> 15         0.18719
       9 -> 21        -0.19107
      10 -> 23        -0.17750
      11 -> 24         0.54077
      12 -> 31         0.19545
      12 -> 33        -0.10730

 Excited State  52:      Singlet-A"    13.6843 eV   90.60 nm  f=0.0212  <S**2>=0.000
       8 -> 14         0.49912
      12 -> 32         0.45104

 Excited State  53:      Singlet-A'    13.7135 eV   90.41 nm  f=0.0001  <S**2>=0.000
      10 -> 23         0.63088
      11 -> 24         0.10656
      12 -> 31         0.13975
      12 -> 33        -0.19521

 Excited State  54:      Singlet-A"    13.7459 eV   90.20 nm  f=0.0457  <S**2>=0.000
       8 -> 14        -0.36291
       9 -> 20        -0.29066
      12 -> 32         0.45719

 Excited State  55:      Singlet-A'    13.8340 eV   89.62 nm  f=0.0695  <S**2>=0.000
       8 -> 15         0.21120
       9 -> 19        -0.14014
       9 -> 21         0.41759
      10 -> 23        -0.14003
      11 -> 25        -0.17290
      12 -> 31         0.15764
      12 -> 33        -0.36445

 Excited State  56:      Singlet-A"    13.9070 eV   89.15 nm  f=0.0073  <S**2>=0.000
      10 -> 24         0.64851
      10 -> 25        -0.18200

 Excited State  57:      Singlet-A'    13.9404 eV   88.94 nm  f=0.1987  <S**2>=0.000
       8 -> 16         0.17236
       9 -> 21         0.21956
      11 -> 25        -0.31071
      12 -> 33         0.46745

 Excited State  58:      Singlet-A'    13.9697 eV   88.75 nm  f=0.0092  <S**2>=0.000
       8 -> 16         0.10063
       9 -> 19        -0.11985
       9 -> 21         0.28808
      11 -> 24         0.17691
      11 -> 25         0.51640
      11 -> 29        -0.14795
      12 -> 33         0.15075

 Excited State  59:      Singlet-A"    14.0298 eV   88.37 nm  f=0.0112  <S**2>=0.000
       8 -> 14        -0.11052
       9 -> 22         0.54371
       9 -> 24        -0.14036
      10 -> 25         0.31421
      11 -> 26        -0.12530
      12 -> 32         0.10720

 Excited State  60:      Singlet-A'    14.2615 eV   86.94 nm  f=0.2520  <S**2>=0.000
       7 -> 13        -0.23139
       8 -> 16         0.56884
       9 -> 21        -0.16308
      10 -> 26         0.11648

 Excited State  61:      Singlet-A"    14.2837 eV   86.80 nm  f=0.1340  <S**2>=0.000
       8 -> 19        -0.15340
       9 -> 22        -0.31486
      10 -> 24         0.17690
      10 -> 25         0.49171
      10 -> 29        -0.13801
      11 -> 28        -0.14491

 Excited State  62:      Singlet-A"    14.3940 eV   86.14 nm  f=0.0001  <S**2>=0.000
       8 -> 19         0.10801
      10 -> 27        -0.18825
      11 -> 26         0.62307

 Excited State  63:      Singlet-A'    14.4129 eV   86.02 nm  f=0.0370  <S**2>=0.000
       7 -> 13         0.54063
       7 -> 15         0.13818
       8 -> 16         0.14451
       9 -> 23        -0.17951
      10 -> 26         0.13735
      11 -> 27         0.20347
      11 -> 29        -0.13633

 Excited State  64:      Singlet-A'    14.4343 eV   85.90 nm  f=0.1852  <S**2>=0.000
       7 -> 13         0.13026
       8 -> 16         0.17381
       9 -> 23         0.58782
      10 -> 26        -0.14488
      10 -> 28         0.12563
      12 -> 35        -0.12970

 Excited State  65:      Singlet-A"    14.5462 eV   85.23 nm  f=0.0047  <S**2>=0.000
       8 -> 17         0.10962
       8 -> 19         0.36100
       8 -> 21         0.11916
       9 -> 22        -0.14916
       9 -> 24        -0.33794
       9 -> 25        -0.12024
      10 -> 27        -0.11112
      10 -> 29         0.10991
      11 -> 26        -0.17636
      11 -> 28         0.29030

 Excited State  66:      Singlet-A'    14.5528 eV   85.20 nm  f=0.1860  <S**2>=0.000
       7 -> 13        -0.19339
       8 -> 16        -0.11618
      10 -> 21         0.11237
      10 -> 28         0.12920
      11 -> 24        -0.10342
      11 -> 27         0.60113

 Excited State  67:      Singlet-A"    14.6495 eV   84.63 nm  f=0.0480  <S**2>=0.000
       8 -> 19        -0.13814
       9 -> 24        -0.40880
      10 -> 25        -0.11850
      10 -> 27         0.45879
      11 -> 26         0.12707

 Excited State  68:      Singlet-A'    14.6654 eV   84.54 nm  f=0.0518  <S**2>=0.000
       7 -> 15         0.15219
      10 -> 26         0.17102
      11 -> 25         0.17218
      11 -> 29         0.51876
      11 -> 30        -0.26821
      11 -> 31         0.10442

 Excited State  69:      Singlet-A"    14.7253 eV   84.20 nm  f=0.0794  <S**2>=0.000
       8 -> 19        -0.26732
       9 -> 24         0.15021
      10 -> 29         0.13982
      11 -> 28         0.54588

 Excited State  70:      Singlet-A'    14.7959 eV   83.80 nm  f=0.1507  <S**2>=0.000
       8 -> 16        -0.14419
       9 -> 23         0.17625
      10 -> 26         0.55585
      10 -> 28        -0.13556
      11 -> 30         0.13659
      12 -> 35        -0.18547
      12 -> 38        -0.10002

 Excited State  71:      Singlet-A"    14.8559 eV   83.46 nm  f=0.0036  <S**2>=0.000
       9 -> 25        -0.10827
      10 -> 25         0.17741
      10 -> 27         0.25405
      10 -> 29         0.53511
      10 -> 30        -0.17524
      11 -> 28        -0.16256

 Excited State  72:      Singlet-A"    14.9145 eV   83.13 nm  f=0.2727  <S**2>=0.000
       8 -> 19         0.33697
       8 -> 21         0.14769
       9 -> 24         0.30641
       9 -> 27        -0.11139
      10 -> 25         0.10809
      10 -> 27         0.34634
      10 -> 29        -0.11631
      11 -> 28         0.10568
      12 -> 36        -0.14205

 Excited State  73:      Singlet-A'    14.9225 eV   83.09 nm  f=0.0409  <S**2>=0.000
       9 -> 23         0.13835
      10 -> 26         0.15459
      10 -> 28        -0.10252
      11 -> 29        -0.23580
      11 -> 30        -0.35133
      12 -> 35         0.38103
      12 -> 38         0.28270

 Excited State  74:      Singlet-A'    14.9721 eV   82.81 nm  f=0.0604  <S**2>=0.000
       7 -> 13        -0.19264
       7 -> 15         0.59512
      10 -> 28         0.11109
      11 -> 29        -0.15939

 Excited State  75:      Singlet-A"    14.9873 eV   82.73 nm  f=0.0002  <S**2>=0.000
       7 -> 14        -0.13661
       9 -> 25         0.31764
      12 -> 34        -0.36126
      12 -> 36         0.38169
      12 -> 37         0.16723

 Excited State  76:      Singlet-A'    15.0988 eV   82.12 nm  f=0.0954  <S**2>=0.000
       7 -> 15         0.19431
       8 -> 18        -0.13133
       9 -> 23         0.12477
       9 -> 26         0.10833
      10 -> 28        -0.23089
      11 -> 29         0.18768
      11 -> 30         0.42810
      12 -> 35         0.28589
      12 -> 38         0.13578

 Excited State  77:      Singlet-A"    15.1034 eV   82.09 nm  f=0.1114  <S**2>=0.000
       7 -> 14         0.42118
       8 -> 19         0.10493
       9 -> 25         0.44226
       9 -> 29        -0.16697
      12 -> 36        -0.10655
      12 -> 37        -0.10284

 Excited State  78:      Singlet-A"    15.1273 eV   81.96 nm  f=0.0118  <S**2>=0.000
       7 -> 14         0.48610
       7 -> 19         0.11055
       8 -> 17        -0.10894
       9 -> 25        -0.27754
      10 -> 29        -0.17312
      12 -> 34        -0.17602
      12 -> 36         0.18987

 Excited State  79:      Singlet-A'    15.1909 eV   81.62 nm  f=0.1824  <S**2>=0.000
      10 -> 26         0.19953
      10 -> 28         0.54145
      11 -> 27        -0.13699
      11 -> 30         0.15700
      12 -> 35         0.20843

 Excited State  80:      Singlet-A'    15.3400 eV   80.82 nm  f=0.0687  <S**2>=0.000
       7 -> 16        -0.19566
       8 -> 18         0.60353
      10 -> 28        -0.10073
      12 -> 35         0.12766

 Excited State  81:      Singlet-A"    15.3573 eV   80.73 nm  f=0.0406  <S**2>=0.000
       9 -> 24         0.10076
      10 -> 29        -0.10711
      10 -> 30        -0.37191
      12 -> 34         0.43161
      12 -> 36         0.30422

 Excited State  82:      Singlet-A"    15.3700 eV   80.67 nm  f=0.0049  <S**2>=0.000
      10 -> 29         0.17315
      10 -> 30         0.50012
      12 -> 34         0.18110
      12 -> 36         0.34111
      12 -> 37        -0.17450

 Excited State  83:      Singlet-A'    15.4976 eV   80.00 nm  f=0.0858  <S**2>=0.000
       8 -> 18         0.13428
       8 -> 20         0.10045
       9 -> 26         0.52951
      12 -> 35        -0.15664
      12 -> 38         0.29925

 Excited State  84:      Singlet-A"    15.5484 eV   79.74 nm  f=0.0071  <S**2>=0.000
       9 -> 27         0.20681
      10 -> 30         0.17507
      12 -> 34         0.22612
      12 -> 37         0.57791

 Excited State  85:      Singlet-A'    15.5712 eV   79.62 nm  f=0.0372  <S**2>=0.000
       7 -> 16        -0.18542
       9 -> 26        -0.30419
       9 -> 28         0.12691
      12 -> 35        -0.30325
      12 -> 38         0.45295

 Excited State  86:      Singlet-A"    15.6511 eV   79.22 nm  f=0.0851  <S**2>=0.000
       7 -> 19        -0.10150
       8 -> 17         0.34494
       9 -> 27         0.47779
      11 -> 32         0.14659
      12 -> 34        -0.13479
      12 -> 37        -0.18708

 Excited State  87:      Singlet-A"    15.6778 eV   79.08 nm  f=0.0112  <S**2>=0.000
       8 -> 17         0.46783
       8 -> 19        -0.10126
       9 -> 27        -0.31217
       9 -> 29         0.13664
      11 -> 32         0.27067

 Excited State  88:      Singlet-A'    15.7038 eV   78.95 nm  f=0.0163  <S**2>=0.000
       7 -> 16        -0.35289
       9 -> 28         0.14818
      11 -> 31         0.52671
      11 -> 33         0.10263

 Excited State  89:      Singlet-A'    15.7449 eV   78.75 nm  f=0.0168  <S**2>=0.000
       7 -> 16         0.41876
       8 -> 18         0.14568
       9 -> 26        -0.19775
       9 -> 28        -0.19288
      11 -> 30         0.15338
      11 -> 31         0.36982
      12 -> 38         0.14916

 Excited State  90:      Singlet-A"    15.7798 eV   78.57 nm  f=0.0007  <S**2>=0.000
       8 -> 17        -0.17726
       9 -> 25         0.15841
       9 -> 27         0.18462
       9 -> 29         0.51715
       9 -> 30        -0.18290
      10 -> 31        -0.11427
      11 -> 32         0.20011

 Excited State  91:      Singlet-A'    15.8035 eV   78.45 nm  f=0.1707  <S**2>=0.000
       7 -> 16         0.26285
       8 -> 18         0.12018

 The electronic state is 1-A'.
 Alpha  occ. eigenvalues --  -14.43006 -10.31009 -10.30977  -1.06068  -0.75494
 Alpha  occ. eigenvalues --   -0.71172  -0.61227  -0.55884  -0.45889  -0.43138
 Alpha  occ. eigenvalues --   -0.42013  -0.33624
 Alpha virt. eigenvalues --    0.07385   0.08873   0.09813   0.12195   0.16462
 Alpha virt. eigenvalues --    0.16602   0.17470   0.19085   0.21471   0.21813
 Alpha virt. eigenvalues --    0.23000   0.24801   0.25658   0.27136   0.28148

 Mulliken charges:
               1
     1  C   -0.359474
     2  C   -0.359474
     3  N   -0.546754
     4  H    0.240062
     5  H    0.277725
     6  H    0.277725
     7  H    0.240062
     8  H    0.230129
 Sum of Mulliken charges =  -0.00000

 Dipole moment (field-independent basis, Debye):
    X=             -1.3127    Y=             -1.0719    Z=             -0.0000  Tot=              1.6947
 Quadrupole moment (field-independent basis, Debye-Ang):
   XX=            -17.6126   YY=            -21.2478   ZZ=            -18.5100
   XY=             -2.1888   XZ=              0.0000   YZ=             -0.0000

 Normal termination of Gaussian 16 at Sun Feb 27 06:41:00 2022.
