 Gaussian 16, Revision C.01,
 Gaussian 16:  EM64L-G16RevC.01  3-Jul-2019

 ---------------------------------------------------------------------
 #P TD(Nstates=10000) b3lyp/Gen SCF(maxcycles=100) Int(Grid=ultrafine)
 ---------------------------------------------------------------------

 ---------------------
 xGDB7_00001_tier4.com
 ---------------------
 Symbolic Z-matrix:
 Charge =  0 Multiplicity = 1

                         Standard orientation:
 ---------------------------------------------------------------------
 Center     Atomic      Atomic             Coordinates (Angstroms)
 Number     Number       Type             X           Y           Z
 ---------------------------------------------------------------------
      1          6           0       -1.122844   -0.452320    0.000000
      2          6           0        0.000000    0.553997    0.000000
      3          9           0        1.225284   -0.098236    0.000000
      4          1           0       -2.083314    0.066805    0.000000
      5          1           0       -1.072796   -1.085651    0.886148
      6          1           0       -1.072796   -1.085651   -0.886148
      7          1           0       -0.030794    1.189278    0.888716
      8          1           0       -0.030794    1.189278   -0.888716
 ---------------------------------------------------------------------

 SCF Done:  E(RB3LYP) =  -178.943030105     A.U. after   12 cycles

 Excitation energies and oscillator strengths:

 Excited State   1:      Singlet-A"     8.6846 eV  142.76 nm  f=0.0027  <S**2>=0.000
      13 -> 14         0.69940
 This state for optimization and/or second-order correction.
 Total Energy, E(TD-HF/TD-DFT) =  -178.623875449
 Copying the excited state density for this state as the 1-particle RhoCI density.

 Excited State   2:      Singlet-A'     8.9839 eV  138.01 nm  f=0.0130  <S**2>=0.000
      12 -> 14         0.69560

 Excited State   3:      Singlet-A"     9.5036 eV  130.46 nm  f=0.0285  <S**2>=0.000
      13 -> 15         0.65968
      13 -> 16         0.21451

 Excited State   4:      Singlet-A'     9.7383 eV  127.32 nm  f=0.0447  <S**2>=0.000
      12 -> 14        -0.10896
      12 -> 15         0.65818
      12 -> 16         0.21510

 Excited State   5:      Singlet-A"     9.9309 eV  124.85 nm  f=0.0371  <S**2>=0.000
      13 -> 15        -0.22492
      13 -> 16         0.66216

 Excited State   6:      Singlet-A'    10.1445 eV  122.22 nm  f=0.0227  <S**2>=0.000
      12 -> 15        -0.21546
      12 -> 16         0.63131
      13 -> 17        -0.20862

 Excited State   7:      Singlet-A'    10.2926 eV  120.46 nm  f=0.1309  <S**2>=0.000
      12 -> 16         0.18912
      13 -> 17         0.67093

 Excited State   8:      Singlet-A'    10.3721 eV  119.54 nm  f=0.0756  <S**2>=0.000
      11 -> 14         0.69981

 Excited State   9:      Singlet-A"    10.4109 eV  119.09 nm  f=0.0216  <S**2>=0.000
      10 -> 14         0.15109
      12 -> 17         0.68706

 Excited State  10:      Singlet-A"    10.4754 eV  118.36 nm  f=0.0339  <S**2>=0.000
      10 -> 14         0.68119
      12 -> 17        -0.14822

 Excited State  11:      Singlet-A"    10.8401 eV  114.38 nm  f=0.0037  <S**2>=0.000
      13 -> 18         0.69347

 Excited State  12:      Singlet-A'    11.0371 eV  112.33 nm  f=0.0405  <S**2>=0.000
      11 -> 15         0.13325
      12 -> 18         0.68202

 Excited State  13:      Singlet-A'    11.2620 eV  110.09 nm  f=0.0813  <S**2>=0.000
      11 -> 15         0.68459
      12 -> 18        -0.13369

 Excited State  14:      Singlet-A"    11.2868 eV  109.85 nm  f=0.0284  <S**2>=0.000
      10 -> 15         0.66004
      13 -> 20        -0.19701
      13 -> 21         0.10521

 Excited State  15:      Singlet-A"    11.3907 eV  108.85 nm  f=0.0548  <S**2>=0.000
      10 -> 15         0.19364
      13 -> 20         0.66811

 Excited State  16:      Singlet-A'    11.5026 eV  107.79 nm  f=0.0047  <S**2>=0.000
      12 -> 20         0.44656
      13 -> 19         0.52902

 Excited State  17:      Singlet-A"    11.5137 eV  107.68 nm  f=0.0021  <S**2>=0.000
      12 -> 19         0.70080

 Excited State  18:      Singlet-A'    11.5426 eV  107.41 nm  f=0.0059  <S**2>=0.000
      12 -> 20         0.53067
      13 -> 19        -0.44407

 Excited State  19:      Singlet-A"    11.7880 eV  105.18 nm  f=0.0000  <S**2>=0.000
      10 -> 16         0.60610
      11 -> 17         0.11929
      13 -> 21        -0.32288

 Excited State  20:      Singlet-A'    11.8546 eV  104.59 nm  f=0.0640  <S**2>=0.000
       9 -> 14        -0.22137
      10 -> 17        -0.14626
      11 -> 16         0.62929
      13 -> 22         0.10636

 Excited State  21:      Singlet-A"    11.8583 eV  104.55 nm  f=0.0343  <S**2>=0.000
      11 -> 17         0.65526
      13 -> 21         0.24100

 Excited State  22:      Singlet-A"    11.8873 eV  104.30 nm  f=0.0035  <S**2>=0.000
      10 -> 15        -0.12556
      10 -> 16         0.33473
      11 -> 17        -0.21911
      13 -> 21         0.56252

 Excited State  23:      Singlet-A'    11.9883 eV  103.42 nm  f=0.0125  <S**2>=0.000
       9 -> 14        -0.24661
      10 -> 17         0.58729
      11 -> 18        -0.14038
      12 -> 21         0.14738
      13 -> 22        -0.19039

 Excited State  24:      Singlet-A'    12.0779 eV  102.65 nm  f=0.0164  <S**2>=0.000
       9 -> 14         0.60104
      10 -> 17         0.16977
      11 -> 16         0.24417
      11 -> 18        -0.10355

 Excited State  25:      Singlet-A'    12.1599 eV  101.96 nm  f=0.0192  <S**2>=0.000
      10 -> 17        -0.16693
      11 -> 18         0.12342
      12 -> 21         0.66200

 Excited State  26:      Singlet-A'    12.3349 eV  100.52 nm  f=0.0104  <S**2>=0.000
      10 -> 17         0.21219
      11 -> 18         0.10097
      13 -> 22         0.65066

 Excited State  27:      Singlet-A"    12.4230 eV   99.80 nm  f=0.0004  <S**2>=0.000
      10 -> 18         0.25313
      12 -> 22         0.64918

 Excited State  28:      Singlet-A"    12.4831 eV   99.32 nm  f=0.0104  <S**2>=0.000
      10 -> 18         0.60622
      10 -> 20         0.10019
      11 -> 19         0.11448
      12 -> 22        -0.25925
      13 -> 23        -0.15834

 Excited State  29:      Singlet-A'    12.6236 eV   98.22 nm  f=0.2058  <S**2>=0.000
      10 -> 17         0.13038
      11 -> 18         0.59947
      12 -> 23         0.22368
      13 -> 22        -0.11388

 Excited State  30:      Singlet-A"    12.6252 eV   98.20 nm  f=0.0033  <S**2>=0.000
      10 -> 18         0.16713
      10 -> 20        -0.17357
      11 -> 19         0.11491
      13 -> 23         0.64264

 Excited State  31:      Singlet-A'    12.8000 eV   96.86 nm  f=0.0104  <S**2>=0.000
       9 -> 15         0.53070
       9 -> 16         0.12255
      10 -> 19        -0.11234
      12 -> 23        -0.33087
      13 -> 24         0.23806

 Excited State  32:      Singlet-A'    12.8965 eV   96.14 nm  f=0.0023  <S**2>=0.000
       9 -> 15         0.31039
      10 -> 19        -0.21855
      11 -> 18        -0.16015
      12 -> 23         0.53736

 Excited State  33:      Singlet-A"    12.9251 eV   95.93 nm  f=0.0094  <S**2>=0.000
      10 -> 20        -0.26744
      11 -> 19         0.59525
      13 -> 23        -0.13989
      13 -> 25         0.16286

 Excited State  34:      Singlet-A'    13.0519 eV   94.99 nm  f=0.0336  <S**2>=0.000
       9 -> 15         0.18573
      10 -> 19         0.34507
      11 -> 20         0.50975
      12 -> 25         0.10037
      13 -> 24        -0.21389

 Excited State  35:      Singlet-A"    13.0631 eV   94.91 nm  f=0.0115  <S**2>=0.000
      12 -> 24         0.57548
      13 -> 25        -0.35571

 Excited State  36:      Singlet-A"    13.1051 eV   94.61 nm  f=0.0093  <S**2>=0.000
      10 -> 20         0.58698
      11 -> 19         0.24575
      12 -> 24         0.17751
      13 -> 23         0.13245
      13 -> 25         0.12165

 Excited State  37:      Singlet-A'    13.1331 eV   94.41 nm  f=0.1856  <S**2>=0.000
       7 -> 14         0.14502
       9 -> 15        -0.23962
       9 -> 16         0.34986
      11 -> 20         0.29027
      12 -> 23         0.12264
      13 -> 24         0.42720

 Excited State  38:      Singlet-A"    13.1948 eV   93.96 nm  f=0.0561  <S**2>=0.000
       8 -> 14         0.65504
      12 -> 24        -0.10209
      13 -> 25        -0.21349

 Excited State  39:      Singlet-A'    13.2417 eV   93.63 nm  f=0.0174  <S**2>=0.000
       7 -> 14         0.18308
       9 -> 16        -0.31007
      10 -> 19         0.35188
      11 -> 20        -0.22302
      11 -> 21         0.14701
      12 -> 23         0.11130
      12 -> 25         0.11708
      13 -> 24         0.35427

 Excited State  40:      Singlet-A'    13.2986 eV   93.23 nm  f=0.0760  <S**2>=0.000
       7 -> 14         0.60409
       9 -> 16         0.11399
      11 -> 20        -0.13619
      11 -> 21        -0.13884
      12 -> 25         0.14646
      13 -> 24        -0.21106

 Excited State  41:      Singlet-A"    13.3722 eV   92.72 nm  f=0.1337  <S**2>=0.000
       8 -> 14         0.18591
       9 -> 17        -0.26651
      10 -> 20        -0.10697
      11 -> 19        -0.18255
      11 -> 22         0.13005
      12 -> 24         0.32515
      13 -> 25         0.43762

 Excited State  42:      Singlet-A'    13.3893 eV   92.60 nm  f=0.0522  <S**2>=0.000
       7 -> 14        -0.19466
       9 -> 16         0.37867
      10 -> 19         0.33942
      11 -> 20        -0.23905
      11 -> 21        -0.24352
      12 -> 25         0.17258

 Excited State  43:      Singlet-A"    13.4985 eV   91.85 nm  f=0.0672  <S**2>=0.000
       9 -> 17         0.64142
      13 -> 25         0.21429

 Excited State  44:      Singlet-A'    13.5498 eV   91.50 nm  f=0.0578  <S**2>=0.000
       9 -> 16         0.19869
      10 -> 22        -0.14590
      11 -> 21         0.56139
      12 -> 25         0.26494
      13 -> 24        -0.11876

 Excited State  45:      Singlet-A"    13.5905 eV   91.23 nm  f=0.0008  <S**2>=0.000
       8 -> 15        -0.11704
      10 -> 21         0.66491
      13 -> 25         0.13059

 Excited State  46:      Singlet-A'    13.6833 eV   90.61 nm  f=0.0380  <S**2>=0.000
       7 -> 14        -0.11308
       9 -> 16        -0.15057
      10 -> 19        -0.21805
      10 -> 22         0.10697
      11 -> 21        -0.15868
      11 -> 23        -0.14097
      12 -> 25         0.54864
      13 -> 27        -0.11320

 Excited State  47:      Singlet-A"    13.8327 eV   89.63 nm  f=0.0468  <S**2>=0.000
      11 -> 22         0.66741

 Excited State  48:      Singlet-A"    13.9934 eV   88.60 nm  f=0.0001  <S**2>=0.000
       8 -> 15         0.64367
       8 -> 16         0.14875
      10 -> 21         0.13644
      13 -> 26         0.12228

 Excited State  49:      Singlet-A'    14.0214 eV   88.42 nm  f=0.0062  <S**2>=0.000
       7 -> 15        -0.15466
       9 -> 18         0.58139
      10 -> 22         0.31563

 Excited State  50:      Singlet-A"    14.0918 eV   87.98 nm  f=0.0393  <S**2>=0.000
       8 -> 15        -0.14203
      13 -> 26         0.64433
      13 -> 28        -0.13706

 Excited State  51:      Singlet-A'    14.1235 eV   87.79 nm  f=0.0776  <S**2>=0.000
       7 -> 15         0.60260
       9 -> 18         0.21396
      10 -> 22        -0.12257
      12 -> 26        -0.18589

 Excited State  52:      Singlet-A'    14.2045 eV   87.29 nm  f=0.0299  <S**2>=0.000
       7 -> 15         0.26842
       9 -> 18        -0.12981
       9 -> 20         0.10070
      10 -> 22         0.44799
      12 -> 26         0.38128

 Excited State  53:      Singlet-A'    14.3832 eV   86.20 nm  f=0.0181  <S**2>=0.000
       7 -> 16        -0.10524
       8 -> 17         0.16840
       9 -> 18         0.12112
      11 -> 23        -0.20907
      12 -> 26         0.31215
      13 -> 27         0.52038

 Excited State  54:      Singlet-A'    14.3984 eV   86.11 nm  f=0.0039  <S**2>=0.000
       7 -> 16         0.22441
       8 -> 17        -0.15733
       9 -> 18        -0.17334
       9 -> 20        -0.15658
      10 -> 22         0.26796
      12 -> 26        -0.35366
      13 -> 27         0.38977

 Excited State  55:      Singlet-A"    14.4472 eV   85.82 nm  f=0.0008  <S**2>=0.000
       8 -> 15        -0.10960
       8 -> 16         0.46832
      10 -> 23         0.48667
      11 -> 24        -0.11452

 Excited State  56:      Singlet-A"    14.4788 eV   85.63 nm  f=0.0005  <S**2>=0.000
       8 -> 15        -0.13209
       8 -> 16         0.45357
      10 -> 23        -0.44598
      11 -> 24         0.10258
      12 -> 27         0.14970
      13 -> 26         0.10965

 Excited State  57:      Singlet-A'    14.5315 eV   85.32 nm  f=0.1029  <S**2>=0.000
       7 -> 16         0.51116
       9 -> 20        -0.28561
      10 -> 22        -0.11503
      11 -> 23        -0.20215
      12 -> 26         0.16122
      13 -> 27        -0.14621

 Excited State  58:      Singlet-A"    14.5487 eV   85.22 nm  f=0.0001  <S**2>=0.000
       7 -> 17         0.11820
       9 -> 19        -0.24408
      11 -> 24        -0.12284
      12 -> 27         0.62262

 Excited State  59:      Singlet-A"    14.5862 eV   85.00 nm  f=0.0006  <S**2>=0.000
       9 -> 19         0.65251
      11 -> 24        -0.10567
      12 -> 27         0.22647

 Excited State  60:      Singlet-A'    14.6111 eV   84.86 nm  f=0.0062  <S**2>=0.000
       7 -> 16         0.20288
       9 -> 20         0.51425
      11 -> 23        -0.36716
      12 -> 26        -0.12267

 Excited State  61:      Singlet-A"    14.6818 eV   84.45 nm  f=0.0122  <S**2>=0.000
       7 -> 17         0.62995
      11 -> 24         0.24436

 Excited State  62:      Singlet-A"    14.7067 eV   84.30 nm  f=0.0176  <S**2>=0.000
       7 -> 17        -0.22704
      10 -> 23         0.12836
      10 -> 25        -0.26031
      11 -> 24         0.54451
      12 -> 27         0.12829
      13 -> 28        -0.12623

 Excited State  63:      Singlet-A'    14.8498 eV   83.49 nm  f=0.1783  <S**2>=0.000
       7 -> 16        -0.19535
      10 -> 24         0.49736
      11 -> 23        -0.32476
      11 -> 25        -0.11385
      13 -> 27        -0.11898

 Excited State  64:      Singlet-A'    14.8695 eV   83.38 nm  f=0.0746  <S**2>=0.000
       7 -> 16        -0.15891
       8 -> 17        -0.35512
       9 -> 20        -0.10097
      10 -> 24        -0.12576
      11 -> 23        -0.19201
      11 -> 25         0.48561

 Excited State  65:      Singlet-A'    14.8929 eV   83.25 nm  f=0.0201  <S**2>=0.000
       7 -> 18         0.12678
       8 -> 17         0.42335
       9 -> 20        -0.13829
       9 -> 21        -0.29181
      11 -> 25         0.37761

 Excited State  66:      Singlet-A"    14.9509 eV   82.93 nm  f=0.0058  <S**2>=0.000
       7 -> 17        -0.11974
      13 -> 26         0.13671
      13 -> 28         0.65060

 Excited State  67:      Singlet-A'    15.0067 eV   82.62 nm  f=0.0585  <S**2>=0.000
       7 -> 16         0.18124
       7 -> 18         0.11907
       9 -> 20         0.17910
       9 -> 21         0.28248
      10 -> 24         0.36182
      11 -> 23         0.27908
      11 -> 25         0.28809

 Excited State  68:      Singlet-A"    15.1003 eV   82.11 nm  f=0.0566  <S**2>=0.000
       8 -> 18         0.22641
      10 -> 23         0.10695
      10 -> 25         0.60275
      11 -> 24         0.19661

 Excited State  69:      Singlet-A'    15.1404 eV   81.89 nm  f=0.0098  <S**2>=0.000
       9 -> 21         0.10089
      12 -> 26         0.13752
      12 -> 28         0.66041

 Excited State  70:      Singlet-A"    15.3429 eV   80.81 nm  f=0.1020  <S**2>=0.000
       8 -> 18         0.63812
      10 -> 25        -0.14761
      11 -> 24        -0.12293

 Excited State  71:      Singlet-A'    15.3984 eV   80.52 nm  f=0.0370  <S**2>=0.000
       7 -> 18         0.40561
       8 -> 17         0.12346
       9 -> 20        -0.10166
       9 -> 21         0.41922
      10 -> 24        -0.19250
      12 -> 29        -0.20758

 Excited State  72:      Singlet-A"    15.5117 eV   79.93 nm  f=0.0095  <S**2>=0.000
       9 -> 22         0.69385

 Excited State  73:      Singlet-A'    15.6067 eV   79.44 nm  f=0.0120  <S**2>=0.000
       7 -> 18         0.44933
       7 -> 20        -0.15850
       8 -> 17        -0.23954
       8 -> 19         0.15020
       9 -> 21        -0.30189
       9 -> 23         0.12761
      11 -> 26        -0.12284

 Excited State  74:      Singlet-A"    15.6200 eV   79.38 nm  f=0.1112  <S**2>=0.000
      13 -> 29         0.67543

 Excited State  75:      Singlet-A'    15.8126 eV   78.41 nm  f=0.0100  <S**2>=0.000
       7 -> 18        -0.18517
       8 -> 19         0.47056
      11 -> 26        -0.37367
      12 -> 29        -0.23115
      13 -> 30        -0.14767

 Excited State  76:      Singlet-A"    15.8162 eV   78.39 nm  f=0.0003  <S**2>=0.000
       7 -> 19         0.42646
       8 -> 20         0.39739
      10 -> 26        -0.34299
      11 -> 27        -0.11977

 Excited State  77:      Singlet-A'    15.9021 eV   77.97 nm  f=0.0570  <S**2>=0.000
       7 -> 20         0.45187
       8 -> 19         0.22274
       9 -> 21        -0.10862
       9 -> 23        -0.27377
      11 -> 26         0.27760
      12 -> 29        -0.20932

 Excited State  78:      Singlet-A"    15.9037 eV   77.96 nm  f=0.0847  <S**2>=0.000
       7 -> 19         0.51243
       8 -> 20        -0.21358
       8 -> 21         0.10156
       9 -> 24         0.17563
      10 -> 26         0.35401

 Excited State  79:      Singlet-A"    15.9440 eV   77.76 nm  f=0.0076  <S**2>=0.000
       8 -> 20         0.45390
       9 -> 24        -0.11370
      10 -> 26         0.42643
      11 -> 27         0.25451

 Excited State  80:      Singlet-A'    15.9649 eV   77.66 nm  f=0.0712  <S**2>=0.000
       7 -> 20         0.21947
       9 -> 23         0.34473
      11 -> 26        -0.13888
      12 -> 29        -0.11470
      13 -> 30         0.51112

 Excited State  81:      Singlet-A"    16.0120 eV   77.43 nm  f=0.0035  <S**2>=0.000
       7 -> 19         0.15061
       8 -> 20        -0.14616
      10 -> 26        -0.21016
      11 -> 27         0.62513

 Excited State  82:      Singlet-A'    16.0369 eV   77.31 nm  f=0.0351  <S**2>=0.000
       7 -> 20        -0.13651
       8 -> 19         0.41100
       9 -> 23         0.17232
      10 -> 27        -0.12570
      11 -> 26         0.28977
      12 -> 29         0.33464
      13 -> 30         0.19171

 Excited State  83:      Singlet-A'    16.0958 eV   77.03 nm  f=0.0499  <S**2>=0.000
       7 -> 18        -0.10811
       7 -> 20        -0.18057
       9 -> 23         0.14153
      10 -> 24         0.10819
      10 -> 27         0.50287
      11 -> 26         0.29864
      12 -> 29        -0.20486

 Excited State  84:      Singlet-A'    16.1304 eV   76.86 nm  f=0.1461  <S**2>=0.000
       6 -> 14        -0.12412
       7 -> 20         0.14880
       9 -> 23         0.41141
       9 -> 25         0.20251
      10 -> 27        -0.25590
      11 -> 26         0.16906
      12 -> 29        -0.11665
      13 -> 30        -0.33643

 Excited State  85:      Singlet-A'    16.1728 eV   76.66 nm  f=0.2321  <S**2>=0.000
       7 -> 18         0.11241
       7 -> 20         0.30412
       8 -> 22         0.10746
       9 -> 23         0.14508
       9 -> 25        -0.10581
      10 -> 27         0.34178
      11 -> 26        -0.13043
      12 -> 29         0.32300
      12 -> 31        -0.13962
      13 -> 30        -0.17687

 Excited State  86:      Singlet-A"    16.1889 eV   76.59 nm  f=0.0217  <S**2>=0.000
       8 -> 20        -0.13973
       8 -> 21         0.16376
       9 -> 24        -0.31841
      12 -> 30         0.57265
      13 -> 31         0.10549

 Excited State  87:      Singlet-A"    16.2436 eV   76.33 nm  f=0.0216  <S**2>=0.000
       8 -> 21        -0.34610
       9 -> 24         0.33299
      12 -> 30         0.23032
      13 -> 31         0.43568

 Excited State  88:      Singlet-A"    16.2736 eV   76.19 nm  f=0.0031  <S**2>=0.000
       9 -> 24        -0.40727
      12 -> 30        -0.31445
      13 -> 31         0.46022

 Excited State  89:      Singlet-A'    16.4117 eV   75.55 nm  f=0.0002  <S**2>=0.000
       7 -> 21         0.67689

 Excited State  90:      Singlet-A"    16.4397 eV   75.42 nm  f=0.1357  <S**2>=0.000
       8 -> 21         0.56497
       9 -> 24         0.22176
      10 -> 26        -0.13506
      13 -> 31         0.24192

 Excited State  91:      Singlet-A'    16.5235 eV   75.04 nm  f=0.1273  <S**2>=0.000
      11 -> 28        -0.13449
      12 -> 31         0.64529

 Excited State  92:      Singlet-A'    16.5839 eV   74.76 nm  f=0.1473  <S**2>=0.000
       6 -> 14         0.42495
       9 -> 25         0.51438
      10 -> 27         0.11770
      11 -> 28         0.11889

 Excited State  93:      Singlet-A'    16.7447 eV   74.04 nm  f=0.0296  <S**2>=0.000
       6 -> 14        -0.14349
       8 -> 22         0.38623
      11 -> 28         0.55060

 Excited State  94:      Singlet-A'    16.7608 eV   73.97 nm  f=0.0712  <S**2>=0.000
       6 -> 14        -0.25341
       7 -> 23        -0.16854
       8 -> 22         0.44748
       9 -> 25         0.23104
      11 -> 28        -0.32481

 Excited State  95:      Singlet-A"    16.7779 eV   73.90 nm  f=0.0279  <S**2>=0.000
       7 -> 22        -0.12708
      10 -> 28         0.66316
      13 -> 33        -0.11935

 Excited State  96:      Singlet-A"    16.7858 eV   73.86 nm  f=0.0040  <S**2>=0.000
       7 -> 22         0.68523
      10 -> 28         0.12434

 Excited State  97:      Singlet-A'    16.9523 eV   73.14 nm  f=0.0272  <S**2>=0.000
       6 -> 14         0.42398
       8 -> 22         0.33170
       9 -> 23         0.10751
       9 -> 25        -0.25887
      10 -> 27        -0.10882
      11 -> 28        -0.13112
      12 -> 29        -0.14428
      12 -> 39         0.12574

 Excited State  98:      Singlet-A"    17.1329 eV   72.37 nm  f=0.0004  <S**2>=0.000
       8 -> 23         0.36041
      10 -> 29         0.13136
      13 -> 32        -0.14250
      13 -> 33         0.55862

 Excited State  99:      Singlet-A"    17.1368 eV   72.35 nm  f=0.0029  <S**2>=0.000
       8 -> 23         0.51295
       8 -> 25        -0.10263
      10 -> 28        -0.10506
      13 -> 32        -0.20757
      13 -> 33        -0.37901

 Excited State 100:      Singlet-A"    17.1882 eV   72.13 nm  f=0.0033  <S**2>=0.000
       8 -> 23         0.26579
      13 -> 32         0.63759

 The electronic state is 1-A'.
 Alpha  occ. eigenvalues --  -24.67941 -10.26497 -10.19089  -1.17580  -0.76429
 Alpha  occ. eigenvalues --   -0.63066  -0.50546  -0.50414  -0.46069  -0.40474
 Alpha  occ. eigenvalues --   -0.40140  -0.34819  -0.34005
 Alpha virt. eigenvalues --    0.01830   0.04779   0.07133   0.07530   0.09773
 Alpha virt. eigenvalues --    0.11740   0.11820   0.13607   0.14736   0.16764
 Alpha virt. eigenvalues --    0.17703   0.18817   0.21907   0.22696   0.25838

 Mulliken charges:
               1
     1  C    0.431784
     2  C    0.665312
     3  F   -0.469596
     4  H   -0.071981
     5  H   -0.073107
     6  H   -0.073107
     7  H   -0.204652
     8  H   -0.204652
 Sum of Mulliken charges =   0.00000

 Dipole moment (field-independent basis, Debye):
    X=             -1.8524    Y=              0.7317    Z=              0.0000  Tot=              1.9917
 Quadrupole moment (field-independent basis, Debye-Ang):
   XX=            -21.1839   YY=            -18.4578   ZZ=            -18.4470
   XY=              0.3088   XZ=             -0.0000   YZ=              0.0000

 Normal termination of Gaussian 16 at Mon Mar 21 20:00:54 2022.
