 Gaussian 16, Revision C.01,
 Gaussian 16:  EM64L-G16RevC.01  3-Jul-2019

 ---------------------------------------------------------------------
 #P TD(Nstates=10000) b3lyp/Gen SCF(maxcycles=100) Int(Grid=ultrafine)
 ---------------------------------------------------------------------

 ---------------------
 xGDB7_00001_tier4.com
 ---------------------
 Symbolic Z-matrix:
 Charge =  0 Multiplicity = 1

                         Standard orientation:
 ---------------------------------------------------------------------
 Center     Atomic      Atomic             Coordinates (Angstroms)
 Number     Number       Type             X           Y           Z
 ---------------------------------------------------------------------
      1          6           0        0.000000    0.000000   -0.524273
      2          8           0        0.000000    0.000000    0.670793
      3          1           0        0.000000    0.939221   -1.110351
      4          1           0       -0.000000   -0.939221   -1.110351
 ---------------------------------------------------------------------

 SCF Done:  E(RB3LYP) =  -114.426541520     A.U. after   11 cycles

 Excitation energies and oscillator strengths:

 Excited State   1:      Singlet-A2     4.0161 eV  308.72 nm  f=0.0000  <S**2>=0.000
       8 ->  9         0.70633
 This state for optimization and/or second-order correction.
 Total Energy, E(TD-HF/TD-DFT) =  -114.278951448
 Copying the excited state density for this state as the 1-particle RhoCI density.

 Excited State   2:      Singlet-B2     7.1441 eV  173.55 nm  f=0.0330  <S**2>=0.000
       8 -> 10         0.70548

 Excited State   3:      Singlet-B2     8.6828 eV  142.79 nm  f=0.0492  <S**2>=0.000
       8 -> 12         0.70053

 Excited State   4:      Singlet-A1     8.7299 eV  142.02 nm  f=0.0938  <S**2>=0.000
       8 -> 11         0.70519

 Excited State   5:      Singlet-B1     9.1347 eV  135.73 nm  f=0.0004  <S**2>=0.000
       6 ->  9         0.70445

 Excited State   6:      Singlet-A2     9.3802 eV  132.18 nm  f=0.0000  <S**2>=0.000
       8 -> 13         0.70614

 Excited State   7:      Singlet-A1     9.6127 eV  128.98 nm  f=0.1006  <S**2>=0.000
       7 ->  9         0.62675
       8 -> 16        -0.30346

 Excited State   8:      Singlet-B2     9.9789 eV  124.25 nm  f=0.0399  <S**2>=0.000
       8 -> 14         0.69500

 Excited State   9:      Singlet-A2    10.1906 eV  121.67 nm  f=0.0000  <S**2>=0.000
       5 ->  9         0.70493

 Excited State  10:      Singlet-B2    10.6710 eV  116.19 nm  f=0.0226  <S**2>=0.000
       8 -> 15         0.69919

 Excited State  11:      Singlet-B1    10.8161 eV  114.63 nm  f=0.0360  <S**2>=0.000
       7 -> 10         0.70520

 Excited State  12:      Singlet-A1    11.4755 eV  108.04 nm  f=0.1869  <S**2>=0.000
       6 -> 10        -0.20456
       7 ->  9         0.26948
       8 -> 16         0.60069

 Excited State  13:      Singlet-B1    11.6547 eV  106.38 nm  f=0.0151  <S**2>=0.000
       8 -> 17         0.70269

 Excited State  14:      Singlet-A1    12.3189 eV  100.65 nm  f=0.0682  <S**2>=0.000
       6 -> 10         0.66610
       7 -> 13        -0.13411
       8 -> 16         0.15792

 Excited State  15:      Singlet-A2    12.3251 eV  100.59 nm  f=0.0000  <S**2>=0.000
       7 -> 11         0.70270

 Excited State  16:      Singlet-B1    12.4347 eV   99.71 nm  f=0.0648  <S**2>=0.000
       7 -> 12         0.69919

 Excited State  17:      Singlet-A2    12.5123 eV   99.09 nm  f=0.0000  <S**2>=0.000
       8 -> 18         0.70169

 Excited State  18:      Singlet-B2    13.2731 eV   93.41 nm  f=0.1342  <S**2>=0.000
       5 -> 10         0.70468

 Excited State  19:      Singlet-A1    13.2866 eV   93.31 nm  f=0.0001  <S**2>=0.000
       5 -> 11         0.11978
       7 -> 13         0.66964

 Excited State  20:      Singlet-B1    13.5831 eV   91.28 nm  f=0.0069  <S**2>=0.000
       4 ->  9        -0.10462
       7 -> 14         0.69376

 Excited State  21:      Singlet-A1    13.6624 eV   90.75 nm  f=0.1691  <S**2>=0.000
       6 -> 12         0.69820

 Excited State  22:      Singlet-B2    13.6667 eV   90.72 nm  f=0.0563  <S**2>=0.000
       6 -> 11         0.70449

 Excited State  23:      Singlet-B1    14.1232 eV   87.79 nm  f=0.0092  <S**2>=0.000
       4 ->  9         0.31667
       7 -> 14         0.10981
       7 -> 15         0.61997

 Excited State  24:      Singlet-B2    14.3018 eV   86.69 nm  f=0.0043  <S**2>=0.000
       8 -> 19         0.69864

 Excited State  25:      Singlet-A2    14.3049 eV   86.67 nm  f=0.0000  <S**2>=0.000
       7 -> 16         0.70516

 Excited State  26:      Singlet-B1    14.3205 eV   86.58 nm  f=0.0134  <S**2>=0.000
       4 ->  9        -0.11576
       6 -> 13         0.69329

 Excited State  27:      Singlet-A1    14.5666 eV   85.12 nm  f=0.2095  <S**2>=0.000
       6 -> 14         0.11439
       8 -> 20         0.68267

 Excited State  28:      Singlet-B2    14.9009 eV   83.21 nm  f=0.0141  <S**2>=0.000
       5 -> 12         0.68923

 Excited State  29:      Singlet-A1    14.9744 eV   82.80 nm  f=0.0218  <S**2>=0.000
       5 -> 11         0.16602
       6 -> 14         0.66502
       8 -> 20        -0.11227

 Excited State  30:      Singlet-B2    15.1135 eV   82.04 nm  f=0.0367  <S**2>=0.000
       5 -> 12         0.11450
       7 -> 17         0.20053
       8 -> 21         0.65731

 Excited State  31:      Singlet-B1    15.1289 eV   81.95 nm  f=0.2488  <S**2>=0.000
       4 ->  9         0.58316
       5 -> 17        -0.13052
       6 -> 13         0.13317
       7 -> 15        -0.31494
       8 -> 24        -0.10543

 Excited State  32:      Singlet-A1    15.2146 eV   81.49 nm  f=0.0005  <S**2>=0.000
       4 -> 10         0.10395
       5 -> 11         0.61367
       6 -> 14        -0.16602
       6 -> 15         0.24071

 Excited State  33:      Singlet-B2    15.3895 eV   80.56 nm  f=0.0693  <S**2>=0.000
       5 -> 14         0.17128
       6 -> 16         0.13680
       7 -> 17         0.63679
       8 -> 21        -0.17769

 Excited State  34:      Singlet-A2    15.5927 eV   79.51 nm  f=0.0000  <S**2>=0.000
       5 -> 13         0.70365

 Excited State  35:      Singlet-A1    15.5984 eV   79.49 nm  f=0.0162  <S**2>=0.000
       5 -> 11        -0.19572
       6 -> 15         0.64441
       8 -> 23         0.13710

 Excited State  36:      Singlet-B2    15.6176 eV   79.39 nm  f=0.0007  <S**2>=0.000
       5 -> 14        -0.11602
       6 -> 16         0.68093

 Excited State  37:      Singlet-B2    16.0319 eV   77.34 nm  f=0.0577  <S**2>=0.000
       8 -> 22         0.69605

 Excited State  38:      Singlet-A1    16.2531 eV   76.28 nm  f=0.0519  <S**2>=0.000
       4 -> 10         0.11694
       5 -> 16        -0.11746
       7 -> 18        -0.30287
       8 -> 23         0.59546

 Excited State  39:      Singlet-B2    16.4275 eV   75.47 nm  f=0.2811  <S**2>=0.000
       5 -> 14         0.65109
       5 -> 15         0.15720
       7 -> 17        -0.14325

 Excited State  40:      Singlet-A1    16.4669 eV   75.29 nm  f=0.0451  <S**2>=0.000
       5 -> 16         0.24166
       7 -> 18         0.55092
       8 -> 23         0.31904
       8 -> 27         0.10481

 Excited State  41:      Singlet-B1    16.5836 eV   74.76 nm  f=0.1207  <S**2>=0.000
       8 -> 24         0.69674

 Excited State  42:      Singlet-A2    16.6685 eV   74.38 nm  f=0.0000  <S**2>=0.000
       6 -> 17         0.70543

 Excited State  43:      Singlet-A1    16.9033 eV   73.35 nm  f=0.0000  <S**2>=0.000
       4 -> 10         0.49302
       5 -> 16         0.48232

 Excited State  44:      Singlet-B2    16.9236 eV   73.26 nm  f=0.1365  <S**2>=0.000
       5 -> 14        -0.12318
       5 -> 15         0.67325

 Excited State  45:      Singlet-A2    17.1646 eV   72.23 nm  f=0.0000  <S**2>=0.000
       8 -> 25         0.70585

 Excited State  46:      Singlet-B2    17.2705 eV   71.79 nm  f=0.0002  <S**2>=0.000
       8 -> 26         0.69725

 Excited State  47:      Singlet-B1    17.5550 eV   70.63 nm  f=0.0052  <S**2>=0.000
       6 -> 18         0.69775

 Excited State  48:      Singlet-A1    17.5620 eV   70.60 nm  f=0.0434  <S**2>=0.000
       4 -> 10         0.44604
       5 -> 11        -0.11737
       5 -> 16        -0.42590
       7 -> 18         0.24323

 Excited State  49:      Singlet-B1    17.9313 eV   69.14 nm  f=0.2578  <S**2>=0.000
       5 -> 17         0.59728
       7 -> 19        -0.32844
       7 -> 21        -0.11501

 Excited State  50:      Singlet-B1    18.0252 eV   68.78 nm  f=0.0131  <S**2>=0.000
       5 -> 17         0.30899
       7 -> 19         0.62158

 Excited State  51:      Singlet-A2    18.1843 eV   68.18 nm  f=0.0000  <S**2>=0.000
       7 -> 20         0.70590

 Excited State  52:      Singlet-B2    18.4214 eV   67.30 nm  f=0.0202  <S**2>=0.000
       4 -> 11         0.70035

 Excited State  53:      Singlet-A1    18.5025 eV   67.01 nm  f=0.0863  <S**2>=0.000
       4 -> 12         0.67419
       8 -> 27         0.15982

 Excited State  54:      Singlet-A2    18.6260 eV   66.56 nm  f=0.0000  <S**2>=0.000
       5 -> 18         0.70290

 Excited State  55:      Singlet-B1    18.7493 eV   66.13 nm  f=0.0802  <S**2>=0.000
       4 -> 13         0.11015
       7 -> 21         0.68672

 Excited State  56:      Singlet-A1    19.1898 eV   64.61 nm  f=0.0000  <S**2>=0.000
       4 -> 12        -0.10059
       6 -> 19         0.54042
       8 -> 27         0.41985

 Excited State  57:      Singlet-B1    19.1945 eV   64.59 nm  f=0.0001  <S**2>=0.000
       4 -> 13         0.68180

 Excited State  58:      Singlet-B2    19.5068 eV   63.56 nm  f=0.0201  <S**2>=0.000
       6 -> 20         0.69696

 Excited State  59:      Singlet-A1    19.6204 eV   63.19 nm  f=0.0644  <S**2>=0.000
       4 -> 14         0.61858
       6 -> 19        -0.20111
       6 -> 21         0.15200
       8 -> 27         0.17237

 Excited State  60:      Singlet-A2    19.7102 eV   62.90 nm  f=0.0000  <S**2>=0.000
       7 -> 23         0.70430

 Excited State  61:      Singlet-B1    19.9551 eV   62.13 nm  f=0.1344  <S**2>=0.000
       7 -> 22         0.68488

 Excited State  62:      Singlet-A1    19.9869 eV   62.03 nm  f=0.0134  <S**2>=0.000
       4 -> 12        -0.10002
       4 -> 14        -0.31311
       6 -> 19        -0.33263
       6 -> 21         0.35991
       7 -> 25        -0.18736
       8 -> 27         0.30230

 Excited State  63:      Singlet-B2    20.2559 eV   61.21 nm  f=0.0234  <S**2>=0.000
       4 -> 16        -0.31676
       7 -> 24         0.49466
       8 -> 28        -0.38249

 Excited State  64:      Singlet-A1    20.3035 eV   61.07 nm  f=0.0570  <S**2>=0.000
       4 -> 15         0.45716
       5 -> 20        -0.11787
       6 -> 19        -0.13617
       6 -> 21        -0.38458
       6 -> 26         0.11995
       7 -> 25        -0.17239
       8 -> 27         0.23274

 Excited State  65:      Singlet-B2    20.3103 eV   61.04 nm  f=0.0283  <S**2>=0.000
       4 -> 16        -0.10985
       5 -> 19         0.31612
       7 -> 24         0.33000
       8 -> 28         0.50071
       8 -> 30         0.12390

 Excited State  66:      Singlet-B2    20.3981 eV   60.78 nm  f=0.0215  <S**2>=0.000
       4 -> 16         0.47763
       5 -> 19        -0.34599
       7 -> 24         0.33980

 Excited State  67:      Singlet-A1    20.3986 eV   60.78 nm  f=0.0000  <S**2>=0.000
       4 -> 15         0.51465
       6 -> 21         0.38790
       7 -> 25         0.17819
       8 -> 27        -0.10233

 Excited State  68:      Singlet-B2    20.5814 eV   60.24 nm  f=0.0942  <S**2>=0.000
       4 -> 16         0.37789
       5 -> 19         0.52377
       8 -> 28        -0.26291

 Excited State  69:      Singlet-A1    20.6803 eV   59.95 nm  f=0.0174  <S**2>=0.000
       5 -> 20         0.67096
       6 -> 21        -0.10574
       8 -> 27         0.10272
       8 -> 29         0.10256

 Excited State  70:      Singlet-B1    21.0350 eV   58.94 nm  f=0.0025  <S**2>=0.000
       7 -> 26         0.69669

 Excited State  71:      Singlet-A1    21.0665 eV   58.85 nm  f=0.0135  <S**2>=0.000
       6 -> 22         0.69051

 Excited State  72:      Singlet-B2    21.1335 eV   58.67 nm  f=0.0124  <S**2>=0.000
       5 -> 21         0.16533
       6 -> 23         0.62691
       8 -> 30         0.26169

 Excited State  73:      Singlet-A1    21.1524 eV   58.61 nm  f=0.0019  <S**2>=0.000
       6 -> 19        -0.12562
       6 -> 26         0.19755
       7 -> 25         0.59761
       8 -> 27         0.15287
       8 -> 29        -0.16494

 Excited State  74:      Singlet-B2    21.2075 eV   58.46 nm  f=0.0015  <S**2>=0.000
       5 -> 21         0.67503
       6 -> 23        -0.16111

 Excited State  75:      Singlet-A2    21.2215 eV   58.42 nm  f=0.0000  <S**2>=0.000
       4 -> 17         0.68088
       6 -> 24        -0.17580

 Excited State  76:      Singlet-A2    21.5493 eV   57.54 nm  f=0.0000  <S**2>=0.000
       6 -> 24         0.41264
       8 -> 31         0.56772

 Excited State  77:      Singlet-A2    21.5793 eV   57.46 nm  f=0.0000  <S**2>=0.000
       4 -> 17         0.16970
       6 -> 24         0.54428
       8 -> 31        -0.41616

 Excited State  78:      Singlet-B2    21.5800 eV   57.45 nm  f=0.0797  <S**2>=0.000
       5 -> 22        -0.18983
       6 -> 23        -0.21694
       8 -> 28        -0.11708
       8 -> 30         0.60022
       8 -> 32        -0.15780

 Excited State  79:      Singlet-A1    21.7822 eV   56.92 nm  f=0.1044  <S**2>=0.000
       5 -> 20        -0.12218
       7 -> 25         0.14479
       8 -> 29         0.66171

 Excited State  80:      Singlet-B1    22.1697 eV   55.93 nm  f=0.0267  <S**2>=0.000
       4 -> 18         0.52232
       6 -> 25        -0.47167

 Excited State  81:      Singlet-B1    22.2660 eV   55.68 nm  f=0.0033  <S**2>=0.000
       4 -> 18         0.46940
       6 -> 25         0.52062

 Excited State  82:      Singlet-B2    22.2868 eV   55.63 nm  f=0.0705  <S**2>=0.000
       5 -> 22         0.66449
       8 -> 30         0.12764
       8 -> 32        -0.12059

 Excited State  83:      Singlet-A2    22.5460 eV   54.99 nm  f=0.0000  <S**2>=0.000
       7 -> 27         0.70487

 Excited State  84:      Singlet-A1    22.7457 eV   54.51 nm  f=0.0403  <S**2>=0.000
       4 -> 19         0.17097
       5 -> 23         0.65185

 Excited State  85:      Singlet-B1    22.8245 eV   54.32 nm  f=0.0697  <S**2>=0.000
       5 -> 24         0.69630

 Excited State  86:      Singlet-B2    22.9167 eV   54.10 nm  f=0.1960  <S**2>=0.000
       5 -> 26         0.19339
       6 -> 27        -0.11657
       8 -> 30         0.10472
       8 -> 32         0.64241

 Excited State  87:      Singlet-A2    23.3350 eV   53.13 nm  f=0.0000  <S**2>=0.000
       5 -> 25         0.70556

 Excited State  88:      Singlet-A1    23.4844 eV   52.79 nm  f=0.4746  <S**2>=0.000
       4 -> 19         0.21707
       6 -> 26         0.58820
       7 -> 31         0.10102
       8 -> 27        -0.16997

 Excited State  89:      Singlet-B2    23.7808 eV   52.14 nm  f=0.0332  <S**2>=0.000
       4 -> 20         0.14024
       5 -> 26         0.45712
       6 -> 27         0.51108

 Excited State  90:      Singlet-B1    23.9118 eV   51.85 nm  f=0.0023  <S**2>=0.000
       3 ->  9        -0.13358
       7 -> 28         0.68294

 Excited State  91:      Singlet-B2    24.1196 eV   51.40 nm  f=0.1913  <S**2>=0.000
       4 -> 20        -0.33864
       5 -> 26         0.44948
       6 -> 27        -0.34643
       8 -> 32        -0.14900

 Excited State  92:      Singlet-B2    24.2141 eV   51.20 nm  f=0.0128  <S**2>=0.000
       4 -> 20         0.59987
       5 -> 26         0.13426
       6 -> 27        -0.30759

 Excited State  93:      Singlet-A1    24.2510 eV   51.13 nm  f=0.0063  <S**2>=0.000
       4 -> 19         0.58750
       4 -> 21         0.25554
       5 -> 23        -0.10094
       5 -> 27        -0.17995
       6 -> 26        -0.14325

 Excited State  94:      Singlet-B1    24.3215 eV   50.98 nm  f=0.0805  <S**2>=0.000
       7 -> 30        -0.17372
       8 -> 33         0.66799

 Excited State  95:      Singlet-A2    25.0260 eV   49.54 nm  f=0.0000  <S**2>=0.000
       7 -> 29         0.70245

 Excited State  96:      Singlet-A1    25.0287 eV   49.54 nm  f=0.0890  <S**2>=0.000
       4 -> 19        -0.13495
       4 -> 21         0.50023
       4 -> 22         0.13941
       6 -> 28        -0.40538
       7 -> 31         0.14687

 Excited State  97:      Singlet-A2    25.0745 eV   49.45 nm  f=0.0000  <S**2>=0.000
       8 -> 34         0.69977

 Excited State  98:      Singlet-B1    25.1841 eV   49.23 nm  f=0.1042  <S**2>=0.000
       3 ->  9        -0.13896
       6 -> 31         0.13519
       7 -> 30         0.64458
       7 -> 32         0.12189
       8 -> 33         0.13170

 Excited State  99:      Singlet-A1    25.2639 eV   49.08 nm  f=0.0167  <S**2>=0.000
       4 -> 19         0.11476
       4 -> 21        -0.35212
       6 -> 28        -0.36022
       7 -> 31         0.44400

 Excited State 100:      Singlet-A1    25.4988 eV   48.62 nm  f=0.0046  <S**2>=0.000
       4 -> 19         0.14617
       5 -> 27         0.61428
       6 -> 28        -0.18669
       6 -> 30         0.15593
       7 -> 31        -0.10871

 Excited State 101:      Singlet-A1    25.6608 eV   48.32 nm  f=0.0332  <S**2>=0.000
       4 -> 22         0.64290
       5 -> 27         0.16041
       6 -> 28         0.16090
       7 -> 31         0.15154

 Excited State 102:      Singlet-B2    25.8033 eV   48.05 nm  f=0.0371  <S**2>=0.000
       4 -> 23         0.69553

 Excited State 103:      Singlet-B1    25.8663 eV   47.93 nm  f=0.0056  <S**2>=0.000
       3 ->  9         0.61736
       6 -> 31         0.10804
       7 -> 28         0.12396
       7 -> 32         0.26948

 Excited State 104:      Singlet-A1    25.9682 eV   47.74 nm  f=0.0008  <S**2>=0.000
       4 -> 21         0.15866
       4 -> 22        -0.21591
       5 -> 27         0.20973
       6 -> 28         0.32945
       6 -> 30        -0.28783
       7 -> 31         0.38396

 Excited State 105:      Singlet-A2    26.2003 eV   47.32 nm  f=0.0000  <S**2>=0.000
       4 -> 24         0.70442

 Excited State 106:      Singlet-B1    26.2673 eV   47.20 nm  f=0.0008  <S**2>=0.000
       3 ->  9        -0.13761
       6 -> 31        -0.42894
       7 -> 32         0.53625

 Excited State 107:      Singlet-B2    26.4054 eV   46.95 nm  f=0.0759  <S**2>=0.000
       5 -> 28         0.41562
       6 -> 29         0.55185

 Excited State 108:      Singlet-B2    26.6907 eV   46.45 nm  f=0.1808  <S**2>=0.000
       5 -> 28         0.55040
       6 -> 29        -0.39455

 Excited State 109:      Singlet-B1    26.8327 eV   46.21 nm  f=0.1702  <S**2>=0.000
       4 -> 25         0.61543
       6 -> 31        -0.28871
       7 -> 32        -0.14879

 Excited State 110:      Singlet-A1    26.9790 eV   45.96 nm  f=0.3544  <S**2>=0.000
       4 -> 26         0.20924
       5 -> 29        -0.18290
       6 -> 30         0.55898
       7 -> 31         0.17739
       7 -> 34        -0.14546

 Excited State 111:      Singlet-B1    27.1638 eV   45.64 nm  f=0.3441  <S**2>=0.000
       3 ->  9        -0.21192
       4 -> 25         0.33021
       6 -> 31         0.43902
       7 -> 30        -0.16408
       7 -> 32         0.30931
       8 -> 33        -0.13357

 Excited State 112:      Singlet-A1    27.4821 eV   45.11 nm  f=0.0259  <S**2>=0.000
       4 -> 26         0.52376
       5 -> 29         0.37354
       6 -> 32        -0.25631

 Excited State 113:      Singlet-A1    27.4969 eV   45.09 nm  f=0.0512  <S**2>=0.000
       4 -> 26         0.24609
       6 -> 32         0.64639

 Excited State 114:      Singlet-B2    27.7769 eV   44.64 nm  f=0.0044  <S**2>=0.000
       5 -> 30         0.67593
       7 -> 33        -0.17357

 Excited State 115:      Singlet-A2    27.9597 eV   44.34 nm  f=0.0000  <S**2>=0.000
       5 -> 31         0.70357

 Excited State 116:      Singlet-B2    28.0120 eV   44.26 nm  f=0.1278  <S**2>=0.000
       5 -> 30         0.16670
       5 -> 32        -0.12419
       7 -> 33         0.65384

 Excited State 117:      Singlet-A1    28.2925 eV   43.82 nm  f=0.0002  <S**2>=0.000
       4 -> 26        -0.30808
       4 -> 28         0.10582
       5 -> 29         0.52613
       6 -> 30         0.16959
       7 -> 31         0.13343
       7 -> 34        -0.20020
       8 -> 36        -0.10153

 Excited State 118:      Singlet-A1    28.4744 eV   43.54 nm  f=0.0001  <S**2>=0.000
       3 -> 10         0.69927

 Excited State 119:      Singlet-B2    28.7814 eV   43.08 nm  f=0.0206  <S**2>=0.000
       4 -> 27         0.61399
       5 -> 32         0.32500
       8 -> 35         0.12006

 Excited State 120:      Singlet-B2    29.0294 eV   42.71 nm  f=0.0023  <S**2>=0.000
       4 -> 27        -0.25471
       5 -> 32         0.58779
       7 -> 33         0.11150
       8 -> 35        -0.25626

 Excited State 121:      Singlet-A2    29.0960 eV   42.61 nm  f=0.0000  <S**2>=0.000
       6 -> 33         0.70491

 Excited State 122:      Singlet-A1    29.3270 eV   42.28 nm  f=0.0003  <S**2>=0.000
       5 -> 29         0.11175
       6 -> 30         0.10322
       7 -> 34         0.61786
       8 -> 36        -0.17458

 Excited State 123:      Singlet-B2    29.7450 eV   41.68 nm  f=0.0086  <S**2>=0.000
       4 -> 27        -0.19096
       5 -> 32         0.16567
       8 -> 35         0.53240
       8 -> 37         0.35361

 Excited State 124:      Singlet-A1    29.9827 eV   41.35 nm  f=0.0005  <S**2>=0.000
       3 -> 12         0.15198
       4 -> 28         0.59574
       8 -> 36         0.33460

 Excited State 125:      Singlet-B1    30.0069 eV   41.32 nm  f=0.0058  <S**2>=0.000
       6 -> 34         0.69990

 Excited State 126:      Singlet-B2    30.0646 eV   41.24 nm  f=0.0000  <S**2>=0.000
       3 -> 11         0.69379

 Excited State 127:      Singlet-A1    30.2021 eV   41.05 nm  f=0.0107  <S**2>=0.000
       3 -> 12         0.61105
       8 -> 36        -0.31489

 Excited State 128:      Singlet-B2    30.4290 eV   40.75 nm  f=0.0001  <S**2>=0.000
       3 -> 11        -0.12168
       4 -> 29         0.15353
       8 -> 35        -0.32581
       8 -> 37         0.58651

 Excited State 129:      Singlet-B1    30.5855 eV   40.54 nm  f=0.0071  <S**2>=0.000
       3 -> 13        -0.15482
       5 -> 33         0.68674

 Excited State 130:      Singlet-A1    30.7507 eV   40.32 nm  f=0.0010  <S**2>=0.000
       3 -> 12         0.27352
       3 -> 14         0.20700
       4 -> 28        -0.33401
       5 -> 29         0.10308
       8 -> 36         0.45689

 Excited State 131:      Singlet-B1    30.8485 eV   40.19 nm  f=0.0015  <S**2>=0.000
       3 -> 13         0.68591
       5 -> 33         0.15049

 Excited State 132:      Singlet-A2    31.0024 eV   39.99 nm  f=0.0000  <S**2>=0.000
       5 -> 34         0.70480

 Excited State 133:      Singlet-A1    31.3303 eV   39.57 nm  f=0.0106  <S**2>=0.000
       3 -> 14         0.43303
       3 -> 15        -0.14457
       4 -> 30         0.53387

 The electronic state is 1-A1.
 Alpha  occ. eigenvalues --  -19.16854 -10.29668  -1.06770  -0.63691  -0.50911
 Alpha  occ. eigenvalues --   -0.46477  -0.41830  -0.28227
 Alpha virt. eigenvalues --   -0.06198   0.01986   0.07979   0.08193   0.10751
 Alpha virt. eigenvalues --    0.12559   0.15020   0.15365   0.19220   0.22686
 Alpha virt. eigenvalues --    0.28639   0.29471   0.31849   0.35335   0.35712

 Mulliken charges:
               1
     1  C    0.646616
     2  O   -0.278491
     3  H   -0.184063
     4  H   -0.184063
 Sum of Mulliken charges =  -0.00000

 Dipole moment (field-independent basis, Debye):
    X=              0.0000    Y=             -0.0000    Z=             -2.4005  Tot=              2.4005
 Quadrupole moment (field-independent basis, Debye-Ang):
   XX=            -11.7111   YY=            -11.7521   ZZ=            -12.4592
   XY=             -0.0000   XZ=             -0.0000   YZ=              0.0000

 Normal termination of Gaussian 16 at Mon Mar 21 20:07:40 2022.
