 Gaussian 16, Revision C.01,
 Gaussian 16:  EM64L-G16RevC.01  3-Jul-2019

 ---------------------------------------------------------------------
 #P TD(Nstates=10000) b3lyp/Gen SCF(maxcycles=100) Int(Grid=ultrafine)
 ---------------------------------------------------------------------

 ---------------------
 xGDB7_00001_tier4.com
 ---------------------
 Symbolic Z-matrix:
 Charge =  0 Multiplicity = 1

                         Standard orientation:
 ---------------------------------------------------------------------
 Center     Atomic      Atomic             Coordinates (Angstroms)
 Number     Number       Type             X           Y           Z
 ---------------------------------------------------------------------
      1          6           0        0.000000    0.865978    0.000000
      2          6           0        0.749967   -0.432983    0.000000
      3          6           0       -0.749954   -0.432999    0.000000
      4          1           0       -0.000033    1.451806   -0.909176
      5          1           0       -0.000033    1.451806    0.909176
      6          1           0        1.257295   -0.725894    0.909177
      7          1           0        1.257295   -0.725894   -0.909177
      8          1           0       -1.257302   -0.725899    0.909179
      9          1           0       -1.257302   -0.725899   -0.909179
 ---------------------------------------------------------------------

 SCF Done:  E(RB3LYP) =  -117.818724816     A.U. after   10 cycles

 Excitation energies and oscillator strengths:

 Excited State   1:      Singlet-A'     7.9031 eV  156.88 nm  f=0.0010  <S**2>=0.000
      12 -> 13         0.70533
 This state for optimization and/or second-order correction.
 Total Energy, E(TD-HF/TD-DFT) =  -117.528289977
 Copying the excited state density for this state as the 1-particle RhoCI density.

 Excited State   2:      Singlet-A'     7.9033 eV  156.88 nm  f=0.0010  <S**2>=0.000
      11 -> 13         0.70533

 Excited State   3:      Singlet-A'     8.5108 eV  145.68 nm  f=0.0000  <S**2>=0.000
      11 -> 14         0.48042
      11 -> 15        -0.13505
      12 -> 14         0.13534
      12 -> 15         0.48106

 Excited State   4:      Singlet-A'     8.5792 eV  144.52 nm  f=0.0000  <S**2>=0.000
      11 -> 14        -0.13496
      11 -> 15        -0.47919
      12 -> 14         0.48216
      12 -> 15        -0.13540

 Excited State   5:      Singlet-A'     8.6141 eV  143.93 nm  f=0.0919  <S**2>=0.000
      11 -> 14         0.32635
      11 -> 15         0.37775
      12 -> 14         0.37535
      12 -> 15        -0.32546

 Excited State   6:      Singlet-A'     8.6141 eV  143.93 nm  f=0.0919  <S**2>=0.000
      11 -> 14         0.37666
      11 -> 15        -0.32677
      12 -> 14        -0.32503
      12 -> 15        -0.37644

 Excited State   7:      Singlet-A"     8.7157 eV  142.25 nm  f=0.0000  <S**2>=0.000
      12 -> 16         0.70496

 Excited State   8:      Singlet-A"     8.7159 eV  142.25 nm  f=0.0000  <S**2>=0.000
      11 -> 16         0.70496

 Excited State   9:      Singlet-A"     9.6697 eV  128.22 nm  f=0.0000  <S**2>=0.000
      10 -> 13         0.69697

 Excited State  10:      Singlet-A"     9.6698 eV  128.22 nm  f=0.0000  <S**2>=0.000
       9 -> 13         0.69696

 Excited State  11:      Singlet-A'     9.9913 eV  124.09 nm  f=0.0031  <S**2>=0.000
      12 -> 17         0.70140

 Excited State  12:      Singlet-A'     9.9915 eV  124.09 nm  f=0.0031  <S**2>=0.000
      11 -> 17         0.70139

 Excited State  13:      Singlet-A"    10.3570 eV  119.71 nm  f=0.1766  <S**2>=0.000
       9 -> 14        -0.49042
      10 -> 15         0.49749

 Excited State  14:      Singlet-A"    10.3610 eV  119.66 nm  f=0.0000  <S**2>=0.000
       9 -> 14         0.42289
       9 -> 15         0.25487
      10 -> 14        -0.25683
      10 -> 15         0.41804

 Excited State  15:      Singlet-A"    10.3610 eV  119.66 nm  f=0.0000  <S**2>=0.000
       9 -> 14         0.25867
       9 -> 15        -0.41987
      10 -> 14         0.42107
      10 -> 15         0.25300

 Excited State  16:      Singlet-A"    10.3882 eV  119.35 nm  f=0.0000  <S**2>=0.000
       9 -> 15         0.49344
      10 -> 14         0.49111

 Excited State  17:      Singlet-A'    10.7112 eV  115.75 nm  f=0.2613  <S**2>=0.000
      10 -> 16         0.64543
      12 -> 18         0.24806

 Excited State  18:      Singlet-A'    10.7113 eV  115.75 nm  f=0.2613  <S**2>=0.000
       9 -> 16         0.64546
      11 -> 18        -0.24798

 Excited State  19:      Singlet-A'    10.8634 eV  114.13 nm  f=0.0700  <S**2>=0.000
      10 -> 16        -0.26641
      12 -> 18         0.62210

 Excited State  20:      Singlet-A'    10.8636 eV  114.13 nm  f=0.0700  <S**2>=0.000
       9 -> 16         0.26633
      11 -> 18         0.62213

 Excited State  21:      Singlet-A"    10.8847 eV  113.91 nm  f=0.0000  <S**2>=0.000
      11 -> 19        -0.49672
      12 -> 20         0.49746

 Excited State  22:      Singlet-A"    10.9740 eV  112.98 nm  f=0.0000  <S**2>=0.000
      11 -> 19         0.37451
      11 -> 20        -0.32806
      12 -> 19         0.32988
      12 -> 20         0.37412

 Excited State  23:      Singlet-A"    10.9740 eV  112.98 nm  f=0.0000  <S**2>=0.000
      11 -> 19        -0.32931
      11 -> 20        -0.37336
      12 -> 19         0.37527
      12 -> 20        -0.32864

 Excited State  24:      Singlet-A"    11.0169 eV  112.54 nm  f=0.0166  <S**2>=0.000
      11 -> 20         0.49848
      12 -> 19         0.49584

 Excited State  25:      Singlet-A'    11.5404 eV  107.43 nm  f=0.0158  <S**2>=0.000
      11 -> 21        -0.47553
      11 -> 22         0.12151
      12 -> 21         0.13148
      12 -> 22         0.47841

 Excited State  26:      Singlet-A'    11.5404 eV  107.43 nm  f=0.0158  <S**2>=0.000
      11 -> 21         0.12977
      11 -> 22         0.46499
      12 -> 21         0.48865
      12 -> 22        -0.12339

 Excited State  27:      Singlet-A'    11.5446 eV  107.40 nm  f=0.0000  <S**2>=0.000
      11 -> 21        -0.13310
      11 -> 22         0.49057
      12 -> 21        -0.46433
      12 -> 22        -0.12937

 Excited State  28:      Singlet-A"    11.8080 eV  105.00 nm  f=0.0000  <S**2>=0.000
      10 -> 17         0.68714
      11 -> 25         0.13990

 Excited State  29:      Singlet-A"    11.8081 eV  105.00 nm  f=0.0000  <S**2>=0.000
       9 -> 17         0.68712
      12 -> 25         0.13996

 Excited State  30:      Singlet-A'    11.8663 eV  104.48 nm  f=0.0000  <S**2>=0.000
       7 -> 16        -0.10671
       9 -> 19         0.17021
      10 -> 20         0.17022
      11 -> 21         0.43989
      11 -> 22         0.12093
      12 -> 21        -0.12084
      12 -> 22         0.43972

 Excited State  31:      Singlet-A"    11.9771 eV  103.52 nm  f=0.0000  <S**2>=0.000
      10 -> 18         0.69967

 Excited State  32:      Singlet-A"    11.9772 eV  103.52 nm  f=0.0000  <S**2>=0.000
       9 -> 18         0.69967

 Excited State  33:      Singlet-A'    12.1841 eV  101.76 nm  f=0.0000  <S**2>=0.000
      11 -> 23         0.46984
      11 -> 24        -0.15177
      12 -> 23         0.15197
      12 -> 24         0.47023

 Excited State  34:      Singlet-A'    12.3070 eV  100.74 nm  f=0.0000  <S**2>=0.000
      11 -> 23        -0.15269
      11 -> 24        -0.47216
      12 -> 23         0.47475
      12 -> 24        -0.15326

 Excited State  35:      Singlet-A'    12.3474 eV  100.41 nm  f=0.0315  <S**2>=0.000
      11 -> 23         0.47755
      11 -> 24         0.10308
      12 -> 23         0.10212
      12 -> 24        -0.47688

 Excited State  36:      Singlet-A'    12.3474 eV  100.41 nm  f=0.0315  <S**2>=0.000
      11 -> 23        -0.10235
      11 -> 24         0.47842
      12 -> 23         0.47600
      12 -> 24         0.10285

 Excited State  37:      Singlet-A"    12.3660 eV  100.26 nm  f=0.0000  <S**2>=0.000
       9 -> 17        -0.14065
      12 -> 25         0.68812

 Excited State  38:      Singlet-A"    12.3661 eV  100.26 nm  f=0.0000  <S**2>=0.000
      10 -> 17        -0.14059
      11 -> 25         0.68813

 Excited State  39:      Singlet-A'    12.6060 eV   98.35 nm  f=0.0000  <S**2>=0.000
       8 -> 13         0.65053
       9 -> 19         0.19272
      10 -> 20         0.19275

 Excited State  40:      Singlet-A"    12.6335 eV   98.14 nm  f=0.0000  <S**2>=0.000
      11 -> 26        -0.48809
      12 -> 27         0.48869

 Excited State  41:      Singlet-A"    12.6335 eV   98.14 nm  f=0.0000  <S**2>=0.000
      11 -> 27         0.48768
      12 -> 26         0.48910

 Excited State  42:      Singlet-A"    12.7062 eV   97.58 nm  f=0.0000  <S**2>=0.000
      11 -> 27         0.49293
      12 -> 26        -0.49151

 Excited State  43:      Singlet-A"    12.7392 eV   97.33 nm  f=0.0371  <S**2>=0.000
       7 -> 13        -0.10988
      11 -> 26         0.47177
      12 -> 27         0.47115

 Excited State  44:      Singlet-A'    12.8918 eV   96.17 nm  f=0.0305  <S**2>=0.000
       9 -> 19         0.47527
      10 -> 20        -0.47527
      12 -> 28        -0.15996

 Excited State  45:      Singlet-A'    12.8918 eV   96.17 nm  f=0.0305  <S**2>=0.000
       9 -> 20         0.47324
      10 -> 19         0.47733
      11 -> 28         0.15985

 Excited State  46:      Singlet-A'    12.9094 eV   96.04 nm  f=0.0000  <S**2>=0.000
       9 -> 20         0.49845
      10 -> 19        -0.49453

 Excited State  47:      Singlet-A'    13.1186 eV   94.51 nm  f=0.0102  <S**2>=0.000
       8 -> 14        -0.35708
       9 -> 19         0.11164
      10 -> 20        -0.11167
      12 -> 28         0.55328

 Excited State  48:      Singlet-A'    13.1187 eV   94.51 nm  f=0.0101  <S**2>=0.000
       8 -> 15         0.35727
       9 -> 20        -0.11162
      10 -> 19        -0.11154
      11 -> 28         0.55319

 Excited State  49:      Singlet-A"    13.2442 eV   93.61 nm  f=0.0000  <S**2>=0.000
       9 -> 21        -0.45557
       9 -> 22        -0.19418
      10 -> 21        -0.19461
      10 -> 22         0.45587

 Excited State  50:      Singlet-A'    13.2875 eV   93.31 nm  f=0.3281  <S**2>=0.000
       8 -> 14         0.58484
      12 -> 28         0.35372

 Excited State  51:      Singlet-A'    13.2876 eV   93.31 nm  f=0.3281  <S**2>=0.000
       8 -> 15         0.58474
      11 -> 28        -0.35390

 Excited State  52:      Singlet-A"    13.3093 eV   93.16 nm  f=0.0000  <S**2>=0.000
       7 -> 15         0.11997
       9 -> 21         0.48476
      10 -> 22         0.48465

 Excited State  53:      Singlet-A"    13.3093 eV   93.16 nm  f=0.0000  <S**2>=0.000
       7 -> 14        -0.11998
       9 -> 22        -0.48417
      10 -> 21         0.48524

 Excited State  54:      Singlet-A"    13.3266 eV   93.04 nm  f=0.0397  <S**2>=0.000
       7 -> 13         0.50136
       8 -> 16        -0.38140
       9 -> 22         0.20414
      10 -> 21         0.20240

 Excited State  55:      Singlet-A"    13.3831 eV   92.64 nm  f=0.0289  <S**2>=0.000
       7 -> 13         0.42251
       8 -> 16         0.10712
       9 -> 21         0.15060
       9 -> 22        -0.35327
      10 -> 21        -0.35261
      10 -> 22        -0.15051

 Excited State  56:      Singlet-A'    13.3889 eV   92.60 nm  f=0.0000  <S**2>=0.000
       7 -> 16         0.23957
       8 -> 13        -0.23827
       9 -> 19         0.40155
      10 -> 20         0.40150
      11 -> 21        -0.13553
      12 -> 22        -0.13552

 Excited State  57:      Singlet-A"    13.4639 eV   92.09 nm  f=0.1525  <S**2>=0.000
       7 -> 13         0.21789
       8 -> 16         0.54672
       9 -> 22         0.21010
       9 -> 23         0.13513
      10 -> 21         0.20994
      10 -> 24        -0.13515

 Excited State  58:      Singlet-A"    13.9800 eV   88.69 nm  f=0.0000  <S**2>=0.000
       7 -> 14         0.69269

 Excited State  59:      Singlet-A"    13.9800 eV   88.69 nm  f=0.0000  <S**2>=0.000
       7 -> 15         0.69269

 Excited State  60:      Singlet-A"    14.1191 eV   87.81 nm  f=0.0000  <S**2>=0.000
       9 -> 24        -0.49181
      10 -> 23         0.49277

 Excited State  61:      Singlet-A"    14.1192 eV   87.81 nm  f=0.0000  <S**2>=0.000
       9 -> 23         0.49225
      10 -> 24         0.49233

 Excited State  62:      Singlet-A"    14.1889 eV   87.38 nm  f=0.0000  <S**2>=0.000
       9 -> 24         0.49128
      10 -> 23         0.49032

 Excited State  63:      Singlet-A'    14.3296 eV   86.52 nm  f=0.0000  <S**2>=0.000
       8 -> 18        -0.13674
       9 -> 26        -0.48749
      10 -> 27         0.48779

 Excited State  64:      Singlet-A'    14.3643 eV   86.31 nm  f=0.0379  <S**2>=0.000
       9 -> 26         0.17678
      10 -> 25         0.62827
      10 -> 27         0.17612
      11 -> 30        -0.12079
      12 -> 29        -0.12085

 Excited State  65:      Singlet-A'    14.3644 eV   86.31 nm  f=0.0379  <S**2>=0.000
       9 -> 25         0.62824
       9 -> 27        -0.17643
      10 -> 26         0.17657
      11 -> 29        -0.12082
      12 -> 30         0.12084

 Excited State  66:      Singlet-A'    14.4437 eV   85.84 nm  f=0.0000  <S**2>=0.000
       7 -> 16         0.48876
       8 -> 17        -0.39944
       9 -> 27        -0.18491
      10 -> 26        -0.18493

 Excited State  67:      Singlet-A"    14.4871 eV   85.58 nm  f=0.8414  <S**2>=0.000
       7 -> 17        -0.14723
       8 -> 16        -0.16217
       9 -> 23         0.44193
      10 -> 24        -0.44186
      11 -> 26        -0.10486
      12 -> 27        -0.10484

 Excited State  68:      Singlet-A'    14.6090 eV   84.87 nm  f=0.0000  <S**2>=0.000
       8 -> 17        -0.29917
       9 -> 27         0.44516
      10 -> 26         0.44571

 Excited State  69:      Singlet-A'    14.6655 eV   84.54 nm  f=0.4659  <S**2>=0.000
       9 -> 25         0.18762
       9 -> 27         0.44053
      10 -> 26        -0.43993
      11 -> 29        -0.11416
      12 -> 28         0.11193
      12 -> 30         0.11433

 Excited State  70:      Singlet-A'    14.6655 eV   84.54 nm  f=0.4659  <S**2>=0.000
       9 -> 26         0.44037
      10 -> 25        -0.18753
      10 -> 27         0.44012
      11 -> 28        -0.11194
      11 -> 30         0.11380
      12 -> 29         0.11470

 Excited State  71:      Singlet-A'    14.6736 eV   84.49 nm  f=0.0000  <S**2>=0.000
       8 -> 18         0.51307
      11 -> 30         0.32663
      12 -> 29        -0.32633

 Excited State  72:      Singlet-A"    14.8388 eV   83.55 nm  f=0.0000  <S**2>=0.000
      10 -> 28         0.69603

 Excited State  73:      Singlet-A"    14.8389 eV   83.55 nm  f=0.0000  <S**2>=0.000
       9 -> 28         0.69604

 Excited State  74:      Singlet-A'    14.9374 eV   83.00 nm  f=0.0000  <S**2>=0.000
       7 -> 16         0.37460
       8 -> 17         0.48669
       9 -> 27         0.11316
      10 -> 26         0.11313
      11 -> 29         0.14267
      12 -> 30         0.14273

 Excited State  75:      Singlet-A'    15.0880 eV   82.17 nm  f=0.0000  <S**2>=0.000
       8 -> 18         0.46251
      11 -> 30        -0.36494
      12 -> 29         0.36512

 Excited State  76:      Singlet-A'    15.1614 eV   81.78 nm  f=0.0000  <S**2>=0.000
       7 -> 16        -0.14678
      11 -> 29         0.45954
      12 -> 30         0.45986

 Excited State  77:      Singlet-A'    15.3159 eV   80.95 nm  f=0.3526  <S**2>=0.000
      10 -> 25         0.17325
      11 -> 29        -0.23331
      11 -> 30         0.36777
      11 -> 31        -0.12896
      12 -> 29         0.36758
      12 -> 30         0.23311
      12 -> 33        -0.17939

 Excited State  78:      Singlet-A'    15.3160 eV   80.95 nm  f=0.3526  <S**2>=0.000
       9 -> 25         0.17327
      11 -> 29         0.36783
      11 -> 30         0.23327
      11 -> 33         0.17935
      12 -> 29         0.23316
      12 -> 30        -0.36751
      12 -> 31        -0.12901

 Excited State  79:      Singlet-A"    15.4718 eV   80.14 nm  f=0.0000  <S**2>=0.000
       7 -> 18         0.70069

 Excited State  80:      Singlet-A"    15.5975 eV   79.49 nm  f=0.3310  <S**2>=0.000
       7 -> 17         0.67572
       8 -> 25         0.11308

 Excited State  81:      Singlet-A"    15.5984 eV   79.49 nm  f=0.0000  <S**2>=0.000
       8 -> 19         0.70068

 Excited State  82:      Singlet-A"    15.5984 eV   79.49 nm  f=0.0000  <S**2>=0.000
       8 -> 20         0.70068

 Excited State  83:      Singlet-A'    15.6435 eV   79.26 nm  f=0.0221  <S**2>=0.000
       5 -> 13         0.12571
      12 -> 31         0.68057

 Excited State  84:      Singlet-A'    15.6437 eV   79.26 nm  f=0.0221  <S**2>=0.000
       6 -> 13         0.12579
      11 -> 31         0.68057

 Excited State  85:      Singlet-A'    15.8146 eV   78.40 nm  f=0.0012  <S**2>=0.000
       6 -> 13         0.41327
       8 -> 21         0.19926
      12 -> 33         0.51336

 Excited State  86:      Singlet-A'    15.8147 eV   78.40 nm  f=0.0012  <S**2>=0.000
       5 -> 13        -0.41329
       8 -> 22        -0.19926
      11 -> 33         0.51334

 Excited State  87:      Singlet-A'    16.0582 eV   77.21 nm  f=0.0059  <S**2>=0.000
       6 -> 13         0.49660
       7 -> 20         0.11948
       8 -> 21        -0.39595
      11 -> 31        -0.10610
      12 -> 33        -0.19880

 Excited State  88:      Singlet-A'    16.0582 eV   77.21 nm  f=0.0059  <S**2>=0.000
       5 -> 13         0.49661
       7 -> 19         0.11949
       8 -> 22        -0.39596
      11 -> 33         0.19882
      12 -> 31        -0.10602

 Excited State  89:      Singlet-A"    16.1050 eV   76.98 nm  f=0.0000  <S**2>=0.000
      12 -> 32         0.70261

 Excited State  90:      Singlet-A"    16.1052 eV   76.98 nm  f=0.0000  <S**2>=0.000
      11 -> 32         0.70260

 Excited State  91:      Singlet-A"    16.1922 eV   76.57 nm  f=0.0000  <S**2>=0.000
      12 -> 34         0.69844

 Excited State  92:      Singlet-A"    16.1923 eV   76.57 nm  f=0.0000  <S**2>=0.000
      11 -> 34         0.69845

 Excited State  93:      Singlet-A'    16.3169 eV   75.99 nm  f=0.0772  <S**2>=0.000
       7 -> 19         0.54929
       8 -> 21        -0.17191
       8 -> 22         0.31449
      11 -> 33         0.14463

 Excited State  94:      Singlet-A'    16.3169 eV   75.99 nm  f=0.0772  <S**2>=0.000
       7 -> 20         0.54925
       8 -> 21         0.31452
       8 -> 22         0.17192
      12 -> 33        -0.14465

 Excited State  95:      Singlet-A'    16.5639 eV   74.85 nm  f=0.0182  <S**2>=0.000
       5 -> 14         0.26374
       5 -> 15        -0.36715
       6 -> 14         0.36822
       6 -> 15         0.26354
       8 -> 21         0.25276

 Excited State  96:      Singlet-A'    16.5639 eV   74.85 nm  f=0.0182  <S**2>=0.000
       5 -> 14         0.36755
       5 -> 15         0.26318
       6 -> 14        -0.26409
       6 -> 15         0.36782
       8 -> 22        -0.25277

 Excited State  97:      Singlet-A'    16.6027 eV   74.68 nm  f=0.0000  <S**2>=0.000
       5 -> 14         0.11822
       5 -> 15         0.48446
       6 -> 14         0.48317
       6 -> 15        -0.11811

 Excited State  98:      Singlet-A"    16.7217 eV   74.15 nm  f=0.0000  <S**2>=0.000
       6 -> 16         0.56292
       9 -> 29        -0.27256
      10 -> 30        -0.27272

 Excited State  99:      Singlet-A"    16.7218 eV   74.15 nm  f=0.0000  <S**2>=0.000
       5 -> 16         0.56285
       9 -> 30         0.27263
      10 -> 29        -0.27281

 Excited State 100:      Singlet-A'    16.8053 eV   73.78 nm  f=0.0006  <S**2>=0.000
       5 -> 13         0.11771
       5 -> 14         0.12038
       6 -> 15         0.12059
       7 -> 19        -0.35601
       8 -> 21        -0.11427
       8 -> 22         0.21156
       8 -> 23         0.39244
      11 -> 33         0.22828

 Excited State 101:      Singlet-A'    16.8053 eV   73.78 nm  f=0.0006  <S**2>=0.000
       5 -> 15        -0.12052
       6 -> 13        -0.11771
       6 -> 14         0.12048
       7 -> 20         0.35607
       8 -> 21        -0.21156
       8 -> 22        -0.11428
       8 -> 24         0.39238
      12 -> 33         0.22826

 Excited State 102:      Singlet-A'    16.8461 eV   73.60 nm  f=0.0000  <S**2>=0.000
       5 -> 14         0.45623
       5 -> 15        -0.11145
       6 -> 14        -0.11137
       6 -> 15        -0.45611

 Excited State 103:      Singlet-A"    16.8849 eV   73.43 nm  f=0.0000  <S**2>=0.000
       7 -> 21         0.67453
       9 -> 33         0.10471

 Excited State 104:      Singlet-A"    16.8850 eV   73.43 nm  f=0.0000  <S**2>=0.000
       7 -> 22         0.67452
      10 -> 33        -0.10472

 Excited State 105:      Singlet-A"    16.8948 eV   73.39 nm  f=0.0000  <S**2>=0.000
       9 -> 29        -0.49464
      10 -> 30         0.49504

 Excited State 106:      Singlet-A"    16.9093 eV   73.32 nm  f=0.0572  <S**2>=0.000
       9 -> 30         0.49080
      10 -> 29         0.49142

 Excited State 107:      Singlet-A"    16.9462 eV   73.16 nm  f=0.0000  <S**2>=0.000
       6 -> 16         0.39923
       9 -> 29         0.39434
      10 -> 30         0.39366

 Excited State 108:      Singlet-A"    16.9463 eV   73.16 nm  f=0.0000  <S**2>=0.000
       5 -> 16         0.39934
       9 -> 30        -0.39442
      10 -> 29         0.39345

 Excited State 109:      Singlet-A'    17.0886 eV   72.55 nm  f=0.0814  <S**2>=0.000
       8 -> 21         0.10320
       8 -> 23         0.49593
       8 -> 24         0.23286
      11 -> 33        -0.12289
      11 -> 37         0.15208
      12 -> 33        -0.11479
      12 -> 38         0.15212

 Excited State 110:      Singlet-A'    17.0886 eV   72.55 nm  f=0.0814  <S**2>=0.000
       8 -> 22         0.10320
       8 -> 23        -0.23282
       8 -> 24         0.49596
      11 -> 33         0.11482
      11 -> 38         0.15207
      12 -> 33        -0.12285
      12 -> 37        -0.15215

 Excited State 111:      Singlet-A"    17.1632 eV   72.24 nm  f=0.1032  <S**2>=0.000
       8 -> 25         0.67685

 Excited State 112:      Singlet-A"    17.3150 eV   71.60 nm  f=0.0000  <S**2>=0.000
       7 -> 21        -0.10466
       8 -> 26         0.67657

 Excited State 113:      Singlet-A"    17.3151 eV   71.60 nm  f=0.0000  <S**2>=0.000
       7 -> 22        -0.10467
       8 -> 27         0.67656

 Excited State 114:      Singlet-A"    17.4342 eV   71.12 nm  f=0.0000  <S**2>=0.000
       7 -> 24         0.20606
      10 -> 31         0.65638

 Excited State 115:      Singlet-A"    17.4343 eV   71.12 nm  f=0.0000  <S**2>=0.000
       7 -> 23        -0.20616
       9 -> 31         0.65634

 Excited State 116:      Singlet-A"    17.4942 eV   70.87 nm  f=0.0000  <S**2>=0.000
      11 -> 35        -0.49291
      12 -> 36         0.49354

 Excited State 117:      Singlet-A'    17.5171 eV   70.78 nm  f=0.0000  <S**2>=0.000
      11 -> 37        -0.33145
      11 -> 38        -0.33104
      11 -> 42        -0.10113
      12 -> 37        -0.33116

 The electronic state is 1-A'.
 Alpha  occ. eigenvalues --  -10.18630 -10.18600 -10.18600  -0.84995  -0.59347
 Alpha  occ. eigenvalues --   -0.59346  -0.49804  -0.47078  -0.36608  -0.36607
 Alpha  occ. eigenvalues --   -0.30113  -0.30113
 Alpha virt. eigenvalues --    0.02826   0.04996   0.04996   0.06426   0.10640
 Alpha virt. eigenvalues --    0.12614   0.14181   0.14181   0.16565   0.16566
 Alpha virt. eigenvalues --    0.19101   0.19101   0.19661   0.20566   0.20566

 Mulliken charges:
               1
     1  C    0.633751
     2  C    0.633836
     3  C    0.633738
     4  H   -0.316881
     5  H   -0.316881
     6  H   -0.316896
     7  H   -0.316896
     8  H   -0.316886
     9  H   -0.316886
 Sum of Mulliken charges =  -0.00000

 Dipole moment (field-independent basis, Debye):
    X=             -0.0000    Y=              0.0000    Z=              0.0000  Tot=              0.0000
 Quadrupole moment (field-independent basis, Debye-Ang):
   XX=            -20.8997   YY=            -20.8997   ZZ=            -18.7076
   XY=             -0.0001   XZ=             -0.0000   YZ=              0.0000

 Normal termination of Gaussian 16 at Mon Mar 21 20:01:23 2022.
