 Gaussian 16, Revision C.01,
 Gaussian 16:  EM64L-G16RevC.01  3-Jul-2019

 ---------------------------------------------------------------------
 #P TD(Nstates=10000) b3lyp/Gen SCF(maxcycles=100) Int(Grid=ultrafine)
 ---------------------------------------------------------------------

 ---------------------
 xGDB7_00001_tier4.com
 ---------------------
 Symbolic Z-matrix:
 Charge =  0 Multiplicity = 1

                         Standard orientation:
 ---------------------------------------------------------------------
 Center     Atomic      Atomic             Coordinates (Angstroms)
 Number     Number       Type             X           Y           Z
 ---------------------------------------------------------------------
      1          6           0        0.000284   -0.018657   -1.236532
      2          6           0       -0.000055    0.003295    0.218717
      3          6           0       -0.000323    0.021367    1.415619
      4          1           0        0.273656    0.958689   -1.636635
      5          1           0       -0.987794   -0.279414   -1.618263
      6          1           0        0.715256   -0.752703   -1.610700
      7          1           0       -0.000556    0.037402    2.478776
 ---------------------------------------------------------------------

 SCF Done:  E(RB3LYP) =  -116.576285738     A.U. after   12 cycles

 Excitation energies and oscillator strengths:

 Excited State   1:      Singlet-A      6.7536 eV  183.58 nm  f=0.0000  <S**2>=0.000
      10 -> 13        -0.31903
      10 -> 14         0.38001
      11 -> 13         0.38007
      11 -> 14         0.31902
 This state for optimization and/or second-order correction.
 Total Energy, E(TD-HF/TD-DFT) =  -116.328096305
 Copying the excited state density for this state as the 1-particle RhoCI density.

 Excited State   2:      Singlet-A      6.9327 eV  178.84 nm  f=0.0011  <S**2>=0.000
      10 -> 13        -0.19902
      10 -> 14         0.45486
      11 -> 13        -0.45483
      11 -> 14        -0.19898

 Excited State   3:      Singlet-A      6.9328 eV  178.84 nm  f=0.0011  <S**2>=0.000
      10 -> 13         0.45484
      10 -> 14         0.19902
      11 -> 13        -0.19899
      11 -> 14         0.45486

 Excited State   4:      Singlet-A      7.0608 eV  175.60 nm  f=0.0093  <S**2>=0.000
      11 -> 12         0.70311

 Excited State   5:      Singlet-A      7.0608 eV  175.60 nm  f=0.0093  <S**2>=0.000
      10 -> 12         0.70312

 Excited State   6:      Singlet-A      8.0287 eV  154.43 nm  f=0.0304  <S**2>=0.000
      11 -> 15         0.69711

 Excited State   7:      Singlet-A      8.0287 eV  154.43 nm  f=0.0304  <S**2>=0.000
      10 -> 15         0.69711

 Excited State   8:      Singlet-A      8.7149 eV  142.27 nm  f=0.0493  <S**2>=0.000
      10 -> 16        -0.15188
      11 -> 16         0.68348

 Excited State   9:      Singlet-A      8.7149 eV  142.27 nm  f=0.0493  <S**2>=0.000
      10 -> 16         0.68348
      11 -> 16         0.15188

 Excited State  10:      Singlet-A      9.1971 eV  134.81 nm  f=0.5588  <S**2>=0.000
      10 -> 13        -0.28902
      10 -> 14        -0.24262
      10 -> 17        -0.29685
      10 -> 18         0.10373
      11 -> 13        -0.24261
      11 -> 14         0.28902
      11 -> 17         0.10374
      11 -> 18         0.29686

 Excited State  11:      Singlet-A      9.6463 eV  128.53 nm  f=0.0000  <S**2>=0.000
      10 -> 17         0.16278
      10 -> 18         0.46473
      11 -> 17         0.46632
      11 -> 18        -0.16258

 Excited State  12:      Singlet-A      9.6528 eV  128.44 nm  f=0.0041  <S**2>=0.000
      10 -> 17         0.47752
      10 -> 18        -0.13667
      11 -> 17         0.13608
      11 -> 18         0.47772

 Excited State  13:      Singlet-A      9.6528 eV  128.44 nm  f=0.0041  <S**2>=0.000
      10 -> 17         0.13662
      10 -> 18         0.47831
      11 -> 17        -0.47693
      11 -> 18         0.13614

 Excited State  14:      Singlet-A     10.3158 eV  120.19 nm  f=0.0000  <S**2>=0.000
      10 -> 19         0.48566
      11 -> 20        -0.48564

 Excited State  15:      Singlet-A     10.3865 eV  119.37 nm  f=0.2726  <S**2>=0.000
      10 -> 13         0.15595
      10 -> 14         0.13092
      10 -> 17        -0.29193
      10 -> 18         0.10200
      10 -> 20         0.30387
      11 -> 13         0.13091
      11 -> 14        -0.15595
      11 -> 17         0.10202
      11 -> 18         0.29191
      11 -> 19         0.30376

 Excited State  16:      Singlet-A     10.4032 eV  119.18 nm  f=0.0000  <S**2>=0.000
      10 -> 19         0.20436
      10 -> 20         0.40932
      10 -> 21         0.25033
      11 -> 19        -0.40925
      11 -> 20         0.20438
      11 -> 21        -0.11059

 Excited State  17:      Singlet-A     10.4033 eV  119.18 nm  f=0.0000  <S**2>=0.000
      10 -> 19         0.40924
      10 -> 20        -0.20415
      10 -> 21        -0.11060
      11 -> 19         0.20459
      11 -> 20         0.40933
      11 -> 21        -0.25034

 Excited State  18:      Singlet-A     10.4551 eV  118.59 nm  f=0.4074  <S**2>=0.000
      10 -> 13        -0.14793
      10 -> 14        -0.12418
      10 -> 17         0.20440
      10 -> 20         0.37900
      11 -> 13        -0.12418
      11 -> 14         0.14793
      11 -> 18        -0.20441
      11 -> 19         0.37899

 Excited State  19:      Singlet-A     10.5398 eV  117.63 nm  f=0.0251  <S**2>=0.000
      10 -> 19         0.18623
      10 -> 21         0.13215
      11 -> 20         0.18623
      11 -> 21         0.63288

 Excited State  20:      Singlet-A     10.5398 eV  117.63 nm  f=0.0251  <S**2>=0.000
      10 -> 20        -0.18628
      10 -> 21         0.63288
      11 -> 19         0.18616
      11 -> 21        -0.13216

 Excited State  21:      Singlet-A     11.3607 eV  109.13 nm  f=0.1093  <S**2>=0.000
       9 -> 12         0.69500

 Excited State  22:      Singlet-A     11.3608 eV  109.13 nm  f=0.1093  <S**2>=0.000
       8 -> 12         0.69500

 Excited State  23:      Singlet-A     11.5098 eV  107.72 nm  f=0.0093  <S**2>=0.000
      10 -> 22         0.48623
      11 -> 23         0.48626

 Excited State  24:      Singlet-A     11.5098 eV  107.72 nm  f=0.0093  <S**2>=0.000
      10 -> 23        -0.48603
      11 -> 22         0.48646

 Excited State  25:      Singlet-A     11.5307 eV  107.52 nm  f=0.0000  <S**2>=0.000
      10 -> 23         0.48877
      11 -> 22         0.48833

 Excited State  26:      Singlet-A     11.6508 eV  106.42 nm  f=0.0000  <S**2>=0.000
       8 -> 13        -0.41822
       8 -> 14         0.26857
       9 -> 13         0.26878
       9 -> 14         0.41841

 Excited State  27:      Singlet-A     11.7986 eV  105.08 nm  f=0.0222  <S**2>=0.000
       7 -> 13        -0.25250
       8 -> 13        -0.18119
       8 -> 14        -0.41453
       9 -> 13         0.41454
       9 -> 14        -0.18135
      11 -> 24         0.10056

 Excited State  28:      Singlet-A     11.7987 eV  105.08 nm  f=0.0222  <S**2>=0.000
       7 -> 14         0.25246
       8 -> 13         0.41466
       8 -> 14        -0.18134
       9 -> 13         0.18122
       9 -> 14         0.41445
      10 -> 24        -0.10049

 Excited State  29:      Singlet-A     11.9122 eV  104.08 nm  f=0.0000  <S**2>=0.000
       7 -> 14         0.34861
       8 -> 13        -0.14013
       8 -> 14         0.10420
       9 -> 13        -0.10414
       9 -> 14        -0.14006
      10 -> 24        -0.38931
      11 -> 24         0.39788

 Excited State  30:      Singlet-A     11.9122 eV  104.08 nm  f=0.0000  <S**2>=0.000
       7 -> 13        -0.34857
       8 -> 13         0.10419
       8 -> 14         0.14015
       9 -> 13        -0.14015
       9 -> 14         0.10418
      10 -> 24         0.39786
      11 -> 24         0.38931

 Excited State  31:      Singlet-A     11.9915 eV  103.39 nm  f=0.0185  <S**2>=0.000
       7 -> 12         0.68002
      10 -> 22         0.11248
      11 -> 23        -0.11248

 Excited State  32:      Singlet-A     12.3444 eV  100.44 nm  f=0.0108  <S**2>=0.000
       7 -> 13         0.19606
       7 -> 14         0.49938
      10 -> 24         0.35994
      11 -> 24        -0.19585

 Excited State  33:      Singlet-A     12.3444 eV  100.44 nm  f=0.0108  <S**2>=0.000
       7 -> 13         0.49939
       7 -> 14        -0.19607
      10 -> 24         0.19585
      11 -> 24         0.35991

 Excited State  34:      Singlet-A     12.3620 eV  100.29 nm  f=0.0718  <S**2>=0.000
       7 -> 12        -0.13138
       8 -> 13         0.18631
       8 -> 14         0.29001
       9 -> 13         0.29009
       9 -> 14        -0.18628
      10 -> 22         0.27572
      10 -> 25        -0.10585
      11 -> 23        -0.27571
      11 -> 26         0.10586

 Excited State  35:      Singlet-A     12.5998 eV   98.40 nm  f=0.1686  <S**2>=0.000
       7 -> 12        -0.12225
       7 -> 15        -0.21280
       8 -> 13        -0.16259
       8 -> 14        -0.25314
       9 -> 13        -0.25310
       9 -> 14         0.16256
      10 -> 22         0.31913
      11 -> 23        -0.31913

 Excited State  36:      Singlet-A     12.6413 eV   98.08 nm  f=0.0012  <S**2>=0.000
       9 -> 15         0.67613
       9 -> 16         0.17922

 Excited State  37:      Singlet-A     12.6414 eV   98.08 nm  f=0.0012  <S**2>=0.000
       8 -> 15         0.67613
       8 -> 16         0.17922

 Excited State  38:      Singlet-A     13.1641 eV   94.18 nm  f=0.0012  <S**2>=0.000
       9 -> 15        -0.18349
       9 -> 16         0.67291

 Excited State  39:      Singlet-A     13.1642 eV   94.18 nm  f=0.0012  <S**2>=0.000
       8 -> 15        -0.18349
       8 -> 16         0.67291

 Excited State  40:      Singlet-A     13.2612 eV   93.49 nm  f=0.0000  <S**2>=0.000
      10 -> 26         0.48985
      11 -> 25         0.48987

 Excited State  41:      Singlet-A     13.2659 eV   93.46 nm  f=0.0000  <S**2>=0.000
       7 -> 15         0.61718
      10 -> 25        -0.16555
      11 -> 26         0.16555

 Excited State  42:      Singlet-A     13.3298 eV   93.01 nm  f=0.0182  <S**2>=0.000
       7 -> 15        -0.21878
      10 -> 25        -0.42737
      10 -> 28        -0.13211
      11 -> 26         0.42737
      11 -> 27        -0.13210

 Excited State  43:      Singlet-A     13.5959 eV   91.19 nm  f=0.0778  <S**2>=0.000
       6 -> 13         0.30645
      10 -> 25         0.38528
      10 -> 26         0.19037
      11 -> 25        -0.19035
      11 -> 26         0.38529

 Excited State  44:      Singlet-A     13.5959 eV   91.19 nm  f=0.0778  <S**2>=0.000
       6 -> 14        -0.30645
      10 -> 25        -0.19036
      10 -> 26         0.38530
      11 -> 25        -0.38528
      11 -> 26        -0.19035

 Excited State  45:      Singlet-A     13.7500 eV   90.17 nm  f=0.0000  <S**2>=0.000
       8 -> 18         0.49621
       9 -> 17         0.49809

 Excited State  46:      Singlet-A     13.7809 eV   89.97 nm  f=0.0573  <S**2>=0.000
       8 -> 18         0.47655
       9 -> 17        -0.47463

 Excited State  47:      Singlet-A     13.7809 eV   89.97 nm  f=0.0573  <S**2>=0.000
       8 -> 17         0.47557
       9 -> 18         0.47563

 Excited State  48:      Singlet-A     13.7855 eV   89.94 nm  f=0.2321  <S**2>=0.000
       7 -> 16         0.68267

 Excited State  49:      Singlet-A     13.8701 eV   89.39 nm  f=0.0162  <S**2>=0.000
       6 -> 14        -0.20562
      10 -> 27        -0.15365
      10 -> 28        -0.44080
      11 -> 27         0.44087
      11 -> 28        -0.15378

 Excited State  50:      Singlet-A     13.8701 eV   89.39 nm  f=0.0162  <S**2>=0.000
       6 -> 13        -0.20566
      10 -> 27         0.44088
      10 -> 28        -0.15369
      11 -> 27         0.15374
      11 -> 28         0.44077

 Excited State  51:      Singlet-A     13.8951 eV   89.23 nm  f=0.0000  <S**2>=0.000
      10 -> 27        -0.42807
      10 -> 28        -0.24256
      11 -> 27        -0.24236
      11 -> 28         0.42811

 Excited State  52:      Singlet-A     14.0319 eV   88.36 nm  f=0.0007  <S**2>=0.000
       6 -> 12         0.68304

 Excited State  53:      Singlet-A     14.1318 eV   87.73 nm  f=0.0106  <S**2>=0.000
       6 -> 13         0.17229
      10 -> 29         0.27433
      11 -> 29         0.60534

 Excited State  54:      Singlet-A     14.1318 eV   87.73 nm  f=0.0106  <S**2>=0.000
       6 -> 14         0.17236
      10 -> 29         0.60532
      11 -> 29        -0.27431

 Excited State  55:      Singlet-A     14.3760 eV   86.24 nm  f=0.0701  <S**2>=0.000
       7 -> 17         0.66976

 Excited State  56:      Singlet-A     14.3760 eV   86.24 nm  f=0.0701  <S**2>=0.000
       7 -> 18         0.66976

 Excited State  57:      Singlet-A     14.3869 eV   86.18 nm  f=0.0000  <S**2>=0.000
       8 -> 19        -0.43700
       8 -> 20        -0.23551
       9 -> 19        -0.23557
       9 -> 20         0.43712

 Excited State  58:      Singlet-A     14.4283 eV   85.93 nm  f=0.0134  <S**2>=0.000
       6 -> 12         0.10795
       8 -> 17         0.29764
       8 -> 19        -0.17914
       8 -> 20         0.33234
       9 -> 18        -0.29762
       9 -> 19         0.33251
       9 -> 20         0.17917

 Excited State  59:      Singlet-A     14.5879 eV   84.99 nm  f=0.1238  <S**2>=0.000
       6 -> 15        -0.23742
       7 -> 21         0.10197
       8 -> 17         0.16773
       8 -> 20        -0.12446
       9 -> 18        -0.16742
       9 -> 19        -0.12803
      10 -> 25        -0.10271
      10 -> 27        -0.17149
      10 -> 28         0.30457
      11 -> 26         0.10099
      11 -> 27         0.30443
      11 -> 28         0.17344

 Excited State  60:      Singlet-A     14.5893 eV   84.98 nm  f=0.0178  <S**2>=0.000
       6 -> 13         0.37875
       6 -> 14        -0.12642
       7 -> 18         0.13113
       8 -> 19        -0.19275
       8 -> 20         0.24276
       9 -> 19        -0.24006
       9 -> 20        -0.19127
       9 -> 21        -0.11372
      10 -> 25        -0.11660
      11 -> 26        -0.11868
      11 -> 29        -0.15660

 Excited State  61:      Singlet-A     14.5894 eV   84.98 nm  f=0.0178  <S**2>=0.000
       6 -> 13         0.12647
       6 -> 14         0.37878
       7 -> 17        -0.13112
       8 -> 19         0.24170
       8 -> 20         0.19160
       8 -> 21        -0.11372
       9 -> 19        -0.19238
       9 -> 20         0.24111
      10 -> 26         0.11769
      10 -> 29        -0.15671
      11 -> 25        -0.11760

 Excited State  62:      Singlet-A     14.8566 eV   83.45 nm  f=0.0611  <S**2>=0.000
       6 -> 13         0.19414
       6 -> 14        -0.13191
       8 -> 19         0.11233
       9 -> 20         0.11239
       9 -> 21         0.59089

 Excited State  63:      Singlet-A     14.8567 eV   83.45 nm  f=0.0611  <S**2>=0.000
       6 -> 13         0.13186
       6 -> 14         0.19411
       8 -> 20        -0.11228
       8 -> 21         0.59094
       9 -> 19         0.11240

 Excited State  64:      Singlet-A     14.9059 eV   83.18 nm  f=0.0198  <S**2>=0.000
       6 -> 15         0.28226
       6 -> 16         0.10690
       7 -> 21        -0.13341
       8 -> 17         0.28726
       8 -> 19         0.13009
       8 -> 20        -0.24144
       9 -> 18        -0.28724
       9 -> 19        -0.24140
       9 -> 20        -0.13011
      10 -> 28        -0.10817
      11 -> 27        -0.10815

 Excited State  65:      Singlet-A     15.1175 eV   82.01 nm  f=0.0284  <S**2>=0.000
       6 -> 15         0.50923
      10 -> 28         0.12443
      10 -> 31        -0.15088
      10 -> 32        -0.21340
      11 -> 27         0.12443
      11 -> 31        -0.21346
      11 -> 32         0.15084

 Excited State  66:      Singlet-A     15.1817 eV   81.67 nm  f=0.1993  <S**2>=0.000
       6 -> 13        -0.12772
       7 -> 19         0.42236
       7 -> 20         0.36045
       8 -> 19        -0.11293
       8 -> 20         0.13187
       9 -> 19        -0.13182
       9 -> 20        -0.11289
       9 -> 21         0.17415
      10 -> 30        -0.10056
      11 -> 30        -0.17814

 Excited State  67:      Singlet-A     15.1817 eV   81.67 nm  f=0.1991  <S**2>=0.000
       6 -> 14        -0.12764
       7 -> 19        -0.36065
       7 -> 20         0.42248
       8 -> 19         0.13175
       8 -> 20         0.11290
       8 -> 21         0.17400
       9 -> 19        -0.11287
       9 -> 20         0.13171
      10 -> 30        -0.17804
      11 -> 30         0.10045

 Excited State  68:      Singlet-A     15.2181 eV   81.47 nm  f=0.1638  <S**2>=0.000
       6 -> 14         0.13015
       7 -> 19        -0.26328
       7 -> 20         0.33403
       8 -> 19        -0.16726
       8 -> 20        -0.15496
       8 -> 21        -0.22330
       9 -> 19         0.15491
       9 -> 20        -0.16724
      10 -> 30         0.22742
      10 -> 31        -0.11744
      10 -> 34        -0.12031
      11 -> 30        -0.11695
      11 -> 32        -0.11740

 Excited State  69:      Singlet-A     15.2181 eV   81.47 nm  f=0.1636  <S**2>=0.000
       6 -> 13         0.13007
       7 -> 19         0.33416
       7 -> 20         0.26354
       8 -> 19         0.15489
       8 -> 20        -0.16716
       9 -> 19         0.16712
       9 -> 20         0.15484
       9 -> 21        -0.22324
      10 -> 30         0.11693
      10 -> 32        -0.11739
      11 -> 30         0.22746
      11 -> 31         0.11729
      11 -> 34        -0.12028

 Excited State  70:      Singlet-A     15.4563 eV   80.22 nm  f=0.0000  <S**2>=0.000
      10 -> 31         0.40697
      10 -> 32        -0.28572
      11 -> 31        -0.28786
      11 -> 32        -0.40452

 Excited State  71:      Singlet-A     15.4639 eV   80.18 nm  f=0.0040  <S**2>=0.000
      10 -> 30         0.14713
      10 -> 31         0.45678
      11 -> 30        -0.15264
      11 -> 32         0.45882

 Excited State  72:      Singlet-A     15.4639 eV   80.18 nm  f=0.0040  <S**2>=0.000
      10 -> 30         0.15258
      10 -> 32         0.45859
      11 -> 30         0.14674
      11 -> 31        -0.45716

 Excited State  73:      Singlet-A     15.5515 eV   79.72 nm  f=0.3422  <S**2>=0.000
       6 -> 13        -0.12721
       8 -> 19        -0.12412
       9 -> 20        -0.12409
       9 -> 21         0.15288
      10 -> 30         0.13994
      11 -> 30         0.55604
      11 -> 34         0.10980

 Excited State  74:      Singlet-A     15.5515 eV   79.72 nm  f=0.3422  <S**2>=0.000
       6 -> 14        -0.12720
       8 -> 20         0.12414
       8 -> 21         0.15284
       9 -> 19        -0.12411
      10 -> 30         0.55597
      10 -> 34         0.10979
      11 -> 30        -0.13987

 Excited State  75:      Singlet-A     15.7359 eV   78.79 nm  f=0.0182  <S**2>=0.000
       6 -> 15         0.12232
       6 -> 16         0.51424
       7 -> 21         0.43514

 Excited State  76:      Singlet-A     15.9302 eV   77.83 nm  f=0.0046  <S**2>=0.000
       6 -> 15        -0.12324
       6 -> 16         0.42500
       7 -> 21        -0.40639
      10 -> 31        -0.10243
      10 -> 32        -0.14492
      11 -> 31        -0.14491
      11 -> 32         0.10243

 Excited State  77:      Singlet-A     15.9518 eV   77.72 nm  f=0.0033  <S**2>=0.000
      10 -> 33         0.19793
      11 -> 33         0.67578

 Excited State  78:      Singlet-A     15.9518 eV   77.72 nm  f=0.0033  <S**2>=0.000
      10 -> 33         0.67578
      11 -> 33        -0.19793

 Excited State  79:      Singlet-A     16.0966 eV   77.02 nm  f=0.0069  <S**2>=0.000
      11 -> 34        -0.38760
      11 -> 35         0.50298
      11 -> 36        -0.14941

 Excited State  80:      Singlet-A     16.0967 eV   77.02 nm  f=0.0069  <S**2>=0.000
      10 -> 34        -0.38760
      10 -> 35         0.50301
      10 -> 36        -0.14940

 Excited State  81:      Singlet-A     16.0977 eV   77.02 nm  f=0.0006  <S**2>=0.000
       6 -> 15        -0.16090
       7 -> 21         0.26906
       8 -> 22        -0.22320
       9 -> 23         0.22078
      10 -> 28        -0.12784
      10 -> 31        -0.17017
      10 -> 32        -0.24090
      11 -> 27        -0.12765
      11 -> 31        -0.24056
      11 -> 32         0.17014

 Excited State  82:      Singlet-A     16.1526 eV   76.76 nm  f=0.0021  <S**2>=0.000
       8 -> 22        -0.17085
       8 -> 23        -0.43123
       9 -> 22         0.43245
       9 -> 23        -0.17072
      11 -> 35         0.21696

 Excited State  83:      Singlet-A     16.1527 eV   76.76 nm  f=0.0021  <S**2>=0.000
       8 -> 22         0.43182
       8 -> 23        -0.17051
       9 -> 22         0.17112
       9 -> 23         0.43187
      10 -> 35        -0.21688

 Excited State  84:      Singlet-A     16.1938 eV   76.56 nm  f=0.0000  <S**2>=0.000
       8 -> 23         0.49298
       9 -> 22         0.49168

 Excited State  85:      Singlet-A     16.2899 eV   76.11 nm  f=0.1699  <S**2>=0.000
       7 -> 23         0.11972
       9 -> 24        -0.12752
      10 -> 34        -0.16122
      10 -> 35        -0.13270
      11 -> 34         0.46019
      11 -> 35         0.37881

 Excited State  86:      Singlet-A     16.2899 eV   76.11 nm  f=0.1699  <S**2>=0.000
       7 -> 22        -0.11973
       8 -> 24        -0.12742
      10 -> 34         0.46020
      10 -> 35         0.37883
      11 -> 34         0.16116
      11 -> 35         0.13268

 Excited State  87:      Singlet-A     16.3479 eV   75.84 nm  f=0.0722  <S**2>=0.000
       6 -> 15        -0.11455
       8 -> 22         0.42501
       9 -> 23        -0.42454
      10 -> 31        -0.10300
      10 -> 32        -0.14569
      11 -> 31        -0.14600
      11 -> 32         0.10318

 Excited State  88:      Singlet-A     16.3516 eV   75.82 nm  f=0.0027  <S**2>=0.000
       9 -> 24         0.66090
      11 -> 34         0.17519

 Excited State  89:      Singlet-A     16.3517 eV   75.82 nm  f=0.0027  <S**2>=0.000
       8 -> 24         0.66096
      10 -> 34         0.17504

 Excited State  90:      Singlet-A     16.5749 eV   74.80 nm  f=0.0000  <S**2>=0.000
      10 -> 36        -0.16327
      11 -> 35         0.15413

 The electronic state is 1-A.
 Alpha  occ. eigenvalues --  -10.21184 -10.19116 -10.17752  -0.77827  -0.70040
 Alpha  occ. eigenvalues --   -0.52825  -0.46039  -0.43815  -0.43814  -0.27661
 Alpha  occ. eigenvalues --   -0.27661
 Alpha virt. eigenvalues --    0.01814   0.03821   0.03821   0.05476   0.08013
 Alpha virt. eigenvalues --    0.11530   0.11530   0.14225   0.14225   0.14994
 Alpha virt. eigenvalues --    0.19245   0.19245   0.20887   0.26325   0.26325

 Mulliken charges:
               1
     1  C    0.639976
     2  C    0.854470
     3  C   -0.924497
     4  H   -0.120463
     5  H   -0.120469
     6  H   -0.120474
     7  H   -0.208543
 Sum of Mulliken charges =  -0.00000

 Dipole moment (field-independent basis, Debye):
    X=              0.0002    Y=             -0.0120    Z=             -0.7953  Tot=              0.7954
 Quadrupole moment (field-independent basis, Debye-Ang):
   XX=            -19.6592   YY=            -19.6579   ZZ=            -14.5547
   XY=             -0.0000   XZ=             -0.0011   YZ=              0.0770

 Normal termination of Gaussian 16 at Mon Mar 21 20:12:13 2022.
