 Gaussian 16, Revision C.01,
 Gaussian 16:  EM64L-G16RevC.01  3-Jul-2019

 ---------------------------------------------------------------------
 #P TD(Nstates=10000) b3lyp/Gen SCF(maxcycles=100) Int(Grid=ultrafine)
 ---------------------------------------------------------------------

 ---------------------
 xGDB7_00001_tier4.com
 ---------------------
 Symbolic Z-matrix:
 Charge =  0 Multiplicity = 1

                         Standard orientation:
 ---------------------------------------------------------------------
 Center     Atomic      Atomic             Coordinates (Angstroms)
 Number     Number       Type             X           Y           Z
 ---------------------------------------------------------------------
      1          6           0        0.046419    0.658432    0.000000
      2          8           0        0.046419   -0.751929    0.000000
      3          1           0       -0.438905    1.073261    0.890797
      4          1           0       -0.438905    1.073261   -0.890797
      5          1           0        1.087855    0.977571    0.000000
      6          1           0       -0.859911   -1.059251    0.000000
 ---------------------------------------------------------------------

 SCF Done:  E(RB3LYP) =  -115.649164339     A.U. after   11 cycles

 Excitation energies and oscillator strengths:

 Excited State   1:      Singlet-A"     6.7275 eV  184.30 nm  f=0.0016  <S**2>=0.000
       9 -> 10         0.70092
 This state for optimization and/or second-order correction.
 Total Energy, E(TD-HF/TD-DFT) =  -115.401934362
 Copying the excited state density for this state as the 1-particle RhoCI density.

 Excited State   2:      Singlet-A"     7.8143 eV  158.66 nm  f=0.0323  <S**2>=0.000
       9 -> 11         0.70120

 Excited State   3:      Singlet-A'     8.4072 eV  147.47 nm  f=0.0016  <S**2>=0.000
       8 -> 10         0.70017

 Excited State   4:      Singlet-A"     8.9415 eV  138.66 nm  f=0.0122  <S**2>=0.000
       9 -> 13         0.70171

 Excited State   5:      Singlet-A'     8.9843 eV  138.00 nm  f=0.0618  <S**2>=0.000
       9 -> 12         0.70105

 Excited State   6:      Singlet-A'     9.4296 eV  131.48 nm  f=0.0571  <S**2>=0.000
       8 -> 11         0.69993

 Excited State   7:      Singlet-A"     9.7422 eV  127.27 nm  f=0.0055  <S**2>=0.000
       9 -> 14         0.69971

 Excited State   8:      Singlet-A"    10.0041 eV  123.93 nm  f=0.0068  <S**2>=0.000
       9 -> 15         0.69687

 Excited State   9:      Singlet-A'    10.5253 eV  117.80 nm  f=0.0076  <S**2>=0.000
       9 -> 16         0.68592
       9 -> 18         0.13719

 Excited State  10:      Singlet-A"    10.5508 eV  117.51 nm  f=0.0298  <S**2>=0.000
       8 -> 12         0.70466

 Excited State  11:      Singlet-A'    10.5656 eV  117.35 nm  f=0.0837  <S**2>=0.000
       8 -> 13         0.69793

 Excited State  12:      Singlet-A'    10.9471 eV  113.26 nm  f=0.0416  <S**2>=0.000
       7 -> 10         0.69557

 Excited State  13:      Singlet-A"    11.0245 eV  112.46 nm  f=0.0006  <S**2>=0.000
       6 -> 10        -0.13411
       9 -> 17         0.68948

 Excited State  14:      Singlet-A'    11.2016 eV  110.68 nm  f=0.0296  <S**2>=0.000
       8 -> 14        -0.19067
       8 -> 15         0.16717
       9 -> 16        -0.10168
       9 -> 18         0.63763

 Excited State  15:      Singlet-A"    11.2753 eV  109.96 nm  f=0.0692  <S**2>=0.000
       6 -> 10         0.68635
       9 -> 17         0.13646

 Excited State  16:      Singlet-A'    11.4516 eV  108.27 nm  f=0.0030  <S**2>=0.000
       7 -> 11        -0.14810
       8 -> 14         0.62896
       8 -> 15         0.22893

 Excited State  17:      Singlet-A'    11.8463 eV  104.66 nm  f=0.0366  <S**2>=0.000
       7 -> 11         0.48119
       8 -> 15         0.49983

 Excited State  18:      Singlet-A"    11.8752 eV  104.41 nm  f=0.0000  <S**2>=0.000
       8 -> 16         0.22271
       9 -> 19         0.65461

 Excited State  19:      Singlet-A"    11.9985 eV  103.33 nm  f=0.0162  <S**2>=0.000
       8 -> 16         0.66150
       9 -> 19        -0.21422

 Excited State  20:      Singlet-A'    12.0186 eV  103.16 nm  f=0.0971  <S**2>=0.000
       7 -> 11         0.47863
       8 -> 14         0.21589
       8 -> 15        -0.37599
       8 -> 17         0.13400
       9 -> 18         0.18527

 Excited State  21:      Singlet-A"    12.1719 eV  101.86 nm  f=0.0423  <S**2>=0.000
       6 -> 11         0.69983

 Excited State  22:      Singlet-A"    12.5988 eV   98.41 nm  f=0.0000  <S**2>=0.000
       7 -> 12        -0.18286
       8 -> 18         0.67963

 Excited State  23:      Singlet-A'    12.7318 eV   97.38 nm  f=0.0093  <S**2>=0.000
       6 -> 12         0.18155
       8 -> 17         0.65611

 Excited State  24:      Singlet-A"    12.8484 eV   96.50 nm  f=0.0374  <S**2>=0.000
       9 -> 20         0.68041

 Excited State  25:      Singlet-A"    13.0331 eV   95.13 nm  f=0.0035  <S**2>=0.000
       7 -> 12         0.67534
       8 -> 18         0.18576

 Excited State  26:      Singlet-A'    13.1589 eV   94.22 nm  f=0.0963  <S**2>=0.000
       6 -> 12         0.25760
       7 -> 13         0.63321
       8 -> 17        -0.14143

 Excited State  27:      Singlet-A'    13.2509 eV   93.57 nm  f=0.0566  <S**2>=0.000
       5 -> 10         0.62096
       6 -> 12        -0.28544
       7 -> 13         0.11562

 Excited State  28:      Singlet-A"    13.3378 eV   92.96 nm  f=0.0005  <S**2>=0.000
       6 -> 13         0.69661

 Excited State  29:      Singlet-A'    13.7221 eV   90.35 nm  f=0.0303  <S**2>=0.000
       5 -> 11        -0.16558
       6 -> 12         0.25332
       7 -> 13        -0.13269
       7 -> 14         0.21176
       7 -> 15         0.18677
       8 -> 19         0.51782

 Excited State  30:      Singlet-A'    13.8790 eV   89.33 nm  f=0.0671  <S**2>=0.000
       5 -> 10        -0.19102
       6 -> 12        -0.35665
       7 -> 13         0.11837
       7 -> 14        -0.30217
       7 -> 15        -0.16004
       8 -> 19         0.38242
       9 -> 24         0.16973

 Excited State  31:      Singlet-A"    13.8917 eV   89.25 nm  f=0.0015  <S**2>=0.000
       9 -> 21         0.69053

 Excited State  32:      Singlet-A'    14.0563 eV   88.21 nm  f=0.0141  <S**2>=0.000
       7 -> 14        -0.35560
       7 -> 15         0.35319
       9 -> 22         0.46860

 Excited State  33:      Singlet-A'    14.0835 eV   88.04 nm  f=0.0282  <S**2>=0.000
       5 -> 11         0.44555
       6 -> 12        -0.19639
       7 -> 13         0.10566
       7 -> 14         0.17356
       7 -> 15         0.39197
       9 -> 22        -0.19641

 Excited State  34:      Singlet-A'    14.2127 eV   87.23 nm  f=0.0774  <S**2>=0.000
       5 -> 10         0.14377
       5 -> 11         0.46325
       6 -> 12         0.21830
       7 -> 13        -0.13214
       7 -> 14        -0.16225
       7 -> 15        -0.28411
       8 -> 19         0.11231
       8 -> 20         0.10101
       9 -> 24         0.15689

 Excited State  35:      Singlet-A"    14.2891 eV   86.77 nm  f=0.0149  <S**2>=0.000
       6 -> 14         0.56787
       6 -> 15         0.17293
       7 -> 16         0.30908
       9 -> 23         0.17117

 Excited State  36:      Singlet-A'    14.3083 eV   86.65 nm  f=0.1142  <S**2>=0.000
       5 -> 11         0.14971
       6 -> 12        -0.10439
       6 -> 16         0.12954
       7 -> 14         0.37575
       7 -> 15        -0.21145
       8 -> 20        -0.13221
       9 -> 22         0.45108

 Excited State  37:      Singlet-A"    14.3337 eV   86.50 nm  f=0.0053  <S**2>=0.000
       6 -> 14        -0.34633
       6 -> 15         0.32486
       7 -> 16         0.50310

 Excited State  38:      Singlet-A"    14.4192 eV   85.99 nm  f=0.0179  <S**2>=0.000
       6 -> 14        -0.17008
       6 -> 15        -0.15835
       9 -> 23         0.65932

 Excited State  39:      Singlet-A'    14.4743 eV   85.66 nm  f=0.0147  <S**2>=0.000
       6 -> 16        -0.13108
       7 -> 14         0.11109
       8 -> 20         0.65142
       9 -> 22         0.12688

 Excited State  40:      Singlet-A'    14.6564 eV   84.59 nm  f=0.3748  <S**2>=0.000
       5 -> 11        -0.11486
       7 -> 15         0.11122
       8 -> 19        -0.16830
       9 -> 24         0.64524

 Excited State  41:      Singlet-A"    14.7218 eV   84.22 nm  f=0.2187  <S**2>=0.000
       6 -> 15         0.53846
       7 -> 16        -0.36742
       7 -> 18         0.16549
       9 -> 23         0.11444

 Excited State  42:      Singlet-A'    14.9610 eV   82.87 nm  f=0.1229  <S**2>=0.000
       6 -> 16         0.55378
       7 -> 17         0.37453
       8 -> 20         0.13227

 Excited State  43:      Singlet-A"    15.1084 eV   82.06 nm  f=0.0243  <S**2>=0.000
       5 -> 12         0.14515
       6 -> 15        -0.12715
       6 -> 17        -0.11839
       7 -> 18         0.66011

 Excited State  44:      Singlet-A'    15.2584 eV   81.26 nm  f=0.1853  <S**2>=0.000
       5 -> 13         0.15600
       6 -> 16        -0.34435
       7 -> 17         0.54228
       7 -> 19        -0.10080

 Excited State  45:      Singlet-A"    15.2799 eV   81.14 nm  f=0.0702  <S**2>=0.000
       5 -> 12         0.64607
       6 -> 17         0.13307
       7 -> 18        -0.11554
       9 -> 25        -0.20304

 Excited State  46:      Singlet-A"    15.3036 eV   81.02 nm  f=0.0138  <S**2>=0.000
       5 -> 12         0.18696
       6 -> 17         0.12142
       9 -> 25         0.66259

 Excited State  47:      Singlet-A'    15.4116 eV   80.45 nm  f=0.0188  <S**2>=0.000
       5 -> 13         0.48421
       6 -> 18         0.37264
       7 -> 17        -0.13795
       8 -> 21         0.30290

 Excited State  48:      Singlet-A"    15.4378 eV   80.31 nm  f=0.0642  <S**2>=0.000
       5 -> 12        -0.12820
       6 -> 17         0.62839
       7 -> 18         0.11060
       8 -> 22        -0.18870
       9 -> 25        -0.10044

 Excited State  49:      Singlet-A'    15.5791 eV   79.58 nm  f=0.0823  <S**2>=0.000
       5 -> 13        -0.32954
       6 -> 18         0.55016
       7 -> 17         0.15397
       7 -> 19         0.15404

 Excited State  50:      Singlet-A'    15.6037 eV   79.46 nm  f=0.0753  <S**2>=0.000
       5 -> 13        -0.28318
       5 -> 14        -0.10103
       5 -> 15        -0.12722
       7 -> 19        -0.13521
       8 -> 21         0.57005

 Excited State  51:      Singlet-A"    15.8424 eV   78.26 nm  f=0.1392  <S**2>=0.000
       6 -> 17         0.16585
       8 -> 22         0.66015

 Excited State  52:      Singlet-A'    16.0461 eV   77.27 nm  f=0.0246  <S**2>=0.000
       8 -> 23         0.54006
       9 -> 26        -0.43220

 Excited State  53:      Singlet-A"    16.0873 eV   77.07 nm  f=0.0338  <S**2>=0.000
       8 -> 24         0.39075
       9 -> 27         0.56478

 Excited State  54:      Singlet-A'    16.1056 eV   76.98 nm  f=0.0015  <S**2>=0.000
       5 -> 14         0.12092
       5 -> 15        -0.10178
       7 -> 19         0.11216
       8 -> 23         0.39930
       9 -> 26         0.54453

 Excited State  55:      Singlet-A"    16.1661 eV   76.69 nm  f=0.0011  <S**2>=0.000
       8 -> 24         0.56602
       9 -> 27        -0.38803

 Excited State  56:      Singlet-A'    16.2542 eV   76.28 nm  f=0.0108  <S**2>=0.000
       5 -> 14         0.54879
       5 -> 15        -0.22553
       7 -> 19         0.28873
       8 -> 23        -0.16160
       9 -> 26        -0.10558

 Excited State  57:      Singlet-A'    16.3351 eV   75.90 nm  f=0.0478  <S**2>=0.000
       5 -> 14        -0.38213
       5 -> 15        -0.27046
       6 -> 18        -0.10555
       7 -> 19         0.45283
       7 -> 20        -0.10419
       9 -> 28         0.13004

 Excited State  58:      Singlet-A"    16.4204 eV   75.51 nm  f=0.0128  <S**2>=0.000
       6 -> 19         0.67210
       6 -> 20        -0.10866

 Excited State  59:      Singlet-A'    16.5906 eV   74.73 nm  f=0.0271  <S**2>=0.000
       5 -> 15         0.45673
       7 -> 19         0.17718
       7 -> 20         0.14977
       9 -> 28         0.44143

 Excited State  60:      Singlet-A"    16.6123 eV   74.63 nm  f=0.0005  <S**2>=0.000
       5 -> 16        -0.46725
       6 -> 19         0.11738
       9 -> 29         0.49437
       9 -> 30        -0.10396

 Excited State  61:      Singlet-A'    16.7148 eV   74.18 nm  f=0.1251  <S**2>=0.000
       5 -> 15        -0.24387
       7 -> 19        -0.26379
       7 -> 20        -0.21495
       7 -> 21        -0.10049
       8 -> 25        -0.24202
       9 -> 28         0.46562

 Excited State  62:      Singlet-A"    16.8300 eV   73.67 nm  f=0.1735  <S**2>=0.000
       5 -> 16         0.50291
       9 -> 29         0.43404
       9 -> 30        -0.10615

 Excited State  63:      Singlet-A'    16.9472 eV   73.16 nm  f=0.0831  <S**2>=0.000
       7 -> 19        -0.12394
       8 -> 21        -0.10186
       8 -> 25         0.64593
       9 -> 28         0.14693

 Excited State  64:      Singlet-A"    17.1042 eV   72.49 nm  f=0.0002  <S**2>=0.000
       6 -> 20         0.11542
       9 -> 29         0.17151
       9 -> 30         0.65954

 Excited State  65:      Singlet-A'    17.1907 eV   72.12 nm  f=0.1640  <S**2>=0.000
       4 -> 10        -0.21954
       5 -> 15        -0.16252
       5 -> 17         0.23592
       7 -> 20         0.55617

 Excited State  66:      Singlet-A"    17.2594 eV   71.84 nm  f=0.0000  <S**2>=0.000
       5 -> 18         0.17923
       6 -> 19         0.10699
       6 -> 20         0.63956
       9 -> 30        -0.12656

 Excited State  67:      Singlet-A"    17.3968 eV   71.27 nm  f=0.0025  <S**2>=0.000
       5 -> 18         0.67040
       6 -> 20        -0.17113

 Excited State  68:      Singlet-A'    17.4443 eV   71.07 nm  f=0.0473  <S**2>=0.000
       4 -> 10         0.10511
       5 -> 17         0.64203
       7 -> 20        -0.16502
       8 -> 27         0.13395

 Excited State  69:      Singlet-A"    17.6514 eV   70.24 nm  f=0.0076  <S**2>=0.000
       8 -> 26         0.70034

 Excited State  70:      Singlet-A'    17.8241 eV   69.56 nm  f=0.0102  <S**2>=0.000
       4 -> 10         0.48644
       7 -> 20         0.18053
       7 -> 21        -0.28230
       8 -> 27         0.33692

 Excited State  71:      Singlet-A'    17.8487 eV   69.46 nm  f=0.0277  <S**2>=0.000
       4 -> 10        -0.33654
       7 -> 21         0.10636
       8 -> 27         0.57476

 Excited State  72:      Singlet-A"    17.9457 eV   69.09 nm  f=0.0074  <S**2>=0.000
       6 -> 21        -0.11203
       9 -> 31         0.68783

 Excited State  73:      Singlet-A'    18.0512 eV   68.68 nm  f=0.0050  <S**2>=0.000
       4 -> 10         0.22902
       5 -> 19         0.17157
       7 -> 21         0.58299
       9 -> 32         0.16967

 Excited State  74:      Singlet-A"    18.1502 eV   68.31 nm  f=0.0200  <S**2>=0.000
       6 -> 21        -0.19114
       7 -> 22         0.33773
       8 -> 28         0.56640

 Excited State  75:      Singlet-A"    18.2765 eV   67.84 nm  f=0.0108  <S**2>=0.000
       6 -> 21         0.10620
       7 -> 22         0.61436
       7 -> 24         0.10654
       8 -> 28        -0.29893

 Excited State  76:      Singlet-A'    18.3009 eV   67.75 nm  f=0.0034  <S**2>=0.000
       4 -> 11         0.17314
       8 -> 29         0.64985
       9 -> 32        -0.14297

 Excited State  77:      Singlet-A"    18.3533 eV   67.55 nm  f=0.0207  <S**2>=0.000
       6 -> 20        -0.11897
       6 -> 21         0.64475
       7 -> 24        -0.11770
       8 -> 28         0.17955
       9 -> 31         0.12003

 Excited State  78:      Singlet-A'    18.4396 eV   67.24 nm  f=0.0786  <S**2>=0.000
       5 -> 19         0.43647
       6 -> 22        -0.18731
       6 -> 24         0.10674
       7 -> 23         0.27720
       8 -> 29        -0.14635
       9 -> 32        -0.38540

 Excited State  79:      Singlet-A'    18.5248 eV   66.93 nm  f=0.0751  <S**2>=0.000
       5 -> 19        -0.33648
       5 -> 20         0.11305
       7 -> 23         0.57207
       8 -> 30        -0.11190

 Excited State  80:      Singlet-A"    18.6057 eV   66.64 nm  f=0.0471  <S**2>=0.000
       7 -> 24         0.67612
       8 -> 28         0.12529

 Excited State  81:      Singlet-A'    18.6467 eV   66.49 nm  f=0.0155  <S**2>=0.000
       4 -> 11         0.14639
       5 -> 19         0.12673
       6 -> 22         0.59073
       8 -> 30        -0.29451

 Excited State  82:      Singlet-A'    18.7052 eV   66.28 nm  f=0.0286  <S**2>=0.000
       4 -> 11         0.53433
       6 -> 22        -0.27318
       7 -> 23        -0.11769
       8 -> 29        -0.13131
       8 -> 30        -0.25523
       9 -> 32         0.12390

 Excited State  83:      Singlet-A'    18.8310 eV   65.84 nm  f=0.0006  <S**2>=0.000
       5 -> 19         0.24772
       5 -> 20         0.11496
       6 -> 24         0.19024
       7 -> 21        -0.14367
       7 -> 23         0.19618
       9 -> 32         0.49055
       9 -> 35         0.16836

 Excited State  84:      Singlet-A"    18.8321 eV   65.84 nm  f=0.0185  <S**2>=0.000
       6 -> 23         0.51234
       9 -> 33        -0.47232

 Excited State  85:      Singlet-A"    18.9039 eV   65.59 nm  f=0.0380  <S**2>=0.000
       6 -> 23         0.46162
       9 -> 33         0.50398

 Excited State  86:      Singlet-A'    18.9081 eV   65.57 nm  f=0.0123  <S**2>=0.000
       4 -> 11         0.31027
       5 -> 20        -0.24111
       6 -> 22         0.17019
       7 -> 25        -0.11309
       8 -> 30         0.51054

 Excited State  87:      Singlet-A'    19.0011 eV   65.25 nm  f=0.0423  <S**2>=0.000
       5 -> 19        -0.17338
       6 -> 24         0.64571
       9 -> 35        -0.11028

 Excited State  88:      Singlet-A'    19.2852 eV   64.29 nm  f=0.0896  <S**2>=0.000
       5 -> 20         0.46653
       7 -> 25        -0.45825
       9 -> 35        -0.11674

 Excited State  89:      Singlet-A"    19.2957 eV   64.25 nm  f=0.0024  <S**2>=0.000
       9 -> 34         0.69568

 Excited State  90:      Singlet-A'    19.4931 eV   63.60 nm  f=0.0092  <S**2>=0.000
       4 -> 13         0.10326
       5 -> 20         0.26922
       6 -> 28        -0.10475
       7 -> 25         0.45562
       7 -> 27         0.12999
       8 -> 30         0.11863
       8 -> 31         0.31433
       9 -> 35        -0.14303

 Excited State  91:      Singlet-A'    19.6539 eV   63.08 nm  f=0.0573  <S**2>=0.000
       4 -> 13        -0.17663
       5 -> 20        -0.21094
       6 -> 28         0.10276
       7 -> 25        -0.15435
       8 -> 31         0.59222

 Excited State  92:      Singlet-A"    19.6617 eV   63.06 nm  f=0.0568  <S**2>=0.000
       6 -> 25         0.68789

 Excited State  93:      Singlet-A"    19.8927 eV   62.33 nm  f=0.0086  <S**2>=0.000
       4 -> 12         0.68676

 Excited State  94:      Singlet-A'    19.9140 eV   62.26 nm  f=0.0242  <S**2>=0.000
       4 -> 13         0.64833
       5 -> 20        -0.10265
       5 -> 21         0.14366
       7 -> 25        -0.11757
       8 -> 31         0.10196

 Excited State  95:      Singlet-A"    20.0638 eV   61.79 nm  f=0.0043  <S**2>=0.000
       5 -> 22         0.10783
       7 -> 26         0.39021
       8 -> 32         0.53067
       9 -> 36         0.21407

 Excited State  96:      Singlet-A'    20.0721 eV   61.77 nm  f=0.0692  <S**2>=0.000
       4 -> 14         0.10480
       5 -> 20         0.12701
       5 -> 21        -0.26596
       5 -> 23         0.19589
       7 -> 29        -0.14080
       9 -> 35         0.51537

 Excited State  97:      Singlet-A"    20.0935 eV   61.70 nm  f=0.0009  <S**2>=0.000
       7 -> 26         0.17327
       8 -> 32        -0.36268
       9 -> 36         0.57023

 Excited State  98:      Singlet-A"    20.1391 eV   61.56 nm  f=0.0007  <S**2>=0.000
       6 -> 27         0.10933
       7 -> 26         0.55531
       8 -> 32        -0.24738
       9 -> 36        -0.32178

 Excited State  99:      Singlet-A'    20.3182 eV   61.02 nm  f=0.0748  <S**2>=0.000
       4 -> 13        -0.11774
       5 -> 21         0.53293
       6 -> 26         0.28125
       7 -> 27         0.11568
       7 -> 29        -0.10705
       8 -> 33         0.12422
       9 -> 35         0.17791

 Excited State 100:      Singlet-A'    20.3782 eV   60.84 nm  f=0.0113  <S**2>=0.000
       5 -> 21        -0.25776
       6 -> 26         0.62181
       7 -> 27        -0.10739

 Excited State 101:      Singlet-A"    20.4400 eV   60.66 nm  f=0.0001  <S**2>=0.000
       5 -> 22        -0.12045
       6 -> 27         0.28106
       7 -> 28         0.62817

 Excited State 102:      Singlet-A'    20.4559 eV   60.61 nm  f=0.0253  <S**2>=0.000
       6 -> 26        -0.14354
       7 -> 27        -0.28974
       8 -> 33         0.60870

 Excited State 103:      Singlet-A"    20.5103 eV   60.45 nm  f=0.0273  <S**2>=0.000
       5 -> 22         0.54384
       6 -> 27         0.41557

 Excited State 104:      Singlet-A'    20.5628 eV   60.30 nm  f=0.0730  <S**2>=0.000
       4 -> 14         0.13495
       5 -> 23        -0.17203
       6 -> 28         0.11523
       7 -> 27         0.50755
       7 -> 29        -0.15291
       8 -> 33         0.28145
       8 -> 36         0.13129

 Excited State 105:      Singlet-A"    20.5645 eV   60.29 nm  f=0.0001  <S**2>=0.000
       5 -> 22        -0.40322
       5 -> 24         0.17410
       6 -> 27         0.42333
       7 -> 28        -0.28540
       9 -> 36         0.12319

 Excited State 106:      Singlet-A'    20.7925 eV   59.63 nm  f=0.0884  <S**2>=0.000
       4 -> 14         0.48197
       4 -> 15         0.28980
       5 -> 23        -0.34131
       7 -> 27        -0.10433
       7 -> 29         0.10257

 Excited State 107:      Singlet-A'    20.8387 eV   59.50 nm  f=0.0104  <S**2>=0.000
       4 -> 14         0.41045
       4 -> 15        -0.22446
       5 -> 21         0.11607
       5 -> 23         0.37508
       6 -> 28        -0.15105
       7 -> 29         0.24227
       7 -> 30        -0.15599

 Excited State 108:      Singlet-A"    20.8843 eV   59.37 nm  f=0.0291  <S**2>=0.000
       5 -> 24         0.65052
       6 -> 27        -0.17363
       6 -> 29         0.16908

 Excited State 109:      Singlet-A'    20.9026 eV   59.32 nm  f=0.0460  <S**2>=0.000
       4 -> 14        -0.11122
       4 -> 15         0.32473
       5 -> 23         0.18430
       6 -> 28         0.30462
       7 -> 27         0.10017
       7 -> 29         0.25921
       8 -> 34         0.39824

 Excited State 110:      Singlet-A'    20.9162 eV   59.28 nm  f=0.0236  <S**2>=0.000
       4 -> 14         0.15462
       4 -> 15        -0.23510

 The electronic state is 1-A'.
 Alpha  occ. eigenvalues --  -19.14583 -10.23324  -1.01846  -0.68320  -0.51867
 Alpha  occ. eigenvalues --   -0.44765  -0.43554  -0.34448  -0.28581
 Alpha virt. eigenvalues --    0.00896   0.04031   0.08542   0.08661   0.11773
 Alpha virt. eigenvalues --    0.12968   0.13957   0.16111   0.16225   0.20182
 Alpha virt. eigenvalues --    0.23663   0.27135   0.27798   0.28706   0.29229

 Mulliken charges:
               1
     1  C    0.807940
     2  O   -0.412547
     3  H   -0.148061
     4  H   -0.148061
     5  H   -0.231795
     6  H    0.132523
 Sum of Mulliken charges =   0.00000

 Dipole moment (field-independent basis, Debye):
    X=             -1.3802    Y=              0.9697    Z=             -0.0000  Tot=              1.6868
 Quadrupole moment (field-independent basis, Debye-Ang):
   XX=            -11.9952   YY=            -13.6299   ZZ=            -14.0208
   XY=              2.1148   XZ=             -0.0000   YZ=              0.0000

 Normal termination of Gaussian 16 at Mon Mar 21 19:59:25 2022.
