 Gaussian 16, Revision C.01,
 Gaussian 16:  EM64L-G16RevC.01  3-Jul-2019

 ---------------------------------------------------------------------
 #P TD(Nstates=10000) b3lyp/Gen SCF(maxcycles=100) Int(Grid=ultrafine)
 ---------------------------------------------------------------------

 ---------------------
 xGDB7_00001_tier4.com
 ---------------------
 Symbolic Z-matrix:
 Charge =  0 Multiplicity = 1

                         Standard orientation:
 ---------------------------------------------------------------------
 Center     Atomic      Atomic             Coordinates (Angstroms)
 Number     Number       Type             X           Y           Z
 ---------------------------------------------------------------------
      1          6           0       -1.131573   -0.504386    0.000000
      2          6           0        0.000000    0.472223    0.000000
      3          6           0        1.284136    0.150792    0.000000
      4          1           0       -1.767446   -0.362776    0.877699
      5          1           0       -0.770122   -1.533458    0.000000
      6          1           0       -1.767446   -0.362776   -0.877699
      7          1           0       -0.276551    1.523465    0.000000
      8          1           0        1.608435   -0.884555    0.000000
      9          1           0        2.057749    0.908327    0.000000
 ---------------------------------------------------------------------

 SCF Done:  E(RB3LYP) =  -117.830286795     A.U. after   13 cycles

 Excitation energies and oscillator strengths:

 Excited State   1:      Singlet-A"     6.9197 eV  179.17 nm  f=0.0126  <S**2>=0.000
      12 -> 14         0.69960
 This state for optimization and/or second-order correction.
 Total Energy, E(TD-HF/TD-DFT) =  -117.575990669
 Copying the excited state density for this state as the 1-particle RhoCI density.

 Excited State   2:      Singlet-A'     7.5115 eV  165.06 nm  f=0.4001  <S**2>=0.000
      12 -> 13         0.69439

 Excited State   3:      Singlet-A"     7.6499 eV  162.07 nm  f=0.0008  <S**2>=0.000
      12 -> 15        -0.25333
      12 -> 16         0.65449

 Excited State   4:      Singlet-A"     7.6752 eV  161.54 nm  f=0.0341  <S**2>=0.000
      12 -> 15         0.65485
      12 -> 16         0.24573

 Excited State   5:      Singlet-A"     8.1815 eV  151.54 nm  f=0.0000  <S**2>=0.000
      11 -> 13         0.70146

 Excited State   6:      Singlet-A"     8.8488 eV  140.11 nm  f=0.0027  <S**2>=0.000
      10 -> 13        -0.14899
      12 -> 17         0.68209

 Excited State   7:      Singlet-A"     8.9946 eV  137.84 nm  f=0.0003  <S**2>=0.000
      10 -> 13         0.67649
      12 -> 17         0.15546

 Excited State   8:      Singlet-A'     9.1461 eV  135.56 nm  f=0.0304  <S**2>=0.000
      11 -> 14        -0.13541
      12 -> 18         0.69145

 Excited State   9:      Singlet-A'     9.3137 eV  133.12 nm  f=0.0338  <S**2>=0.000
      11 -> 14         0.68584
      12 -> 18         0.13214

 Excited State  10:      Singlet-A"     9.3435 eV  132.70 nm  f=0.0248  <S**2>=0.000
      12 -> 19         0.69851

 Excited State  11:      Singlet-A"     9.8170 eV  126.30 nm  f=0.0109  <S**2>=0.000
      12 -> 20         0.69903

 Excited State  12:      Singlet-A'     9.9218 eV  124.96 nm  f=0.0364  <S**2>=0.000
      10 -> 14         0.60466
      11 -> 15        -0.35632

 Excited State  13:      Singlet-A'    10.0357 eV  123.54 nm  f=0.0294  <S**2>=0.000
      10 -> 14         0.28690
      11 -> 15         0.52437
      11 -> 16         0.30900
      12 -> 21         0.18819

 Excited State  14:      Singlet-A'    10.1025 eV  122.73 nm  f=0.2133  <S**2>=0.000
      10 -> 14        -0.19946
      11 -> 15        -0.27870
      11 -> 16         0.60743

 Excited State  15:      Singlet-A"    10.2038 eV  121.51 nm  f=0.0014  <S**2>=0.000
       8 -> 13         0.65564
      12 -> 22         0.23537

 Excited State  16:      Singlet-A'    10.2380 eV  121.10 nm  f=0.0732  <S**2>=0.000
      11 -> 15        -0.10024
      11 -> 16        -0.15883
      12 -> 21         0.66514

 Excited State  17:      Singlet-A"    10.3311 eV  120.01 nm  f=0.0395  <S**2>=0.000
       8 -> 13        -0.23166
      12 -> 22         0.65473

 Excited State  18:      Singlet-A"    10.6042 eV  116.92 nm  f=0.0040  <S**2>=0.000
      12 -> 23         0.70084

 Excited State  19:      Singlet-A'    10.6613 eV  116.29 nm  f=0.0268  <S**2>=0.000
       9 -> 13         0.68124
      12 -> 24        -0.10350

 Excited State  20:      Singlet-A'    10.7885 eV  114.92 nm  f=0.0561  <S**2>=0.000
      10 -> 15         0.41273
      10 -> 16         0.52862
      12 -> 24         0.18436

 Excited State  21:      Singlet-A'    10.8297 eV  114.49 nm  f=0.0067  <S**2>=0.000
      10 -> 15         0.52775
      10 -> 16        -0.44633

 Excited State  22:      Singlet-A"    11.0567 eV  112.13 nm  f=0.1094  <S**2>=0.000
       9 -> 14         0.68943
       9 -> 15        -0.12082

 Excited State  23:      Singlet-A'    11.1241 eV  111.46 nm  f=0.0347  <S**2>=0.000
       8 -> 14        -0.10208
      10 -> 15        -0.16277
      10 -> 16        -0.11757
      11 -> 17        -0.26007
      12 -> 24         0.58712

 Excited State  24:      Singlet-A'    11.3330 eV  109.40 nm  f=0.0468  <S**2>=0.000
       8 -> 14         0.12612
       8 -> 15        -0.11608
      11 -> 17         0.60784
      12 -> 24         0.24528

 Excited State  25:      Singlet-A"    11.3646 eV  109.10 nm  f=0.0013  <S**2>=0.000
      11 -> 18         0.69136

 Excited State  26:      Singlet-A'    11.4240 eV  108.53 nm  f=0.0225  <S**2>=0.000
       8 -> 14         0.67506
      11 -> 17        -0.14807

 Excited State  27:      Singlet-A"    11.4511 eV  108.27 nm  f=0.0119  <S**2>=0.000
       7 -> 13         0.60199
      12 -> 25        -0.34613

 Excited State  28:      Singlet-A"    11.5988 eV  106.89 nm  f=0.0909  <S**2>=0.000
       7 -> 13         0.34619
      12 -> 25         0.58745

 Excited State  29:      Singlet-A'    11.7161 eV  105.82 nm  f=0.0784  <S**2>=0.000
      10 -> 17         0.13872
      11 -> 19         0.67194

 Excited State  30:      Singlet-A"    11.8874 eV  104.30 nm  f=0.0007  <S**2>=0.000
       9 -> 15         0.18551
       9 -> 16         0.65254
      10 -> 18        -0.17523

 Excited State  31:      Singlet-A'    11.9298 eV  103.93 nm  f=0.0803  <S**2>=0.000
       8 -> 15        -0.17509
       8 -> 16        -0.13550
      10 -> 17         0.60643
      11 -> 19        -0.14367
      11 -> 20        -0.19136
      12 -> 26         0.11539

 Excited State  32:      Singlet-A"    11.9728 eV  103.55 nm  f=0.0423  <S**2>=0.000
       9 -> 15         0.52681
       9 -> 16        -0.24724
      10 -> 18        -0.36965

 Excited State  33:      Singlet-A"    12.0089 eV  103.24 nm  f=0.0126  <S**2>=0.000
       9 -> 15         0.40575
      10 -> 18         0.55794

 Excited State  34:      Singlet-A'    12.0884 eV  102.56 nm  f=0.0377  <S**2>=0.000
       8 -> 15        -0.29961
       8 -> 16         0.36743
      10 -> 17         0.14605
      10 -> 19        -0.12973
      11 -> 20         0.45889

 Excited State  35:      Singlet-A'    12.1911 eV  101.70 nm  f=0.0280  <S**2>=0.000
       8 -> 15         0.50630
      10 -> 17         0.18312
      11 -> 20         0.25606
      12 -> 26         0.34508

 Excited State  36:      Singlet-A'    12.1960 eV  101.66 nm  f=0.0065  <S**2>=0.000
       8 -> 15         0.14220
       8 -> 16         0.54139
      11 -> 20        -0.38823
      12 -> 26        -0.10025

 Excited State  37:      Singlet-A'    12.3577 eV  100.33 nm  f=0.2025  <S**2>=0.000
       8 -> 15        -0.26605
       8 -> 16         0.11924
      10 -> 17        -0.17568
      11 -> 20        -0.14264
      12 -> 26         0.56557

 Excited State  38:      Singlet-A"    12.3799 eV  100.15 nm  f=0.0176  <S**2>=0.000
      11 -> 21         0.56775
      12 -> 27         0.40273

 Excited State  39:      Singlet-A"    12.4446 eV   99.63 nm  f=0.0318  <S**2>=0.000
      11 -> 21        -0.40094
      12 -> 27         0.56278
      12 -> 28        -0.10815

 Excited State  40:      Singlet-A'    12.4724 eV   99.41 nm  f=0.0468  <S**2>=0.000
       7 -> 14        -0.17610
       8 -> 16         0.11919
      10 -> 19         0.65138

 Excited State  41:      Singlet-A'    12.6483 eV   98.02 nm  f=0.0295  <S**2>=0.000
       7 -> 14         0.65461
      10 -> 19         0.14323
      11 -> 23         0.13829

 Excited State  42:      Singlet-A'    12.7255 eV   97.43 nm  f=0.0806  <S**2>=0.000
       8 -> 17         0.11540
      10 -> 20         0.10225
      11 -> 22         0.65951
      12 -> 26         0.10313

 Excited State  43:      Singlet-A'    12.8321 eV   96.62 nm  f=0.0023  <S**2>=0.000
       7 -> 16        -0.11162
       9 -> 18        -0.30581
      10 -> 20         0.60637

 Excited State  44:      Singlet-A"    12.8471 eV   96.51 nm  f=0.0006  <S**2>=0.000
       9 -> 17        -0.21827
      12 -> 27         0.11295
      12 -> 28         0.64837

 Excited State  45:      Singlet-A"    12.9695 eV   95.60 nm  f=0.0128  <S**2>=0.000
       9 -> 17         0.52247
       9 -> 19        -0.13804
      10 -> 21        -0.39657
      12 -> 28         0.17766

 Excited State  46:      Singlet-A"    13.0801 eV   94.79 nm  f=0.0082  <S**2>=0.000
       9 -> 17         0.37940
       9 -> 19         0.11979
      10 -> 21         0.53945
      11 -> 24         0.10637
      12 -> 28         0.12447

 Excited State  47:      Singlet-A'    13.0927 eV   94.70 nm  f=0.0603  <S**2>=0.000
       7 -> 16         0.14162
       9 -> 18        -0.20365
      11 -> 23         0.61385

 Excited State  48:      Singlet-A"    13.1623 eV   94.20 nm  f=0.0004  <S**2>=0.000
       8 -> 18        -0.13011
      11 -> 24         0.67768

 Excited State  49:      Singlet-A'    13.3021 eV   93.21 nm  f=0.1527  <S**2>=0.000
       7 -> 15        -0.10758
       8 -> 17         0.46339
       9 -> 18        -0.27507
      10 -> 20        -0.18099
      10 -> 22         0.35310

 Excited State  50:      Singlet-A'    13.3621 eV   92.79 nm  f=0.0071  <S**2>=0.000
       7 -> 15         0.51282
       7 -> 16        -0.39449
      10 -> 20        -0.12427
      12 -> 29         0.21328

 Excited State  51:      Singlet-A'    13.4046 eV   92.49 nm  f=0.2104  <S**2>=0.000
       7 -> 15         0.26512
       7 -> 16         0.24282
       8 -> 17        -0.31426
       9 -> 18        -0.16815
      10 -> 22         0.38400
      12 -> 29        -0.23004

 Excited State  52:      Singlet-A'    13.4477 eV   92.20 nm  f=0.0277  <S**2>=0.000
       7 -> 15         0.25612
       7 -> 16         0.40610
       8 -> 17         0.19856
       9 -> 18         0.22675
      10 -> 20         0.16446
      12 -> 29         0.33051

 Excited State  53:      Singlet-A"    13.4660 eV   92.07 nm  f=0.0002  <S**2>=0.000
       8 -> 18         0.66992
       9 -> 19         0.12243
      11 -> 24         0.13304

 Excited State  54:      Singlet-A'    13.6035 eV   91.14 nm  f=0.0271  <S**2>=0.000
       7 -> 15        -0.19074
       8 -> 17        -0.21700
       8 -> 19        -0.19943
      10 -> 22         0.24255
      10 -> 23         0.38673
      12 -> 29         0.34657

 Excited State  55:      Singlet-A"    13.6491 eV   90.84 nm  f=0.0624  <S**2>=0.000
       6 -> 13         0.20792
       8 -> 18        -0.13030
       9 -> 19         0.62030
      10 -> 21        -0.16383

 Excited State  56:      Singlet-A'    13.6687 eV   90.71 nm  f=0.0868  <S**2>=0.000
       7 -> 16        -0.22045
       8 -> 19         0.42064
       8 -> 20        -0.13581
       9 -> 18         0.25486
      10 -> 22         0.30767
      10 -> 23        -0.14092
      11 -> 23         0.19748

 Excited State  57:      Singlet-A'    13.7785 eV   89.98 nm  f=0.0051  <S**2>=0.000
       8 -> 17        -0.11647
       8 -> 19         0.37063
       8 -> 20         0.17091
       9 -> 18        -0.16890
       9 -> 21        -0.12779
      10 -> 22        -0.14782
      10 -> 23         0.11803
      11 -> 25        -0.36702
      12 -> 29         0.18829
      12 -> 31         0.10016

 Excited State  58:      Singlet-A'    13.8161 eV   89.74 nm  f=0.0375  <S**2>=0.000
       7 -> 15         0.12807
       8 -> 17         0.19420
       8 -> 19         0.16094
       9 -> 18         0.15440
      10 -> 23         0.52703
      12 -> 29        -0.27297

 Excited State  59:      Singlet-A"    13.8498 eV   89.52 nm  f=0.0026  <S**2>=0.000
       9 -> 20         0.31894
      12 -> 30         0.60321

 Excited State  60:      Singlet-A'    13.9134 eV   89.11 nm  f=0.0237  <S**2>=0.000
       8 -> 19         0.29371
       9 -> 18        -0.15907
      10 -> 22        -0.10551
      10 -> 25        -0.11833
      11 -> 25         0.56321

 Excited State  61:      Singlet-A"    13.9208 eV   89.06 nm  f=0.0025  <S**2>=0.000
       9 -> 20         0.59492
      12 -> 30        -0.33751

 Excited State  62:      Singlet-A"    13.9939 eV   88.60 nm  f=0.0050  <S**2>=0.000
       6 -> 13         0.28869
       7 -> 18         0.11166
      10 -> 24         0.61049

 Excited State  63:      Singlet-A'    14.1295 eV   87.75 nm  f=0.0258  <S**2>=0.000
       8 -> 20        -0.15600
      12 -> 31         0.66516

 Excited State  64:      Singlet-A"    14.3206 eV   86.58 nm  f=0.0949  <S**2>=0.000
       6 -> 13         0.33583
       7 -> 18         0.13465
       8 -> 21         0.42518
       9 -> 19        -0.15092
      10 -> 24        -0.26372
      11 -> 26        -0.24171

 Excited State  65:      Singlet-A'    14.3329 eV   86.50 nm  f=0.0017  <S**2>=0.000
       8 -> 20         0.39985
       9 -> 21         0.49887
      12 -> 31         0.15566

 Excited State  66:      Singlet-A'    14.3649 eV   86.31 nm  f=0.0393  <S**2>=0.000
       7 -> 17        -0.30835
       8 -> 20        -0.38891
       9 -> 21         0.39944
      10 -> 23         0.10302
      10 -> 25        -0.18257

 Excited State  67:      Singlet-A"    14.4103 eV   86.04 nm  f=0.0752  <S**2>=0.000
       6 -> 13        -0.37164
       7 -> 18        -0.13131
       8 -> 21         0.47030
       9 -> 22        -0.16490
      10 -> 24         0.17756
      11 -> 26        -0.11127

 Excited State  68:      Singlet-A"    14.5667 eV   85.12 nm  f=0.0014  <S**2>=0.000
       8 -> 21         0.13786
       9 -> 22         0.55718
       9 -> 23        -0.11047
      11 -> 26         0.10347
      12 -> 32         0.34321

 Excited State  69:      Singlet-A"    14.5995 eV   84.92 nm  f=0.0269  <S**2>=0.000
       8 -> 21        -0.21839
       9 -> 22        -0.17956
      11 -> 26        -0.38981
      12 -> 32         0.49454

 Excited State  70:      Singlet-A'    14.6163 eV   84.83 nm  f=0.0130  <S**2>=0.000
       7 -> 17        -0.43598
       8 -> 22        -0.24127
      10 -> 25         0.46224

 Excited State  71:      Singlet-A"    14.6333 eV   84.73 nm  f=0.0276  <S**2>=0.000
       6 -> 13         0.13489
       8 -> 21         0.11681
       9 -> 22        -0.29398
      11 -> 26         0.50065
      12 -> 32         0.33304

 Excited State  72:      Singlet-A'    14.7843 eV   83.86 nm  f=0.0059  <S**2>=0.000
       6 -> 14         0.20899
       6 -> 16        -0.10455
       7 -> 17         0.32406
       7 -> 19        -0.18198
       8 -> 20        -0.22998
       9 -> 21         0.10242
      10 -> 25         0.41736

 Excited State  73:      Singlet-A"    14.7941 eV   83.81 nm  f=0.0553  <S**2>=0.000
       6 -> 13        -0.11675
       7 -> 18         0.56580
       9 -> 23         0.36872

 Excited State  74:      Singlet-A'    14.8720 eV   83.37 nm  f=0.0061  <S**2>=0.000
       6 -> 14        -0.28314
       8 -> 22         0.48356
      10 -> 25         0.13293
      11 -> 27         0.36768

 Excited State  75:      Singlet-A"    14.8931 eV   83.25 nm  f=0.1224  <S**2>=0.000
       6 -> 13         0.11590
       7 -> 18        -0.33180
       9 -> 20        -0.11981
       9 -> 22         0.13101
       9 -> 23         0.55761

 Excited State  76:      Singlet-A'    14.9373 eV   83.00 nm  f=0.1835  <S**2>=0.000
       6 -> 14         0.55263
       7 -> 17        -0.16643
       7 -> 19         0.12026
       8 -> 20         0.10302
       8 -> 22         0.27602
       8 -> 23         0.11368

 Excited State  77:      Singlet-A"    14.9656 eV   82.85 nm  f=0.0090  <S**2>=0.000
      12 -> 33         0.69153

 Excited State  78:      Singlet-A'    15.0795 eV   82.22 nm  f=0.0900  <S**2>=0.000
       6 -> 14        -0.16937
       7 -> 19        -0.12637
       8 -> 22         0.15770
       8 -> 23         0.48412
      11 -> 27        -0.38040

 Excited State  79:      Singlet-A'    15.1073 eV   82.07 nm  f=0.1296  <S**2>=0.000
       7 -> 17         0.13345
       7 -> 19         0.35380
       8 -> 22        -0.11803
       8 -> 23         0.42879
       9 -> 24         0.12037
      10 -> 27        -0.10617
      11 -> 27         0.30446

 Excited State  80:      Singlet-A"    15.1915 eV   81.61 nm  f=0.0081  <S**2>=0.000
      10 -> 26        -0.15071
      12 -> 34         0.67348

 Excited State  81:      Singlet-A'    15.2204 eV   81.46 nm  f=0.1810  <S**2>=0.000
       6 -> 16        -0.15073
       7 -> 19         0.41780
       8 -> 20        -0.11474
       8 -> 22         0.18849
       8 -> 23        -0.19878
       9 -> 24         0.26635
      10 -> 28        -0.13279
      11 -> 27        -0.23435

 Excited State  82:      Singlet-A"    15.2645 eV   81.22 nm  f=0.0292  <S**2>=0.000
       8 -> 24         0.46850
      10 -> 26        -0.44359
      11 -> 29        -0.24562

 Excited State  83:      Singlet-A'    15.2943 eV   81.07 nm  f=0.0984  <S**2>=0.000
       6 -> 16         0.11783
       7 -> 19        -0.18414
       9 -> 24         0.58510
      11 -> 28         0.26592

 Excited State  84:      Singlet-A"    15.2986 eV   81.04 nm  f=0.0182  <S**2>=0.000
       8 -> 24         0.39481
      10 -> 26         0.50624
      11 -> 29        -0.22229
      12 -> 34         0.13301

 Excited State  85:      Singlet-A'    15.4683 eV   80.15 nm  f=0.1419  <S**2>=0.000
       6 -> 15         0.21414
       7 -> 19         0.11722
       9 -> 24        -0.21480
      10 -> 27        -0.22575
      11 -> 27        -0.11655
      11 -> 28         0.50233
      12 -> 35        -0.15478

 Excited State  86:      Singlet-A'    15.4747 eV   80.12 nm  f=0.0180  <S**2>=0.000
       6 -> 16        -0.12575
       7 -> 20         0.45057
      10 -> 27         0.15145
      11 -> 28         0.14850
      12 -> 35         0.46324

 Excited State  87:      Singlet-A'    15.5179 eV   79.90 nm  f=0.0048  <S**2>=0.000
       6 -> 15        -0.31862
       7 -> 20         0.46896
      10 -> 27        -0.14428
      12 -> 35        -0.36511

 Excited State  88:      Singlet-A"    15.5693 eV   79.63 nm  f=0.0193  <S**2>=0.000
       7 -> 21         0.17017
       8 -> 24         0.32989
      11 -> 29         0.57732

 Excited State  89:      Singlet-A'    15.6107 eV   79.42 nm  f=0.1010  <S**2>=0.000
       6 -> 15         0.15098
       7 -> 22         0.14014
      10 -> 27         0.56375
      11 -> 28         0.10452
      12 -> 35        -0.29730

 Excited State  90:      Singlet-A"    15.6356 eV   79.30 nm  f=0.0007  <S**2>=0.000
       7 -> 21         0.12263
       9 -> 25         0.33652
      12 -> 36         0.59892

 Excited State  91:      Singlet-A"    15.7023 eV   78.96 nm  f=0.0006  <S**2>=0.000
       7 -> 21         0.35996
       9 -> 25         0.44596
      11 -> 29        -0.16393
      12 -> 36        -0.33353

 Excited State  92:      Singlet-A'    15.7358 eV   78.79 nm  f=0.0072  <S**2>=0.000
       6 -> 15         0.40979
       6 -> 16         0.38017
       7 -> 20         0.18080
       7 -> 22        -0.15227
       8 -> 25         0.18152
      10 -> 27        -0.13055
      10 -> 28        -0.13297
      11 -> 28        -0.14737

 Excited State  93:      Singlet-A'    15.8004 eV   78.47 nm  f=0.0055  <S**2>=0.000
       6 -> 15        -0.34058
       6 -> 16         0.43859
       7 -> 19         0.14977
       8 -> 25         0.21284
      11 -> 28         0.12401
      12 -> 35         0.13069

 Excited State  94:      Singlet-A"    15.9146 eV   77.91 nm  f=0.1018  <S**2>=0.000
       7 -> 21         0.53477
       9 -> 25        -0.38743
      12 -> 36         0.10645

 Excited State  95:      Singlet-A'    15.9525 eV   77.72 nm  f=0.0676  <S**2>=0.000
       6 -> 16        -0.10048
       7 -> 22         0.40799
       8 -> 25         0.36426
      10 -> 28        -0.36117

 Excited State  96:      Singlet-A'    16.0205 eV   77.39 nm  f=0.0093  <S**2>=0.000
       6 -> 16        -0.18091
       7 -> 22        -0.28965
       8 -> 25         0.48292
      10 -> 28         0.19301
      11 -> 30         0.15620
      12 -> 40         0.13358

 Excited State  97:      Singlet-A'    16.2002 eV   76.53 nm  f=0.0090  <S**2>=0.000
       7 -> 22         0.16620
       8 -> 25        -0.11647
      11 -> 30         0.65446

 Excited State  98:      Singlet-A"    16.2198 eV   76.44 nm  f=0.0000  <S**2>=0.000
      10 -> 29         0.16672
      12 -> 37         0.65294
      12 -> 39         0.16343

 Excited State  99:      Singlet-A'    16.2742 eV   76.18 nm  f=0.2002  <S**2>=0.000
       7 -> 22         0.37805
       9 -> 26        -0.14758
      10 -> 27        -0.12775
      10 -> 28         0.42454
      11 -> 28        -0.14846
      12 -> 40         0.13594

 Excited State 100:      Singlet-A"    16.2812 eV   76.15 nm  f=0.0014  <S**2>=0.000
      12 -> 37        -0.16794
      12 -> 39         0.67582

 Excited State 101:      Singlet-A"    16.3562 eV   75.80 nm  f=0.0001  <S**2>=0.000
       7 -> 24         0.26065
      10 -> 29         0.60319
      12 -> 37        -0.17917

 Excited State 102:      Singlet-A'    16.3749 eV   75.72 nm  f=0.0002  <S**2>=0.000
       7 -> 23         0.32129
       9 -> 26        -0.11074
      10 -> 28        -0.11764
      12 -> 38        -0.24315
      12 -> 40         0.50459

 Excited State 103:      Singlet-A'    16.4337 eV   75.44 nm  f=0.0340  <S**2>=0.000
       6 -> 17        -0.10189
       7 -> 23         0.50773
       9 -> 26        -0.22760
      12 -> 38         0.31678
      12 -> 40        -0.19181

 Excited State 104:      Singlet-A"    16.4432 eV   75.40 nm  f=0.1584  <S**2>=0.000
      11 -> 31         0.67787

 Excited State 105:      Singlet-A'    16.4594 eV   75.33 nm  f=0.1113  <S**2>=0.000
       7 -> 23        -0.26545
       8 -> 27        -0.10468
       9 -> 26        -0.26601
      10 -> 28        -0.12968
      12 -> 38         0.46295

 The electronic state is 1-A'.
 Alpha  occ. eigenvalues --  -10.19107 -10.18477 -10.17693  -0.78443  -0.68291
 Alpha  occ. eigenvalues --   -0.55229  -0.47144  -0.42667  -0.41745  -0.37632
 Alpha  occ. eigenvalues --   -0.34952  -0.26421
 Alpha virt. eigenvalues --    0.00685   0.02684   0.05322   0.05605   0.10041
 Alpha virt. eigenvalues --    0.10698   0.11944   0.13402   0.14588   0.15534
 Alpha virt. eigenvalues --    0.16478   0.17810   0.19731   0.22463   0.23443

 Mulliken charges:
               1
     1  C    0.823297
     2  C   -0.287421
     3  C    0.179187
     4  H   -0.058023
     5  H   -0.045998
     6  H   -0.058023
     7  H   -0.297509
     8  H   -0.148822
     9  H   -0.106686
 Sum of Mulliken charges =   0.00000

 Dipole moment (field-independent basis, Debye):
    X=             -0.4014    Y=             -0.0425    Z=             -0.0000  Tot=              0.4036
 Quadrupole moment (field-independent basis, Debye-Ang):
   XX=            -19.5424   YY=            -19.4081   ZZ=            -21.8194
   XY=             -0.2289   XZ=             -0.0000   YZ=             -0.0000

 Normal termination of Gaussian 16 at Mon Mar 21 19:58:17 2022.
