 Gaussian 16, Revision C.01,
 Gaussian 16:  EM64L-G16RevC.01  3-Jul-2019

 ---------------------------------------------------------------------
 #P TD(Nstates=10000) b3lyp/Gen SCF(maxcycles=100) Int(Grid=ultrafine)
 ---------------------------------------------------------------------

 ---------------------
 xGDB7_00001_tier4.com
 ---------------------
 Symbolic Z-matrix:
 Charge =  0 Multiplicity = 1

                         Standard orientation:
 ---------------------------------------------------------------------
 Center     Atomic      Atomic             Coordinates (Angstroms)
 Number     Number       Type             X           Y           Z
 ---------------------------------------------------------------------
      1          6           0        0.000000    0.000000    0.660866
      2          6           0        0.000000    0.000000   -0.660866
      3          1           0        0.000000    0.922586    1.229258
      4          1           0       -0.000000   -0.922586    1.229258
      5          1           0        0.000000    0.922586   -1.229258
      6          1           0       -0.000000   -0.922586   -1.229258
 ---------------------------------------------------------------------

 SCF Done:  E(RB3LYP) =  -78.5367602794     A.U. after    9 cycles

 Excitation energies and oscillator strengths:

 Excited State   1:      Singlet-B3U    7.4692 eV  165.99 nm  f=0.0656  <S**2>=0.000
       8 -> 10         0.70611
 This state for optimization and/or second-order correction.
 Total Energy, E(TD-HF/TD-DFT) =  -78.2622737671
 Copying the excited state density for this state as the 1-particle RhoCI density.

 Excited State   2:      Singlet-B1U    7.8428 eV  158.09 nm  f=0.3597  <S**2>=0.000
       8 ->  9         0.69911

 Excited State   3:      Singlet-B1G    8.0709 eV  153.62 nm  f=0.0000  <S**2>=0.000
       7 ->  9         0.70115

 Excited State   4:      Singlet-B2G    8.1383 eV  152.35 nm  f=0.0000  <S**2>=0.000
       8 -> 11         0.70618

 Excited State   5:      Singlet-B1G    8.7991 eV  140.91 nm  f=0.0000  <S**2>=0.000
       8 -> 12         0.70073

 Excited State   6:      Singlet-B3G    9.5637 eV  129.64 nm  f=0.0000  <S**2>=0.000
       7 -> 10         0.70596

 Excited State   7:      Singlet-B2G    9.6814 eV  128.06 nm  f=0.0000  <S**2>=0.000
       6 ->  9         0.70288

 Excited State   8:      Singlet-B3U    9.9824 eV  124.20 nm  f=0.0519  <S**2>=0.000
       8 -> 13         0.70255

 Excited State   9:      Singlet-B2U   10.2485 eV  120.98 nm  f=0.1094  <S**2>=0.000
       7 -> 11         0.70581

 Excited State  10:      Singlet-AU    10.4781 eV  118.33 nm  f=0.0000  <S**2>=0.000
       8 -> 14         0.70389

 Excited State  11:      Singlet-B3U   11.0154 eV  112.56 nm  f=0.1832  <S**2>=0.000
       8 -> 15         0.69682

 Excited State  12:      Singlet-AU    11.1184 eV  111.51 nm  f=0.0000  <S**2>=0.000
       5 ->  9         0.70367

 Excited State  13:      Singlet-B1U   11.1777 eV  110.92 nm  f=0.1844  <S**2>=0.000
       7 -> 12         0.69746

 Excited State  14:      Singlet-AG    11.2935 eV  109.78 nm  f=0.0000  <S**2>=0.000
       6 -> 10         0.35295
       8 -> 16         0.59811

 Excited State  15:      Singlet-B2U   11.4349 eV  108.43 nm  f=0.0990  <S**2>=0.000
       8 -> 17         0.69221

 Excited State  16:      Singlet-AG    11.6342 eV  106.57 nm  f=0.0000  <S**2>=0.000
       6 -> 10         0.60000
       7 -> 14         0.18002
       8 -> 16        -0.31235

 Excited State  17:      Singlet-B2G   11.7598 eV  105.43 nm  f=0.0000  <S**2>=0.000
       8 -> 18         0.70411

 Excited State  18:      Singlet-B1G   12.0676 eV  102.74 nm  f=0.0000  <S**2>=0.000
       8 -> 19         0.70596

 Excited State  19:      Singlet-B1U   12.1101 eV  102.38 nm  f=0.2535  <S**2>=0.000
       6 -> 11         0.70068

 Excited State  20:      Singlet-B3G   12.1226 eV  102.28 nm  f=0.0000  <S**2>=0.000
       7 -> 13         0.69772

 Excited State  21:      Singlet-B2U   12.7664 eV   97.12 nm  f=0.0447  <S**2>=0.000
       5 -> 10         0.62646
       6 -> 12        -0.32475

 Excited State  22:      Singlet-B2U   12.8937 eV   96.16 nm  f=0.2488  <S**2>=0.000
       5 -> 10         0.31874
       6 -> 12         0.60469
       7 -> 18         0.13932

 Excited State  23:      Singlet-B3G   12.9210 eV   95.96 nm  f=0.0000  <S**2>=0.000
       5 -> 11         0.15348
       7 -> 15         0.68038

 Excited State  24:      Singlet-AG    12.9844 eV   95.49 nm  f=0.0000  <S**2>=0.000
       5 -> 12         0.12066
       7 -> 14         0.66240
       8 -> 16         0.13973

 Excited State  25:      Singlet-AU    13.1304 eV   94.43 nm  f=0.0000  <S**2>=0.000
       7 -> 16         0.70544

 Excited State  26:      Singlet-B2G   13.3904 eV   92.59 nm  f=0.0000  <S**2>=0.000
       7 -> 17         0.60788
       8 -> 21        -0.35833

 Excited State  27:      Singlet-B3G   13.4211 eV   92.38 nm  f=0.0000  <S**2>=0.000
       5 -> 11         0.68476
       7 -> 15        -0.15138

 Excited State  28:      Singlet-B2G   13.6413 eV   90.89 nm  f=0.0000  <S**2>=0.000
       7 -> 17         0.35537
       8 -> 21         0.60626

 Excited State  29:      Singlet-B3G   13.7321 eV   90.29 nm  f=0.0000  <S**2>=0.000
       8 -> 22         0.69698

 Excited State  30:      Singlet-B1U   13.7340 eV   90.28 nm  f=0.0276  <S**2>=0.000
       7 -> 19        -0.11320
       8 -> 20         0.67191

 Excited State  31:      Singlet-AG    13.9039 eV   89.17 nm  f=0.0000  <S**2>=0.000
       5 -> 12         0.13743
       6 -> 13         0.68991

 Excited State  32:      Singlet-B2U   14.2103 eV   87.25 nm  f=0.4531  <S**2>=0.000
       5 -> 13         0.10274
       6 -> 12        -0.10616
       7 -> 18         0.67417

 Excited State  33:      Singlet-B3G   14.3923 eV   86.15 nm  f=0.0000  <S**2>=0.000
       6 -> 14         0.70382

 Excited State  34:      Singlet-AG    14.3988 eV   86.11 nm  f=0.0000  <S**2>=0.000
       5 -> 12         0.54803
       6 -> 15        -0.42331

 Excited State  35:      Singlet-B1U   14.5942 eV   84.95 nm  f=0.3702  <S**2>=0.000
       5 -> 14        -0.10156
       7 -> 19         0.67772

 Excited State  36:      Singlet-B3U   14.6253 eV   84.77 nm  f=0.0408  <S**2>=0.000
       4 ->  9         0.59374
       5 -> 17        -0.11589
       6 -> 16         0.30785
       7 -> 22        -0.13309
       8 -> 23        -0.11152

 Excited State  37:      Singlet-B3U   15.1558 eV   81.81 nm  f=0.1558  <S**2>=0.000
       4 ->  9        -0.20912
       6 -> 16         0.59965
       8 -> 23         0.26631

 Excited State  38:      Singlet-B1G   15.1784 eV   81.68 nm  f=0.0000  <S**2>=0.000
       5 -> 16        -0.11542
       6 -> 17         0.60265
       7 -> 20        -0.34856

 Excited State  39:      Singlet-B3U   15.2315 eV   81.40 nm  f=0.0005  <S**2>=0.000
       4 ->  9         0.19985
       6 -> 16        -0.19657
       8 -> 23         0.64397

 Excited State  40:      Singlet-B1G   15.3489 eV   80.78 nm  f=0.0000  <S**2>=0.000
       5 -> 16         0.13901
       6 -> 17         0.36759
       7 -> 20         0.58467

 Excited State  41:      Singlet-AG    15.3848 eV   80.59 nm  f=0.0000  <S**2>=0.000
       4 -> 11        -0.19943
       5 -> 12         0.34544
       6 -> 13        -0.10094
       6 -> 15         0.53590
       8 -> 16        -0.10474

 Excited State  42:      Singlet-B2U   15.3879 eV   80.57 nm  f=0.2282  <S**2>=0.000
       5 -> 13         0.64176
       6 -> 19        -0.24218
       7 -> 21         0.12440

 Excited State  43:      Singlet-B2U   15.6124 eV   79.41 nm  f=0.0139  <S**2>=0.000
       5 -> 13        -0.10694
       5 -> 15        -0.21911
       7 -> 21         0.65728

 Excited State  44:      Singlet-B1U   15.6333 eV   79.31 nm  f=0.0027  <S**2>=0.000
       4 -> 10         0.54724
       5 -> 14         0.29190
       6 -> 18         0.33684

 Excited State  45:      Singlet-B1G   15.7299 eV   78.82 nm  f=0.0000  <S**2>=0.000
       8 -> 24         0.70314

 Excited State  46:      Singlet-B1U   15.8412 eV   78.27 nm  f=0.0289  <S**2>=0.000
       4 -> 10        -0.17135
       5 -> 14        -0.35397
       6 -> 18         0.58595

 Excited State  47:      Singlet-B3U   15.8905 eV   78.02 nm  f=0.2904  <S**2>=0.000
       4 ->  9         0.14381
       7 -> 22         0.68214

 Excited State  48:      Singlet-AG    16.0283 eV   77.35 nm  f=0.0000  <S**2>=0.000
       8 -> 26         0.68689

 Excited State  49:      Singlet-B2U   16.0884 eV   77.06 nm  f=0.0007  <S**2>=0.000
       5 -> 15         0.66759
       7 -> 21         0.22038

 Excited State  50:      Singlet-B2G   16.1321 eV   76.86 nm  f=0.0000  <S**2>=0.000
       8 -> 25         0.70507

 Excited State  51:      Singlet-B1U   16.2286 eV   76.40 nm  f=0.0137  <S**2>=0.000
       4 -> 10        -0.37860
       5 -> 14         0.50657
       6 -> 18         0.18353
       6 -> 21         0.13636
       8 -> 20         0.14018

 Excited State  52:      Singlet-AU    16.3609 eV   75.78 nm  f=0.0000  <S**2>=0.000
       8 -> 27         0.70617

 Excited State  53:      Singlet-B1G   16.3678 eV   75.75 nm  f=0.0000  <S**2>=0.000
       5 -> 16         0.68305
       7 -> 20        -0.17991

 Excited State  54:      Singlet-B2U   16.3723 eV   75.73 nm  f=0.2258  <S**2>=0.000
       5 -> 13         0.21779
       6 -> 19         0.64412
       7 -> 18        -0.10269

 Excited State  55:      Singlet-AG    16.5132 eV   75.08 nm  f=0.0000  <S**2>=0.000
       4 -> 11         0.65871
       5 -> 12         0.14621

 Excited State  56:      Singlet-B3U   16.7430 eV   74.05 nm  f=0.2172  <S**2>=0.000
       4 ->  9         0.10375
       5 -> 17         0.65678
       8 -> 28        -0.21680

 Excited State  57:      Singlet-B3G   16.9496 eV   73.15 nm  f=0.0000  <S**2>=0.000
       4 -> 12         0.67366
       7 -> 23         0.19966

 Excited State  58:      Singlet-B3G   17.0877 eV   72.56 nm  f=0.0000  <S**2>=0.000
       5 -> 18         0.65533
       7 -> 23        -0.25183

 Excited State  59:      Singlet-B2G   17.1124 eV   72.45 nm  f=0.0000  <S**2>=0.000
       6 -> 20         0.69804

 Excited State  60:      Singlet-B3G   17.4540 eV   71.03 nm  f=0.0000  <S**2>=0.000
       4 -> 12        -0.19957
       5 -> 18         0.24904
       7 -> 23         0.62698

 Excited State  61:      Singlet-AG    17.5929 eV   70.47 nm  f=0.0000  <S**2>=0.000
       5 -> 19         0.69282

 Excited State  62:      Singlet-AU    17.6045 eV   70.43 nm  f=0.0000  <S**2>=0.000
       6 -> 22         0.69873

 Excited State  63:      Singlet-B1U   17.6334 eV   70.31 nm  f=0.2337  <S**2>=0.000
       4 -> 15        -0.10920
       6 -> 21         0.61888
       7 -> 24         0.28462

 Excited State  64:      Singlet-B3U   17.7438 eV   69.87 nm  f=0.2709  <S**2>=0.000
       4 ->  9         0.11256
       5 -> 17         0.17889
       8 -> 28         0.65561
       8 -> 31         0.10956

 Excited State  65:      Singlet-B1G   17.9948 eV   68.90 nm  f=0.0000  <S**2>=0.000
       8 -> 29         0.70614

 Excited State  66:      Singlet-B1U   18.0781 eV   68.58 nm  f=0.0665  <S**2>=0.000
       4 -> 13         0.70281

 Excited State  67:      Singlet-AU    18.1009 eV   68.50 nm  f=0.0000  <S**2>=0.000
       5 -> 20        -0.11279
       7 -> 26         0.69452

 Excited State  68:      Singlet-AU    18.1530 eV   68.30 nm  f=0.0000  <S**2>=0.000
       8 -> 30         0.70306

 Excited State  69:      Singlet-B2U   18.2911 eV   67.78 nm  f=0.0288  <S**2>=0.000
       4 -> 14        -0.17927
       7 -> 25         0.64527
       8 -> 32        -0.21291

 Excited State  70:      Singlet-B1U   18.2931 eV   67.78 nm  f=0.2730  <S**2>=0.000
       4 -> 15        -0.13837
       6 -> 21        -0.28151
       7 -> 24         0.61014
       7 -> 29         0.12307

 Excited State  71:      Singlet-B2G   18.3757 eV   67.47 nm  f=0.0000  <S**2>=0.000
       8 -> 33         0.70096

 Excited State  72:      Singlet-AG    18.4386 eV   67.24 nm  f=0.0000  <S**2>=0.000
       7 -> 27         0.69911

 Excited State  73:      Singlet-B3U   18.5080 eV   66.99 nm  f=0.1240  <S**2>=0.000
       8 -> 31         0.68939

 Excited State  74:      Singlet-B2U   18.5133 eV   66.97 nm  f=0.1431  <S**2>=0.000
       4 -> 14         0.15644
       7 -> 25         0.24893
       8 -> 32         0.62630

 Excited State  75:      Singlet-AU    18.5549 eV   66.82 nm  f=0.0000  <S**2>=0.000
       5 -> 20         0.68930
       7 -> 26         0.11269

 Excited State  76:      Singlet-B2U   18.7295 eV   66.20 nm  f=0.0284  <S**2>=0.000
       4 -> 14         0.65796
       7 -> 25         0.12349
       8 -> 32        -0.18567

 Excited State  77:      Singlet-B3G   18.7836 eV   66.01 nm  f=0.0000  <S**2>=0.000
       5 -> 21         0.69944

 Excited State  78:      Singlet-B2G   18.9211 eV   65.53 nm  f=0.0000  <S**2>=0.000
       3 ->  9        -0.13954
       4 -> 16        -0.10646
       5 -> 22         0.67969

 Excited State  79:      Singlet-B1U   18.9619 eV   65.39 nm  f=0.0779  <S**2>=0.000
       4 -> 15         0.63569
       7 -> 24         0.14319
       8 -> 34        -0.25757

 Excited State  80:      Singlet-B1U   19.1275 eV   64.82 nm  f=0.0494  <S**2>=0.000
       4 -> 15         0.23936
       8 -> 34         0.65521

 Excited State  81:      Singlet-B2G   19.1463 eV   64.76 nm  f=0.0000  <S**2>=0.000
       3 ->  9        -0.44879
       4 -> 16         0.51959
       8 -> 35        -0.12645

 Excited State  82:      Singlet-B2G   19.2672 eV   64.35 nm  f=0.0000  <S**2>=0.000
       3 ->  9         0.45537
       4 -> 16         0.45583
       5 -> 22         0.16167
       8 -> 35         0.22044

 Excited State  83:      Singlet-AG    19.2683 eV   64.35 nm  f=0.0000  <S**2>=0.000
       3 -> 10         0.11328
       4 -> 18        -0.14883
       6 -> 23         0.67058

 Excited State  84:      Singlet-AU    19.4298 eV   63.81 nm  f=0.0000  <S**2>=0.000
       4 -> 17         0.69977

 Excited State  85:      Singlet-B3G   19.4764 eV   63.66 nm  f=0.0000  <S**2>=0.000
       7 -> 28         0.69627

 Excited State  86:      Singlet-B2U   19.8513 eV   62.46 nm  f=0.0192  <S**2>=0.000
       5 -> 23         0.12473
       6 -> 24         0.63477
       7 -> 33         0.25927

 Excited State  87:      Singlet-AG    20.0166 eV   61.94 nm  f=0.0000  <S**2>=0.000
       3 -> 10         0.10591
       4 -> 18         0.67234
       6 -> 23         0.10955
       7 -> 30         0.13311

 Excited State  88:      Singlet-B3U   20.0878 eV   61.72 nm  f=0.2290  <S**2>=0.000
       4 -> 20        -0.12008
       6 -> 26         0.68658

 Excited State  89:      Singlet-B1U   20.1628 eV   61.49 nm  f=0.1001  <S**2>=0.000
       6 -> 25         0.69634

 Excited State  90:      Singlet-B3G   20.1978 eV   61.39 nm  f=0.0000  <S**2>=0.000
       4 -> 19         0.37463
       6 -> 27         0.58075
       7 -> 31        -0.11719

 Excited State  91:      Singlet-B3G   20.3764 eV   60.85 nm  f=0.0000  <S**2>=0.000
       4 -> 19         0.50247
       6 -> 27        -0.38919
       7 -> 31        -0.29935

 Excited State  92:      Singlet-B2G   20.4180 eV   60.72 nm  f=0.0000  <S**2>=0.000
       3 ->  9         0.13215
       7 -> 32         0.52541
       8 -> 35        -0.44751

 Excited State  93:      Singlet-AG    20.4299 eV   60.69 nm  f=0.0000  <S**2>=0.000
       3 -> 10         0.59669
       7 -> 30        -0.36621

 Excited State  94:      Singlet-B1U   20.4751 eV   60.55 nm  f=0.1164  <S**2>=0.000
       3 -> 11        -0.11288
       7 -> 29         0.67041

 Excited State  95:      Singlet-B2U   20.5540 eV   60.32 nm  f=0.0826  <S**2>=0.000
       5 -> 23         0.66826
       7 -> 33        -0.21677

 Excited State  96:      Singlet-B3G   20.6663 eV   59.99 nm  f=0.0000  <S**2>=0.000
       4 -> 19         0.30015
       7 -> 31         0.61588

 Excited State  97:      Singlet-B2G   20.6922 eV   59.92 nm  f=0.0000  <S**2>=0.000
       3 ->  9        -0.20180
       7 -> 32         0.46419
       8 -> 35         0.47635

 Excited State  98:      Singlet-AG    20.9547 eV   59.17 nm  f=0.0000  <S**2>=0.000
       3 -> 10         0.31639
       4 -> 18        -0.10624
       5 -> 24        -0.29179
       6 -> 23        -0.13222
       7 -> 30         0.51077

 Excited State  99:      Singlet-B1G   21.0745 eV   58.83 nm  f=0.0000  <S**2>=0.000
       5 -> 26         0.44492
       7 -> 34         0.54830

 Excited State 100:      Singlet-B2U   21.1929 eV   58.50 nm  f=0.3603  <S**2>=0.000
       3 -> 12        -0.18052
       5 -> 23         0.13743
       6 -> 24        -0.21999
       6 -> 29        -0.29069
       7 -> 33         0.51764
       7 -> 35         0.14614

 Excited State 101:      Singlet-B1U   21.2037 eV   58.47 nm  f=0.0037  <S**2>=0.000
       3 -> 11         0.67765
       7 -> 29         0.10666

 Excited State 102:      Singlet-AG    21.3064 eV   58.19 nm  f=0.0000  <S**2>=0.000
       4 -> 21         0.31181
       5 -> 24         0.40565
       6 -> 28         0.46625

 Excited State 103:      Singlet-B1G   21.3590 eV   58.05 nm  f=0.0000  <S**2>=0.000
       4 -> 22         0.12672
       5 -> 26         0.54195
       7 -> 34        -0.43311

 Excited State 104:      Singlet-AG    21.4080 eV   57.91 nm  f=0.0000  <S**2>=0.000
       4 -> 21        -0.29137
       5 -> 24        -0.30936
       6 -> 28         0.51795
       6 -> 31        -0.15242

 Excited State 105:      Singlet-B3G   21.4661 eV   57.76 nm  f=0.0000  <S**2>=0.000
       5 -> 25         0.69763

 Excited State 106:      Singlet-B3U   21.5667 eV   57.49 nm  f=0.0000  <S**2>=0.000
       4 -> 20         0.69124
       6 -> 26         0.10601

 Excited State 107:      Singlet-B1U   21.6259 eV   57.33 nm  f=0.0614  <S**2>=0.000
       5 -> 27         0.69355

 Excited State 108:      Singlet-B1G   21.7708 eV   56.95 nm  f=0.0000  <S**2>=0.000
       4 -> 22         0.68213
       6 -> 32         0.12183
       7 -> 34         0.10594

 Excited State 109:      Singlet-AG    21.9083 eV   56.59 nm  f=0.0000  <S**2>=0.000
       4 -> 21         0.52158
       5 -> 24        -0.28573
       6 -> 31        -0.30990
       7 -> 30        -0.13878

 Excited State 110:      Singlet-B2U   21.9673 eV   56.44 nm  f=0.0396  <S**2>=0.000
       3 -> 12         0.50106
       6 -> 29        -0.44396
       7 -> 35        -0.21042

 Excited State 111:      Singlet-B3G   22.1040 eV   56.09 nm  f=0.0000  <S**2>=0.000
       6 -> 30         0.68316
       8 -> 37        -0.15328

 Excited State 112:      Singlet-B2G   22.2537 eV   55.71 nm  f=0.0000  <S**2>=0.000
       8 -> 36         0.69884

 Excited State 113:      Singlet-B2U   22.2744 eV   55.66 nm  f=0.0005  <S**2>=0.000
       3 -> 12         0.37364
       5 -> 28        -0.32779
       6 -> 29         0.17908
       7 -> 35         0.45780

 Excited State 114:      Singlet-B1G   22.3914 eV   55.37 nm  f=0.0000  <S**2>=0.000
       4 -> 22        -0.12743
       6 -> 32         0.69427

 Excited State 115:      Singlet-B3G   22.4035 eV   55.34 nm  f=0.0000  <S**2>=0.000
       5 -> 33         0.10831
       6 -> 30         0.14585
       8 -> 37         0.67516

 Excited State 116:      Singlet-B2U   22.4467 eV   55.24 nm  f=0.2023  <S**2>=0.000
       3 -> 12        -0.18719
       5 -> 31        -0.23393
       6 -> 29        -0.38113
       7 -> 33        -0.27455
       7 -> 35         0.39874

 Excited State 117:      Singlet-B1U   22.6791 eV   54.67 nm  f=0.1577  <S**2>=0.000
       4 -> 23        -0.17151
       5 -> 30         0.10179
       6 -> 33         0.66271

 Excited State 118:      Singlet-AG    22.7583 eV   54.48 nm  f=0.0000  <S**2>=0.000
       3 -> 15        -0.11760
       4 -> 21         0.15206
       5 -> 24        -0.19800
       6 -> 31         0.59776
       7 -> 30        -0.13037
       8 -> 40         0.12694

 Excited State 119:      Singlet-B2U   22.7896 eV   54.40 nm  f=0.0098  <S**2>=0.000
       3 -> 12         0.16202
       5 -> 28         0.61788
       5 -> 31         0.11034
       6 -> 29         0.11198
       7 -> 35         0.23839

 Excited State 120:      Singlet-AG    22.9891 eV   53.93 nm  f=0.0000  <S**2>=0.000
       3 -> 13         0.69854

 Excited State 121:      Singlet-B2G   23.0400 eV   53.81 nm  f=0.0000  <S**2>=0.000
       6 -> 34         0.70159

 Excited State 122:      Singlet-AU    23.1106 eV   53.65 nm  f=0.0000  <S**2>=0.000
       8 -> 38         0.70605

 Excited State 123:      Singlet-B1U   23.4480 eV   52.88 nm  f=0.0013  <S**2>=0.000
       4 -> 23         0.54634
       5 -> 30         0.43849

 Excited State 124:      Singlet-AG    23.4620 eV   52.84 nm  f=0.0000  <S**2>=0.000
       5 -> 29         0.69151

 Excited State 125:      Singlet-B3G   23.5689 eV   52.61 nm  f=0.0000  <S**2>=0.000
       3 -> 14         0.67095
       5 -> 33         0.20408

 Excited State 126:      Singlet-B1U   23.7657 eV   52.17 nm  f=0.1234  <S**2>=0.000
       4 -> 23        -0.34062
       5 -> 30         0.47296
       6 -> 33        -0.10437
       6 -> 35         0.36262

 Excited State 127:      Singlet-B3U   23.7852 eV   52.13 nm  f=0.0810  <S**2>=0.000
       3 -> 16         0.17461
       5 -> 32         0.67514
       8 -> 39         0.10115

 Excited State 128:      Singlet-B3G   23.9118 eV   51.85 nm  f=0.0000  <S**2>=0.000
       3 -> 14        -0.16071
       4 -> 24         0.55356
       5 -> 33         0.39794

 Excited State 129:      Singlet-AG    23.9816 eV   51.70 nm  f=0.0000  <S**2>=0.000
       3 -> 15         0.68314

 Excited State 130:      Singlet-B2U   24.1502 eV   51.34 nm  f=0.2429  <S**2>=0.000
       5 -> 31        -0.45051
       6 -> 29         0.12481
       7 -> 33         0.12241
       7 -> 36         0.48859

 Excited State 131:      Singlet-B3G   24.1811 eV   51.27 nm  f=0.0000  <S**2>=0.000
       3 -> 14        -0.12755
       4 -> 24        -0.42442
       4 -> 29        -0.10420
       5 -> 33         0.51448

 Excited State 132:      Singlet-B2G   24.2404 eV   51.15 nm  f=0.0000  <S**2>=0.000
       4 -> 26         0.69499

 Excited State 133:      Singlet-B3U   24.2411 eV   51.15 nm  f=0.0137  <S**2>=0.000
       3 -> 16         0.66727
       5 -> 32        -0.15408
       7 -> 37        -0.11975
       8 -> 39        -0.12253

 Excited State 134:      Singlet-B1G   24.3420 eV   50.93 nm  f=0.0000  <S**2>=0.000
       3 -> 17         0.70600

 Excited State 135:      Singlet-AU    24.3649 eV   50.89 nm  f=0.0000  <S**2>=0.000
       5 -> 34         0.70468

 Excited State 136:      Singlet-B2U   24.4011 eV   50.81 nm  f=0.0168  <S**2>=0.000
       4 -> 27         0.64719
       5 -> 31         0.10308
       7 -> 36         0.22742

 Excited State 137:      Singlet-B2U   24.5034 eV   50.60 nm  f=0.1693  <S**2>=0.000
       3 -> 19         0.10604
       4 -> 27        -0.25784
       5 -> 31         0.44327
       7 -> 36         0.43264

 Excited State 138:      Singlet-AG    24.5143 eV   50.58 nm  f=0.0000  <S**2>=0.000
       4 -> 25         0.65278
       7 -> 38         0.13601
       8 -> 40         0.20709

 Excited State 139:      Singlet-B3U   24.6505 eV   50.30 nm  f=0.0684  <S**2>=0.000
       7 -> 37         0.63893
       8 -> 39        -0.29041

 The electronic state is 1-AG.
 Alpha  occ. eigenvalues --  -10.18968 -10.18881  -0.75997  -0.57818  -0.47500
 Alpha  occ. eigenvalues --   -0.42765  -0.35916  -0.28276
 Alpha virt. eigenvalues --   -0.00483   0.03244   0.05332   0.08856   0.12622
 Alpha virt. eigenvalues --    0.14381   0.16130   0.17131   0.17915   0.19245
 Alpha virt. eigenvalues --    0.20887   0.25529   0.25816   0.26162   0.31975

 Mulliken charges:
               1
     1  C    0.362769
     2  C    0.362769
     3  H   -0.181385
     4  H   -0.181385
     5  H   -0.181385
     6  H   -0.181385
 Sum of Mulliken charges =  -0.00000

 Dipole moment (field-independent basis, Debye):
    X=              0.0000    Y=              0.0000    Z=             -0.0000  Tot=              0.0000
 Quadrupole moment (field-independent basis, Debye-Ang):
   XX=            -15.4006   YY=            -12.5681   ZZ=            -12.5245
   XY=              0.0000   XZ=              0.0000   YZ=             -0.0000

 Normal termination of Gaussian 16 at Mon Mar 21 19:56:55 2022.
