 Gaussian 16, Revision C.01,
 Gaussian 16:  EM64L-G16RevC.01  3-Jul-2019

 ---------------------------------------------------------------------
 #P TD(Nstates=10000) b3lyp/Gen SCF(maxcycles=100) Int(Grid=ultrafine)
 ---------------------------------------------------------------------

 ---------------------
 xGDB7_00001_tier4.com
 ---------------------
 Symbolic Z-matrix:
 Charge =  0 Multiplicity = 1

                         Standard orientation:
 ---------------------------------------------------------------------
 Center     Atomic      Atomic             Coordinates (Angstroms)
 Number     Number       Type             X           Y           Z
 ---------------------------------------------------------------------
      1          9           0        0.000000    1.098813   -0.289120
      2          6           0       -0.000000   -0.000000    0.499944
      3          9           0       -0.000000   -1.098813   -0.289120
      4          1           0       -0.911346    0.000000    1.102246
      5          1           0        0.911346   -0.000000    1.102246
 ---------------------------------------------------------------------

 SCF Done:  E(RB3LYP) =  -238.822523099     A.U. after   11 cycles

 Excitation energies and oscillator strengths:

 Excited State   1:      Singlet-B1     9.1356 eV  135.72 nm  f=0.0288  <S**2>=0.000
      13 -> 14         0.70463
 This state for optimization and/or second-order correction.
 Total Energy, E(TD-HF/TD-DFT) =  -238.486795165
 Copying the excited state density for this state as the 1-particle RhoCI density.

 Excited State   2:      Singlet-A2     9.9148 eV  125.05 nm  f=0.0000  <S**2>=0.000
      13 -> 15         0.70037

 Excited State   3:      Singlet-B1    10.4200 eV  118.99 nm  f=0.0190  <S**2>=0.000
      13 -> 16         0.69883

 Excited State   4:      Singlet-A1    10.6942 eV  115.94 nm  f=0.0705  <S**2>=0.000
      13 -> 17         0.69819

 Excited State   5:      Singlet-B2    10.8553 eV  114.22 nm  f=0.0330  <S**2>=0.000
      12 -> 14         0.69936

 Excited State   6:      Singlet-A1    11.1851 eV  110.85 nm  f=0.0005  <S**2>=0.000
      11 -> 14         0.68467
      12 -> 15         0.14963

 Excited State   7:      Singlet-A2    11.3941 eV  108.81 nm  f=0.0000  <S**2>=0.000
      10 -> 14         0.70069

 Excited State   8:      Singlet-A1    11.7235 eV  105.76 nm  f=0.0200  <S**2>=0.000
      11 -> 14        -0.13598
      12 -> 15         0.67417
      13 -> 22        -0.11245

 Excited State   9:      Singlet-B2    11.9715 eV  103.57 nm  f=0.0111  <S**2>=0.000
      11 -> 15         0.48919
      12 -> 16         0.49489

 Excited State  10:      Singlet-B1    11.9970 eV  103.35 nm  f=0.0554  <S**2>=0.000
      10 -> 15        -0.14834
      13 -> 18         0.67530

 Excited State  11:      Singlet-B1    12.1718 eV  101.86 nm  f=0.0458  <S**2>=0.000
      10 -> 15         0.67713
      13 -> 18         0.15944

 Excited State  12:      Singlet-A2    12.2602 eV  101.13 nm  f=0.0000  <S**2>=0.000
      12 -> 17         0.70551

 Excited State  13:      Singlet-A1    12.3816 eV  100.14 nm  f=0.1239  <S**2>=0.000
      11 -> 16         0.69977

 Excited State  14:      Singlet-B2    12.4541 eV   99.55 nm  f=0.0864  <S**2>=0.000
      11 -> 15        -0.45297
      12 -> 16         0.46710
      13 -> 20        -0.25030

 Excited State  15:      Singlet-B1    12.5127 eV   99.09 nm  f=0.0564  <S**2>=0.000
      11 -> 17         0.70229

 Excited State  16:      Singlet-A2    12.5657 eV   98.67 nm  f=0.0000  <S**2>=0.000
      10 -> 16        -0.45759
      13 -> 19         0.52932

 Excited State  17:      Singlet-A2    12.6247 eV   98.21 nm  f=0.0000  <S**2>=0.000
      10 -> 16         0.52065
      10 -> 18        -0.10005
      13 -> 19         0.43892
      13 -> 23         0.12552

 Excited State  18:      Singlet-B2    12.7760 eV   97.04 nm  f=0.0104  <S**2>=0.000
      10 -> 17         0.64465
      13 -> 20        -0.26124

 Excited State  19:      Singlet-B1    12.9868 eV   95.47 nm  f=0.0054  <S**2>=0.000
      10 -> 15        -0.10024
      13 -> 21         0.69446

 Excited State  20:      Singlet-B2    13.0983 eV   94.66 nm  f=0.0451  <S**2>=0.000
      10 -> 17         0.28696
      11 -> 15        -0.15569
      12 -> 16         0.13807
      13 -> 20         0.59844

 Excited State  21:      Singlet-A1    13.2136 eV   93.83 nm  f=0.0560  <S**2>=0.000
      13 -> 22         0.67917

 Excited State  22:      Singlet-B2    13.5110 eV   91.77 nm  f=0.0003  <S**2>=0.000
      11 -> 19        -0.11563
      12 -> 18         0.68629

 Excited State  23:      Singlet-A2    13.6730 eV   90.68 nm  f=0.0000  <S**2>=0.000
      13 -> 19        -0.11173
      13 -> 23         0.68727

 Excited State  24:      Singlet-A1    13.8185 eV   89.72 nm  f=0.0118  <S**2>=0.000
      11 -> 18         0.64358
      12 -> 19        -0.26652

 Excited State  25:      Singlet-A2    14.0581 eV   88.19 nm  f=0.0000  <S**2>=0.000
      10 -> 18         0.69017

 Excited State  26:      Singlet-A1    14.1948 eV   87.34 nm  f=0.0092  <S**2>=0.000
      11 -> 18         0.26578
      12 -> 19         0.63719

 Excited State  27:      Singlet-A2    14.4107 eV   86.04 nm  f=0.0000  <S**2>=0.000
      11 -> 20        -0.19882
      12 -> 22         0.67549

 Excited State  28:      Singlet-B1    14.4719 eV   85.67 nm  f=0.0010  <S**2>=0.000
       7 -> 14        -0.14137
      10 -> 19        -0.16475
      12 -> 20         0.40698
      13 -> 24         0.47906
      13 -> 25         0.17655

 Excited State  29:      Singlet-B2    14.4760 eV   85.65 nm  f=0.1016  <S**2>=0.000
      11 -> 19        -0.36939
      12 -> 21         0.59233

 Excited State  30:      Singlet-B1    14.4968 eV   85.52 nm  f=0.0278  <S**2>=0.000
      10 -> 19         0.20859
      11 -> 22        -0.31028
      12 -> 20         0.47780
      13 -> 24        -0.29825
      13 -> 25        -0.15931

 Excited State  31:      Singlet-B2    14.5971 eV   84.94 nm  f=0.0154  <S**2>=0.000
       9 -> 14         0.42821
      10 -> 22        -0.19102
      11 -> 19         0.39352
      12 -> 18         0.10855
      12 -> 21         0.29167

 Excited State  32:      Singlet-B2    14.6745 eV   84.49 nm  f=0.0007  <S**2>=0.000
       9 -> 14         0.54887
      10 -> 22         0.11505
      11 -> 19        -0.36760
      12 -> 21        -0.18947

 Excited State  33:      Singlet-B1    14.7121 eV   84.27 nm  f=0.0406  <S**2>=0.000
       7 -> 14         0.41964
      10 -> 19         0.45330
      13 -> 24         0.32617

 Excited State  34:      Singlet-B1    14.8016 eV   83.76 nm  f=0.0869  <S**2>=0.000
       7 -> 14         0.46816
      10 -> 19        -0.32755
      11 -> 22         0.32334
      12 -> 20         0.22836
      13 -> 24        -0.10141

 Excited State  35:      Singlet-A1    14.8088 eV   83.72 nm  f=0.0388  <S**2>=0.000
       8 -> 14         0.66738
      11 -> 21         0.17736

 Excited State  36:      Singlet-B1    14.8388 eV   83.55 nm  f=0.0078  <S**2>=0.000
       7 -> 14        -0.27241
      10 -> 19         0.29626
      11 -> 22         0.53318
      12 -> 20         0.21528

 Excited State  37:      Singlet-A2    14.8666 eV   83.40 nm  f=0.0000  <S**2>=0.000
      11 -> 20         0.67227
      12 -> 22         0.19950

 Excited State  38:      Singlet-A1    14.9041 eV   83.19 nm  f=0.0001  <S**2>=0.000
       8 -> 14        -0.11252
      10 -> 20         0.31146
      11 -> 21         0.60736

 Excited State  39:      Singlet-A2    15.0373 eV   82.45 nm  f=0.0000  <S**2>=0.000
       7 -> 15        -0.18766
      10 -> 21         0.66948

 Excited State  40:      Singlet-A1    15.2518 eV   81.29 nm  f=0.0060  <S**2>=0.000
       8 -> 14         0.10477
       8 -> 16         0.12492
      10 -> 20         0.46897
      11 -> 21        -0.23084
      12 -> 23        -0.42826

 Excited State  41:      Singlet-B2    15.2862 eV   81.11 nm  f=0.0220  <S**2>=0.000
       9 -> 16         0.15994
      10 -> 22         0.61765
      11 -> 19         0.15570
      11 -> 23        -0.10924
      12 -> 24        -0.13804

 Excited State  42:      Singlet-A1    15.4567 eV   80.21 nm  f=0.0113  <S**2>=0.000
       7 -> 17        -0.15487
       9 -> 15        -0.36847
      10 -> 20         0.33751
      11 -> 21        -0.15645
      12 -> 23         0.42121

 Excited State  43:      Singlet-A2    15.5211 eV   79.88 nm  f=0.0000  <S**2>=0.000
       7 -> 15         0.67121
      10 -> 21         0.18654

 Excited State  44:      Singlet-B2    15.5240 eV   79.87 nm  f=0.0133  <S**2>=0.000
       8 -> 15         0.53612
      11 -> 23        -0.43140

 Excited State  45:      Singlet-B1    15.5318 eV   79.83 nm  f=0.0977  <S**2>=0.000
      13 -> 24        -0.18888
      13 -> 25         0.65755

 Excited State  46:      Singlet-B2    15.6012 eV   79.47 nm  f=0.1320  <S**2>=0.000
       8 -> 15         0.41939
       9 -> 16        -0.12227
      11 -> 23         0.48485
      12 -> 24        -0.16926
      13 -> 26         0.14117

 Excited State  47:      Singlet-A1    15.6661 eV   79.14 nm  f=0.0320  <S**2>=0.000
       8 -> 16         0.20979
       9 -> 15         0.52676
      10 -> 20         0.19262
      12 -> 23         0.32785

 Excited State  48:      Singlet-B1    15.8983 eV   77.99 nm  f=0.0017  <S**2>=0.000
       7 -> 16        -0.17173
      10 -> 23         0.65816
      13 -> 24         0.10534

 Excited State  49:      Singlet-B2    15.9222 eV   77.87 nm  f=0.0317  <S**2>=0.000
       9 -> 16         0.65274
      11 -> 23         0.14527
      12 -> 24         0.12359

 Excited State  50:      Singlet-B1    16.0388 eV   77.30 nm  f=0.0388  <S**2>=0.000
       7 -> 16        -0.20110
       8 -> 17         0.65926
      10 -> 23        -0.11970

 Excited State  51:      Singlet-A2    16.0418 eV   77.29 nm  f=0.0000  <S**2>=0.000
       9 -> 17         0.70253

 Excited State  52:      Singlet-A1    16.0515 eV   77.24 nm  f=0.1377  <S**2>=0.000
       8 -> 16         0.64466
       9 -> 15        -0.17599
      10 -> 20        -0.11552
      13 -> 27        -0.10139

 Excited State  53:      Singlet-B1    16.2284 eV   76.40 nm  f=0.0729  <S**2>=0.000
       7 -> 16         0.64463
       8 -> 17         0.21903
      10 -> 23         0.14942

 Excited State  54:      Singlet-B2    16.3285 eV   75.93 nm  f=0.1647  <S**2>=0.000
       8 -> 15        -0.10415
      12 -> 24         0.11052
      13 -> 26         0.68023

 Excited State  55:      Singlet-A1    16.3658 eV   75.76 nm  f=0.0001  <S**2>=0.000
       7 -> 17         0.53377
      11 -> 24         0.40423
      11 -> 25         0.10636

 Excited State  56:      Singlet-A1    16.6313 eV   74.55 nm  f=0.0601  <S**2>=0.000
       7 -> 17        -0.36762
      11 -> 24         0.43056
      11 -> 25         0.19686
      13 -> 27         0.31116
      13 -> 30        -0.11678

 Excited State  57:      Singlet-B2    16.6971 eV   74.25 nm  f=0.0510  <S**2>=0.000
       9 -> 16        -0.11943
       9 -> 18        -0.20703
      10 -> 22         0.11681
      11 -> 23         0.13498
      12 -> 24         0.60020

 Excited State  58:      Singlet-A2    16.7445 eV   74.04 nm  f=0.0000  <S**2>=0.000
      10 -> 24        -0.23999
      13 -> 29         0.64387

 Excited State  59:      Singlet-A1    16.7737 eV   73.92 nm  f=0.0350  <S**2>=0.000
       7 -> 17         0.11537
       9 -> 15        -0.10302
      11 -> 24        -0.28641
      13 -> 27         0.60376

 Excited State  60:      Singlet-A2    16.8278 eV   73.68 nm  f=0.0000  <S**2>=0.000
      10 -> 24         0.61702
      10 -> 25         0.18407
      13 -> 29         0.26591

 Excited State  61:      Singlet-B1    16.9089 eV   73.32 nm  f=0.0132  <S**2>=0.000
      13 -> 28         0.69279

 Excited State  62:      Singlet-B2    17.1138 eV   72.45 nm  f=0.0469  <S**2>=0.000
       9 -> 18        -0.28441
      12 -> 25         0.61937

 Excited State  63:      Singlet-A1    17.3362 eV   71.52 nm  f=0.0135  <S**2>=0.000
       8 -> 18        -0.26036
      11 -> 24        -0.19897
      11 -> 25         0.58665
      13 -> 30         0.18837

 Excited State  64:      Singlet-A1    17.5526 eV   70.64 nm  f=0.0507  <S**2>=0.000
       8 -> 18         0.61947
       9 -> 23        -0.10022
      11 -> 25         0.26205

 Excited State  65:      Singlet-A2    17.5790 eV   70.53 nm  f=0.0000  <S**2>=0.000
       7 -> 19         0.12551
      10 -> 24        -0.21589
      10 -> 25         0.65726

 Excited State  66:      Singlet-B2    17.6179 eV   70.37 nm  f=0.0548  <S**2>=0.000
       9 -> 18         0.58253
       9 -> 21         0.10600
      11 -> 29        -0.15392
      12 -> 24         0.12070
      12 -> 25         0.22570

 Excited State  67:      Singlet-B1    17.6289 eV   70.33 nm  f=0.0941  <S**2>=0.000
       7 -> 18         0.66929
       8 -> 22        -0.12493
      12 -> 26         0.11181

 Excited State  68:      Singlet-A1    17.8721 eV   69.37 nm  f=0.0013  <S**2>=0.000
       7 -> 22        -0.13019
       9 -> 19         0.21133
      11 -> 25        -0.15630
      13 -> 30         0.60510

 Excited State  69:      Singlet-B1    17.9946 eV   68.90 nm  f=0.0244  <S**2>=0.000
       7 -> 18        -0.11612
      12 -> 26         0.69180

 Excited State  70:      Singlet-B2    18.1506 eV   68.31 nm  f=0.0040  <S**2>=0.000
       8 -> 19         0.62427
       9 -> 21         0.22903
      11 -> 29        -0.15112
      12 -> 28        -0.12510

 Excited State  71:      Singlet-A2    18.1665 eV   68.25 nm  f=0.0000  <S**2>=0.000
       9 -> 22        -0.35002
      11 -> 26         0.58671
      12 -> 27        -0.14365

 Excited State  72:      Singlet-A2    18.2055 eV   68.10 nm  f=0.0000  <S**2>=0.000
       7 -> 19         0.64851
       7 -> 23         0.11773
       9 -> 22        -0.10575
      10 -> 25        -0.13250
      11 -> 26        -0.14263

 Excited State  73:      Singlet-A2    18.2321 eV   68.00 nm  f=0.0000  <S**2>=0.000
       7 -> 19         0.13706
       8 -> 20         0.31669
       9 -> 22         0.47955
      11 -> 26         0.15393
      12 -> 27        -0.34890

 Excited State  74:      Singlet-A1    18.2782 eV   67.83 nm  f=0.0185  <S**2>=0.000
       8 -> 21        -0.33471
       9 -> 19         0.39661
      12 -> 29         0.43419

 Excited State  75:      Singlet-B1    18.3079 eV   67.72 nm  f=0.0093  <S**2>=0.000
       8 -> 22         0.44168
       9 -> 20         0.51259
      11 -> 27        -0.15054

 Excited State  76:      Singlet-A2    18.3662 eV   67.51 nm  f=0.0000  <S**2>=0.000
       9 -> 22         0.28672
      11 -> 26         0.29692
      12 -> 27         0.56516

 Excited State  77:      Singlet-B1    18.4339 eV   67.26 nm  f=0.0131  <S**2>=0.000
       7 -> 21        -0.16505
       8 -> 22         0.49907
       9 -> 20        -0.44561

 Excited State  78:      Singlet-B2    18.4380 eV   67.24 nm  f=0.0855  <S**2>=0.000
       7 -> 20         0.27779
       8 -> 19        -0.14737
       9 -> 21         0.58748
      11 -> 29         0.10527
      12 -> 28         0.16271

 Excited State  79:      Singlet-A1    18.4734 eV   67.12 nm  f=0.0488  <S**2>=0.000
       7 -> 22         0.39267
       8 -> 21        -0.20098
       9 -> 19        -0.35402
      12 -> 29         0.29047
      13 -> 30         0.21435

 Excited State  80:      Singlet-A2    18.5025 eV   67.01 nm  f=0.0000  <S**2>=0.000
       8 -> 20         0.62613
       9 -> 22        -0.22399
      11 -> 26        -0.14114
      12 -> 27         0.18102

 Excited State  81:      Singlet-B1    18.5337 eV   66.90 nm  f=0.0433  <S**2>=0.000
       7 -> 21         0.65389
       8 -> 22         0.15427
       9 -> 20        -0.10272
      10 -> 29        -0.13016

 Excited State  82:      Singlet-B2    18.5443 eV   66.86 nm  f=0.0002  <S**2>=0.000
       7 -> 20         0.47033
       8 -> 19         0.15882
       9 -> 21        -0.24282
      10 -> 27        -0.15089
      12 -> 28         0.38281

 Excited State  83:      Singlet-A1    18.5466 eV   66.85 nm  f=0.0604  <S**2>=0.000
       7 -> 22        -0.26437
       9 -> 19        -0.10980
      10 -> 26         0.61418
      12 -> 29         0.13030

 Excited State  84:      Singlet-B2    18.5816 eV   66.72 nm  f=0.0473  <S**2>=0.000
       7 -> 20        -0.40889
       8 -> 19         0.13119
      11 -> 29         0.18665
      12 -> 28         0.51783

 Excited State  85:      Singlet-A1    18.5825 eV   66.72 nm  f=0.0019  <S**2>=0.000
       7 -> 22         0.20280
       8 -> 21         0.54615
       9 -> 19         0.12141
      12 -> 29         0.33421

 Excited State  86:      Singlet-B1    18.6504 eV   66.48 nm  f=0.0093  <S**2>=0.000
       9 -> 20         0.15277
      11 -> 27         0.67039

 Excited State  87:      Singlet-A1    18.6578 eV   66.45 nm  f=0.0031  <S**2>=0.000
       6 -> 14         0.15692
       7 -> 22         0.43366
       8 -> 21        -0.14556
       9 -> 19         0.25379
       9 -> 23        -0.11092
      10 -> 26         0.27614
      11 -> 28         0.13070
      12 -> 29        -0.28274

 Excited State  88:      Singlet-B2    18.8650 eV   65.72 nm  f=0.0432  <S**2>=0.000
      10 -> 27         0.60575
      11 -> 29        -0.32754
      12 -> 28         0.11204

 Excited State  89:      Singlet-A1    18.8734 eV   65.69 nm  f=0.0036  <S**2>=0.000
       6 -> 14         0.51547
       9 -> 19        -0.15784
       9 -> 23         0.15229
      10 -> 26        -0.10164
      11 -> 28         0.34556
      13 -> 31         0.15654

 Excited State  90:      Singlet-A1    18.9501 eV   65.43 nm  f=0.0705  <S**2>=0.000
       6 -> 14        -0.36029
       9 -> 23        -0.22365
      11 -> 28         0.52994

 Excited State  91:      Singlet-B2    19.0232 eV   65.18 nm  f=0.0037  <S**2>=0.000
       7 -> 20         0.12992
       8 -> 19         0.12911
       8 -> 23        -0.27828
       9 -> 24        -0.13366
      10 -> 27         0.29178
      11 -> 29         0.47902
      12 -> 28        -0.14975

 Excited State  92:      Singlet-A1    19.0287 eV   65.16 nm  f=0.0646  <S**2>=0.000
       9 -> 23        -0.10874
      11 -> 28        -0.14064
      13 -> 31         0.66536

 Excited State  93:      Singlet-B1    19.0657 eV   65.03 nm  f=0.0459  <S**2>=0.000
       7 -> 21         0.14455
      10 -> 29         0.65605
      13 -> 32        -0.19173

 Excited State  94:      Singlet-A2    19.0750 eV   65.00 nm  f=0.0000  <S**2>=0.000
       7 -> 19         0.11969
       7 -> 23        -0.31277
      10 -> 28         0.61248

 Excited State  95:      Singlet-B1    19.1397 eV   64.78 nm  f=0.0003  <S**2>=0.000
      10 -> 29         0.18172
      13 -> 32         0.67071

 Excited State  96:      Singlet-A2    19.2713 eV   64.34 nm  f=0.0000  <S**2>=0.000
       7 -> 23         0.60519
      10 -> 28         0.33174

 Excited State  97:      Singlet-B2    19.3236 eV   64.16 nm  f=0.0009  <S**2>=0.000
       6 -> 15        -0.18136
       8 -> 23         0.59728
       9 -> 24        -0.13395
      10 -> 27         0.10243
      11 -> 29         0.16168

 Excited State  98:      Singlet-A2    19.4562 eV   63.72 nm  f=0.0000  <S**2>=0.000
      12 -> 30         0.70311

 Excited State  99:      Singlet-A2    19.4908 eV   63.61 nm  f=0.0000  <S**2>=0.000
      13 -> 33         0.69871

 Excited State 100:      Singlet-A1    19.5660 eV   63.37 nm  f=0.0511  <S**2>=0.000
       6 -> 14        -0.18024
       8 -> 24        -0.31782
       9 -> 23         0.54478
      11 -> 28         0.12217

 Excited State 101:      Singlet-B1    19.6738 eV   63.02 nm  f=0.0070  <S**2>=0.000
       7 -> 24        -0.10186
      11 -> 30         0.68049
      13 -> 34        -0.12088

 Excited State 102:      Singlet-B2    19.7868 eV   62.66 nm  f=0.0055  <S**2>=0.000
       6 -> 15         0.66527
       8 -> 23         0.14508

 Excited State 103:      Singlet-B1    19.8992 eV   62.31 nm  f=0.0226  <S**2>=0.000
       7 -> 24         0.12995
      11 -> 30         0.14828
      13 -> 34         0.67266

 Excited State 104:      Singlet-B2    19.9963 eV   62.00 nm  f=0.0009  <S**2>=0.000
       9 -> 24        -0.26799
      10 -> 30         0.64240

 Excited State 105:      Singlet-B1    20.1016 eV   61.68 nm  f=0.0010  <S**2>=0.000
       6 -> 17        -0.38426
       7 -> 24         0.53911
       7 -> 25         0.17002
      13 -> 34        -0.12977

 Excited State 106:      Singlet-A2    20.1472 eV   61.54 nm  f=0.0000  <S**2>=0.000
      13 -> 35         0.69893

 Excited State 107:      Singlet-A1    20.1515 eV   61.53 nm  f=0.0289  <S**2>=0.000
       6 -> 16         0.64802
       8 -> 24        -0.22137

 Excited State 108:      Singlet-B1    20.3263 eV   61.00 nm  f=0.0080  <S**2>=0.000
       6 -> 17         0.58209
       7 -> 24         0.37605

 Excited State 109:      Singlet-B2    20.4777 eV   60.55 nm  f=0.1554  <S**2>=0.000
       9 -> 24         0.56576
      10 -> 30         0.22954
      10 -> 31         0.17202
      12 -> 32        -0.15508
      13 -> 36        -0.13588

 Excited State 110:      Singlet-A2    20.6084 eV   60.16 nm  f=0.0000  <S**2>=0.000
      12 -> 31         0.70390

 Excited State 111:      Singlet-A1    20.7933 eV   59.63 nm  f=0.0007  <S**2>=0.000
       6 -> 16         0.18164
       7 -> 30        -0.10908
       8 -> 24         0.46436
       9 -> 23         0.19184
       9 -> 29        -0.16711
      11 -> 32        -0.32729
      11 -> 34         0.11010

 Excited State 112:      Singlet-B2    20.8411 eV   59.49 nm  f=0.0756  <S**2>=0.000
      10 -> 31         0.18629
      12 -> 32         0.65769

 Excited State 113:      Singlet-B2    20.8876 eV   59.36 nm  f=0.0045  <S**2>=0.000
       9 -> 24        -0.11653
       9 -> 25         0.64070
      10 -> 31         0.21065
      12 -> 32        -0.11325

 Excited State 114:      Singlet-B1    20.9289 eV   59.24 nm  f=0.0456  <S**2>=0.000
       7 -> 25         0.15703
      11 -> 31         0.67670

 Excited State 115:      Singlet-A1    20.9635 eV   59.14 nm  f=0.0162  <S**2>=0.000
       8 -> 24        -0.13699
       8 -> 25         0.64646
      11 -> 32        -0.21345

 Excited State 116:      Singlet-B1    21.0466 eV   58.91 nm  f=0.0037  <S**2>=0.000
       7 -> 24        -0.16374
       7 -> 25         0.66059
      11 -> 31        -0.16847

 Excited State 117:      Singlet-A1    21.2436 eV   58.36 nm  f=0.1454  <S**2>=0.000
       8 -> 24         0.19595
       8 -> 25         0.18368
       9 -> 23         0.13560
       9 -> 29        -0.18850
      11 -> 32         0.55990
      12 -> 33        -0.12044

 Excited State 118:      Singlet-A1    21.2901 eV   58.24 nm  f=0.0001  <S**2>=0.000
      11 -> 32         0.11263

 The electronic state is 1-A1.
 Alpha  occ. eigenvalues --  -24.71839 -24.71837 -10.36000  -1.25497  -1.19538
 Alpha  occ. eigenvalues --   -0.71284  -0.56630  -0.56375  -0.56208  -0.44260
 Alpha  occ. eigenvalues --   -0.43197  -0.42193  -0.36133
 Alpha virt. eigenvalues --    0.01733   0.05485   0.06775   0.07052   0.12049
 Alpha virt. eigenvalues --    0.14426   0.15377   0.15582   0.15615   0.19136
 Alpha virt. eigenvalues --    0.23341   0.25033   0.28094   0.29453   0.30350

 Mulliken charges:
               1
     1  F   -0.395213
     2  C    1.291281
     3  F   -0.395213
     4  H   -0.250427
     5  H   -0.250427
 Sum of Mulliken charges =  -0.00000

 Dipole moment (field-independent basis, Debye):
    X=              0.0000    Y=              0.0000    Z=              1.9677  Tot=              1.9677
 Quadrupole moment (field-independent basis, Debye-Ang):
   XX=            -15.5144   YY=            -19.3964   ZZ=            -15.5834
   XY=             -0.0000   XZ=             -0.0000   YZ=             -0.0000

 Normal termination of Gaussian 16 at Mon Mar 21 19:59:33 2022.
