 Gaussian 16, Revision C.01,
 Gaussian 16:  EM64L-G16RevC.01  3-Jul-2019

 ---------------------------------------------------------------------
 #P TD(Nstates=10000) b3lyp/Gen SCF(maxcycles=100) Int(Grid=ultrafine)
 ---------------------------------------------------------------------

 ---------------------
 xGDB7_00001_tier4.com
 ---------------------
 Symbolic Z-matrix:
 Charge =  0 Multiplicity = 1

                         Standard orientation:
 ---------------------------------------------------------------------
 Center     Atomic      Atomic             Coordinates (Angstroms)
 Number     Number       Type             X           Y           Z
 ---------------------------------------------------------------------
      1          6           0        0.000000    0.000000    0.597322
      2          6           0        0.000000    0.000000   -0.597322
      3          1           0        0.000000    0.000000    1.661338
      4          1           0        0.000000    0.000000   -1.661338
 ---------------------------------------------------------------------

 SCF Done:  E(RB3LYP) =  -77.2764868479     A.U. after    9 cycles

 Excitation energies and oscillator strengths:

 Excited state symmetry could not be determined.
 Excited State   1:      Singlet-?Sym    6.8333 eV  181.44 nm  f=0.0000  <S**2>=0.000
       6 ->  9        -0.49876
       7 ->  8         0.49876
 This state for optimization and/or second-order correction.
 Total Energy, E(TD-HF/TD-DFT) =  -77.0253685342
 Copying the excited state density for this state as the 1-particle RhoCI density.

 Excited state symmetry could not be determined.
 Excited State   2:      Singlet-?Sym    7.0208 eV  176.59 nm  f=0.0000  <S**2>=0.000
       6 ->  9         0.49917
       7 ->  8         0.49917

 Excited state symmetry could not be determined.
 Excited State   3:      Singlet-?Sym    7.0208 eV  176.59 nm  f=0.0000  <S**2>=0.000
       6 ->  8        -0.49917
       7 ->  9         0.49917

 Excited state symmetry could not be determined.
 Excited State   4:      Singlet-?Sym    8.1609 eV  151.92 nm  f=0.0919  <S**2>=0.000
       6 -> 10         0.40688
       7 -> 10         0.57787

 Excited state symmetry could not be determined.
 Excited State   5:      Singlet-?Sym    8.1609 eV  151.92 nm  f=0.0919  <S**2>=0.000
       6 -> 10         0.57787
       7 -> 10        -0.40688

 Excited state symmetry could not be determined.
 Excited State   6:      Singlet-?Sym    8.4217 eV  147.22 nm  f=0.0000  <S**2>=0.000
       6 -> 11         0.68861
       7 -> 11        -0.15648

 Excited state symmetry could not be determined.
 Excited State   7:      Singlet-?Sym    8.4217 eV  147.22 nm  f=0.0000  <S**2>=0.000
       6 -> 11         0.15648
       7 -> 11         0.68861

 Excited state symmetry could not be determined.
 Excited State   8:      Singlet-?Sym    9.7352 eV  127.36 nm  f=0.0404  <S**2>=0.000
       7 -> 12         0.70355

 Excited state symmetry could not be determined.
 Excited State   9:      Singlet-?Sym    9.7352 eV  127.36 nm  f=0.0404  <S**2>=0.000
       6 -> 12         0.70355

 Excited state symmetry could not be determined.
 Excited State  10:      Singlet-?Sym   10.2769 eV  120.64 nm  f=0.8272  <S**2>=0.000
       6 ->  8         0.47544
       6 -> 18         0.15244
       7 ->  9         0.47544
       7 -> 19         0.15244

 Excited state symmetry could not be determined.
 Excited State  11:      Singlet-?Sym   11.4731 eV  108.07 nm  f=0.0000  <S**2>=0.000
       6 -> 13         0.58701
       7 -> 13        -0.37664

 Excited state symmetry could not be determined.
 Excited State  12:      Singlet-?Sym   11.4731 eV  108.07 nm  f=0.0000  <S**2>=0.000
       6 -> 13         0.37664
       7 -> 13         0.58701

 Excited state symmetry could not be determined.
 Excited State  13:      Singlet-?Sym   11.5366 eV  107.47 nm  f=0.0000  <S**2>=0.000
       6 -> 14         0.49974
       7 -> 15        -0.49974

 Excited state symmetry could not be determined.
 Excited State  14:      Singlet-?Sym   11.5366 eV  107.47 nm  f=0.0000  <S**2>=0.000
       6 -> 15         0.49974
       7 -> 14         0.49974

 Excited state symmetry could not be determined.
 Excited State  15:      Singlet-?Sym   11.5744 eV  107.12 nm  f=0.0000  <S**2>=0.000
       6 -> 15        -0.49981
       7 -> 14         0.49981

 Excited state symmetry could not be determined.
 Excited State  16:      Singlet-?Sym   12.3748 eV  100.19 nm  f=0.0000  <S**2>=0.000
       5 -> 12        -0.15105
       6 -> 14         0.47865
       7 -> 15         0.47865

 Excited state symmetry could not be determined.
 Excited State  17:      Singlet-?Sym   12.6851 eV   97.74 nm  f=0.0000  <S**2>=0.000
       5 ->  8         0.16804
       5 ->  9         0.67224
       7 -> 13         0.10604

 Excited state symmetry could not be determined.
 Excited State  18:      Singlet-?Sym   12.6851 eV   97.74 nm  f=0.0000  <S**2>=0.000
       5 ->  8         0.67224
       5 ->  9        -0.16804
       6 -> 13         0.10604

 Excited state symmetry could not be determined.
 Excited State  19:      Singlet-?Sym   13.0756 eV   94.82 nm  f=0.0000  <S**2>=0.000
       6 -> 16         0.49851
       7 -> 17        -0.49851

 Excited state symmetry could not be determined.
 Excited State  20:      Singlet-?Sym   13.0756 eV   94.82 nm  f=0.0000  <S**2>=0.000
       6 -> 17         0.49851
       7 -> 16         0.49851

 Excited state symmetry could not be determined.
 Excited State  21:      Singlet-?Sym   13.6767 eV   90.65 nm  f=0.2146  <S**2>=0.000
       4 ->  8        -0.27637
       6 -> 16        -0.13159
       6 -> 17        -0.43381
       7 -> 16         0.43381
       7 -> 17        -0.13159

 Excited state symmetry could not be determined.
 Excited State  22:      Singlet-?Sym   13.6767 eV   90.65 nm  f=0.2146  <S**2>=0.000
       4 ->  9        -0.27637
       6 -> 16         0.43381
       6 -> 17        -0.13159
       7 -> 16         0.13159
       7 -> 17         0.43381

 Excited State  23:      Singlet-SGG   13.8187 eV   89.72 nm  f=0.0000  <S**2>=0.000
       5 -> 10         0.69907

 Excited state symmetry could not be determined.
 Excited State  24:      Singlet-?Sym   13.9179 eV   89.08 nm  f=0.0000  <S**2>=0.000
       6 -> 18         0.49834
       7 -> 19        -0.49834

 Excited state symmetry could not be determined.
 Excited State  25:      Singlet-?Sym   13.9179 eV   89.08 nm  f=0.0000  <S**2>=0.000
       6 -> 19         0.49834
       7 -> 18         0.49834

 Excited state symmetry could not be determined.
 Excited State  26:      Singlet-?Sym   13.9433 eV   88.92 nm  f=0.0000  <S**2>=0.000
       6 -> 19        -0.49789
       7 -> 18         0.49789

 Excited State  27:      Singlet-SGU   13.9509 eV   88.87 nm  f=0.3741  <S**2>=0.000
       5 -> 11         0.69469

 Excited State  28:      Singlet-SGU   15.1860 eV   81.64 nm  f=0.0359  <S**2>=0.000
       4 -> 10         0.46780
       5 -> 11         0.12632
       6 -> 18         0.34617
       7 -> 19         0.34617

 Excited state symmetry could not be determined.
 Excited State  29:      Singlet-?Sym   15.4777 eV   80.11 nm  f=0.2913  <S**2>=0.000
       4 ->  8         0.48463
       4 ->  9        -0.31088
       6 -> 17        -0.13342
       6 -> 20        -0.25194
       6 -> 22         0.11457
       7 -> 16         0.13342
       7 -> 20         0.16162

 Excited state symmetry could not be determined.
 Excited State  30:      Singlet-?Sym   15.4777 eV   80.11 nm  f=0.2913  <S**2>=0.000
       4 ->  8         0.31088
       4 ->  9         0.48463
       6 -> 16         0.13342
       6 -> 20        -0.16162
       7 -> 17         0.13342
       7 -> 20        -0.25194
       7 -> 22         0.11457

 Excited State  31:      Singlet-SGG   15.7191 eV   78.87 nm  f=0.0000  <S**2>=0.000
       4 -> 11        -0.43331
       5 -> 12         0.55088

 Excited State  32:      Singlet-SGU   15.9857 eV   77.56 nm  f=0.0079  <S**2>=0.000
       4 -> 10         0.50720
       4 -> 12         0.16160
       5 -> 13         0.15295
       6 ->  8         0.10410
       6 -> 18        -0.27520
       7 ->  9         0.10410
       7 -> 19        -0.27520

 Excited state symmetry could not be determined.
 Excited State  33:      Singlet-?Sym   16.1088 eV   76.97 nm  f=0.0000  <S**2>=0.000
       6 -> 21         0.69535

 Excited state symmetry could not be determined.
 Excited State  34:      Singlet-?Sym   16.1088 eV   76.97 nm  f=0.0000  <S**2>=0.000
       7 -> 21         0.69535

 Excited state symmetry could not be determined.
 Excited State  35:      Singlet-?Sym   16.1369 eV   76.83 nm  f=0.3752  <S**2>=0.000
       4 ->  8        -0.15331
       4 ->  9         0.16074
       6 -> 20        -0.43476
       7 -> 20         0.45582

 Excited state symmetry could not be determined.
 Excited State  36:      Singlet-?Sym   16.1369 eV   76.83 nm  f=0.3752  <S**2>=0.000
       4 ->  8         0.16074
       4 ->  9         0.15331
       6 -> 20         0.45582
       7 -> 20         0.43476

 Excited State  37:      Singlet-SGG   16.2172 eV   76.45 nm  f=0.0000  <S**2>=0.000
       4 -> 11         0.53773
       5 -> 12         0.39302
       6 -> 14         0.10322
       7 -> 15         0.10322

 Excited state symmetry could not be determined.
 Excited State  38:      Singlet-?Sym   16.8913 eV   73.40 nm  f=0.0000  <S**2>=0.000
       6 -> 23         0.49997
       7 -> 24        -0.49997

 Excited state symmetry could not be determined.
 Excited State  39:      Singlet-?Sym   16.8913 eV   73.40 nm  f=0.0000  <S**2>=0.000
       6 -> 24         0.49997
       7 -> 23         0.49997

 Excited state symmetry could not be determined.
 Excited State  40:      Singlet-?Sym   16.9206 eV   73.27 nm  f=0.0018  <S**2>=0.000
       5 -> 14         0.37795
       6 -> 22         0.56856
       7 -> 22        -0.12916

 Excited state symmetry could not be determined.
 Excited State  41:      Singlet-?Sym   16.9206 eV   73.27 nm  f=0.0018  <S**2>=0.000
       5 -> 15         0.37795
       6 -> 22         0.12916
       7 -> 22         0.56856

 Excited state symmetry could not be determined.
 Excited State  42:      Singlet-?Sym   17.1728 eV   72.20 nm  f=0.0000  <S**2>=0.000
       6 -> 24         0.49190
       7 -> 23        -0.49190

 Excited state symmetry could not be determined.
 Excited State  43:      Singlet-?Sym   17.1728 eV   72.20 nm  f=0.0000  <S**2>=0.000
       6 -> 23         0.49190
       7 -> 24         0.49190

 Excited state symmetry could not be determined.
 Excited State  44:      Singlet-?Sym   17.1806 eV   72.17 nm  f=0.4203  <S**2>=0.000
       4 ->  8         0.13561
       5 -> 14         0.48088
       5 -> 15        -0.30180
       6 -> 22        -0.29496
       7 -> 22         0.18512

 Excited state symmetry could not be determined.
 Excited State  45:      Singlet-?Sym   17.1806 eV   72.17 nm  f=0.4203  <S**2>=0.000
       4 ->  9         0.13561
       5 -> 14         0.30180
       5 -> 15         0.48088
       6 -> 22        -0.18512
       7 -> 22        -0.29496

 Excited State  46:      Singlet-SGU   17.2435 eV   71.90 nm  f=0.2432  <S**2>=0.000
       4 -> 12         0.67269
       6 -> 29        -0.10069
       7 -> 28        -0.10069

 Excited state symmetry could not be determined.
 Excited State  47:      Singlet-?Sym   17.4877 eV   70.90 nm  f=0.0000  <S**2>=0.000
       6 -> 26         0.49957
       7 -> 25         0.49957

 Excited state symmetry could not be determined.
 Excited State  48:      Singlet-?Sym   17.4877 eV   70.90 nm  f=0.0000  <S**2>=0.000
       6 -> 25         0.49957
       7 -> 26        -0.49957

 Excited State  49:      Singlet-SGU   17.5351 eV   70.71 nm  f=0.4546  <S**2>=0.000
       5 -> 13         0.67291
       6 -> 29        -0.10038
       7 -> 28        -0.10038

 Excited state symmetry could not be determined.
 Excited State  50:      Singlet-?Sym   17.6684 eV   70.17 nm  f=0.0000  <S**2>=0.000
       6 -> 26        -0.49985
       7 -> 25         0.49985

 Excited state symmetry could not be determined.
 Excited State  51:      Singlet-?Sym   18.1379 eV   68.36 nm  f=0.0000  <S**2>=0.000
       4 -> 11        -0.10179
       4 -> 13         0.11135
       6 -> 25         0.47488
       7 -> 26         0.47488

 Excited state symmetry could not be determined.
 Excited State  52:      Singlet-?Sym   18.3091 eV   67.72 nm  f=0.0000  <S**2>=0.000
       3 ->  8         0.10798
       6 -> 27         0.69589

 Excited state symmetry could not be determined.
 Excited State  53:      Singlet-?Sym   18.3091 eV   67.72 nm  f=0.0000  <S**2>=0.000
       3 ->  9         0.10798
       7 -> 27         0.69589

 Excited state symmetry could not be determined.
 Excited State  54:      Singlet-?Sym   18.6355 eV   66.53 nm  f=0.0000  <S**2>=0.000
       4 -> 14         0.61095
       5 -> 18         0.33123

 Excited state symmetry could not be determined.
 Excited State  55:      Singlet-?Sym   18.6355 eV   66.53 nm  f=0.0000  <S**2>=0.000
       4 -> 15         0.61095
       5 -> 19         0.33123

 Excited state symmetry could not be determined.
 Excited State  56:      Singlet-?Sym   18.6631 eV   66.43 nm  f=0.0000  <S**2>=0.000
       6 -> 29        -0.49881
       7 -> 28         0.49881

 Excited state symmetry could not be determined.
 Excited State  57:      Singlet-?Sym   18.6631 eV   66.43 nm  f=0.0000  <S**2>=0.000
       6 -> 28         0.49881
       7 -> 29         0.49881

 Excited state symmetry could not be determined.
 Excited State  58:      Singlet-?Sym   18.7928 eV   65.97 nm  f=0.0000  <S**2>=0.000
       5 -> 16         0.70614

 Excited state symmetry could not be determined.
 Excited State  59:      Singlet-?Sym   18.7928 eV   65.97 nm  f=0.0000  <S**2>=0.000
       5 -> 17         0.70614

 Excited state symmetry could not be determined.
 Excited State  60:      Singlet-?Sym   18.8007 eV   65.95 nm  f=0.0000  <S**2>=0.000
       6 -> 28         0.49915
       7 -> 29        -0.49915

 Excited state symmetry could not be determined.
 Excited State  61:      Singlet-?Sym   19.1300 eV   64.81 nm  f=0.0277  <S**2>=0.000
       3 -> 11        -0.15283
       4 -> 12         0.10971
       6 -> 29         0.45610
       7 -> 28         0.45610

 Excited State  62:      Singlet-SGG   19.2197 eV   64.51 nm  f=0.0000  <S**2>=0.000
       4 -> 13         0.68459

 Excited state symmetry could not be determined.
 Excited State  63:      Singlet-?Sym   19.4740 eV   63.67 nm  f=0.0000  <S**2>=0.000
       3 ->  8         0.24116
       4 -> 14        -0.31872
       4 -> 15         0.11955
       5 -> 18         0.52050
       5 -> 19        -0.19524

 Excited state symmetry could not be determined.
 Excited State  64:      Singlet-?Sym   19.4740 eV   63.67 nm  f=0.0000  <S**2>=0.000
       3 ->  9         0.24116
       4 -> 14        -0.11955
       4 -> 15        -0.31872
       5 -> 18         0.19524
       5 -> 19         0.52050

 Excited state symmetry could not be determined.
 Excited State  65:      Singlet-?Sym   19.8455 eV   62.47 nm  f=0.0000  <S**2>=0.000
       3 ->  8        -0.42152
       3 ->  9         0.47347
       5 -> 18         0.18291
       5 -> 19        -0.20545

 Excited state symmetry could not be determined.
 Excited State  66:      Singlet-?Sym   19.8455 eV   62.47 nm  f=0.0000  <S**2>=0.000
       3 ->  8         0.47347
       3 ->  9         0.42152
       5 -> 18        -0.20545
       5 -> 19        -0.18291

 Excited State  67:      Singlet-SGG   20.4285 eV   60.69 nm  f=0.0000  <S**2>=0.000
       3 -> 10         0.69750

 Excited state symmetry could not be determined.
 Excited State  68:      Singlet-?Sym   20.5959 eV   60.20 nm  f=0.0000  <S**2>=0.000
       4 -> 16         0.70223

 Excited state symmetry could not be determined.
 Excited State  69:      Singlet-?Sym   20.5959 eV   60.20 nm  f=0.0000  <S**2>=0.000
       4 -> 17         0.70223

 Excited State  70:      Singlet-SGU   20.8502 eV   59.46 nm  f=0.0159  <S**2>=0.000
       3 -> 11         0.67530

 Excited state symmetry could not be determined.
 Excited State  71:      Singlet-?Sym   21.3762 eV   58.00 nm  f=0.0021  <S**2>=0.000
       4 -> 18         0.66377
       4 -> 19        -0.21702

 Excited state symmetry could not be determined.
 Excited State  72:      Singlet-?Sym   21.3762 eV   58.00 nm  f=0.0021  <S**2>=0.000
       4 -> 18         0.21702
       4 -> 19         0.66377

 Excited State  73:      Singlet-SGG   21.6861 eV   57.17 nm  f=0.0000  <S**2>=0.000
       3 -> 12        -0.13509
       5 -> 20         0.68486

 Excited State  74:      Singlet-SGU   21.6898 eV   57.16 nm  f=0.2751  <S**2>=0.000
       5 -> 21         0.69655

 Excited State  75:      Singlet-SGG   22.1984 eV   55.85 nm  f=0.0000  <S**2>=0.000
       3 -> 12         0.68723
       5 -> 20         0.13707

 Excited state symmetry could not be determined.
 Excited State  76:      Singlet-?Sym   22.5926 eV   54.88 nm  f=0.0000  <S**2>=0.000
       5 -> 23         0.70267

 Excited state symmetry could not be determined.
 Excited State  77:      Singlet-?Sym   22.5926 eV   54.88 nm  f=0.0000  <S**2>=0.000
       5 -> 24         0.70267

 Excited State  78:      Singlet-SGG   22.8467 eV   54.27 nm  f=0.0000  <S**2>=0.000
       5 -> 22         0.67458
       6 -> 32        -0.10429
       7 -> 33        -0.10429

 Excited state symmetry could not be determined.
 Excited State  79:      Singlet-?Sym   23.4027 eV   52.98 nm  f=0.1399  <S**2>=0.000
       3 -> 14         0.11076
       5 -> 25         0.69182

 Excited state symmetry could not be determined.
 Excited State  80:      Singlet-?Sym   23.4027 eV   52.98 nm  f=0.1399  <S**2>=0.000
       3 -> 15         0.11076
       5 -> 26         0.69182

 Excited State  81:      Singlet-SGU   23.4637 eV   52.84 nm  f=0.0008  <S**2>=0.000
       3 -> 13         0.13786
       4 -> 20         0.66605
       5 -> 27         0.17084

 Excited State  82:      Singlet-SGG   23.6866 eV   52.34 nm  f=0.0000  <S**2>=0.000
       4 -> 21         0.68681

 Excited State  83:      Singlet-SGU   23.8405 eV   52.01 nm  f=0.0247  <S**2>=0.000
       3 -> 13         0.64056
       4 -> 22         0.23844
       5 -> 27        -0.14220

 Excited state symmetry could not be determined.
 Excited State  84:      Singlet-?Sym   24.0378 eV   51.58 nm  f=0.0001  <S**2>=0.000
       3 -> 14         0.55372
       3 -> 15        -0.41927

 Excited state symmetry could not be determined.
 Excited State  85:      Singlet-?Sym   24.0378 eV   51.58 nm  f=0.0001  <S**2>=0.000
       3 -> 14         0.41927
       3 -> 15         0.55372

 Excited state symmetry could not be determined.
 Excited State  86:      Singlet-?Sym   24.2117 eV   51.21 nm  f=0.0000  <S**2>=0.000
       5 -> 28         0.70498

 Excited state symmetry could not be determined.
 Excited State  87:      Singlet-?Sym   24.2117 eV   51.21 nm  f=0.0000  <S**2>=0.000
       5 -> 29         0.70498

 Excited state symmetry could not be determined.
 Excited State  88:      Singlet-?Sym   24.3697 eV   50.88 nm  f=0.0000  <S**2>=0.000
       6 -> 30         0.70044

 Excited state symmetry could not be determined.
 Excited State  89:      Singlet-?Sym   24.3697 eV   50.88 nm  f=0.0000  <S**2>=0.000
       7 -> 30         0.70044

 Excited state symmetry could not be determined.
 Excited State  90:      Singlet-?Sym   24.3817 eV   50.85 nm  f=0.0000  <S**2>=0.000
       4 -> 23         0.70530

 Excited state symmetry could not be determined.
 Excited State  91:      Singlet-?Sym   24.3817 eV   50.85 nm  f=0.0000  <S**2>=0.000
       4 -> 24         0.70530

 Excited State  92:      Singlet-SGU   24.3913 eV   50.83 nm  f=0.2221  <S**2>=0.000
       3 -> 13        -0.12619
       4 -> 22         0.56732
       5 -> 27         0.39642

 Excited State  93:      Singlet-SGU   25.0010 eV   49.59 nm  f=0.0242  <S**2>=0.000
       3 -> 13         0.19920
       4 -> 20        -0.19116
       4 -> 22        -0.33002
       5 -> 27         0.51545

 Excited state symmetry could not be determined.
 Excited State  94:      Singlet-?Sym   25.2316 eV   49.14 nm  f=0.0000  <S**2>=0.000
       3 -> 18         0.12605
       4 -> 25         0.62930
       4 -> 26         0.28147

 Excited state symmetry could not be determined.
 Excited State  95:      Singlet-?Sym   25.2316 eV   49.14 nm  f=0.0000  <S**2>=0.000
       3 -> 19         0.12605
       4 -> 25        -0.28147
       4 -> 26         0.62930

 Excited state symmetry could not be determined.
 Excited State  96:      Singlet-?Sym   25.5347 eV   48.56 nm  f=0.0000  <S**2>=0.000
       3 -> 16         0.70432

 Excited state symmetry could not be determined.
 Excited State  97:      Singlet-?Sym   25.5347 eV   48.56 nm  f=0.0000  <S**2>=0.000
       3 -> 17         0.70432

 Excited state symmetry could not be determined.
 Excited State  98:      Singlet-?Sym   25.6074 eV   48.42 nm  f=0.0213  <S**2>=0.000
       4 -> 28        -0.14557
       7 -> 31         0.68664

 Excited state symmetry could not be determined.
 Excited State  99:      Singlet-?Sym   25.6074 eV   48.42 nm  f=0.0213  <S**2>=0.000
       4 -> 29        -0.14557
       6 -> 31         0.68664

 Excited state symmetry could not be determined.
 Excited State 100:      Singlet-?Sym   26.0620 eV   47.57 nm  f=0.0001  <S**2>=0.000
       4 -> 28         0.69054
       7 -> 31         0.14180

 Excited state symmetry could not be determined.
 Excited State 101:      Singlet-?Sym   26.0620 eV   47.57 nm  f=0.0001  <S**2>=0.000
       4 -> 29         0.69054
       6 -> 31         0.14180

 Excited State 102:      Singlet-SGG   26.1193 eV   47.47 nm  f=0.0000  <S**2>=0.000
       4 -> 27         0.70041

 Excited state symmetry could not be determined.
 Excited State 103:      Singlet-?Sym   26.4251 eV   46.92 nm  f=0.0000  <S**2>=0.000
       3 -> 18         0.54863
       3 -> 19         0.41713
       4 -> 25        -0.10585

 Excited state symmetry could not be determined.
 Excited State 104:      Singlet-?Sym   26.4251 eV   46.92 nm  f=0.0000  <S**2>=0.000
       3 -> 18        -0.41713
       3 -> 19         0.54863
       4 -> 26        -0.10585

 Excited state symmetry could not be determined.
 Excited State 105:      Singlet-?Sym   26.5127 eV   46.76 nm  f=0.0000  <S**2>=0.000
       6 -> 32         0.49867
       7 -> 33        -0.49867

 Excited state symmetry could not be determined.
 Excited State 106:      Singlet-?Sym   26.5127 eV   46.76 nm  f=0.0000  <S**2>=0.000
       6 -> 33         0.49867
       7 -> 32         0.49867

 Excited state symmetry could not be determined.
 Excited State 107:      Singlet-?Sym   26.6586 eV   46.51 nm  f=0.0000  <S**2>=0.000
       6 -> 33        -0.49974
       7 -> 32         0.49974

 Excited State 108:      Singlet-SGG   27.9642 eV   44.34 nm  f=0.0000  <S**2>=0.000
       3 -> 20         0.60230
       6 -> 32        -0.24738
       7 -> 33        -0.24738

 Excited State 109:      Singlet-SGU   28.5433 eV   43.44 nm  f=0.0032  <S**2>=0.000
       3 -> 21         0.69282

 Excited State 110:      Singlet-SGG   29.1168 eV   42.58 nm  f=0.0000  <S**2>=0.000
       3 -> 20         0.19339
       3 -> 22         0.62600
       5 -> 31        -0.11646
       6 -> 32         0.15195
       7 -> 33         0.15195

 Excited state symmetry could not be determined.
 Excited State 111:      Singlet-?Sym   29.2961 eV   42.32 nm  f=0.0000  <S**2>=0.000
       3 -> 23         0.70685

 Excited state symmetry could not be determined.
 Excited State 112:      Singlet-?Sym   29.2961 eV   42.32 nm  f=0.0000  <S**2>=0.000
       3 -> 24         0.70685

 Excited State 113:      Singlet-SGG   29.8626 eV   41.52 nm  f=0.0000  <S**2>=0.000
       3 -> 20        -0.29250
       3 -> 22         0.32306
       5 -> 31         0.29341
       6 -> 32        -0.31022
       7 -> 33        -0.31022

 Excited state symmetry could not be determined.
 Excited State 114:      Singlet-?Sym   29.8738 eV   41.50 nm  f=0.0121  <S**2>=0.000
       3 -> 25         0.56193
       3 -> 26         0.42795

 Excited state symmetry could not be determined.
 Excited State 115:      Singlet-?Sym   29.8738 eV   41.50 nm  f=0.0121  <S**2>=0.000
       3 -> 25        -0.42795
       3 -> 26         0.56193

 The electronic state is 1-SGG.
 Alpha  occ. eigenvalues --  -10.19961 -10.19693  -0.75051  -0.56776  -0.50260
 Alpha  occ. eigenvalues --   -0.30081  -0.30081
 Alpha virt. eigenvalues --    0.02201   0.02201   0.03785   0.04727   0.10284
 Alpha virt. eigenvalues --    0.16432   0.17002   0.17002   0.23868   0.23868
 Alpha virt. eigenvalues --    0.26270   0.26270   0.32961   0.33272   0.36438

 Mulliken charges:
               1
     1  C    0.297910
     2  C    0.297910
     3  H   -0.297910
     4  H   -0.297910
 Sum of Mulliken charges =  -0.00000

 Dipole moment (field-independent basis, Debye):
    X=             -0.0000    Y=              0.0000    Z=             -0.0000  Tot=              0.0000
 Quadrupole moment (field-independent basis, Debye-Ang):
   XX=            -13.4904   YY=            -13.4904   ZZ=             -7.3862
   XY=             -0.0000   XZ=              0.0000   YZ=              0.0000

 Normal termination of Gaussian 16 at Mon Mar 21 20:04:23 2022.
