 Gaussian 16, Revision C.01,
 Gaussian 16:  EM64L-G16RevC.01  3-Jul-2019

 ---------------------------------------------------------------------
 #P TD(Nstates=10000) b3lyp/Gen SCF(maxcycles=100) Int(Grid=ultrafine)
 ---------------------------------------------------------------------

 ---------------------
 xGDB7_00001_tier4.com
 ---------------------
 Symbolic Z-matrix:
 Charge =  0 Multiplicity = 1

                         Standard orientation:
 ---------------------------------------------------------------------
 Center     Atomic      Atomic             Coordinates (Angstroms)
 Number     Number       Type             X           Y           Z
 ---------------------------------------------------------------------
      1          7           0        1.111035   -0.177046   -0.052467
      2          6           0       -0.122009    0.419593    0.001774
      3          7           0       -1.267607   -0.121443    0.008098
      4          1           0        1.920558    0.367802    0.180104
      5          1           0        1.180700   -1.165617    0.115308
      6          1           0       -0.065701    1.508813    0.004046
      7          1           0       -1.207497   -1.139126    0.000481
 ---------------------------------------------------------------------

 SCF Done:  E(RB3LYP) =  -149.910798108     A.U. after   13 cycles

 Excitation energies and oscillator strengths:

 Excited State   1:      Singlet-A      6.1324 eV  202.18 nm  f=0.0061  <S**2>=0.000
      11 -> 13        -0.12820
      11 -> 14         0.26469
      12 -> 13         0.63159
      12 -> 14         0.10921
 This state for optimization and/or second-order correction.
 Total Energy, E(TD-HF/TD-DFT) =  -149.685435795
 Copying the excited state density for this state as the 1-particle RhoCI density.

 Excited State   2:      Singlet-A      6.2412 eV  198.65 nm  f=0.0015  <S**2>=0.000
      11 -> 13        -0.32971
      11 -> 14         0.51087
      12 -> 13        -0.23387
      12 -> 14        -0.26833

 Excited State   3:      Singlet-A      6.7249 eV  184.37 nm  f=0.0077  <S**2>=0.000
      11 -> 13         0.50589
      11 -> 14         0.40480
      12 -> 13        -0.10799
      12 -> 14         0.24725

 Excited State   4:      Singlet-A      6.9674 eV  177.95 nm  f=0.0081  <S**2>=0.000
      12 -> 14        -0.13836
      12 -> 15         0.68035

 Excited State   5:      Singlet-A      7.2478 eV  171.07 nm  f=0.2547  <S**2>=0.000
      11 -> 13        -0.28804
      11 -> 15        -0.16782
      11 -> 16         0.16616
      12 -> 13        -0.16591
      12 -> 14         0.52560
      12 -> 15         0.16577

 Excited State   6:      Singlet-A      7.5542 eV  164.13 nm  f=0.1000  <S**2>=0.000
      11 -> 15         0.67503
      12 -> 14         0.12306
      12 -> 16        -0.10977

 Excited State   7:      Singlet-A      7.6574 eV  161.91 nm  f=0.0373  <S**2>=0.000
      12 -> 16         0.68609

 Excited State   8:      Singlet-A      8.1164 eV  152.76 nm  f=0.0329  <S**2>=0.000
      11 -> 13         0.11907
      11 -> 16         0.67612
      12 -> 14        -0.12101

 Excited State   9:      Singlet-A      8.7251 eV  142.10 nm  f=0.0071  <S**2>=0.000
      12 -> 17         0.69802

 Excited State  10:      Singlet-A      9.1541 eV  135.44 nm  f=0.0027  <S**2>=0.000
      12 -> 18         0.70118

 Excited State  11:      Singlet-A      9.2792 eV  133.61 nm  f=0.0097  <S**2>=0.000
      11 -> 17         0.69841

 Excited State  12:      Singlet-A      9.6635 eV  128.30 nm  f=0.0438  <S**2>=0.000
      10 -> 13         0.66981
      10 -> 14         0.21461

 Excited State  13:      Singlet-A      9.7655 eV  126.96 nm  f=0.0043  <S**2>=0.000
      11 -> 18         0.69097

 Excited State  14:      Singlet-A      9.9522 eV  124.58 nm  f=0.0157  <S**2>=0.000
      12 -> 19         0.63658
      12 -> 20         0.25871

 Excited State  15:      Singlet-A     10.0448 eV  123.43 nm  f=0.0152  <S**2>=0.000
      10 -> 14        -0.13177
      12 -> 19        -0.23423
      12 -> 20         0.62909

 Excited State  16:      Singlet-A     10.1420 eV  122.25 nm  f=0.0015  <S**2>=0.000
       9 -> 13        -0.33171
       9 -> 14         0.59627
      10 -> 15         0.11210
      12 -> 20         0.10864

 Excited State  17:      Singlet-A     10.3371 eV  119.94 nm  f=0.0147  <S**2>=0.000
      10 -> 14         0.25229
      11 -> 19         0.60557

 Excited State  18:      Singlet-A     10.4060 eV  119.15 nm  f=0.0338  <S**2>=0.000
       9 -> 13        -0.19634
      10 -> 13        -0.13175
      10 -> 14         0.41418
      10 -> 15        -0.32597
      11 -> 19        -0.33134
      12 -> 21         0.12306

 Excited State  19:      Singlet-A     10.5034 eV  118.04 nm  f=0.0149  <S**2>=0.000
       9 -> 13        -0.10759
       9 -> 14        -0.16333
      10 -> 14         0.20677
      10 -> 15         0.51200
      11 -> 20         0.35499

 Excited State  20:      Singlet-A     10.5473 eV  117.55 nm  f=0.0360  <S**2>=0.000
      10 -> 14        -0.13639
      10 -> 15        -0.29968
      11 -> 20         0.57634
      12 -> 21        -0.19187

 Excited State  21:      Singlet-A     10.7599 eV  115.23 nm  f=0.0287  <S**2>=0.000
       9 -> 13         0.47784
       9 -> 14         0.25674
      10 -> 14         0.13712
      12 -> 21         0.38491

 Excited State  22:      Singlet-A     10.8810 eV  113.95 nm  f=0.1370  <S**2>=0.000
       9 -> 13        -0.28362
       9 -> 14        -0.14636
      10 -> 14        -0.27662
      10 -> 16         0.10539
      11 -> 20         0.12202
      12 -> 21         0.48453

 Excited State  23:      Singlet-A     11.0331 eV  112.37 nm  f=0.0031  <S**2>=0.000
      11 -> 21         0.67716
      12 -> 22         0.12687

 Excited State  24:      Singlet-A     11.1204 eV  111.49 nm  f=0.0043  <S**2>=0.000
      11 -> 21        -0.11293
      12 -> 22         0.68548

 Excited State  25:      Singlet-A     11.1667 eV  111.03 nm  f=0.0115  <S**2>=0.000
      10 -> 16         0.68349
      12 -> 23         0.10781

 Excited State  26:      Singlet-A     11.4548 eV  108.24 nm  f=0.0784  <S**2>=0.000
      10 -> 16        -0.11617
      12 -> 23         0.68951

 Excited State  27:      Singlet-A     11.4861 eV  107.94 nm  f=0.0289  <S**2>=0.000
       9 -> 15        -0.35225
      11 -> 22         0.59584

 Excited State  28:      Singlet-A     11.6195 eV  106.70 nm  f=0.2040  <S**2>=0.000
       9 -> 15         0.59131
      11 -> 22         0.33355
      11 -> 23         0.10366
      12 -> 24        -0.11029

 Excited State  29:      Singlet-A     11.8413 eV  104.70 nm  f=0.0703  <S**2>=0.000
      11 -> 23         0.62133
      12 -> 24         0.30854

 Excited State  30:      Singlet-A     12.1018 eV  102.45 nm  f=0.0279  <S**2>=0.000
       9 -> 16         0.56512
      11 -> 23        -0.12675
      12 -> 24         0.38583

 Excited State  31:      Singlet-A     12.2390 eV  101.30 nm  f=0.0032  <S**2>=0.000
      10 -> 17         0.69717

 Excited State  32:      Singlet-A     12.3620 eV  100.29 nm  f=0.0034  <S**2>=0.000
      11 -> 24         0.69539

 Excited State  33:      Singlet-A     12.3883 eV  100.08 nm  f=0.1037  <S**2>=0.000
       9 -> 16        -0.39945
      11 -> 22         0.10241
      11 -> 23        -0.26187
      12 -> 24         0.46380

 Excited State  34:      Singlet-A     12.6952 eV   97.66 nm  f=0.0584  <S**2>=0.000
       8 -> 14        -0.14089
      10 -> 18         0.64370
      12 -> 25         0.12258
      12 -> 26         0.11016
      12 -> 27        -0.14955

 Excited State  35:      Singlet-A     12.7676 eV   97.11 nm  f=0.0201  <S**2>=0.000
       8 -> 14         0.10803
      10 -> 18        -0.14120
      12 -> 25         0.63996
      12 -> 26         0.19878

 Excited State  36:      Singlet-A     12.8762 eV   96.29 nm  f=0.0061  <S**2>=0.000
       7 -> 14         0.10808
       8 -> 13        -0.32046
       8 -> 14         0.57675
      10 -> 18         0.16652

 Excited State  37:      Singlet-A     13.0302 eV   95.15 nm  f=0.0851  <S**2>=0.000
      12 -> 25        -0.20821
      12 -> 26         0.64327

 Excited State  38:      Singlet-A     13.2594 eV   93.51 nm  f=0.0160  <S**2>=0.000
       9 -> 17         0.50153
      10 -> 19         0.25268
      11 -> 25        -0.39527

 Excited State  39:      Singlet-A     13.3097 eV   93.15 nm  f=0.1148  <S**2>=0.000
       8 -> 13         0.17038
       8 -> 14         0.10328
       9 -> 17         0.35497
      10 -> 19         0.16643
      11 -> 25         0.50281
      11 -> 26        -0.17498

 Excited State  40:      Singlet-A     13.3988 eV   92.53 nm  f=0.0262  <S**2>=0.000
       8 -> 13         0.47764
       8 -> 14         0.26352
       9 -> 17        -0.18435
      10 -> 19         0.21059
      11 -> 26         0.32382

 Excited State  41:      Singlet-A     13.4605 eV   92.11 nm  f=0.0516  <S**2>=0.000
       9 -> 17        -0.22011
       9 -> 18         0.23137
      10 -> 19         0.41647
      10 -> 20         0.17638
      11 -> 25        -0.12103
      11 -> 26        -0.38713

 Excited State  42:      Singlet-A     13.5418 eV   91.56 nm  f=0.1171  <S**2>=0.000
       7 -> 13        -0.11306
       7 -> 14         0.12106
       8 -> 13         0.18930
      10 -> 19        -0.16344
      10 -> 20        -0.28006
      11 -> 25        -0.11973
      11 -> 26        -0.35217
      12 -> 27         0.38520

 Excited State  43:      Singlet-A     13.5736 eV   91.34 nm  f=0.0032  <S**2>=0.000
       9 -> 18        -0.21837
      10 -> 20         0.51314
      12 -> 27         0.40199

 Excited State  44:      Singlet-A     13.6045 eV   91.13 nm  f=0.0842  <S**2>=0.000
       8 -> 13        -0.23605
       8 -> 14        -0.12415
       9 -> 18         0.25554
      10 -> 19         0.19390
      10 -> 20        -0.23105
      11 -> 25         0.19399
      11 -> 26         0.22381
      11 -> 27         0.17351
      12 -> 27         0.32644

 Excited State  45:      Singlet-A     13.6736 eV   90.67 nm  f=0.0109  <S**2>=0.000
       9 -> 17         0.11674
       9 -> 18         0.55841
      10 -> 19        -0.25711
      10 -> 20         0.21837

 Excited State  46:      Singlet-A     13.8737 eV   89.37 nm  f=0.0112  <S**2>=0.000
       7 -> 13        -0.37653
       7 -> 14         0.54930
       8 -> 14        -0.12802
      12 -> 27        -0.11255

 Excited State  47:      Singlet-A     14.0928 eV   87.98 nm  f=0.0160  <S**2>=0.000
       7 -> 13         0.16390
       7 -> 14         0.18625
       8 -> 15        -0.30667
      10 -> 21         0.46133
      11 -> 27         0.30601

 Excited State  48:      Singlet-A     14.1695 eV   87.50 nm  f=0.2003  <S**2>=0.000
       7 -> 13         0.49859
       7 -> 14         0.32546
       9 -> 19         0.15411
       9 -> 20         0.12353
      10 -> 21        -0.18933
      11 -> 27        -0.18638

 Excited State  49:      Singlet-A     14.2276 eV   87.14 nm  f=0.0193  <S**2>=0.000
       8 -> 15         0.43559
       9 -> 19        -0.29690
      10 -> 21         0.37144
      11 -> 27        -0.20510

 Excited State  50:      Singlet-A     14.2727 eV   86.87 nm  f=0.0457  <S**2>=0.000
       8 -> 15         0.21598
       9 -> 19         0.59802
       9 -> 20        -0.12520
      10 -> 21         0.22353

 Excited State  51:      Singlet-A     14.4356 eV   85.89 nm  f=0.0191  <S**2>=0.000
       8 -> 15         0.37000
       8 -> 16         0.20967
       9 -> 20         0.12047
      10 -> 21        -0.15104
      10 -> 24         0.10211
      11 -> 27         0.42685

 Excited State  52:      Singlet-A     14.5504 eV   85.21 nm  f=0.0313  <S**2>=0.000
       7 -> 15        -0.15938
       8 -> 16        -0.11774
       9 -> 20         0.59876
      10 -> 22         0.19974
      12 -> 28         0.12178

 Excited State  53:      Singlet-A     14.5867 eV   85.00 nm  f=0.0195  <S**2>=0.000
       9 -> 20        -0.17837
      10 -> 22         0.28152
      10 -> 23         0.14066
      12 -> 28         0.53128
      12 -> 29         0.23699

 Excited State  54:      Singlet-A     14.6690 eV   84.52 nm  f=0.0014  <S**2>=0.000
      10 -> 22         0.58461
      12 -> 28        -0.30304
      12 -> 29        -0.11609
      12 -> 30         0.14971

 Excited State  55:      Singlet-A     14.7571 eV   84.02 nm  f=0.0065  <S**2>=0.000
      10 -> 23        -0.12205
      12 -> 28        -0.23363
      12 -> 29         0.63224

 Excited State  56:      Singlet-A     14.9371 eV   83.00 nm  f=0.0470  <S**2>=0.000
       8 -> 16         0.19906
       9 -> 21         0.14296
      10 -> 22        -0.12757
      10 -> 23         0.37752
      12 -> 30         0.50174

 Excited State  57:      Singlet-A     14.9466 eV   82.95 nm  f=0.0226  <S**2>=0.000
       8 -> 16        -0.18808
       9 -> 21         0.58504
      10 -> 23         0.16170
      12 -> 30        -0.20352

 Excited State  58:      Singlet-A     14.9740 eV   82.80 nm  f=0.0677  <S**2>=0.000
       7 -> 15        -0.13429
       8 -> 16        -0.28989
      10 -> 23        -0.37231
      11 -> 28        -0.22255
      12 -> 28         0.10896
      12 -> 30         0.38113

 Excited State  59:      Singlet-A     15.0182 eV   82.56 nm  f=0.1183  <S**2>=0.000
       8 -> 16         0.38155
       9 -> 21         0.33270
      10 -> 23        -0.36843
      11 -> 27        -0.10282
      11 -> 28         0.21464
      12 -> 28         0.10108

 Excited State  60:      Singlet-A     15.0648 eV   82.30 nm  f=0.0141  <S**2>=0.000
       8 -> 16        -0.22630
      11 -> 28         0.56445
      12 -> 30         0.14058
      12 -> 31         0.19696
      12 -> 32        -0.15134

 Excited State  61:      Singlet-A     15.1348 eV   81.92 nm  f=0.0412  <S**2>=0.000
       7 -> 15         0.59063
       8 -> 16        -0.13421
       9 -> 22        -0.10313
      11 -> 28        -0.11373
      11 -> 29         0.12882

 Excited State  62:      Singlet-A     15.2610 eV   81.24 nm  f=0.0116  <S**2>=0.000
       7 -> 15        -0.10529
      11 -> 29         0.54803
      11 -> 32         0.15335
      12 -> 32        -0.35876

 Excited State  63:      Singlet-A     15.3148 eV   80.96 nm  f=0.0234  <S**2>=0.000
      11 -> 29         0.26829
      11 -> 30        -0.16476
      11 -> 31         0.15897
      12 -> 31         0.44989
      12 -> 32         0.38481

 Excited State  64:      Singlet-A     15.3659 eV   80.69 nm  f=0.0358  <S**2>=0.000
       9 -> 22         0.13285
      11 -> 28        -0.10264
      11 -> 30         0.52092
      11 -> 31        -0.18958
      12 -> 31         0.33053

 Excited State  65:      Singlet-A     15.4951 eV   80.02 nm  f=0.0333  <S**2>=0.000
       7 -> 16         0.21783
       9 -> 22         0.35267
      10 -> 24         0.34833
      11 -> 29        -0.13748
      11 -> 30        -0.30970
      12 -> 31         0.14024
      12 -> 32        -0.16026

 Excited State  66:      Singlet-A     15.5457 eV   79.75 nm  f=0.0421  <S**2>=0.000
       9 -> 22        -0.15171
      11 -> 30        -0.20374
      11 -> 31        -0.41502
      11 -> 32         0.45446

 Excited State  67:      Singlet-A     15.5869 eV   79.54 nm  f=0.0133  <S**2>=0.000
      10 -> 24         0.43655
      11 -> 28         0.13319
      11 -> 29         0.11115
      11 -> 30         0.16112
      11 -> 32         0.18051
      12 -> 31        -0.24957
      12 -> 32         0.31918

 Excited State  68:      Singlet-A     15.6593 eV   79.18 nm  f=0.0427  <S**2>=0.000
       7 -> 16         0.60069
       8 -> 17         0.12187
       9 -> 22        -0.27385
       9 -> 23         0.12849

 Excited State  69:      Singlet-A     15.7574 eV   78.68 nm  f=0.0527  <S**2>=0.000
       9 -> 22        -0.23063
      10 -> 24         0.11447
      11 -> 29        -0.18472
      11 -> 31         0.45017
      11 -> 32         0.35295
      12 -> 32        -0.11994

 Excited State  70:      Singlet-A     15.8133 eV   78.41 nm  f=0.0061  <S**2>=0.000
       7 -> 16         0.19322
       8 -> 18         0.18369
       9 -> 22         0.35191
      10 -> 24        -0.30544
      11 -> 27         0.10927
      11 -> 28         0.12576
      11 -> 31         0.17163
      11 -> 32         0.26237
      12 -> 34        -0.11583

 Excited State  71:      Singlet-A     15.9211 eV   77.87 nm  f=0.0089  <S**2>=0.000
       8 -> 17        -0.13328
       9 -> 22         0.11829
       9 -> 23         0.64537

 Excited State  72:      Singlet-A     16.0094 eV   77.44 nm  f=0.0206  <S**2>=0.000
      12 -> 33         0.61807
      12 -> 34        -0.21436

 Excited State  73:      Singlet-A     16.1380 eV   76.83 nm  f=0.0082  <S**2>=0.000
       6 -> 13         0.25998
       6 -> 14        -0.14522
       8 -> 17         0.15449
       8 -> 18         0.10641
      10 -> 25        -0.21566
      10 -> 26        -0.10671
      12 -> 33         0.13275
      12 -> 34         0.51490

 Excited State  74:      Singlet-A     16.1751 eV   76.65 nm  f=0.0655  <S**2>=0.000
       6 -> 13         0.22668
       7 -> 16        -0.10229
       8 -> 17         0.53407
       9 -> 24         0.10814
      10 -> 25         0.10695
      12 -> 33        -0.16103
      12 -> 34        -0.20223

 Excited State  75:      Singlet-A     16.2489 eV   76.30 nm  f=0.0164  <S**2>=0.000
       6 -> 13         0.19567
       6 -> 14        -0.27857
       8 -> 17        -0.19182
       8 -> 18        -0.10135
       9 -> 24         0.45727
      10 -> 25        -0.17391
      11 -> 33        -0.10353
      12 -> 34        -0.17528

 Excited State  76:      Singlet-A     16.2736 eV   76.19 nm  f=0.0037  <S**2>=0.000
       9 -> 24         0.23404
      10 -> 25         0.58381
      10 -> 26         0.10638
      12 -> 33         0.15671
      12 -> 34         0.20693

 Excited State  77:      Singlet-A     16.3491 eV   75.84 nm  f=0.0883  <S**2>=0.000
       6 -> 13         0.50121
       6 -> 14         0.15472
       7 -> 17        -0.16237
       8 -> 17        -0.18884
       9 -> 24        -0.26970
      10 -> 25         0.10036
      10 -> 26         0.15872
      11 -> 33        -0.12404

 Excited State  78:      Singlet-A     16.4690 eV   75.28 nm  f=0.0606  <S**2>=0.000
       6 -> 14         0.29669
       8 -> 18         0.41587
       9 -> 24         0.26127
      10 -> 25        -0.11315
      10 -> 26         0.26030
      10 -> 27        -0.11822
      12 -> 35         0.11347

 Excited State  79:      Singlet-A     16.4879 eV   75.20 nm  f=0.0611  <S**2>=0.000
       6 -> 14        -0.19365
       7 -> 17        -0.13489
       8 -> 18         0.30524
      10 -> 26        -0.15162
      11 -> 33         0.47880
      12 -> 34        -0.10975

 Excited State  80:      Singlet-A     16.5380 eV   74.97 nm  f=0.1132  <S**2>=0.000
       6 -> 13        -0.11543
       6 -> 14        -0.39434
       7 -> 17         0.11576
       8 -> 18         0.17956
       9 -> 24        -0.17974
      10 -> 26         0.41908
      11 -> 33        -0.15789

 Excited State  81:      Singlet-A     16.5560 eV   74.89 nm  f=0.0740  <S**2>=0.000
       8 -> 18        -0.29517
      10 -> 25        -0.14358
      10 -> 26         0.39445
      11 -> 33         0.36823
      11 -> 34        -0.13445
      12 -> 35        -0.17996

 Excited State  82:      Singlet-A     16.7236 eV   74.14 nm  f=0.0108  <S**2>=0.000
       7 -> 17         0.30785
      11 -> 33         0.21490
      11 -> 34         0.57862

 Excited State  83:      Singlet-A     16.8673 eV   73.51 nm  f=0.0493  <S**2>=0.000
       6 -> 15        -0.28766
       7 -> 17         0.44272
       7 -> 18         0.16336
       8 -> 17        -0.10687
       8 -> 20        -0.14328
      10 -> 27         0.16039
      11 -> 34        -0.28033
      12 -> 35        -0.13405

 Excited State  84:      Singlet-A     16.9879 eV   72.98 nm  f=0.0023  <S**2>=0.000
       8 -> 19         0.61851
      12 -> 35         0.24212

 Excited State  85:      Singlet-A     17.0651 eV   72.65 nm  f=0.0555  <S**2>=0.000
       8 -> 18        -0.13282
       8 -> 19        -0.25649
      12 -> 35         0.57143

 Excited State  86:      Singlet-A     17.0900 eV   72.55 nm  f=0.0198  <S**2>=0.000
       6 -> 14         0.14305
       6 -> 15         0.11036
       7 -> 18        -0.14672
      10 -> 27         0.61849

 Excited State  87:      Singlet-A     17.1955 eV   72.10 nm  f=0.0020  <S**2>=0.000
       6 -> 15        -0.33009
       7 -> 18         0.22041
       8 -> 20         0.52940
       9 -> 25         0.15345

 Excited State  88:      Singlet-A     17.2257 eV   71.98 nm  f=0.0617  <S**2>=0.000
       6 -> 15         0.20038
       7 -> 17        -0.11079
       7 -> 18         0.56822
       9 -> 25        -0.21095
      10 -> 27         0.11299
      11 -> 35         0.10001

 Excited State  89:      Singlet-A     17.2928 eV   71.70 nm  f=0.0693  <S**2>=0.000
       6 -> 15         0.24949
       7 -> 17         0.11925
       7 -> 18         0.11494
       8 -> 21         0.18262
       9 -> 25         0.44417
       9 -> 26        -0.34316
      11 -> 35         0.10665

 Excited State  90:      Singlet-A     17.3887 eV   71.30 nm  f=0.0616  <S**2>=0.000
       6 -> 15         0.25913
       7 -> 17         0.20634
       8 -> 20         0.28016
       9 -> 26         0.39039
      11 -> 35         0.21921
      12 -> 36         0.17536

 Excited State  91:      Singlet-A     17.4167 eV   71.19 nm  f=0.0245  <S**2>=0.000
       6 -> 15        -0.19113
       8 -> 20        -0.13334
      11 -> 35         0.54403
      12 -> 36         0.26237

 Excited State  92:      Singlet-A     17.5723 eV   70.56 nm  f=0.0643  <S**2>=0.000
       7 -> 19         0.31271
       9 -> 25        -0.17021
       9 -> 26        -0.19668
      11 -> 35        -0.24225
      11 -> 36        -0.17930
      12 -> 36         0.41383

 Excited State  93:      Singlet-A     17.6243 eV   70.35 nm  f=0.0070  <S**2>=0.000
       7 -> 19         0.43331
       8 -> 21         0.27526
       9 -> 25        -0.15153
      11 -> 35         0.19368
      12 -> 36        -0.35778

 Excited State  94:      Singlet-A     17.6377 eV   70.30 nm  f=0.1425  <S**2>=0.000
       7 -> 18         0.11769
       7 -> 19         0.35207

 The electronic state is 1-A.
 Alpha  occ. eigenvalues --  -14.35767 -14.29443 -10.25876  -0.94506  -0.84939
 Alpha  occ. eigenvalues --   -0.62460  -0.54850  -0.51929  -0.41829  -0.38473
 Alpha  occ. eigenvalues --   -0.27007  -0.25591
 Alpha virt. eigenvalues --    0.01038   0.01800   0.04298   0.06465   0.10722
 Alpha virt. eigenvalues --    0.12482   0.14779   0.15559   0.17540   0.19582
 Alpha virt. eigenvalues --    0.20502   0.22585   0.25633   0.26329   0.28761

 Mulliken charges:
               1
     1  N    0.195949
     2  C    0.691386
     3  N   -0.091691
     4  H   -0.125805
     5  H   -0.149386
     6  H   -0.434318
     7  H   -0.086136
 Sum of Mulliken charges =  -0.00000

 Dipole moment (field-independent basis, Debye):
    X=              3.4369    Y=             -0.7394    Z=              0.5615  Tot=              3.5601
 Quadrupole moment (field-independent basis, Debye-Ang):
   XX=            -20.8853   YY=            -14.9458   ZZ=            -20.7199
   XY=              1.2756   XZ=              1.1429   YZ=             -0.1575

 Normal termination of Gaussian 16 at Mon Mar 21 20:05:55 2022.
