 Gaussian 16, Revision C.01,
 Gaussian 16:  EM64L-G16RevC.01  3-Jul-2019

 ---------------------------------------------------------------------
 #P TD(Nstates=10000) b3lyp/Gen SCF(maxcycles=100) Int(Grid=ultrafine)
 ---------------------------------------------------------------------

 ---------------------
 xGDB7_00001_tier4.com
 ---------------------
 Symbolic Z-matrix:
 Charge =  0 Multiplicity = 1

                         Standard orientation:
 ---------------------------------------------------------------------
 Center     Atomic      Atomic             Coordinates (Angstroms)
 Number     Number       Type             X           Y           Z
 ---------------------------------------------------------------------
      1          6           0        0.926251   -0.719055    0.000000
      2          6           0        0.000000    0.459276    0.000000
      3          8           0       -1.196998    0.387136    0.000000
      4          1           0        1.575965   -0.668678    0.877698
      5          1           0        1.575965   -0.668678   -0.877698
      6          1           0        0.366733   -1.652236    0.000000
      7          1           0        0.499813    1.451182    0.000000
 ---------------------------------------------------------------------

 SCF Done:  E(RB3LYP) =  -153.729877802     A.U. after   12 cycles

 Excitation energies and oscillator strengths:

 Excited State   1:      Singlet-A"     4.3414 eV  285.59 nm  f=0.0000  <S**2>=0.000
      12 -> 13         0.70595
 This state for optimization and/or second-order correction.
 Total Energy, E(TD-HF/TD-DFT) =  -153.570334757
 Copying the excited state density for this state as the 1-particle RhoCI density.

 Excited State   2:      Singlet-A'     6.9099 eV  179.43 nm  f=0.0200  <S**2>=0.000
      12 -> 14         0.69368
      12 -> 15         0.10237

 Excited State   3:      Singlet-A'     7.6214 eV  162.68 nm  f=0.0731  <S**2>=0.000
      12 -> 14        -0.10063
      12 -> 15         0.69642

 Excited State   4:      Singlet-A"     8.5423 eV  145.14 nm  f=0.0046  <S**2>=0.000
      10 -> 13         0.50926
      12 -> 16        -0.48016

 Excited State   5:      Singlet-A'     8.5863 eV  144.40 nm  f=0.0659  <S**2>=0.000
      11 -> 13        -0.22789
      12 -> 17         0.65245
      12 -> 18        -0.12907

 Excited State   6:      Singlet-A"     8.6042 eV  144.10 nm  f=0.0135  <S**2>=0.000
      10 -> 13         0.47824
      12 -> 16         0.51280

 Excited State   7:      Singlet-A'     8.9112 eV  139.13 nm  f=0.1326  <S**2>=0.000
      11 -> 13         0.32544
      12 -> 17         0.22932
      12 -> 18         0.56931

 Excited State   8:      Singlet-A'     9.1287 eV  135.82 nm  f=0.1492  <S**2>=0.000
       8 -> 13        -0.18166
      11 -> 13         0.51960
      12 -> 17         0.11265
      12 -> 18        -0.38878

 Excited State   9:      Singlet-A"     9.3210 eV  133.02 nm  f=0.0004  <S**2>=0.000
       9 -> 13         0.38337
      12 -> 20         0.58916

 Excited State  10:      Singlet-A"     9.4463 eV  131.25 nm  f=0.0001  <S**2>=0.000
       9 -> 13         0.58594
      12 -> 20        -0.38515

 Excited State  11:      Singlet-A'     9.4558 eV  131.12 nm  f=0.0602  <S**2>=0.000
      12 -> 19         0.70099

 Excited State  12:      Singlet-A"     9.8027 eV  126.48 nm  f=0.0066  <S**2>=0.000
      11 -> 14         0.70315

 Excited State  13:      Singlet-A'     9.9349 eV  124.80 nm  f=0.0100  <S**2>=0.000
      12 -> 21         0.69712

 Excited State  14:      Singlet-A'    10.5347 eV  117.69 nm  f=0.0416  <S**2>=0.000
       8 -> 13         0.22258
      10 -> 14         0.66436

 Excited State  15:      Singlet-A"    10.5574 eV  117.44 nm  f=0.0251  <S**2>=0.000
       7 -> 13        -0.28447
      11 -> 15         0.64096

 Excited State  16:      Singlet-A"    10.5842 eV  117.14 nm  f=0.0038  <S**2>=0.000
       7 -> 13        -0.25809
      11 -> 15        -0.12830
      12 -> 22         0.64038

 Excited State  17:      Singlet-A"    10.6404 eV  116.52 nm  f=0.0004  <S**2>=0.000
       7 -> 13         0.57587
      11 -> 15         0.25473
      12 -> 22         0.29207

 Excited State  18:      Singlet-A'    10.7934 eV  114.87 nm  f=0.0665  <S**2>=0.000
       8 -> 13         0.58027
      10 -> 14        -0.22233
      11 -> 13         0.12961
      12 -> 23         0.26119

 Excited State  19:      Singlet-A'    11.2169 eV  110.53 nm  f=0.0267  <S**2>=0.000
       8 -> 13         0.16015
      12 -> 23        -0.47094
      12 -> 24         0.48095

 Excited State  20:      Singlet-A'    11.3847 eV  108.90 nm  f=0.0263  <S**2>=0.000
       8 -> 13        -0.10522
       9 -> 14        -0.11094
      10 -> 15         0.56703
      12 -> 23         0.26164
      12 -> 24         0.26329

 Excited State  21:      Singlet-A'    11.4217 eV  108.55 nm  f=0.1316  <S**2>=0.000
       8 -> 13        -0.10046
      10 -> 15        -0.38069
      11 -> 16        -0.24067
      12 -> 23         0.31348
      12 -> 24         0.40346

 Excited State  22:      Singlet-A"    11.5980 eV  106.90 nm  f=0.0731  <S**2>=0.000
       8 -> 14         0.14758
      11 -> 17         0.68639

 Excited State  23:      Singlet-A'    11.6170 eV  106.73 nm  f=0.0658  <S**2>=0.000
       9 -> 14        -0.14607
      10 -> 15        -0.15562
      11 -> 16         0.63134
      12 -> 24         0.12727
      12 -> 25        -0.15931

 Excited State  24:      Singlet-A'    11.7454 eV  105.56 nm  f=0.0139  <S**2>=0.000
       9 -> 14         0.56560
      12 -> 25        -0.40531

 Excited State  25:      Singlet-A"    11.8743 eV  104.41 nm  f=0.0675  <S**2>=0.000
       8 -> 14         0.49203
      11 -> 18         0.48881

 Excited State  26:      Singlet-A'    11.8849 eV  104.32 nm  f=0.0007  <S**2>=0.000
       9 -> 14         0.35766
      11 -> 16         0.17834
      11 -> 20         0.12492
      12 -> 25         0.53137

 Excited State  27:      Singlet-A"    11.9123 eV  104.08 nm  f=0.0331  <S**2>=0.000
       8 -> 14        -0.47793
      11 -> 17         0.13018
      11 -> 18         0.49283

 Excited State  28:      Singlet-A"    12.2060 eV  101.58 nm  f=0.0072  <S**2>=0.000
      10 -> 16         0.68155
      11 -> 19        -0.11266

 Excited State  29:      Singlet-A"    12.3906 eV  100.06 nm  f=0.0064  <S**2>=0.000
       8 -> 15         0.26206
      10 -> 16         0.12512
      11 -> 19         0.63492

 Excited State  30:      Singlet-A'    12.4520 eV   99.57 nm  f=0.0128  <S**2>=0.000
       9 -> 15         0.62056
      10 -> 17         0.14715
      11 -> 20         0.26815

 Excited State  31:      Singlet-A'    12.4964 eV   99.22 nm  f=0.0195  <S**2>=0.000
      10 -> 17         0.60937
      11 -> 20        -0.29308

 Excited State  32:      Singlet-A'    12.5827 eV   98.54 nm  f=0.0056  <S**2>=0.000
       9 -> 15        -0.28799
      10 -> 17         0.25476
      10 -> 18        -0.14775
      10 -> 19        -0.10005
      11 -> 20         0.52719

 Excited State  33:      Singlet-A"    12.6595 eV   97.94 nm  f=0.0093  <S**2>=0.000
       8 -> 15        -0.17558
      12 -> 26         0.67305

 Excited State  34:      Singlet-A"    12.6714 eV   97.85 nm  f=0.0100  <S**2>=0.000
       8 -> 15         0.59483
      11 -> 19        -0.25701
      11 -> 21        -0.17992
      12 -> 26         0.19154

 Excited State  35:      Singlet-A'    12.8163 eV   96.74 nm  f=0.1277  <S**2>=0.000
       7 -> 14        -0.42070
       9 -> 15        -0.10328
       9 -> 17         0.12019
      10 -> 18         0.52798

 Excited State  36:      Singlet-A'    12.8967 eV   96.14 nm  f=0.0353  <S**2>=0.000
       7 -> 14         0.53570
       8 -> 16         0.13288
      10 -> 18         0.37498
      11 -> 20         0.11931
      11 -> 22         0.12023

 Excited State  37:      Singlet-A"    12.9240 eV   95.93 nm  f=0.0011  <S**2>=0.000
       8 -> 15         0.18190
      11 -> 21         0.66328

 Excited State  38:      Singlet-A"    13.1784 eV   94.08 nm  f=0.0167  <S**2>=0.000
      10 -> 20        -0.43479
      12 -> 27         0.53600

 Excited State  39:      Singlet-A'    13.1955 eV   93.96 nm  f=0.0302  <S**2>=0.000
       7 -> 15         0.11971
       8 -> 16         0.17690
      10 -> 19         0.63095
      11 -> 22         0.14430

 Excited State  40:      Singlet-A"    13.2347 eV   93.68 nm  f=0.0184  <S**2>=0.000
       9 -> 16         0.16221
      10 -> 20         0.48183
      12 -> 27         0.44887

 Excited State  41:      Singlet-A"    13.4193 eV   92.39 nm  f=0.0021  <S**2>=0.000
       9 -> 16         0.67713
      10 -> 20        -0.15534

 Excited State  42:      Singlet-A'    13.4781 eV   91.99 nm  f=0.0429  <S**2>=0.000
       9 -> 17         0.63986
       9 -> 18        -0.11370
      10 -> 21        -0.11333
      11 -> 22        -0.12219
      12 -> 28        -0.13088

 Excited State  43:      Singlet-A'    13.5478 eV   91.52 nm  f=0.0445  <S**2>=0.000
       7 -> 15         0.55739
       8 -> 16         0.14127
      10 -> 19        -0.21025
      10 -> 21        -0.23656
      11 -> 22         0.18251

 Excited State  44:      Singlet-A"    13.5750 eV   91.33 nm  f=0.0010  <S**2>=0.000
       6 -> 13         0.55100
       8 -> 17        -0.29316
       8 -> 18         0.22665
      11 -> 23         0.15651

 Excited State  45:      Singlet-A'    13.6241 eV   91.00 nm  f=0.0211  <S**2>=0.000
       8 -> 16         0.13229
       9 -> 18         0.20832
      10 -> 21        -0.10343
      11 -> 22        -0.19697
      12 -> 28         0.60834

 Excited State  46:      Singlet-A'    13.6736 eV   90.67 nm  f=0.0659  <S**2>=0.000
       7 -> 15         0.38173
       8 -> 16        -0.26180
      10 -> 21         0.46314
      11 -> 22        -0.18194

 Excited State  47:      Singlet-A'    13.7227 eV   90.35 nm  f=0.0382  <S**2>=0.000
       8 -> 16        -0.33707
       9 -> 17         0.16492
       9 -> 18         0.19168
      11 -> 22         0.52339
      12 -> 28         0.16237

 Excited State  48:      Singlet-A"    13.7882 eV   89.92 nm  f=0.0019  <S**2>=0.000
       6 -> 13         0.10220
       8 -> 17         0.55771
       8 -> 18         0.34301
      11 -> 21        -0.10167
      11 -> 23         0.19076

 Excited State  49:      Singlet-A'    13.9275 eV   89.02 nm  f=0.0729  <S**2>=0.000
       9 -> 18         0.57333
      11 -> 22        -0.16588
      12 -> 28        -0.23503
      12 -> 29         0.22115

 Excited State  50:      Singlet-A"    13.9973 eV   88.58 nm  f=0.0540  <S**2>=0.000
       6 -> 13        -0.28522
       8 -> 17        -0.23017
       8 -> 18         0.49868
       8 -> 19        -0.12268
      10 -> 20        -0.10860
      11 -> 24         0.16979
      11 -> 25         0.19268

 Excited State  51:      Singlet-A"    14.0748 eV   88.09 nm  f=0.0006  <S**2>=0.000
       6 -> 13        -0.11453
       8 -> 18        -0.16656
       8 -> 19        -0.13948
       9 -> 20        -0.13761
      11 -> 23         0.61620
      11 -> 24        -0.14305

 Excited State  52:      Singlet-A'    14.0906 eV   87.99 nm  f=0.0396  <S**2>=0.000
       8 -> 16         0.41162
       9 -> 17         0.11656
       9 -> 19         0.18605
       9 -> 21        -0.11249
      10 -> 21         0.41657
      11 -> 22         0.13362

 Excited State  53:      Singlet-A"    14.1529 eV   87.60 nm  f=0.0152  <S**2>=0.000
       7 -> 16         0.20477
       9 -> 20         0.49764
      10 -> 22         0.41893
      11 -> 23         0.10919

 Excited State  54:      Singlet-A"    14.2981 eV   86.71 nm  f=0.0026  <S**2>=0.000
       9 -> 20        -0.38836
      10 -> 22         0.45560
      11 -> 23        -0.10624
      11 -> 24        -0.31197

 Excited State  55:      Singlet-A"    14.3199 eV   86.58 nm  f=0.0001  <S**2>=0.000
       7 -> 16         0.14328
       8 -> 18        -0.11478
       8 -> 21         0.10717
       9 -> 20        -0.24949
      10 -> 22         0.20846
      11 -> 23         0.10005
      11 -> 24         0.56725

 Excited State  56:      Singlet-A'    14.3666 eV   86.30 nm  f=0.0411  <S**2>=0.000
       7 -> 18         0.12164
       8 -> 16        -0.10785
       9 -> 19         0.65417

 Excited State  57:      Singlet-A'    14.4635 eV   85.72 nm  f=0.1730  <S**2>=0.000
       7 -> 17        -0.16550
       7 -> 18        -0.11350
       9 -> 18        -0.13874
       9 -> 21         0.18053
      10 -> 24        -0.12225
      12 -> 29         0.59630

 Excited State  58:      Singlet-A"    14.4913 eV   85.56 nm  f=0.0007  <S**2>=0.000
       7 -> 16         0.55762
       8 -> 19        -0.31560
       9 -> 20        -0.10962
      10 -> 22        -0.13636
      11 -> 24        -0.10528
      11 -> 25         0.15045

 Excited State  59:      Singlet-A'    14.6018 eV   84.91 nm  f=0.0208  <S**2>=0.000
       7 -> 17        -0.32891
       7 -> 18         0.14579
       8 -> 20         0.56463
       9 -> 21         0.10577
      10 -> 24         0.11273

 Excited State  60:      Singlet-A"    14.6539 eV   84.61 nm  f=0.0224  <S**2>=0.000
       7 -> 16         0.19036
       8 -> 19         0.52516
       8 -> 21        -0.17051
      10 -> 22        -0.10170
      11 -> 23         0.10605
      11 -> 25         0.35542

 Excited State  61:      Singlet-A'    14.6746 eV   84.49 nm  f=0.0762  <S**2>=0.000
       7 -> 17         0.50846
       7 -> 18        -0.11360
       8 -> 20         0.34168
       9 -> 21        -0.16262
      12 -> 29         0.15923
      12 -> 31        -0.14774

 Excited State  62:      Singlet-A'    14.8649 eV   83.41 nm  f=0.0273  <S**2>=0.000
       7 -> 18        -0.45595
       9 -> 21         0.45845
      12 -> 29        -0.15608

 Excited State  63:      Singlet-A"    14.9439 eV   82.97 nm  f=0.3112  <S**2>=0.000
       6 -> 13         0.17778
       7 -> 16        -0.24060
       7 -> 20         0.21850
       8 -> 18        -0.10047
       8 -> 19        -0.15706
      10 -> 22         0.15068
      11 -> 25         0.49683
      12 -> 30        -0.13320

 Excited State  64:      Singlet-A'    14.9667 eV   82.84 nm  f=0.0018  <S**2>=0.000
       7 -> 18        -0.18643
       9 -> 21        -0.24840
      10 -> 23         0.37414
      10 -> 24        -0.10418
      12 -> 31         0.47652

 Excited State  65:      Singlet-A'    15.0538 eV   82.36 nm  f=0.0842  <S**2>=0.000
       7 -> 17         0.20875
       7 -> 18         0.35995
       7 -> 19         0.17936
       9 -> 21         0.33618
      10 -> 23         0.31065
      10 -> 24        -0.11206
      12 -> 31         0.10914

 Excited State  66:      Singlet-A"    15.0737 eV   82.25 nm  f=0.0066  <S**2>=0.000
       7 -> 20        -0.12559
       8 -> 19         0.11243
       8 -> 21         0.64163
      11 -> 24        -0.11012
      11 -> 25         0.10558
      12 -> 30         0.14232

 Excited State  67:      Singlet-A'    15.1706 eV   81.73 nm  f=0.1503  <S**2>=0.000
       7 -> 17         0.10282
      10 -> 23        -0.28685
      10 -> 24         0.35639
      10 -> 25         0.13768
      12 -> 31         0.41714

 Excited State  68:      Singlet-A"    15.1757 eV   81.70 nm  f=0.0594  <S**2>=0.000
       8 -> 21        -0.12930
      12 -> 30         0.67430

 Excited State  69:      Singlet-A'    15.2432 eV   81.34 nm  f=0.0904  <S**2>=0.000
       7 -> 18        -0.11236
       7 -> 19        -0.15260
       8 -> 20        -0.12643
       9 -> 23        -0.14204
      10 -> 23         0.35908
      10 -> 24         0.46129
      10 -> 25         0.10100
      12 -> 31        -0.16870
      12 -> 32        -0.15387

 Excited State  70:      Singlet-A"    15.3976 eV   80.52 nm  f=0.0084  <S**2>=0.000
       7 -> 20         0.38500
       9 -> 22         0.56341

 Excited State  71:      Singlet-A'    15.4104 eV   80.45 nm  f=0.0373  <S**2>=0.000
       8 -> 22         0.18316
      10 -> 24         0.12524
      12 -> 32         0.62676

 Excited State  72:      Singlet-A'    15.4403 eV   80.30 nm  f=0.0300  <S**2>=0.000
       6 -> 14         0.62826
       7 -> 19        -0.20384
      10 -> 25         0.14129

 Excited State  73:      Singlet-A'    15.4960 eV   80.01 nm  f=0.0142  <S**2>=0.000
       6 -> 14        -0.19268
      10 -> 24        -0.18513
      10 -> 25         0.59473
      12 -> 32         0.10103

 Excited State  74:      Singlet-A"    15.5187 eV   79.89 nm  f=0.1674  <S**2>=0.000
       7 -> 20         0.51834
       8 -> 19         0.10424
       9 -> 22        -0.41152
      11 -> 25        -0.11094

 Excited State  75:      Singlet-A'    15.5880 eV   79.54 nm  f=0.0119  <S**2>=0.000
       6 -> 14         0.15310
       7 -> 18        -0.12870
       7 -> 19         0.55433
       8 -> 22         0.22638
       9 -> 23         0.10555
      10 -> 24         0.11448
      10 -> 25         0.16091

 Excited State  76:      Singlet-A'    15.7058 eV   78.94 nm  f=0.0935  <S**2>=0.000
       8 -> 22         0.48301
      10 -> 25        -0.13473
      11 -> 26         0.31676
      12 -> 33        -0.31040

 Excited State  77:      Singlet-A'    15.8370 eV   78.29 nm  f=0.0179  <S**2>=0.000
       6 -> 14         0.10351
       6 -> 15        -0.12485
       7 -> 19         0.16833
       7 -> 21         0.21825
       8 -> 22        -0.21295
       9 -> 23        -0.25960
      11 -> 26         0.49496

 Excited State  78:      Singlet-A"    15.9346 eV   77.81 nm  f=0.0150  <S**2>=0.000
      12 -> 34         0.68379

 Excited State  79:      Singlet-A'    15.9554 eV   77.71 nm  f=0.0372  <S**2>=0.000
       7 -> 21         0.58265
       9 -> 23        -0.10013
      11 -> 26        -0.26242
      12 -> 33        -0.14827
      12 -> 35        -0.11508

 Excited State  80:      Singlet-A'    16.0033 eV   77.47 nm  f=0.0564  <S**2>=0.000
       6 -> 15        -0.10780
       7 -> 19        -0.10573
       8 -> 22         0.20895
       9 -> 23        -0.17378
       9 -> 25         0.10745
      11 -> 27         0.15580
      12 -> 32        -0.12649
      12 -> 33         0.50968
      12 -> 35         0.20072

 Excited State  81:      Singlet-A'    16.1255 eV   76.89 nm  f=0.1322  <S**2>=0.000
       7 -> 21         0.23018
       8 -> 22        -0.12073
       9 -> 23         0.56218
      10 -> 23         0.11646
      11 -> 26         0.13487
      11 -> 27         0.12383
      12 -> 33         0.10156

 Excited State  82:      Singlet-A'    16.1714 eV   76.67 nm  f=0.0089  <S**2>=0.000
       8 -> 22        -0.11161
       9 -> 23        -0.10671
       9 -> 24        -0.43658
      11 -> 27         0.49979

 Excited State  83:      Singlet-A"    16.1840 eV   76.61 nm  f=0.0006  <S**2>=0.000
       8 -> 23         0.64183
       8 -> 24        -0.25467

 Excited State  84:      Singlet-A'    16.3619 eV   75.78 nm  f=0.1151  <S**2>=0.000
       6 -> 15        -0.17984
       9 -> 24         0.38482
       9 -> 25        -0.17548
      11 -> 27         0.25568
      12 -> 33        -0.17999
      12 -> 35         0.33546
      12 -> 36        -0.15529

 Excited State  85:      Singlet-A'    16.3878 eV   75.66 nm  f=0.0567  <S**2>=0.000
       6 -> 15         0.34917
       9 -> 24        -0.14531
      11 -> 27        -0.21462
      12 -> 35         0.51222

 Excited State  86:      Singlet-A"    16.4008 eV   75.60 nm  f=0.0025  <S**2>=0.000
       8 -> 23         0.25747
       8 -> 24         0.63772
      11 -> 28         0.10743

 Excited State  87:      Singlet-A'    16.4685 eV   75.29 nm  f=0.0216  <S**2>=0.000
       6 -> 15         0.48084
       9 -> 24         0.27611
       9 -> 25        -0.23748
      11 -> 26         0.11272
      11 -> 27         0.15718
      12 -> 35        -0.16426

 Excited State  88:      Singlet-A"    16.5501 eV   74.91 nm  f=0.0060  <S**2>=0.000
       7 -> 22         0.42736
      10 -> 26         0.49160
      10 -> 27         0.13181
      11 -> 28        -0.20637

 Excited State  89:      Singlet-A"    16.5749 eV   74.80 nm  f=0.0009  <S**2>=0.000
       8 -> 25         0.10145
      10 -> 26         0.31867
      11 -> 28         0.60380

 Excited State  90:      Singlet-A"    16.6228 eV   74.59 nm  f=0.1122  <S**2>=0.000
       7 -> 22         0.51387
      10 -> 26        -0.34128
      11 -> 28         0.26399

 Excited State  91:      Singlet-A'    16.6626 eV   74.41 nm  f=0.0489  <S**2>=0.000
       6 -> 15         0.15533
       9 -> 24         0.11603
       9 -> 25         0.58010
      11 -> 27         0.16414
      12 -> 36        -0.20331

 Excited State  92:      Singlet-A"    16.8157 eV   73.73 nm  f=0.0200  <S**2>=0.000
       8 -> 25         0.59640
      10 -> 26        -0.14046
      10 -> 27         0.30557

 Excited State  93:      Singlet-A'    16.8732 eV   73.48 nm  f=0.0266  <S**2>=0.000
       7 -> 23         0.15159
       7 -> 24        -0.11865
       9 -> 25         0.14377
      12 -> 36         0.59408
      12 -> 37        -0.18004

 Excited State  94:      Singlet-A"    16.9462 eV   73.16 nm  f=0.0015  <S**2>=0.000
       7 -> 22        -0.14755
       8 -> 25        -0.29306
      10 -> 27         0.61051

 Excited State  95:      Singlet-A"    17.0747 eV   72.61 nm  f=0.0130  <S**2>=0.000
       6 -> 16         0.69075

 Excited State  96:      Singlet-A'    17.1256 eV   72.40 nm  f=0.0345  <S**2>=0.000
       6 -> 17         0.15723
       7 -> 23         0.37229
       7 -> 24        -0.13336
      12 -> 37         0.53720

 Excited State  97:      Singlet-A"    17.1498 eV   72.29 nm  f=0.0061  <S**2>=0.000
      12 -> 38         0.69596

 Excited State  98:      Singlet-A'    17.1841 eV   72.15 nm  f=0.0358  <S**2>=0.000
       6 -> 17        -0.33955
       6 -> 18         0.16823
       7 -> 23         0.48231
      12 -> 36        -0.10718
      12 -> 37        -0.22623

 Excited State  99:      Singlet-A"    17.2429 eV   71.90 nm  f=0.0372  <S**2>=0.000
      11 -> 29         0.66985

 Excited State 100:      Singlet-A'    17.3502 eV   71.46 nm  f=0.0538  <S**2>=0.000
       6 -> 17         0.55554
       6 -> 18         0.17346
       7 -> 23         0.16895
      12 -> 37        -0.25110

 Excited State 101:      Singlet-A'    17.4164 eV   71.19 nm  f=0.0325  <S**2>=0.000
       7 -> 23         0.11541
       7 -> 24         0.49736
      10 -> 28        -0.44997

 Excited State 102:      Singlet-A'    17.4579 eV   71.02 nm  f=0.1686  <S**2>=0.000
       6 -> 17         0.11384
       6 -> 18        -0.16724
       7 -> 24         0.41034

 The electronic state is 1-A'.
 Alpha  occ. eigenvalues --  -19.15075 -10.28842 -10.20448  -1.05415  -0.75798
 Alpha  occ. eigenvalues --   -0.58461  -0.49036  -0.45746  -0.44975  -0.40937
 Alpha  occ. eigenvalues --   -0.38068  -0.27039
 Alpha virt. eigenvalues --   -0.03966   0.01730   0.04475   0.08191   0.08574
 Alpha virt. eigenvalues --    0.09817   0.11518   0.11548   0.13133   0.15652
 Alpha virt. eigenvalues --    0.17717   0.18671   0.20025   0.23799   0.25529

 Mulliken charges:
               1
     1  C    0.541895
     2  C    0.112192
     3  O   -0.277702
     4  H   -0.008968
     5  H   -0.008968
     6  H   -0.116962
     7  H   -0.241487
 Sum of Mulliken charges =  -0.00000

 Dipole moment (field-independent basis, Debye):
    X=              2.8799    Y=             -0.3390    Z=             -0.0000  Tot=              2.8998
 Quadrupole moment (field-independent basis, Debye-Ang):
   XX=            -21.5030   YY=            -18.1504   ZZ=            -18.0723
   XY=              0.8115   XZ=              0.0000   YZ=              0.0000

 Normal termination of Gaussian 16 at Mon Mar 21 20:05:14 2022.
