 Gaussian 16, Revision C.01,
 Gaussian 16:  EM64L-G16RevC.01  3-Jul-2019

 ---------------------------------------------------------------------
 #P TD(Nstates=10000) b3lyp/Gen SCF(maxcycles=100) Int(Grid=ultrafine)
 ---------------------------------------------------------------------

 ---------------------
 xGDB7_00001_tier4.com
 ---------------------
 Symbolic Z-matrix:
 Charge =  0 Multiplicity = 1

                         Standard orientation:
 ---------------------------------------------------------------------
 Center     Atomic      Atomic             Coordinates (Angstroms)
 Number     Number       Type             X           Y           Z
 ---------------------------------------------------------------------
      1          6           0       -0.026655   -0.220923    1.206915
      2          7           0       -0.026655    0.579675   -0.000000
      3          6           0       -0.026655   -0.220923   -1.206915
      4          1           0        0.028929    0.427196    2.082330
      5          1           0        0.800836   -0.947383    1.258571
      6          1           0       -0.961718   -0.783094    1.269367
      7          1           0        0.770359    1.199905   -0.000000
      8          1           0       -0.961718   -0.783094   -1.269367
      9          1           0        0.800836   -0.947383   -1.258571
     10          1           0        0.028929    0.427196   -2.082330
 ---------------------------------------------------------------------

 SCF Done:  E(RB3LYP) =  -135.078167204     A.U. after   12 cycles

 Excitation energies and oscillator strengths:

 Excited State   1:      Singlet-A'     5.6155 eV  220.79 nm  f=0.0043  <S**2>=0.000
      13 -> 14         0.69870
      13 -> 16         0.10121
 This state for optimization and/or second-order correction.
 Total Energy, E(TD-HF/TD-DFT) =  -134.871800577
 Copying the excited state density for this state as the 1-particle RhoCI density.

 Excited State   2:      Singlet-A"     6.5784 eV  188.47 nm  f=0.0045  <S**2>=0.000
      13 -> 15         0.70605

 Excited State   3:      Singlet-A'     6.6762 eV  185.71 nm  f=0.0367  <S**2>=0.000
      13 -> 14        -0.10014
      13 -> 16         0.69803

 Excited State   4:      Singlet-A'     7.6133 eV  162.85 nm  f=0.0144  <S**2>=0.000
      13 -> 17         0.51277
      13 -> 18        -0.48140

 Excited State   5:      Singlet-A'     7.6944 eV  161.14 nm  f=0.0922  <S**2>=0.000
      13 -> 17         0.47889
      13 -> 18         0.51181

 Excited State   6:      Singlet-A'     8.4131 eV  147.37 nm  f=0.0061  <S**2>=0.000
      13 -> 20         0.69956

 Excited State   7:      Singlet-A"     8.4184 eV  147.28 nm  f=0.0209  <S**2>=0.000
      13 -> 19         0.70437

 Excited State   8:      Singlet-A'     8.8423 eV  140.22 nm  f=0.0062  <S**2>=0.000
      13 -> 22         0.70113

 Excited State   9:      Singlet-A"     8.9216 eV  138.97 nm  f=0.0737  <S**2>=0.000
      13 -> 21         0.70318

 Excited State  10:      Singlet-A"     9.4387 eV  131.36 nm  f=0.0021  <S**2>=0.000
      13 -> 23         0.69727

 Excited State  11:      Singlet-A"     9.4638 eV  131.01 nm  f=0.0527  <S**2>=0.000
      12 -> 14         0.69472

 Excited State  12:      Singlet-A'     9.5412 eV  129.95 nm  f=0.0154  <S**2>=0.000
      11 -> 14         0.67690
      13 -> 24        -0.16889

 Excited State  13:      Singlet-A'     9.7356 eV  127.35 nm  f=0.0049  <S**2>=0.000
      11 -> 14         0.15886
      13 -> 24         0.67975

 Excited State  14:      Singlet-A"     9.9532 eV  124.57 nm  f=0.0169  <S**2>=0.000
      10 -> 14        -0.11600
      13 -> 25         0.68656

 Excited State  15:      Singlet-A"    10.0503 eV  123.36 nm  f=0.0001  <S**2>=0.000
      10 -> 14         0.67920
      11 -> 15        -0.13934
      13 -> 25         0.12328

 Excited State  16:      Singlet-A'    10.4123 eV  119.08 nm  f=0.0429  <S**2>=0.000
      11 -> 16         0.12009
      12 -> 15         0.68054

 Excited State  17:      Singlet-A"    10.4556 eV  118.58 nm  f=0.0000  <S**2>=0.000
      10 -> 14         0.13641
      11 -> 15         0.64811
      12 -> 16         0.17917
      13 -> 26        -0.13009

 Excited State  18:      Singlet-A"    10.5203 eV  117.85 nm  f=0.0070  <S**2>=0.000
      12 -> 16         0.32451
      13 -> 26         0.61778

 Excited State  19:      Singlet-A"    10.5693 eV  117.31 nm  f=0.0350  <S**2>=0.000
      11 -> 15        -0.20671
      12 -> 16         0.59598
      13 -> 26        -0.29438

 Excited State  20:      Singlet-A'    10.6249 eV  116.69 nm  f=0.1328  <S**2>=0.000
      11 -> 16         0.68732
      12 -> 15        -0.11131

 Excited State  21:      Singlet-A'    11.0014 eV  112.70 nm  f=0.0718  <S**2>=0.000
      10 -> 15         0.69193

 Excited State  22:      Singlet-A"    11.1592 eV  111.11 nm  f=0.0008  <S**2>=0.000
      10 -> 16         0.69730

 Excited State  23:      Singlet-A'    11.1752 eV  110.95 nm  f=0.0083  <S**2>=0.000
      13 -> 27         0.66927
      13 -> 28        -0.12027

 Excited State  24:      Singlet-A"    11.3970 eV  108.79 nm  f=0.0034  <S**2>=0.000
       9 -> 14        -0.13428
      12 -> 17         0.62091
      12 -> 18         0.29010

 Excited State  25:      Singlet-A'    11.4553 eV  108.23 nm  f=0.0238  <S**2>=0.000
      11 -> 17         0.69550

 Excited State  26:      Singlet-A"    11.4838 eV  107.96 nm  f=0.1827  <S**2>=0.000
       9 -> 14        -0.25591
      12 -> 17        -0.30199
      12 -> 18         0.55623

 Excited State  27:      Singlet-A"    11.5559 eV  107.29 nm  f=0.0868  <S**2>=0.000
       9 -> 14         0.62610
      12 -> 18         0.28948

 Excited State  28:      Singlet-A'    11.6416 eV  106.50 nm  f=0.0039  <S**2>=0.000
       8 -> 14        -0.41234
      10 -> 15        -0.10274
      11 -> 18         0.46316
      13 -> 28        -0.28734

 Excited State  29:      Singlet-A'    11.6805 eV  106.15 nm  f=0.1031  <S**2>=0.000
       8 -> 14         0.54078
      11 -> 18         0.41865

 Excited State  30:      Singlet-A'    11.7794 eV  105.25 nm  f=0.0341  <S**2>=0.000
       8 -> 14        -0.13050
       9 -> 15        -0.10932
      11 -> 18         0.27154
      13 -> 28         0.60823

 Excited State  31:      Singlet-A"    11.8895 eV  104.28 nm  f=0.0189  <S**2>=0.000
      10 -> 17         0.19570
      10 -> 18         0.10540
      13 -> 29         0.65072

 Excited State  32:      Singlet-A"    12.0308 eV  103.06 nm  f=0.0371  <S**2>=0.000
      10 -> 17         0.50399
      10 -> 18        -0.38256
      11 -> 19         0.24445
      13 -> 29        -0.10148

 Excited State  33:      Singlet-A"    12.1423 eV  102.11 nm  f=0.0169  <S**2>=0.000
       8 -> 15         0.11373
      10 -> 17         0.24101
      10 -> 18         0.52111
      11 -> 19         0.27216
      12 -> 22        -0.12449
      13 -> 29        -0.18383

 Excited State  34:      Singlet-A"    12.2222 eV  101.44 nm  f=0.0004  <S**2>=0.000
      12 -> 20         0.68048

 Excited State  35:      Singlet-A'    12.2746 eV  101.01 nm  f=0.0023  <S**2>=0.000
      11 -> 20         0.66087
      13 -> 30         0.19121

 Excited State  36:      Singlet-A'    12.3475 eV  100.41 nm  f=0.0427  <S**2>=0.000
       8 -> 16        -0.16130
      12 -> 19         0.64581

 Excited State  37:      Singlet-A"    12.3869 eV  100.09 nm  f=0.0666  <S**2>=0.000
       9 -> 16        -0.12474
      10 -> 17        -0.33760
      10 -> 18        -0.10242
      11 -> 19         0.56466

 Excited State  38:      Singlet-A'    12.4015 eV   99.98 nm  f=0.1160  <S**2>=0.000
       9 -> 15        -0.37741
      11 -> 20        -0.17727
      13 -> 30         0.55519

 Excited State  39:      Singlet-A'    12.4635 eV   99.48 nm  f=0.0604  <S**2>=0.000
       9 -> 15         0.54712
      11 -> 22        -0.17115
      13 -> 30         0.34868

 Excited State  40:      Singlet-A"    12.5374 eV   98.89 nm  f=0.0344  <S**2>=0.000
       8 -> 15         0.20614
       9 -> 16         0.63898
      11 -> 19         0.15745
      12 -> 22         0.11116

 Excited State  41:      Singlet-A'    12.5907 eV   98.47 nm  f=0.0139  <S**2>=0.000
       8 -> 16         0.29524
      10 -> 19         0.14210
      12 -> 19         0.12893
      12 -> 21         0.57897

 Excited State  42:      Singlet-A"    12.5917 eV   98.47 nm  f=0.0095  <S**2>=0.000
       8 -> 15         0.56956
       9 -> 16        -0.22721
      10 -> 20         0.15759
      12 -> 22         0.24244

 Excited State  43:      Singlet-A"    12.6272 eV   98.19 nm  f=0.0045  <S**2>=0.000
       8 -> 15        -0.29423
      10 -> 18         0.10091
      10 -> 20         0.25944
      11 -> 21        -0.33348
      12 -> 22         0.45116

 Excited State  44:      Singlet-A'    12.6734 eV   97.83 nm  f=0.0215  <S**2>=0.000
       8 -> 16         0.49550
      10 -> 19         0.29030
      11 -> 22        -0.14600
      12 -> 21        -0.34749

 Excited State  45:      Singlet-A"    12.7197 eV   97.47 nm  f=0.0440  <S**2>=0.000
      10 -> 20         0.47919
      11 -> 21         0.47909

 Excited State  46:      Singlet-A'    12.7337 eV   97.37 nm  f=0.0283  <S**2>=0.000
       8 -> 16         0.19746
       9 -> 15         0.11347
      10 -> 21        -0.12594
      11 -> 22         0.61022
      12 -> 19         0.13253

 Excited State  47:      Singlet-A"    12.8425 eV   96.54 nm  f=0.0112  <S**2>=0.000
       9 -> 17        -0.11202
      10 -> 18         0.12577
      10 -> 20        -0.37948
      11 -> 21         0.33657
      12 -> 22         0.43717

 Excited State  48:      Singlet-A'    12.8545 eV   96.45 nm  f=0.0152  <S**2>=0.000
       7 -> 14         0.10462
       8 -> 16        -0.28249
      10 -> 19         0.57459
      11 -> 22         0.14163
      12 -> 23         0.15599

 Excited State  49:      Singlet-A'    12.9727 eV   95.57 nm  f=0.0538  <S**2>=0.000
       7 -> 14         0.59159
      10 -> 19        -0.11645
      13 -> 31         0.31603

 Excited State  50:      Singlet-A'    13.0871 eV   94.74 nm  f=0.1015  <S**2>=0.000
       7 -> 14        -0.31263
      13 -> 31         0.57639
      13 -> 33         0.13003
      13 -> 34         0.12086

 Excited State  51:      Singlet-A'    13.2074 eV   93.87 nm  f=0.0337  <S**2>=0.000
       8 -> 18        -0.17386
      10 -> 19        -0.13914
      10 -> 21        -0.21436
      11 -> 22        -0.13774
      11 -> 24        -0.14324
      12 -> 23         0.56761

 Excited State  52:      Singlet-A"    13.2282 eV   93.73 nm  f=0.0167  <S**2>=0.000
      10 -> 22         0.53958
      11 -> 23         0.41123

 Excited State  53:      Singlet-A"    13.3557 eV   92.83 nm  f=0.0011  <S**2>=0.000
       9 -> 17         0.25908
       9 -> 18        -0.15921
      10 -> 22        -0.22000
      11 -> 23         0.10659
      13 -> 32         0.56862

 Excited State  54:      Singlet-A"    13.3990 eV   92.53 nm  f=0.0019  <S**2>=0.000
       9 -> 17         0.55287
       9 -> 18         0.33550
      10 -> 22         0.12551
      11 -> 21         0.14103
      11 -> 23        -0.17271

 Excited State  55:      Singlet-A"    13.4565 eV   92.14 nm  f=0.0301  <S**2>=0.000
       9 -> 17         0.26000
       9 -> 18        -0.23384
      10 -> 22        -0.25686
      11 -> 23         0.36332
      11 -> 25         0.11532
      12 -> 24         0.12585
      13 -> 32        -0.34849

 Excited State  56:      Singlet-A'    13.4568 eV   92.14 nm  f=0.0430  <S**2>=0.000
      10 -> 21         0.28421
      11 -> 24        -0.10693
      12 -> 25        -0.16974
      13 -> 31        -0.14188
      13 -> 33         0.55493
      13 -> 34         0.12861

 Excited State  57:      Singlet-A'    13.5009 eV   91.83 nm  f=0.0277  <S**2>=0.000
       8 -> 17        -0.20626
      10 -> 21         0.48142
      12 -> 23         0.21105
      13 -> 33        -0.34681

 Excited State  58:      Singlet-A"    13.5526 eV   91.48 nm  f=0.0827  <S**2>=0.000
       9 -> 18         0.34074
      11 -> 23         0.15731
      12 -> 24         0.55885
      13 -> 32         0.12215

 Excited State  59:      Singlet-A'    13.6031 eV   91.14 nm  f=0.0261  <S**2>=0.000
       8 -> 17         0.25803
      13 -> 33        -0.15124
      13 -> 34         0.61417

 Excited State  60:      Singlet-A"    13.6066 eV   91.12 nm  f=0.0291  <S**2>=0.000
       9 -> 17        -0.12194
       9 -> 18         0.38868
      10 -> 22        -0.19447
      11 -> 23         0.34238
      12 -> 24        -0.38269

 Excited State  61:      Singlet-A'    13.6460 eV   90.86 nm  f=0.0323  <S**2>=0.000
       8 -> 17        -0.18450
       8 -> 18         0.31620
      11 -> 24         0.47854
      12 -> 23         0.21536
      12 -> 25        -0.19950

 Excited State  62:      Singlet-A'    13.6870 eV   90.59 nm  f=0.0188  <S**2>=0.000
       8 -> 17         0.33928
       8 -> 18         0.47305
      11 -> 24        -0.22607
      12 -> 25        -0.13037
      13 -> 34        -0.20086

 Excited State  63:      Singlet-A'    13.7919 eV   89.90 nm  f=0.0318  <S**2>=0.000
       8 -> 17        -0.24090
       8 -> 18         0.31873
      11 -> 24        -0.14694
      12 -> 25         0.50787
      13 -> 34         0.14812

 Excited State  64:      Singlet-A"    13.8493 eV   89.52 nm  f=0.0071  <S**2>=0.000
       7 -> 15        -0.12478
      10 -> 22         0.12626
      11 -> 25         0.66059

 Excited State  65:      Singlet-A"    13.8952 eV   89.23 nm  f=0.0888  <S**2>=0.000
       7 -> 15         0.67106
       9 -> 20         0.10349
      11 -> 25         0.13148

 Excited State  66:      Singlet-A'    13.9395 eV   88.94 nm  f=0.0553  <S**2>=0.000
       7 -> 16         0.40950
       8 -> 17         0.23051
       9 -> 19        -0.22221
      10 -> 21         0.17444
      11 -> 24         0.25253
      12 -> 25         0.25673

 Excited State  67:      Singlet-A'    14.0171 eV   88.45 nm  f=0.0017  <S**2>=0.000
       7 -> 16        -0.40583
       9 -> 19        -0.16913
      10 -> 23         0.49680

 Excited State  68:      Singlet-A'    14.0817 eV   88.05 nm  f=0.1289  <S**2>=0.000
       7 -> 16         0.31860
       8 -> 17        -0.16783
       8 -> 20         0.23789
       9 -> 19         0.31660
      10 -> 23         0.38859
      11 -> 24        -0.14514

 Excited State  69:      Singlet-A"    14.1094 eV   87.87 nm  f=0.0021  <S**2>=0.000
       8 -> 19        -0.21196
       9 -> 20        -0.36673
      10 -> 24         0.51300
      11 -> 26        -0.17322
      13 -> 35        -0.10122

 Excited State  70:      Singlet-A"    14.2107 eV   87.25 nm  f=0.0337  <S**2>=0.000
       8 -> 19        -0.10571
       9 -> 20         0.45233
      10 -> 24         0.38142
      11 -> 26         0.14027
      13 -> 35         0.29119

 Excited State  71:      Singlet-A'    14.2997 eV   86.70 nm  f=0.0006  <S**2>=0.000
       9 -> 19         0.10384
      13 -> 36         0.66811

 Excited State  72:      Singlet-A"    14.3122 eV   86.63 nm  f=0.0707  <S**2>=0.000
       9 -> 20        -0.14280
      11 -> 26        -0.36132
      13 -> 35         0.56341

 Excited State  73:      Singlet-A'    14.3461 eV   86.42 nm  f=0.0718  <S**2>=0.000
       9 -> 19         0.18738
      10 -> 23        -0.13105
      10 -> 25        -0.13189
      11 -> 24         0.10450
      12 -> 26         0.59848
      13 -> 36        -0.12525

 Excited State  74:      Singlet-A'    14.4345 eV   85.89 nm  f=0.1264  <S**2>=0.000
       7 -> 18        -0.10051
       8 -> 20        -0.21491
       9 -> 19         0.33630
      10 -> 25        -0.22035
      12 -> 26        -0.15625
      13 -> 37         0.43363
      13 -> 38         0.15588

 Excited State  75:      Singlet-A'    14.4631 eV   85.72 nm  f=0.0641  <S**2>=0.000
       8 -> 20         0.48455
       9 -> 21        -0.23532
      10 -> 25        -0.33544
      12 -> 26        -0.19796

 Excited State  76:      Singlet-A"    14.4734 eV   85.66 nm  f=0.1628  <S**2>=0.000
       8 -> 19         0.57425
       9 -> 20         0.12482
      10 -> 24         0.22568
      11 -> 26        -0.23178
      13 -> 35        -0.16111

 Excited State  77:      Singlet-A"    14.5687 eV   85.10 nm  f=0.1021  <S**2>=0.000
       8 -> 19         0.28021
       9 -> 20        -0.23660
       9 -> 22         0.34235
      10 -> 24         0.10674
      11 -> 26         0.41587
      13 -> 35         0.16298

 Excited State  78:      Singlet-A'    14.5740 eV   85.07 nm  f=0.0726  <S**2>=0.000
       7 -> 16        -0.14834
       7 -> 18        -0.13140
       8 -> 20         0.24603
       9 -> 19         0.24053
      10 -> 23        -0.13203
      10 -> 25         0.47135

 Excited State  79:      Singlet-A'    14.6144 eV   84.84 nm  f=0.0558  <S**2>=0.000
       7 -> 18         0.16436
       8 -> 20         0.14275
       9 -> 19        -0.13310
       9 -> 21         0.51885
      11 -> 27         0.14794
      13 -> 36         0.11056
      13 -> 37         0.29602

 Excited State  80:      Singlet-A"    14.6858 eV   84.42 nm  f=0.0162  <S**2>=0.000
       8 -> 21         0.18827
       9 -> 20         0.12152
       9 -> 22         0.58522
      11 -> 26        -0.26563
      13 -> 35        -0.12094

 Excited State  81:      Singlet-A'    14.6913 eV   84.39 nm  f=0.0497  <S**2>=0.000
       7 -> 18         0.20849
       8 -> 17        -0.10274
       8 -> 22         0.15467
       9 -> 19        -0.14341
       9 -> 21        -0.24064
      10 -> 25         0.18659
      11 -> 27        -0.31649
      12 -> 25        -0.13668
      13 -> 37         0.33406
      13 -> 40         0.11579

 Excited State  82:      Singlet-A"    14.7677 eV   83.96 nm  f=0.0975  <S**2>=0.000
       8 -> 21         0.36342
      12 -> 27         0.57507

 Excited State  83:      Singlet-A'    14.8514 eV   83.48 nm  f=0.0175  <S**2>=0.000
       7 -> 17         0.51164
       7 -> 18        -0.10866
       8 -> 22        -0.27917
      11 -> 27        -0.29965
      13 -> 38         0.17239

 Excited State  84:      Singlet-A'    14.8932 eV   83.25 nm  f=0.0132  <S**2>=0.000
       7 -> 17         0.26429
       7 -> 18         0.21901
       8 -> 22         0.28956
      11 -> 27         0.32171
      13 -> 37        -0.11696
      13 -> 38         0.39338

 Excited State  85:      Singlet-A'    14.9207 eV   83.10 nm  f=0.0283  <S**2>=0.000
       7 -> 17        -0.28846
       8 -> 20         0.11899
       8 -> 22         0.10357
       9 -> 21         0.19299
      10 -> 26         0.24146
      11 -> 27        -0.32019
      13 -> 37        -0.12769
      13 -> 38         0.37952

 Excited State  86:      Singlet-A"    14.9754 eV   82.79 nm  f=0.0039  <S**2>=0.000
       8 -> 21         0.51667
       8 -> 23         0.10235
       9 -> 22        -0.10777
      12 -> 27        -0.37957

 Excited State  87:      Singlet-A'    14.9967 eV   82.67 nm  f=0.0240  <S**2>=0.000
       7 -> 17         0.22470
       8 -> 22         0.29440
      10 -> 26         0.50795
      13 -> 38        -0.26142

 Excited State  88:      Singlet-A"    15.0468 eV   82.40 nm  f=0.0002  <S**2>=0.000
      13 -> 39         0.69020

 Excited State  89:      Singlet-A'    15.0916 eV   82.15 nm  f=0.2630  <S**2>=0.000
       8 -> 22        -0.30766
       9 -> 21        -0.19451
       9 -> 23         0.27489
      10 -> 26         0.30947
      11 -> 27         0.25520
      13 -> 37         0.11761
      13 -> 38         0.20182

 Excited State  90:      Singlet-A'    15.1803 eV   81.67 nm  f=0.0010  <S**2>=0.000
       7 -> 18        -0.31752
       8 -> 22         0.11674
      13 -> 40         0.59075

 Excited State  91:      Singlet-A'    15.3061 eV   81.00 nm  f=0.0274  <S**2>=0.000
       7 -> 18         0.42204
       7 -> 20        -0.10415
       8 -> 17         0.10485
       8 -> 22        -0.21100
       9 -> 19         0.15071
       9 -> 25        -0.10994
      10 -> 21         0.10027
      11 -> 28         0.12183
      13 -> 38        -0.13138
      13 -> 40         0.32519

 Excited State  92:      Singlet-A"    15.3964 eV   80.53 nm  f=0.0029  <S**2>=0.000
       8 -> 21         0.11746
      10 -> 27         0.46932
      13 -> 41         0.48400

 Excited State  93:      Singlet-A'    15.3998 eV   80.51 nm  f=0.1267  <S**2>=0.000
       7 -> 20        -0.17441
       9 -> 23         0.59033
      10 -> 26        -0.18551
      11 -> 28        -0.17154

 Excited State  94:      Singlet-A"    15.4038 eV   80.49 nm  f=0.0371  <S**2>=0.000
       8 -> 23         0.51422
       9 -> 24        -0.24753
      10 -> 27         0.28656
      12 -> 28         0.14395
      13 -> 41        -0.18327

 Excited State  95:      Singlet-A"    15.5212 eV   79.88 nm  f=0.0026  <S**2>=0.000
       8 -> 23         0.24137
       8 -> 25         0.11964
      10 -> 27        -0.39730
      12 -> 28         0.25266
      13 -> 41         0.42196

 Excited State  96:      Singlet-A"    15.5388 eV   79.79 nm  f=0.0402  <S**2>=0.000
       7 -> 19        -0.17228
       8 -> 23         0.27916
       9 -> 24         0.59450
      12 -> 28        -0.12909

 Excited State  97:      Singlet-A"    15.6342 eV   79.30 nm  f=0.0529  <S**2>=0.000
       7 -> 19         0.12892
       8 -> 23        -0.15147
       9 -> 24         0.21456
      10 -> 27         0.12242
      11 -> 29         0.30777
      12 -> 28         0.49377
      13 -> 42        -0.17100

 Excited State  98:      Singlet-A"    15.6549 eV   79.20 nm  f=0.0125  <S**2>=0.000
       9 -> 24         0.13834
      13 -> 41        -0.14238
      13 -> 42         0.64657
      13 -> 43         0.11003

 Excited State  99:      Singlet-A'    15.6972 eV   78.99 nm  f=0.0245  <S**2>=0.000
       8 -> 24         0.64915
       9 -> 25        -0.13233
      11 -> 28        -0.11307
      12 -> 29        -0.12547

 Excited State 100:      Singlet-A"    15.7193 eV   78.87 nm  f=0.0042  <S**2>=0.000
       7 -> 19         0.60375
       8 -> 23         0.14745
       8 -> 25         0.12030
      13 -> 43         0.23042

 Excited State 101:      Singlet-A'    15.7630 eV   78.66 nm  f=0.0665  <S**2>=0.000
       7 -> 20        -0.40076
       9 -> 25         0.27876
       9 -> 26         0.10292
      11 -> 28         0.43616
      12 -> 29        -0.13594

 Excited State 102:      Singlet-A"    15.7883 eV   78.53 nm  f=0.0009  <S**2>=0.000
       7 -> 19        -0.20838
       8 -> 23        -0.11020
       8 -> 25         0.17433
      13 -> 42        -0.15244
      13 -> 43         0.59809

 Excited State 103:      Singlet-A'    15.8162 eV   78.39 nm  f=0.0586  <S**2>=0.000
       7 -> 20         0.47801
       7 -> 22         0.14588
       8 -> 24         0.14439

 The electronic state is 1-A'.
 Alpha  occ. eigenvalues --  -14.31403 -10.20230 -10.20229  -0.89598  -0.69710
 Alpha  occ. eigenvalues --   -0.62439  -0.49413  -0.44632  -0.44143  -0.38945
 Alpha  occ. eigenvalues --   -0.36928  -0.36672  -0.22700
 Alpha virt. eigenvalues --    0.01865   0.04889   0.05818   0.09131   0.09501
 Alpha virt. eigenvalues --    0.12091   0.12161   0.13650   0.13833   0.15964
 Alpha virt. eigenvalues --    0.16906   0.17904   0.20093   0.21658   0.24722

 Mulliken charges:
               1
     1  C    0.891984
     2  N   -0.650543
     3  C    0.891984
     4  H   -0.297433
     5  H   -0.055142
     6  H   -0.163679
     7  H   -0.100916
     8  H   -0.163679
     9  H   -0.055142
    10  H   -0.297433
 Sum of Mulliken charges =  -0.00000

 Dipole moment (field-independent basis, Debye):
    X=              0.9107    Y=             -0.3458    Z=             -0.0000  Tot=              0.9742
 Quadrupole moment (field-independent basis, Debye-Ang):
   XX=            -21.1507   YY=            -21.7167   ZZ=            -20.1837
   XY=              2.0998   XZ=              0.0000   YZ=             -0.0000

 Normal termination of Gaussian 16 at Mon Mar 21 20:12:48 2022.
