 Gaussian 16, Revision C.01,
 Gaussian 16:  EM64L-G16RevC.01  3-Jul-2019

 ---------------------------------------------------------------------
 #P TD(Nstates=10000) b3lyp/Gen SCF(maxcycles=100) Int(Grid=ultrafine)
 ---------------------------------------------------------------------

 ---------------------
 xGDB7_00001_tier4.com
 ---------------------
 Symbolic Z-matrix:
 Charge =  0 Multiplicity = 1

                         Standard orientation:
 ---------------------------------------------------------------------
 Center     Atomic      Atomic             Coordinates (Angstroms)
 Number     Number       Type             X           Y           Z
 ---------------------------------------------------------------------
      1          6           0        0.000000    0.729549   -0.367364
      2          6           0       -0.000000   -0.729549   -0.367364
      3          8           0       -0.000000   -0.000000    0.845033
      4          1           0       -0.918945    1.264243   -0.587975
      5          1           0        0.918945    1.264243   -0.587975
      6          1           0        0.918945   -1.264243   -0.587975
      7          1           0       -0.918945   -1.264243   -0.587975
 ---------------------------------------------------------------------

 SCF Done:  E(RB3LYP) =  -153.685414542     A.U. after   11 cycles

 Excitation energies and oscillator strengths:

 Excited State   1:      Singlet-B1     7.3861 eV  167.86 nm  f=0.0295  <S**2>=0.000
      12 -> 13         0.70378
 This state for optimization and/or second-order correction.
 Total Energy, E(TD-HF/TD-DFT) =  -153.413980215
 Copying the excited state density for this state as the 1-particle RhoCI density.

 Excited State   2:      Singlet-B1     7.8525 eV  157.89 nm  f=0.0097  <S**2>=0.000
      12 -> 15         0.70176

 Excited State   3:      Singlet-A2     7.9081 eV  156.78 nm  f=0.0000  <S**2>=0.000
      12 -> 14         0.68217
      12 -> 17        -0.18358

 Excited State   4:      Singlet-A2     8.3869 eV  147.83 nm  f=0.0000  <S**2>=0.000
      12 -> 14         0.18183
      12 -> 17         0.67590

 Excited State   5:      Singlet-A1     8.4301 eV  147.07 nm  f=0.0280  <S**2>=0.000
      11 -> 13         0.28573
      12 -> 16         0.64505

 Excited State   6:      Singlet-A1     8.5183 eV  145.55 nm  f=0.0146  <S**2>=0.000
      11 -> 13         0.64023
      12 -> 16        -0.28136

 Excited State   7:      Singlet-A1     9.0572 eV  136.89 nm  f=0.0573  <S**2>=0.000
      11 -> 15         0.69491

 Excited State   8:      Singlet-B2     9.1100 eV  136.10 nm  f=0.0581  <S**2>=0.000
      11 -> 14         0.70478

 Excited State   9:      Singlet-B1     9.4845 eV  130.72 nm  f=0.0000  <S**2>=0.000
      11 -> 16         0.62021
      12 -> 18        -0.33480

 Excited State  10:      Singlet-B1     9.5976 eV  129.18 nm  f=0.0226  <S**2>=0.000
      11 -> 16         0.33503
      12 -> 18         0.61871

 Excited State  11:      Singlet-B2    10.2171 eV  121.35 nm  f=0.1483  <S**2>=0.000
       9 -> 15        -0.15063
      11 -> 17         0.66551
      12 -> 19        -0.10874

 Excited State  12:      Singlet-A2    10.2646 eV  120.79 nm  f=0.0000  <S**2>=0.000
      10 -> 13         0.70459

 Excited State  13:      Singlet-B2    10.3923 eV  119.30 nm  f=0.0431  <S**2>=0.000
      11 -> 17         0.10251
      12 -> 19         0.69723

 Excited State  14:      Singlet-B1    10.6501 eV  116.42 nm  f=0.0195  <S**2>=0.000
      10 -> 14        -0.19761
      12 -> 20         0.67539

 Excited State  15:      Singlet-A2    10.6906 eV  115.97 nm  f=0.0000  <S**2>=0.000
      12 -> 21         0.69518

 Excited State  16:      Singlet-A1    10.7119 eV  115.74 nm  f=0.0082  <S**2>=0.000
      11 -> 18         0.69887

 Excited State  17:      Singlet-B2    10.8115 eV  114.68 nm  f=0.0325  <S**2>=0.000
       9 -> 13         0.70152

 Excited State  18:      Singlet-B1    10.8996 eV  113.75 nm  f=0.0735  <S**2>=0.000
      10 -> 14         0.66457
      10 -> 17        -0.12752
      12 -> 20         0.19580

 Excited State  19:      Singlet-A2    10.9178 eV  113.56 nm  f=0.0000  <S**2>=0.000
      10 -> 15         0.69655

 Excited State  20:      Singlet-A1    11.1834 eV  110.86 nm  f=0.0000  <S**2>=0.000
       9 -> 17         0.21854
      11 -> 20         0.15899
      12 -> 22         0.64572

 Excited State  21:      Singlet-A2    11.4057 eV  108.70 nm  f=0.0000  <S**2>=0.000
      11 -> 19         0.70283

 Excited State  22:      Singlet-B2    11.4398 eV  108.38 nm  f=0.0745  <S**2>=0.000
       9 -> 15         0.66370
      11 -> 17         0.13040
      11 -> 21         0.17186

 Excited State  23:      Singlet-A1    11.4411 eV  108.37 nm  f=0.0164  <S**2>=0.000
       9 -> 14         0.70260

 Excited State  24:      Singlet-B2    11.5002 eV  107.81 nm  f=0.1325  <S**2>=0.000
      10 -> 16         0.68705
      11 -> 21        -0.14168

 Excited State  25:      Singlet-B1    11.5049 eV  107.77 nm  f=0.0113  <S**2>=0.000
      10 -> 14         0.12819
      10 -> 17         0.68813

 Excited State  26:      Singlet-A2    11.6281 eV  106.62 nm  f=0.0000  <S**2>=0.000
      12 -> 23         0.70210

 Excited State  27:      Singlet-A2    11.8306 eV  104.80 nm  f=0.0000  <S**2>=0.000
       9 -> 16         0.70385

 Excited State  28:      Singlet-A1    11.8473 eV  104.65 nm  f=0.0062  <S**2>=0.000
      11 -> 20         0.16676
      12 -> 24         0.68312

 Excited State  29:      Singlet-A1    11.9237 eV  103.98 nm  f=0.0121  <S**2>=0.000
       9 -> 17        -0.30935
      11 -> 20         0.60322
      12 -> 24        -0.14188

 Excited State  30:      Singlet-B1    12.1349 eV  102.17 nm  f=0.0005  <S**2>=0.000
      11 -> 22         0.70460

 Excited State  31:      Singlet-B2    12.1350 eV  102.17 nm  f=0.0467  <S**2>=0.000
       9 -> 15        -0.13686
      10 -> 16         0.13259
      11 -> 21         0.64296
      11 -> 23        -0.16828

 Excited State  32:      Singlet-B1    12.5168 eV   99.05 nm  f=0.0014  <S**2>=0.000
      11 -> 24        -0.13387
      12 -> 25         0.67971
      12 -> 27         0.10761

 Excited State  33:      Singlet-A2    12.6217 eV   98.23 nm  f=0.0000  <S**2>=0.000
      10 -> 18         0.69735

 Excited State  34:      Singlet-B2    12.7066 eV   97.57 nm  f=0.0251  <S**2>=0.000
      11 -> 21         0.14335
      11 -> 23         0.67763

 Excited State  35:      Singlet-A1    12.8566 eV   96.44 nm  f=0.0194  <S**2>=0.000
       8 -> 13         0.35164
       8 -> 15        -0.16247
       9 -> 17         0.46555
      11 -> 20         0.20059
      11 -> 27        -0.14973
      12 -> 22        -0.16933

 Excited State  36:      Singlet-B1    12.9466 eV   95.77 nm  f=0.0198  <S**2>=0.000
      11 -> 24         0.68267
      12 -> 25         0.12309

 Excited State  37:      Singlet-B2    13.0331 eV   95.13 nm  f=0.0093  <S**2>=0.000
       9 -> 18         0.69976

 Excited State  38:      Singlet-A1    13.1936 eV   93.97 nm  f=0.0023  <S**2>=0.000
       8 -> 13         0.52705
       8 -> 15         0.13577
       9 -> 17        -0.18078
      10 -> 19        -0.38377

 Excited State  39:      Singlet-B2    13.4556 eV   92.14 nm  f=0.0312  <S**2>=0.000
      12 -> 26         0.69187

 Excited State  40:      Singlet-B1    13.5521 eV   91.49 nm  f=0.0104  <S**2>=0.000
       9 -> 19        -0.13747
      10 -> 21        -0.19791
      12 -> 25        -0.11782
      12 -> 27         0.63477

 Excited State  41:      Singlet-A1    13.6131 eV   91.08 nm  f=0.0246  <S**2>=0.000
       8 -> 13        -0.19771
       8 -> 15         0.13476
       9 -> 17         0.17229
      10 -> 19        -0.38601
      11 -> 20         0.14304
      11 -> 25         0.43778
      12 -> 22        -0.12105

 Excited State  42:      Singlet-A2    13.6359 eV   90.92 nm  f=0.0000  <S**2>=0.000
      10 -> 20         0.68983

 Excited State  43:      Singlet-B2    13.6467 eV   90.85 nm  f=0.1585  <S**2>=0.000
       8 -> 14         0.68573
       8 -> 17        -0.14481

 Excited State  44:      Singlet-A1    13.7466 eV   90.19 nm  f=0.0109  <S**2>=0.000
       8 -> 13         0.12295
       8 -> 15         0.53410
       9 -> 21         0.21581
      10 -> 19         0.30563
      11 -> 25         0.18012

 Excited State  45:      Singlet-B1    13.7726 eV   90.02 nm  f=0.0234  <S**2>=0.000
       9 -> 19         0.63486
      10 -> 21        -0.26893

 Excited State  46:      Singlet-B1    13.8253 eV   89.68 nm  f=0.0000  <S**2>=0.000
       7 -> 13         0.23914
       9 -> 19         0.18933
      10 -> 21         0.58353
      12 -> 27         0.24355

 Excited State  47:      Singlet-A1    13.8534 eV   89.50 nm  f=0.2402  <S**2>=0.000
       8 -> 13         0.17884
       8 -> 15        -0.33109
      10 -> 19         0.22486
      11 -> 25         0.50434
      11 -> 27         0.11611
      12 -> 29         0.11564

 Excited State  48:      Singlet-B1    13.8999 eV   89.20 nm  f=0.1344  <S**2>=0.000
       7 -> 13         0.64919
       9 -> 19        -0.17028
      10 -> 21        -0.19758

 Excited State  49:      Singlet-B2    14.0753 eV   88.09 nm  f=0.0013  <S**2>=0.000
       8 -> 17         0.21685
       9 -> 20        -0.32508
      10 -> 22         0.57414

 Excited State  50:      Singlet-B1    14.1286 eV   87.75 nm  f=0.0372  <S**2>=0.000
       8 -> 16         0.67817
       9 -> 19         0.10253
      10 -> 23         0.12816

 Excited State  51:      Singlet-B2    14.1293 eV   87.75 nm  f=0.0393  <S**2>=0.000
       9 -> 20         0.60064
      10 -> 22         0.35843

 Excited State  52:      Singlet-A2    14.1636 eV   87.54 nm  f=0.0000  <S**2>=0.000
       7 -> 17        -0.11393
       9 -> 22        -0.13874
      12 -> 28         0.67091

 Excited State  53:      Singlet-A1    14.2930 eV   86.74 nm  f=0.0013  <S**2>=0.000
       7 -> 16         0.18994
       9 -> 21         0.60078
      10 -> 19        -0.15396
      12 -> 29         0.22340

 Excited State  54:      Singlet-B2    14.3204 eV   86.58 nm  f=0.0073  <S**2>=0.000
       8 -> 14         0.15027
       8 -> 17         0.62827
       9 -> 20         0.16691
      10 -> 22        -0.16545

 Excited State  55:      Singlet-A2    14.4242 eV   85.96 nm  f=0.0000  <S**2>=0.000
       7 -> 14         0.53398
       7 -> 17        -0.14005
       9 -> 22        -0.41163

 Excited State  56:      Singlet-A2    14.4432 eV   85.84 nm  f=0.0000  <S**2>=0.000
       7 -> 14         0.41243
       7 -> 17        -0.10749
       9 -> 22         0.54778

 Excited State  57:      Singlet-A1    14.4755 eV   85.65 nm  f=0.1002  <S**2>=0.000
       9 -> 21        -0.17426
      11 -> 27        -0.28629
      12 -> 29         0.61274

 Excited State  58:      Singlet-B1    14.4980 eV   85.52 nm  f=0.0037  <S**2>=0.000
       7 -> 15         0.65385
      10 -> 23         0.24887

 Excited State  59:      Singlet-A2    14.5744 eV   85.07 nm  f=0.0000  <S**2>=0.000
      11 -> 26         0.69663

 Excited State  60:      Singlet-B1    14.8129 eV   83.70 nm  f=0.4258  <S**2>=0.000
       7 -> 15        -0.20979
       8 -> 16        -0.12838
      10 -> 23         0.59699
      12 -> 30         0.21634

 Excited State  61:      Singlet-B2    14.9305 eV   83.04 nm  f=0.2884  <S**2>=0.000
       8 -> 17         0.10194
       9 -> 25         0.15927
      10 -> 24         0.66467

 Excited State  62:      Singlet-A2    14.9652 eV   82.85 nm  f=0.0000  <S**2>=0.000
       7 -> 14         0.18251
       7 -> 17         0.65401
      10 -> 25        -0.10943
      12 -> 28         0.11476

 Excited State  63:      Singlet-A1    15.0299 eV   82.49 nm  f=0.0212  <S**2>=0.000
       8 -> 18         0.15662
       9 -> 23         0.62570
      11 -> 27        -0.24555

 Excited State  64:      Singlet-A1    15.0940 eV   82.14 nm  f=0.0838  <S**2>=0.000
       7 -> 16         0.47128
       8 -> 18         0.32988
       9 -> 23        -0.25074
      11 -> 27        -0.24260
      12 -> 29        -0.10498
      12 -> 32        -0.11390

 Excited State  65:      Singlet-B1    15.1013 eV   82.10 nm  f=0.0326  <S**2>=0.000
      10 -> 23        -0.17737
      12 -> 30         0.66819

 Excited State  66:      Singlet-A2    15.1441 eV   81.87 nm  f=0.0000  <S**2>=0.000
       9 -> 24        -0.22425
      12 -> 31         0.66057

 Excited State  67:      Singlet-A2    15.2386 eV   81.36 nm  f=0.0000  <S**2>=0.000
       9 -> 24         0.66299
      12 -> 31         0.21332

 Excited State  68:      Singlet-A1    15.4527 eV   80.23 nm  f=0.0511  <S**2>=0.000
       7 -> 16         0.43262
       8 -> 15         0.10562
       8 -> 18        -0.42279
       8 -> 20        -0.13336
       9 -> 21        -0.13835
       9 -> 23         0.15273
      11 -> 27         0.15093

 Excited State  69:      Singlet-B2    15.4800 eV   80.09 nm  f=0.0458  <S**2>=0.000
      11 -> 28         0.69068

 Excited State  70:      Singlet-A1    15.4829 eV   80.08 nm  f=0.1138  <S**2>=0.000
       8 -> 18         0.40782
       8 -> 20        -0.15761
       9 -> 17         0.10990
       9 -> 21        -0.11339
       9 -> 23         0.11615
      11 -> 27         0.38673
      12 -> 29         0.11094
      12 -> 32         0.23906

 Excited State  71:      Singlet-B1    15.5664 eV   79.65 nm  f=0.0217  <S**2>=0.000
      11 -> 29         0.69942

 Excited State  72:      Singlet-A2    15.6247 eV   79.35 nm  f=0.0000  <S**2>=0.000
       7 -> 17         0.12383
      10 -> 25         0.67403

 Excited State  73:      Singlet-A1    15.7593 eV   78.67 nm  f=0.0649  <S**2>=0.000
      10 -> 26        -0.11452
      11 -> 27        -0.15573
      11 -> 30         0.10443
      12 -> 32         0.63441

 Excited State  74:      Singlet-B1    15.9670 eV   77.65 nm  f=0.1052  <S**2>=0.000
       7 -> 18         0.18286
      12 -> 33         0.67441

 Excited State  75:      Singlet-A2    15.9998 eV   77.49 nm  f=0.0000  <S**2>=0.000
       8 -> 19         0.70264

 Excited State  76:      Singlet-B2    16.0489 eV   77.25 nm  f=0.2233  <S**2>=0.000
       9 -> 25         0.57854
       9 -> 27         0.13332
      10 -> 24        -0.10721
      11 -> 31        -0.31312

 Excited State  77:      Singlet-A1    16.1970 eV   76.55 nm  f=0.0160  <S**2>=0.000
      11 -> 30         0.68749

 Excited State  78:      Singlet-B1    16.2809 eV   76.15 nm  f=0.2287  <S**2>=0.000
       7 -> 18         0.64592
       9 -> 26         0.13043
      11 -> 32        -0.10330
      12 -> 33        -0.14914

 Excited State  79:      Singlet-B2    16.2819 eV   76.15 nm  f=0.0326  <S**2>=0.000
       6 -> 13         0.10832
       7 -> 19         0.15063
       8 -> 21         0.36072
       9 -> 25         0.24865
      11 -> 31         0.47769
      12 -> 34        -0.13661

 Excited State  80:      Singlet-A1    16.4524 eV   75.36 nm  f=0.1684  <S**2>=0.000
       8 -> 20         0.22918
      10 -> 26         0.65057

 Excited State  81:      Singlet-B2    16.4647 eV   75.30 nm  f=0.0562  <S**2>=0.000
       8 -> 21         0.30298
      12 -> 34         0.62126

 Excited State  82:      Singlet-B2    16.5611 eV   74.86 nm  f=0.1119  <S**2>=0.000
       7 -> 19        -0.19763
       8 -> 21         0.50186
       9 -> 25        -0.10479
      11 -> 31        -0.30569
      12 -> 34        -0.28797

 Excited State  83:      Singlet-A1    16.6160 eV   74.62 nm  f=0.0794  <S**2>=0.000
       8 -> 20         0.60134
       9 -> 28         0.12972
      10 -> 26        -0.18185
      11 -> 33         0.18290

 Excited State  84:      Singlet-A2    16.6266 eV   74.57 nm  f=0.0000  <S**2>=0.000
       7 -> 21         0.14377
      10 -> 25        -0.10373
      10 -> 27         0.67563

 Excited State  85:      Singlet-B1    16.7385 eV   74.07 nm  f=0.0062  <S**2>=0.000
       8 -> 22         0.59100
      11 -> 32         0.37421

 Excited State  86:      Singlet-B1    16.7853 eV   73.86 nm  f=0.0188  <S**2>=0.000
       8 -> 22        -0.36802
       9 -> 26         0.16277
      11 -> 32         0.56253

 Excited State  87:      Singlet-B2    16.8568 eV   73.55 nm  f=0.0005  <S**2>=0.000
       6 -> 13        -0.31473
       7 -> 19         0.48348
       8 -> 21         0.10187
       9 -> 25        -0.13600
       9 -> 27         0.35145

 Excited State  88:      Singlet-B1    16.9487 eV   73.15 nm  f=0.1081  <S**2>=0.000
       8 -> 24        -0.16027
       9 -> 26         0.64669
      11 -> 32        -0.11393
      12 -> 36         0.12683

 Excited State  89:      Singlet-B2    16.9992 eV   72.94 nm  f=0.0000  <S**2>=0.000
       6 -> 13         0.43972
       7 -> 19        -0.13337
       9 -> 25        -0.10405
       9 -> 27         0.50994

 Excited State  90:      Singlet-A2    17.0304 eV   72.80 nm  f=0.0000  <S**2>=0.000
      12 -> 35         0.61521
      12 -> 37         0.31757

 Excited State  91:      Singlet-B1    17.1522 eV   72.28 nm  f=0.0024  <S**2>=0.000
       7 -> 20         0.58486
       8 -> 24        -0.11477
      10 -> 28        -0.22222
      12 -> 36        -0.29012

 Excited State  92:      Singlet-A1    17.1586 eV   72.26 nm  f=0.1112  <S**2>=0.000
       6 -> 14         0.13385
       8 -> 20        -0.11240
      11 -> 33         0.66037

 Excited State  93:      Singlet-B2    17.1913 eV   72.12 nm  f=0.0288  <S**2>=0.000
       6 -> 13         0.32513
       7 -> 19         0.35353
       8 -> 23         0.43932
       9 -> 27        -0.15863
      11 -> 31        -0.13015

 Excited State  94:      Singlet-B1    17.2261 eV   71.97 nm  f=0.0214  <S**2>=0.000
       7 -> 20         0.24915
      10 -> 28        -0.16799
      12 -> 36         0.61059

 Excited State  95:      Singlet-A2    17.3069 eV   71.64 nm  f=0.0000  <S**2>=0.000
       7 -> 21        -0.15332
      12 -> 35        -0.32261
      12 -> 37         0.60357

 Excited State  96:      Singlet-A2    17.3570 eV   71.43 nm  f=0.0000  <S**2>=0.000
       7 -> 21         0.66624
      10 -> 27        -0.15384
      12 -> 37         0.14213

 Excited State  97:      Singlet-B1    17.4094 eV   71.22 nm  f=0.0138  <S**2>=0.000
       7 -> 20         0.26956
      10 -> 28         0.63007

 Excited State  98:      Singlet-B2    17.4351 eV   71.11 nm  f=0.0015  <S**2>=0.000
       6 -> 13         0.11527
       8 -> 23        -0.23472
      10 -> 29         0.63215

 Excited State  99:      Singlet-B2    17.5364 eV   70.70 nm  f=0.0773  <S**2>=0.000
       6 -> 13        -0.17085
       6 -> 15         0.29748
       7 -> 19        -0.12325
       8 -> 23         0.43228
      10 -> 29         0.20073
      11 -> 31         0.12918
      11 -> 35         0.22302
      11 -> 37         0.14208
      12 -> 39         0.11779

 Excited State 100:      Singlet-A2    17.5548 eV   70.63 nm  f=0.0000  <S**2>=0.000
      11 -> 34         0.69968

 Excited State 101:      Singlet-A1    17.5913 eV   70.48 nm  f=0.0581  <S**2>=0.000
       6 -> 14         0.36739
       7 -> 22         0.57849
       9 -> 28        -0.14777

 Excited State 102:      Singlet-B1    17.6141 eV   70.39 nm  f=0.1249  <S**2>=0.000
       7 -> 20         0.10960
       8 -> 24         0.65677
       9 -> 26         0.13450

 Excited State 103:      Singlet-B2    17.6544 eV   70.23 nm  f=0.0119  <S**2>=0.000
       6 -> 13         0.10115
       6 -> 15         0.60992
       8 -> 23        -0.13174
       9 -> 27        -0.14149
      10 -> 29        -0.16812
      11 -> 35        -0.11527

 Excited State 104:      Singlet-A1    17.7205 eV   69.97 nm  f=0.0063  <S**2>=0.000
       5 -> 13         0.17605
       6 -> 14         0.53920
       7 -> 22        -0.33928
       9 -> 31        -0.10177

 Excited State 105:      Singlet-B2    17.7683 eV   69.78 nm  f=0.0206  <S**2>=0.000
      12 -> 39         0.68191

 Excited State 106:      Singlet-B1    17.7850 eV   69.71 nm  f=0.0003  <S**2>=0.000
      12 -> 38         0.69558

 Excited State 107:      Singlet-A2    17.8795 eV   69.34 nm  f=0.0000  <S**2>=0.000
       6 -> 16         0.23828
       7 -> 23        -0.29019
       9 -> 29         0.49946
      10 -> 30         0.31713

 Excited State 108:      Singlet-A2    17.9416 eV   69.10 nm  f=0.0000  <S**2>=0.000
       6 -> 16         0.27280
       9 -> 29        -0.45206
      10 -> 30         0.45903

 Excited State 109:      Singlet-A1    17.9617 eV   69.03 nm  f=0.0446  <S**2>=0.000
       5 -> 13         0.45296
       6 -> 14        -0.13073
       6 -> 17        -0.10168
       8 -> 25        -0.17532
       9 -> 28        -0.43940

 Excited State 110:      Singlet-B1    18.0379 eV   68.74 nm  f=0.0184  <S**2>=0.000
      10 -> 31         0.68455

 Excited State 111:      Singlet-A2    18.0892 eV   68.54 nm  f=0.0000  <S**2>=0.000
       6 -> 16         0.59868
       7 -> 23         0.16180
      10 -> 30        -0.32421

 Excited State 112:      Singlet-A1    18.1083 eV   68.47 nm  f=0.0293  <S**2>=0.000
       5 -> 13         0.45807
       6 -> 17         0.22705
       7 -> 24        -0.15597
       8 -> 25         0.10773
       9 -> 28         0.36742
       9 -> 31         0.14383

 Excited State 113:      Singlet-A1    18.2186 eV   68.05 nm  f=0.0275  <S**2>=0.000
       5 -> 13         0.10444
       5 -> 15         0.22394
       6 -> 17        -0.11297
       7 -> 24         0.27563
       8 -> 25         0.52637
      11 -> 36         0.21116

 Excited State 114:      Singlet-A2    18.2236 eV   68.03 nm  f=0.0000  <S**2>=0.000
       7 -> 23         0.60714
       9 -> 29         0.19962
      10 -> 30         0.26679

 Excited State 115:      Singlet-B2    18.2286 eV   68.02 nm  f=0.0281  <S**2>=0.000
       5 -> 14         0.26144
       9 -> 30        -0.29283
      11 -> 35         0.41853
      11 -> 37         0.34062

 Excited State 116:      Singlet-A1    18.3362 eV   67.62 nm  f=0.0440  <S**2>=0.000
       6 -> 17        -0.17701
       7 -> 24         0.49339
       8 -> 25        -0.17461
       9 -> 31         0.14751
      11 -> 36        -0.36687

 Excited State 117:      Singlet-B2    18.4271 eV   67.28 nm  f=0.0000  <S**2>=0.000
      11 -> 35        -0.42113
      11 -> 37         0.55638

 Excited State 118:      Singlet-A1    18.5055 eV   67.00 nm  f=0.0261  <S**2>=0.000
       7 -> 24         0.16929
       8 -> 25        -0.26354
       9 -> 28         0.13082
       9 -> 31         0.28954
      11 -> 36         0.50716
      12 -> 44         0.13672

 Excited State 119:      Singlet-B2    18.5333 eV   66.90 nm  f=0.0000  <S**2>=0.000
       5 -> 14         0.44302
       9 -> 30         0.51660
      10 -> 32        -0.12301

 Excited State 120:      Singlet-A1    18.6359 eV   66.53 nm  f=0.0997  <S**2>=0.000
       5 -> 15         0.45055
       6 -> 17         0.32968
       8 -> 25        -0.10927
       9 -> 28        -0.11985
       9 -> 31         0.22943
      11 -> 36        -0.11179
      11 -> 38        -0.11092
      12 -> 41        -0.15877

 The electronic state is 1-A1.
 Alpha  occ. eigenvalues --  -19.15950 -10.24553 -10.24526  -1.08344  -0.67370
 Alpha  occ. eigenvalues --   -0.63722  -0.52401  -0.49437  -0.41188  -0.39311
 Alpha  occ. eigenvalues --   -0.32669  -0.28466
 Alpha virt. eigenvalues --    0.02374   0.04399   0.05262   0.06574   0.08197
 Alpha virt. eigenvalues --    0.10756   0.13387   0.14929   0.15351   0.16231
 Alpha virt. eigenvalues --    0.18204   0.19033   0.22111   0.25016   0.27029

 Mulliken charges:
               1
     1  C    0.791525
     2  C    0.791525
     3  O   -0.615651
     4  H   -0.241850
     5  H   -0.241850
     6  H   -0.241850
     7  H   -0.241850
 Sum of Mulliken charges =   0.00000

 Dipole moment (field-independent basis, Debye):
    X=             -0.0000    Y=              0.0000    Z=             -1.9341  Tot=              1.9341
 Quadrupole moment (field-independent basis, Debye-Ang):
   XX=            -17.6435   YY=            -16.6968   ZZ=            -21.0690
   XY=              0.0000   XZ=              0.0000   YZ=              0.0000

 Normal termination of Gaussian 16 at Mon Mar 21 04:02:32 2022.
