 Gaussian 16, Revision C.01,
 Gaussian 16:  EM64L-G16RevC.01  3-Jul-2019

 ---------------------------------------------------------------------
 #P TD(Nstates=10000) b3lyp/Gen SCF(maxcycles=100) Int(Grid=ultrafine)
 ---------------------------------------------------------------------

 ---------------------
 xGDB7_00001_tier4.com
 ---------------------
 Symbolic Z-matrix:
 Charge =  0 Multiplicity = 1

                         Standard orientation:
 ---------------------------------------------------------------------
 Center     Atomic      Atomic             Coordinates (Angstroms)
 Number     Number       Type             X           Y           Z
 ---------------------------------------------------------------------
      1          7           0       -0.000002   -0.000000   -0.110463
      2          1           0       -0.147185    0.930214    0.257758
      3          1           0       -0.731998   -0.592574    0.257757
      4          1           0        0.879196   -0.337638    0.257728
 ---------------------------------------------------------------------

 SCF Done:  E(RB3LYP) =  -56.5244596159     A.U. after   10 cycles

 Excitation energies and oscillator strengths:

 Excited State   1:      Singlet-A      6.7402 eV  183.95 nm  f=0.0781  <S**2>=0.000
       5 ->  6         0.70632
 This state for optimization and/or second-order correction.
 Total Energy, E(TD-HF/TD-DFT) =  -56.2767617422
 Copying the excited state density for this state as the 1-particle RhoCI density.

 Excited State   2:      Singlet-A      8.8628 eV  139.89 nm  f=0.0170  <S**2>=0.000
       5 ->  7         0.70366

 Excited State   3:      Singlet-A      8.8628 eV  139.89 nm  f=0.0170  <S**2>=0.000
       5 ->  8         0.70366

 Excited State   4:      Singlet-A     10.5202 eV  117.85 nm  f=0.0004  <S**2>=0.000
       5 ->  9         0.70610

 Excited State   5:      Singlet-A     10.5202 eV  117.85 nm  f=0.0004  <S**2>=0.000
       5 -> 10         0.70610

 Excited State   6:      Singlet-A     11.3894 eV  108.86 nm  f=0.0284  <S**2>=0.000
       3 ->  7        -0.11361
       4 ->  8        -0.11361
       5 -> 11         0.67993

 Excited State   7:      Singlet-A     12.0749 eV  102.68 nm  f=0.0376  <S**2>=0.000
       4 ->  6         0.63056
       5 -> 13        -0.31665

 Excited State   8:      Singlet-A     12.0750 eV  102.68 nm  f=0.0375  <S**2>=0.000
       3 ->  6         0.63051
       5 -> 12        -0.31676

 Excited State   9:      Singlet-A     12.3195 eV  100.64 nm  f=0.2289  <S**2>=0.000
       3 ->  6         0.28843
       4 ->  6        -0.13261
       5 -> 12         0.58933
       5 -> 13        -0.20410

 Excited State  10:      Singlet-A     12.3195 eV  100.64 nm  f=0.2289  <S**2>=0.000
       3 ->  6         0.13264
       4 ->  6         0.28833
       5 -> 12         0.20407
       5 -> 13         0.58938

 Excited State  11:      Singlet-A     12.3940 eV  100.04 nm  f=0.1996  <S**2>=0.000
       3 ->  7         0.10651
       4 ->  8         0.10652
       5 -> 14         0.68453

 Excited State  12:      Singlet-A     14.1186 eV   87.82 nm  f=0.0000  <S**2>=0.000
       3 ->  7         0.12789
       3 ->  8        -0.48146
       4 ->  7         0.48185
       4 ->  8         0.12796

 Excited State  13:      Singlet-A     14.2226 eV   87.17 nm  f=0.0791  <S**2>=0.000
       3 ->  7        -0.15220
       3 ->  8         0.47138
       4 ->  7         0.47100
       4 ->  8         0.15210

 Excited State  14:      Singlet-A     14.2226 eV   87.17 nm  f=0.0791  <S**2>=0.000
       3 ->  7        -0.47117
       3 ->  8        -0.15217
       4 ->  7        -0.15212
       4 ->  8         0.47120

 Excited State  15:      Singlet-A     15.6056 eV   79.45 nm  f=0.0013  <S**2>=0.000
       3 ->  7         0.29211
       3 -> 10         0.11851
       4 ->  8         0.29210
       4 ->  9         0.11852
       5 -> 11         0.11441
       5 -> 14        -0.10270
       5 -> 15         0.50364

 Excited State  16:      Singlet-A     15.7083 eV   78.93 nm  f=0.0000  <S**2>=0.000
       3 ->  9        -0.49176
       4 -> 10         0.49181
       5 -> 16        -0.11934

 Excited State  17:      Singlet-A     15.8815 eV   78.07 nm  f=0.0000  <S**2>=0.000
       5 -> 16         0.69691

 Excited State  18:      Singlet-A     15.9349 eV   77.81 nm  f=0.0376  <S**2>=0.000
       3 ->  7        -0.17696
       3 -> 10        -0.34715
       4 ->  8        -0.17696
       4 ->  9        -0.34727
       5 -> 15         0.41984

 Excited State  19:      Singlet-A     16.0545 eV   77.23 nm  f=0.0044  <S**2>=0.000
       3 -> 10        -0.20472
       4 ->  9         0.20517
       4 -> 11         0.61767
       5 -> 17        -0.15735

 Excited State  20:      Singlet-A     16.0546 eV   77.23 nm  f=0.0044  <S**2>=0.000
       3 ->  9        -0.20495
       3 -> 11         0.61766
       4 -> 10        -0.20492
       5 -> 18         0.15738

 Excited State  21:      Singlet-A     16.0738 eV   77.13 nm  f=0.0347  <S**2>=0.000
       3 ->  7        -0.28675
       3 -> 10         0.33745
       4 ->  8        -0.28674
       4 ->  9         0.33716
       5 -> 15         0.25879

 Excited State  22:      Singlet-A     16.2896 eV   76.11 nm  f=0.2038  <S**2>=0.000
       3 -> 10         0.31916
       4 ->  9        -0.31907
       4 -> 11         0.31899
       5 -> 17         0.42048

 Excited State  23:      Singlet-A     16.2896 eV   76.11 nm  f=0.2038  <S**2>=0.000
       3 ->  9        -0.31914
       3 -> 11        -0.31901
       4 -> 10        -0.31910
       5 -> 18         0.42046

 Excited State  24:      Singlet-A     16.7145 eV   74.18 nm  f=0.1530  <S**2>=0.000
       3 -> 10        -0.28863
       4 ->  9         0.28859
       4 -> 14         0.16963
       5 -> 17         0.51898
       5 -> 18        -0.10104

 Excited State  25:      Singlet-A     16.7145 eV   74.18 nm  f=0.1530  <S**2>=0.000
       3 ->  9         0.28862
       3 -> 14        -0.16961
       4 -> 10         0.28860
       5 -> 17         0.10103
       5 -> 18         0.51899

 Excited State  26:      Singlet-A     17.4642 eV   70.99 nm  f=0.0073  <S**2>=0.000
       3 -> 12        -0.45359
       3 -> 13        -0.12509
       4 -> 12        -0.12520
       4 -> 13         0.45365
       4 -> 14         0.23421

 Excited State  27:      Singlet-A     17.4642 eV   70.99 nm  f=0.0073  <S**2>=0.000
       3 -> 12        -0.12511
       3 -> 13         0.45340
       3 -> 14        -0.23419
       4 -> 12         0.45386
       4 -> 13         0.12517

 Excited State  28:      Singlet-A     17.5608 eV   70.60 nm  f=0.0000  <S**2>=0.000
       3 -> 13         0.49722
       4 -> 12        -0.49681

 Excited State  29:      Singlet-A     17.6939 eV   70.07 nm  f=0.1059  <S**2>=0.000
       3 -> 12         0.15131
       4 -> 13        -0.15132
       4 -> 14         0.63295

 Excited State  30:      Singlet-A     17.6939 eV   70.07 nm  f=0.1059  <S**2>=0.000
       3 -> 13         0.15136
       3 -> 14         0.63296
       4 -> 12         0.15123

 Excited State  31:      Singlet-A     17.8185 eV   69.58 nm  f=0.2841  <S**2>=0.000
       3 -> 12         0.48717
       4 -> 13         0.48711
       5 -> 21         0.10727

 Excited State  32:      Singlet-A     19.0268 eV   65.16 nm  f=0.0948  <S**2>=0.000
       5 -> 20         0.68662

 Excited State  33:      Singlet-A     19.0268 eV   65.16 nm  f=0.0948  <S**2>=0.000
       5 -> 19         0.68662

 Excited State  34:      Singlet-A     21.1140 eV   58.72 nm  f=0.0227  <S**2>=0.000
       3 -> 16        -0.18053
       4 -> 15         0.66032
       5 -> 23         0.16682

 Excited State  35:      Singlet-A     21.1141 eV   58.72 nm  f=0.0226  <S**2>=0.000
       3 -> 15         0.66022
       4 -> 16         0.18090
       5 -> 22         0.16683

 Excited State  36:      Singlet-A     21.1776 eV   58.54 nm  f=0.0085  <S**2>=0.000
       3 -> 15        -0.15953
       4 -> 16         0.68048
       5 -> 22        -0.10292

 Excited State  37:      Singlet-A     21.1777 eV   58.54 nm  f=0.0085  <S**2>=0.000
       3 -> 16         0.68058
       4 -> 15         0.15918
       5 -> 23         0.10281

 Excited State  38:      Singlet-A     21.3504 eV   58.07 nm  f=0.0716  <S**2>=0.000
       3 -> 15        -0.17732
       3 -> 17         0.16204
       4 -> 18        -0.16206
       5 -> 22         0.63309

 Excited State  39:      Singlet-A     21.3504 eV   58.07 nm  f=0.0716  <S**2>=0.000
       3 -> 18        -0.16196
       4 -> 15        -0.17724
       4 -> 17        -0.16214
       5 -> 23         0.63311

 Excited State  40:      Singlet-A     21.3852 eV   57.98 nm  f=0.2320  <S**2>=0.000
       2 ->  6         0.13315
       3 -> 18        -0.16420
       4 -> 17         0.16404
       5 -> 21         0.63561

 Excited State  41:      Singlet-A     21.7880 eV   56.90 nm  f=0.0000  <S**2>=0.000
       3 -> 17         0.48152
       3 -> 18        -0.12592
       4 -> 17         0.12593
       4 -> 18         0.48156

 Excited State  42:      Singlet-A     22.2860 eV   55.63 nm  f=0.1891  <S**2>=0.000
       3 -> 17         0.45956
       4 -> 18        -0.45951
       5 -> 22        -0.20126

 Excited State  43:      Singlet-A     22.2860 eV   55.63 nm  f=0.1891  <S**2>=0.000
       3 -> 18         0.45949
       4 -> 17         0.45958
       5 -> 23         0.20126

 Excited State  44:      Singlet-A     22.3704 eV   55.42 nm  f=0.0466  <S**2>=0.000
       2 ->  6         0.57627
       3 -> 18        -0.21996
       4 -> 17         0.21976
       5 -> 21        -0.21291

 Excited State  45:      Singlet-A     24.1810 eV   51.27 nm  f=0.1395  <S**2>=0.000
       2 ->  6         0.33466
       3 -> 18         0.35142
       3 -> 19         0.11349
       3 -> 22         0.13273
       4 -> 17        -0.35141
       4 -> 20         0.11355
       4 -> 23         0.13272
       5 -> 21         0.13378
       5 -> 27         0.10637

 Excited State  46:      Singlet-A     24.2520 eV   51.12 nm  f=0.0000  <S**2>=0.000
       3 -> 20        -0.49481
       4 -> 19         0.49498

 Excited State  47:      Singlet-A     24.4443 eV   50.72 nm  f=0.0651  <S**2>=0.000
       2 ->  7        -0.23078
       3 -> 19        -0.23834
       3 -> 20         0.39687
       4 -> 19         0.39671
       4 -> 20         0.23834

 Excited State  48:      Singlet-A     24.4443 eV   50.72 nm  f=0.0651  <S**2>=0.000
       2 ->  8         0.23078
       3 -> 19        -0.39676
       3 -> 20        -0.23838
       4 -> 19        -0.23831
       4 -> 20         0.39681

 Excited State  49:      Singlet-A     24.7718 eV   50.05 nm  f=0.0076  <S**2>=0.000
       2 ->  7         0.65563
       3 -> 20         0.12204
       4 -> 19         0.12203

 Excited State  50:      Singlet-A     24.7718 eV   50.05 nm  f=0.0076  <S**2>=0.000
       2 ->  8         0.65563
       3 -> 19         0.12200
       4 -> 20        -0.12207

 Excited State  51:      Singlet-A     24.8584 eV   49.88 nm  f=0.0646  <S**2>=0.000
       2 ->  6        -0.14547
       3 -> 19         0.46727
       4 -> 20         0.46719

 Excited State  52:      Singlet-A     26.1870 eV   47.35 nm  f=0.0018  <S**2>=0.000
       2 ->  9         0.23518
       3 -> 22        -0.14678
       4 -> 21         0.63105
       4 -> 23         0.14680

 Excited State  53:      Singlet-A     26.1871 eV   47.35 nm  f=0.0018  <S**2>=0.000
       2 -> 10         0.23523
       3 -> 21         0.63103
       3 -> 23        -0.14676
       4 -> 22        -0.14680

 Excited State  54:      Singlet-A     26.3350 eV   47.08 nm  f=0.0042  <S**2>=0.000
       2 ->  9         0.66562
       4 -> 21        -0.21938

 Excited State  55:      Singlet-A     26.3350 eV   47.08 nm  f=0.0042  <S**2>=0.000
       2 -> 10         0.66561
       3 -> 21        -0.21943

 Excited State  56:      Singlet-A     26.5229 eV   46.75 nm  f=0.0441  <S**2>=0.000
       2 -> 11         0.66822
       3 -> 22        -0.14226
       4 -> 23        -0.14227
       5 -> 24         0.10172

 Excited State  57:      Singlet-A     26.5374 eV   46.72 nm  f=0.0000  <S**2>=0.000
       3 -> 23        -0.49952
       4 -> 22         0.49954

 Excited State  58:      Singlet-A     27.1291 eV   45.70 nm  f=0.0902  <S**2>=0.000
       3 -> 22         0.24133
       4 -> 23         0.24135
       5 -> 24         0.59956

 Excited State  59:      Singlet-A     27.4177 eV   45.22 nm  f=0.2263  <S**2>=0.000
       2 -> 11         0.19542
       2 -> 14         0.29702
       3 -> 22         0.35578
       4 -> 23         0.35591
       5 -> 24        -0.29205

 Excited State  60:      Singlet-A     27.5804 eV   44.95 nm  f=0.3543  <S**2>=0.000
       2 -> 13         0.27321
       3 -> 22         0.41050
       4 -> 21         0.18382
       4 -> 23        -0.41039

 Excited State  61:      Singlet-A     27.5805 eV   44.95 nm  f=0.3543  <S**2>=0.000
       2 -> 12         0.27326
       3 -> 21         0.18381
       3 -> 23         0.41045
       4 -> 22         0.41041

 Excited State  62:      Singlet-A     27.9522 eV   44.36 nm  f=0.0653  <S**2>=0.000
       2 -> 12         0.65012
       3 -> 23        -0.16007
       4 -> 22        -0.16006

 Excited State  63:      Singlet-A     27.9522 eV   44.36 nm  f=0.0653  <S**2>=0.000
       2 -> 13         0.65014
       3 -> 22        -0.16005
       4 -> 23         0.16003

 Excited State  64:      Singlet-A     28.2820 eV   43.84 nm  f=0.0470  <S**2>=0.000
       2 -> 14         0.63188
       3 -> 22        -0.14772
       4 -> 23        -0.14771
       5 -> 24         0.19761

 Excited State  65:      Singlet-A     31.3390 eV   39.56 nm  f=0.0043  <S**2>=0.000
       5 -> 25         0.69901

 Excited State  66:      Singlet-A     31.3390 eV   39.56 nm  f=0.0043  <S**2>=0.000
       5 -> 26         0.69902

 Excited State  67:      Singlet-A     31.5411 eV   39.31 nm  f=0.0000  <S**2>=0.000
       2 -> 16         0.70689

 Excited State  68:      Singlet-A     31.8259 eV   38.96 nm  f=0.0303  <S**2>=0.000
       2 -> 15         0.67665
       5 -> 27        -0.17622

 Excited State  69:      Singlet-A     32.4192 eV   38.24 nm  f=0.0000  <S**2>=0.000
       2 -> 17         0.64357
       4 -> 24         0.25759

 Excited State  70:      Singlet-A     32.4193 eV   38.24 nm  f=0.0000  <S**2>=0.000
       2 -> 18         0.64358
       3 -> 24        -0.25758

 Excited State  71:      Singlet-A     33.2774 eV   37.26 nm  f=0.1244  <S**2>=0.000
       2 -> 17        -0.26560
       4 -> 24         0.63459

 Excited State  72:      Singlet-A     33.2775 eV   37.26 nm  f=0.1244  <S**2>=0.000
       2 -> 18         0.26559
       3 -> 24         0.63459

 Excited State  73:      Singlet-A     34.7829 eV   35.65 nm  f=0.0000  <S**2>=0.000
       2 -> 19         0.69661

 Excited State  74:      Singlet-A     34.7829 eV   35.65 nm  f=0.0000  <S**2>=0.000
       2 -> 20         0.69661

 Excited State  75:      Singlet-A     35.2375 eV   35.19 nm  f=0.0124  <S**2>=0.000
       2 -> 15         0.10118
       3 -> 26        -0.26356
       4 -> 25         0.26357
       5 -> 27         0.57194

 Excited State  76:      Singlet-A     36.6864 eV   33.80 nm  f=0.0000  <S**2>=0.000
       3 -> 25         0.48643
       3 -> 26        -0.11391
       4 -> 25         0.11393
       4 -> 26         0.48646

 Excited State  77:      Singlet-A     36.7160 eV   33.77 nm  f=0.0273  <S**2>=0.000
       2 -> 21         0.70322

 Excited State  78:      Singlet-A     37.1113 eV   33.41 nm  f=0.0005  <S**2>=0.000
       2 -> 22         0.51917
       3 -> 25         0.32643
       4 -> 26        -0.32640

 Excited State  79:      Singlet-A     37.1113 eV   33.41 nm  f=0.0005  <S**2>=0.000
       2 -> 23         0.51917
       3 -> 26        -0.32641
       4 -> 25        -0.32641

 Excited State  80:      Singlet-A     37.2771 eV   33.26 nm  f=0.0502  <S**2>=0.000
       2 -> 22         0.46810
       3 -> 25        -0.36001
       4 -> 26         0.36000

 Excited State  81:      Singlet-A     37.2771 eV   33.26 nm  f=0.0502  <S**2>=0.000
       2 -> 23         0.46809
       3 -> 26         0.36001
       4 -> 25         0.36001

 Excited State  82:      Singlet-A     39.0700 eV   31.73 nm  f=0.0129  <S**2>=0.000
       4 -> 27         0.69460
       5 -> 28        -0.12538

 Excited State  83:      Singlet-A     39.0701 eV   31.73 nm  f=0.0129  <S**2>=0.000
       3 -> 27         0.69460
       5 -> 29        -0.12539

 Excited State  84:      Singlet-A     39.4844 eV   31.40 nm  f=0.0555  <S**2>=0.000
       4 -> 27         0.12596
       5 -> 28         0.68267

 Excited State  85:      Singlet-A     39.4845 eV   31.40 nm  f=0.0555  <S**2>=0.000
       3 -> 27         0.12597
       5 -> 29         0.68267

 Excited State  86:      Singlet-A     39.6917 eV   31.24 nm  f=0.0177  <S**2>=0.000
       2 -> 15         0.10390
       2 -> 24         0.25419
       3 -> 26         0.36923
       3 -> 29         0.12833
       4 -> 25        -0.36921
       4 -> 28         0.12834
       5 -> 27         0.28284

 Excited State  87:      Singlet-A     43.3076 eV   28.63 nm  f=0.0026  <S**2>=0.000
       2 -> 24         0.32652
       3 -> 29        -0.13263
       4 -> 28        -0.13264
       5 -> 30         0.59586

 Excited State  88:      Singlet-A     43.6914 eV   28.38 nm  f=0.0866  <S**2>=0.000
       2 -> 24         0.51227
       3 -> 29        -0.18701
       4 -> 28        -0.18704
       5 -> 30        -0.37559

 Excited State  89:      Singlet-A     44.6389 eV   27.77 nm  f=0.0000  <S**2>=0.000
       3 -> 28        -0.49475
       4 -> 29         0.49476

 Excited State  90:      Singlet-A     45.0685 eV   27.51 nm  f=0.0287  <S**2>=0.000
       3 -> 28         0.44888
       3 -> 29        -0.20991
       4 -> 28         0.20991
       4 -> 29         0.44886

 Excited State  91:      Singlet-A     45.0685 eV   27.51 nm  f=0.0287  <S**2>=0.000
       3 -> 28         0.20990
       3 -> 29         0.44888
       4 -> 28        -0.44887
       4 -> 29         0.20992

 Excited State  92:      Singlet-A     47.3537 eV   26.18 nm  f=0.0355  <S**2>=0.000
       2 -> 25         0.70559

 Excited State  93:      Singlet-A     47.3537 eV   26.18 nm  f=0.0355  <S**2>=0.000
       2 -> 26         0.70559

 Excited State  94:      Singlet-A     48.2642 eV   25.69 nm  f=0.0405  <S**2>=0.000
       2 -> 24         0.24395
       2 -> 27         0.10145
       2 -> 30        -0.10517
       3 -> 26        -0.11747
       3 -> 29         0.40744
       4 -> 25         0.11746
       4 -> 28         0.40744
       5 -> 27        -0.17455

 Excited State  95:      Singlet-A     48.7206 eV   25.45 nm  f=0.0000  <S**2>=0.000
       4 -> 30         0.70340

 Excited State  96:      Singlet-A     48.7206 eV   25.45 nm  f=0.0000  <S**2>=0.000
       3 -> 30         0.70340

 Excited State  97:      Singlet-A     49.6602 eV   24.97 nm  f=0.1107  <S**2>=0.000
       2 -> 27         0.69878

 Excited State  98:      Singlet-A     51.9449 eV   23.87 nm  f=0.0000  <S**2>=0.000
       5 -> 31         0.70703

 Excited State  99:      Singlet-A     52.4250 eV   23.65 nm  f=0.0445  <S**2>=0.000
       5 -> 32         0.69837

 Excited State 100:      Singlet-A     52.4250 eV   23.65 nm  f=0.0445  <S**2>=0.000
       5 -> 33         0.69837

 Excited State 101:      Singlet-A     55.2954 eV   22.42 nm  f=0.0545  <S**2>=0.000
       2 -> 28         0.70023

 Excited State 102:      Singlet-A     55.2954 eV   22.42 nm  f=0.0545  <S**2>=0.000
       2 -> 29         0.70023

 Excited State 103:      Singlet-A     57.4240 eV   21.59 nm  f=0.0038  <S**2>=0.000
       3 -> 32        -0.20953
       4 -> 33        -0.20951
       5 -> 34         0.63613

 Excited State 104:      Singlet-A     57.4736 eV   21.57 nm  f=0.0000  <S**2>=0.000
       3 -> 33        -0.49751
       4 -> 32         0.49774

 Excited State 105:      Singlet-A     57.5762 eV   21.53 nm  f=0.0356  <S**2>=0.000
       4 -> 31         0.70176

 Excited State 106:      Singlet-A     57.5762 eV   21.53 nm  f=0.0356  <S**2>=0.000
       3 -> 31         0.70176

 Excited State 107:      Singlet-A     57.7895 eV   21.45 nm  f=0.0818  <S**2>=0.000
       3 -> 32        -0.19307
       3 -> 33         0.45305
       4 -> 32         0.45282
       4 -> 33         0.19304

 Excited State 108:      Singlet-A     57.7896 eV   21.45 nm  f=0.0819  <S**2>=0.000
       3 -> 32        -0.45293
       3 -> 33        -0.19310
       4 -> 32        -0.19300
       4 -> 33         0.45294

 Excited State 109:      Singlet-A     58.4092 eV   21.23 nm  f=0.3097  <S**2>=0.000
       2 -> 30        -0.16987
       3 -> 32         0.43022
       4 -> 33         0.43022
       5 -> 34         0.29439

 Excited State 110:      Singlet-A     59.8012 eV   20.73 nm  f=0.0352  <S**2>=0.000
       5 -> 35         0.69263

 Excited State 111:      Singlet-A     59.8013 eV   20.73 nm  f=0.0352  <S**2>=0.000
       5 -> 36         0.69263

 Excited State 112:      Singlet-A     60.2623 eV   20.57 nm  f=0.0771  <S**2>=0.000
       2 -> 30         0.67072
       3 -> 32         0.12315
       4 -> 33         0.12315

 Excited State 113:      Singlet-A     62.4231 eV   19.86 nm  f=0.0167  <S**2>=0.000
       4 -> 34         0.69374

 Excited State 114:      Singlet-A     62.4232 eV   19.86 nm  f=0.0167  <S**2>=0.000
       3 -> 34         0.69374

 Excited State 115:      Singlet-A     63.7240 eV   19.46 nm  f=0.0094  <S**2>=0.000
       3 -> 35        -0.15831
       4 -> 36         0.15831
       5 -> 37         0.66185

 Excited State 116:      Singlet-A     63.7241 eV   19.46 nm  f=0.0094  <S**2>=0.000
       3 -> 36         0.15830
       4 -> 35         0.15833
       5 -> 38         0.66185

 Excited State 117:      Singlet-A     65.1149 eV   19.04 nm  f=0.0000  <S**2>=0.000
       3 -> 36        -0.49100
       4 -> 35         0.49178

 Excited State 118:      Singlet-A     65.2183 eV   19.01 nm  f=0.0730  <S**2>=0.000
       3 -> 35         0.44766
       3 -> 36         0.14569
       4 -> 35         0.14539
       4 -> 36        -0.44740
       5 -> 37         0.19320

 Excited State 119:      Singlet-A     65.2183 eV   19.01 nm  f=0.0730  <S**2>=0.000
       3 -> 35        -0.14575
       3 -> 36         0.44789
       4 -> 35         0.44717
       4 -> 36         0.14532
       5 -> 38        -0.19321

 Excited State 120:      Singlet-A     65.2815 eV   18.99 nm  f=0.0014  <S**2>=0.000
       3 -> 35         0.49000
       4 -> 36         0.49036

 Excited State 121:      Singlet-A     67.5646 eV   18.35 nm  f=0.0000  <S**2>=0.000
       2 -> 31         0.69895

 Excited State 122:      Singlet-A     68.0701 eV   18.21 nm  f=0.0099  <S**2>=0.000
       2 -> 32         0.70572

 The electronic state is 1-A.
 Alpha  occ. eigenvalues --  -14.31251  -0.84726  -0.46829  -0.46829  -0.27184
 Alpha virt. eigenvalues --    0.02222   0.10495   0.10495   0.16745   0.16745
 Alpha virt. eigenvalues --    0.17863   0.22580   0.22580   0.22803   0.35726
 Alpha virt. eigenvalues --    0.35989   0.39299   0.39300   0.47894   0.47894

 Mulliken charges:
               1
     1  N    0.167234
     2  H   -0.055745
     3  H   -0.055746
     4  H   -0.055743
 Sum of Mulliken charges =   0.00000

 Dipole moment (field-independent basis, Debye):
    X=              0.0000    Y=             -0.0000    Z=              1.5142  Tot=              1.5142
 Quadrupole moment (field-independent basis, Debye-Ang):
   XX=             -6.3917   YY=             -6.3917   ZZ=             -9.2887
   XY=              0.0000   XZ=             -0.0001   YZ=              0.0000

 Normal termination of Gaussian 16 at Mon Mar 21 20:10:41 2022.
