 Gaussian 16, Revision C.01,
 Gaussian 16:  EM64L-G16RevC.01  3-Jul-2019

 ---------------------------------------------------------------------
 #P TD(Nstates=10000) b3lyp/Gen SCF(maxcycles=100) Int(Grid=ultrafine)
 ---------------------------------------------------------------------

 ---------------------
 xGDB7_00001_tier4.com
 ---------------------
 Symbolic Z-matrix:
 Charge =  0 Multiplicity = 1

                         Standard orientation:
 ---------------------------------------------------------------------
 Center     Atomic      Atomic             Coordinates (Angstroms)
 Number     Number       Type             X           Y           Z
 ---------------------------------------------------------------------
      1          6           0       -0.049078    0.702042   -0.000000
      2          7           0       -0.049078   -0.754243    0.000000
      3          1           0        0.946109    1.166603   -0.000000
      4          1           0       -0.587574    1.062597    0.877770
      5          1           0       -0.587574    1.062597   -0.877770
      6          1           0        0.433525   -1.112175    0.812504
      7          1           0        0.433525   -1.112175   -0.812504
 ---------------------------------------------------------------------

 SCF Done:  E(RB3LYP) =  -95.7989935838     A.U. after   12 cycles

 Excitation energies and oscillator strengths:

 Excited State   1:      Singlet-A'     5.9578 eV  208.10 nm  f=0.0063  <S**2>=0.000
       9 -> 10         0.70080
 This state for optimization and/or second-order correction.
 Total Energy, E(TD-HF/TD-DFT) =  -95.5800476450
 Copying the excited state density for this state as the 1-particle RhoCI density.

 Excited State   2:      Singlet-A'     7.0230 eV  176.54 nm  f=0.0377  <S**2>=0.000
       9 -> 11         0.70025

 Excited State   3:      Singlet-A"     7.6703 eV  161.64 nm  f=0.0075  <S**2>=0.000
       9 -> 12         0.70388

 Excited State   4:      Singlet-A'     8.3593 eV  148.32 nm  f=0.0808  <S**2>=0.000
       9 -> 13         0.70416

 Excited State   5:      Singlet-A"     8.7391 eV  141.87 nm  f=0.0002  <S**2>=0.000
       9 -> 14         0.70525

 Excited State   6:      Singlet-A'     9.3102 eV  133.17 nm  f=0.0041  <S**2>=0.000
       9 -> 15         0.68201
       9 -> 16         0.17469

 Excited State   7:      Singlet-A'     9.4724 eV  130.89 nm  f=0.0180  <S**2>=0.000
       9 -> 15        -0.17206
       9 -> 16         0.68004

 Excited State   8:      Singlet-A"     9.4990 eV  130.52 nm  f=0.0096  <S**2>=0.000
       8 -> 10         0.70592

 Excited State   9:      Singlet-A"     9.9259 eV  124.91 nm  f=0.0002  <S**2>=0.000
       9 -> 17         0.70315

 Excited State  10:      Singlet-A"    10.5170 eV  117.89 nm  f=0.0872  <S**2>=0.000
       8 -> 11         0.70525

 Excited State  11:      Singlet-A'    10.5293 eV  117.75 nm  f=0.0481  <S**2>=0.000
       7 -> 10         0.69579
       9 -> 18         0.10367

 Excited State  12:      Singlet-A'    10.8921 eV  113.83 nm  f=0.0035  <S**2>=0.000
       7 -> 10        -0.10384
       9 -> 18         0.55573
       9 -> 19         0.38114

 Excited State  13:      Singlet-A'    11.1615 eV  111.08 nm  f=0.0188  <S**2>=0.000
       6 -> 10         0.16171
       8 -> 12         0.22394
       9 -> 18        -0.30655
       9 -> 19         0.55338

 Excited State  14:      Singlet-A"    11.2065 eV  110.64 nm  f=0.0120  <S**2>=0.000
       9 -> 20         0.70195

 Excited State  15:      Singlet-A'    11.4245 eV  108.52 nm  f=0.0217  <S**2>=0.000
       6 -> 10        -0.19701
       7 -> 11         0.14967
       8 -> 12         0.62286
       9 -> 18         0.14763
       9 -> 19        -0.13500

 Excited State  16:      Singlet-A'    11.5131 eV  107.69 nm  f=0.2136  <S**2>=0.000
       6 -> 10        -0.20286
       7 -> 11         0.64066
       8 -> 12        -0.20328

 Excited State  17:      Singlet-A'    11.6427 eV  106.49 nm  f=0.0406  <S**2>=0.000
       6 -> 10         0.60748
       7 -> 11         0.23061
       8 -> 14         0.12606
       9 -> 18         0.16527
       9 -> 19        -0.13032

 Excited State  18:      Singlet-A"    11.7134 eV  105.85 nm  f=0.0267  <S**2>=0.000
       8 -> 13         0.70107

 Excited State  19:      Singlet-A"    12.2417 eV  101.28 nm  f=0.0209  <S**2>=0.000
       7 -> 12         0.69916

 Excited State  20:      Singlet-A'    12.3429 eV  100.45 nm  f=0.0082  <S**2>=0.000
       6 -> 11        -0.16272
       7 -> 13        -0.15869
       8 -> 14         0.57820
       9 -> 21         0.30427

 Excited State  21:      Singlet-A'    12.5123 eV   99.09 nm  f=0.1670  <S**2>=0.000
       6 -> 11         0.65822
       9 -> 21         0.21529

 Excited State  22:      Singlet-A'    12.5948 eV   98.44 nm  f=0.1573  <S**2>=0.000
       6 -> 11        -0.16279
       7 -> 13         0.19757
       8 -> 14        -0.28116
       9 -> 21         0.57468

 Excited State  23:      Singlet-A"    12.6752 eV   97.82 nm  f=0.0143  <S**2>=0.000
       5 -> 10        -0.20945
       8 -> 15        -0.10766
       9 -> 22         0.65303

 Excited State  24:      Singlet-A"    12.8143 eV   96.75 nm  f=0.0130  <S**2>=0.000
       7 -> 14         0.26389
       8 -> 15         0.62525
       8 -> 16        -0.12946
       9 -> 22         0.10858

 Excited State  25:      Singlet-A"    12.8871 eV   96.21 nm  f=0.0441  <S**2>=0.000
       5 -> 10         0.19555
       6 -> 12        -0.13679
       8 -> 16         0.63389
       9 -> 22         0.14712

 Excited State  26:      Singlet-A'    12.9403 eV   95.81 nm  f=0.0212  <S**2>=0.000
       6 -> 13        -0.10114
       7 -> 13         0.61742
       8 -> 14         0.18189
       8 -> 17        -0.18931

 Excited State  27:      Singlet-A"    12.9405 eV   95.81 nm  f=0.0841  <S**2>=0.000
       5 -> 10         0.61996
       7 -> 14         0.10104
       8 -> 15        -0.16111
       8 -> 16        -0.22322
       9 -> 22         0.14149

 Excited State  28:      Singlet-A"    13.1508 eV   94.28 nm  f=0.0137  <S**2>=0.000
       6 -> 12         0.42504
       7 -> 14         0.50855
       8 -> 15        -0.18512
       8 -> 16         0.12711

 Excited State  29:      Singlet-A'    13.1612 eV   94.20 nm  f=0.2291  <S**2>=0.000
       9 -> 23         0.68111

 Excited State  30:      Singlet-A"    13.3571 eV   92.82 nm  f=0.1958  <S**2>=0.000
       5 -> 10         0.14080
       6 -> 12         0.53241
       7 -> 14        -0.37900
       8 -> 15         0.13288
       8 -> 19         0.12244

 Excited State  31:      Singlet-A'    13.5170 eV   91.72 nm  f=0.0089  <S**2>=0.000
       6 -> 13        -0.31806
       7 -> 15        -0.14932
       8 -> 17         0.50940
       9 -> 24        -0.30611

 Excited State  32:      Singlet-A'    13.6392 eV   90.90 nm  f=0.0059  <S**2>=0.000
       6 -> 13        -0.20503
       8 -> 17         0.23561
       9 -> 24         0.62021

 Excited State  33:      Singlet-A'    13.8008 eV   89.84 nm  f=0.0305  <S**2>=0.000
       6 -> 13        -0.41472
       7 -> 15         0.52390
       7 -> 16         0.15824
       8 -> 17        -0.12233

 Excited State  34:      Singlet-A"    13.9091 eV   89.14 nm  f=0.0007  <S**2>=0.000
       5 -> 11         0.69536

 Excited State  35:      Singlet-A'    14.0519 eV   88.23 nm  f=0.0163  <S**2>=0.000
       5 -> 12         0.23024
       6 -> 13         0.26942
       7 -> 13         0.13042
       7 -> 15         0.38689
       7 -> 16        -0.30347
       8 -> 14         0.10544
       8 -> 17         0.26970
       9 -> 25        -0.10853

 Excited State  36:      Singlet-A"    14.1043 eV   87.90 nm  f=0.0072  <S**2>=0.000
       6 -> 14         0.53765
       8 -> 18         0.43418

 Excited State  37:      Singlet-A"    14.1453 eV   87.65 nm  f=0.0093  <S**2>=0.000
       6 -> 14        -0.42408
       8 -> 18         0.54360
       8 -> 19         0.12299

 Excited State  38:      Singlet-A'    14.1786 eV   87.44 nm  f=0.2233  <S**2>=0.000
       5 -> 12         0.17727
       6 -> 13         0.22940
       7 -> 16         0.58448
       8 -> 17         0.17016

 Excited State  39:      Singlet-A"    14.3858 eV   86.18 nm  f=0.0036  <S**2>=0.000
       6 -> 14         0.10407
       7 -> 17         0.63364
       8 -> 19         0.27220

 Excited State  40:      Singlet-A'    14.4152 eV   86.01 nm  f=0.0108  <S**2>=0.000
       9 -> 25         0.67751

 Excited State  41:      Singlet-A'    14.7704 eV   83.94 nm  f=0.0247  <S**2>=0.000
       5 -> 12        -0.30852
       6 -> 15         0.46022
       6 -> 16         0.23373
       8 -> 20        -0.32806

 Excited State  42:      Singlet-A"    14.7986 eV   83.78 nm  f=0.0008  <S**2>=0.000
       7 -> 17         0.11770
       8 -> 19        -0.12687
       9 -> 26         0.67695

 Excited State  43:      Singlet-A"    14.8512 eV   83.48 nm  f=0.2402  <S**2>=0.000
       5 -> 13         0.12984
       7 -> 17        -0.25173
       7 -> 20         0.11998
       8 -> 19         0.56110
       9 -> 26         0.15370
       9 -> 27         0.12560

 Excited State  44:      Singlet-A'    14.8768 eV   83.34 nm  f=0.0094  <S**2>=0.000
       6 -> 15         0.44701
       6 -> 16        -0.32134
       7 -> 18        -0.15270
       8 -> 20         0.39857

 Excited State  45:      Singlet-A'    15.0660 eV   82.29 nm  f=0.0954  <S**2>=0.000
       5 -> 12         0.26441
       6 -> 15         0.19038
       6 -> 16        -0.29199
       7 -> 18         0.40581
       8 -> 20        -0.27158
       9 -> 30         0.16803

 Excited State  46:      Singlet-A"    15.1922 eV   81.61 nm  f=0.0685  <S**2>=0.000
       5 -> 13         0.65566
       6 -> 17        -0.11751
       9 -> 27        -0.15285
       9 -> 28        -0.10523

 Excited State  47:      Singlet-A'    15.1987 eV   81.58 nm  f=0.2988  <S**2>=0.000
       5 -> 12        -0.17933
       6 -> 16         0.18799
       7 -> 18         0.53926
       8 -> 20         0.30815
       9 -> 30        -0.10630

 Excited State  48:      Singlet-A"    15.3086 eV   80.99 nm  f=0.0284  <S**2>=0.000
       5 -> 13         0.13577
       7 -> 20        -0.14893
       9 -> 26        -0.10280
       9 -> 27         0.52511
       9 -> 28         0.37199

 Excited State  49:      Singlet-A"    15.3908 eV   80.56 nm  f=0.0257  <S**2>=0.000
       6 -> 17         0.59695
       7 -> 20        -0.10639
       9 -> 27        -0.19710
       9 -> 28         0.27748

 Excited State  50:      Singlet-A'    15.4352 eV   80.33 nm  f=0.0003  <S**2>=0.000
       5 -> 12         0.29558
       5 -> 14        -0.16652
       6 -> 15         0.14087
       6 -> 16         0.36753
       7 -> 15        -0.10736
       7 -> 19        -0.13959
       9 -> 29        -0.33796
       9 -> 30         0.17144

 Excited State  51:      Singlet-A"    15.4800 eV   80.09 nm  f=0.0083  <S**2>=0.000
       6 -> 17        -0.32434
       9 -> 27        -0.36087
       9 -> 28         0.49201

 Excited State  52:      Singlet-A'    15.5468 eV   79.75 nm  f=0.0045  <S**2>=0.000
       5 -> 12        -0.11180
       5 -> 14        -0.26750
       7 -> 19        -0.34323
       9 -> 29         0.26784
       9 -> 30         0.44684

 Excited State  53:      Singlet-A'    15.7116 eV   78.91 nm  f=0.1745  <S**2>=0.000
       5 -> 14         0.10480
       6 -> 16         0.18236
       6 -> 18         0.16093
       7 -> 19         0.45502
       8 -> 20         0.15399
       9 -> 29         0.28446
       9 -> 30         0.29985

 Excited State  54:      Singlet-A'    15.7167 eV   78.89 nm  f=0.0092  <S**2>=0.000
       5 -> 12         0.24653
       5 -> 14         0.28194
       6 -> 16         0.15035
       6 -> 18        -0.12307
       7 -> 19        -0.27603
       9 -> 29         0.38142
       9 -> 30        -0.17789

 Excited State  55:      Singlet-A'    15.8068 eV   78.44 nm  f=0.1830  <S**2>=0.000
       5 -> 12        -0.10673
       5 -> 14         0.51592
       6 -> 18        -0.10865
       7 -> 16         0.10047
       7 -> 19        -0.11106
       9 -> 29        -0.22303
       9 -> 30         0.29694

 Excited State  56:      Singlet-A"    15.8248 eV   78.35 nm  f=0.0208  <S**2>=0.000
       5 -> 15         0.23058
       7 -> 20         0.59401
       8 -> 21         0.21132

 Excited State  57:      Singlet-A"    16.0073 eV   77.45 nm  f=0.0305  <S**2>=0.000
       5 -> 15        -0.13656
       5 -> 16        -0.11735
       7 -> 20        -0.15752
       8 -> 21         0.64895

 Excited State  58:      Singlet-A'    16.2128 eV   76.47 nm  f=0.0310  <S**2>=0.000
       5 -> 17        -0.12091
       6 -> 18         0.52072
       6 -> 19        -0.20578
       7 -> 19        -0.14562
       8 -> 22         0.35424

 Excited State  59:      Singlet-A"    16.2739 eV   76.19 nm  f=0.0807  <S**2>=0.000
       5 -> 15         0.51731
       5 -> 16         0.32300
       6 -> 20        -0.13066
       7 -> 20        -0.18626
       8 -> 23        -0.20802

 Excited State  60:      Singlet-A'    16.3142 eV   76.00 nm  f=0.1099  <S**2>=0.000
       6 -> 18        -0.35328
       8 -> 22         0.57956

 Excited State  61:      Singlet-A"    16.4247 eV   75.49 nm  f=0.0572  <S**2>=0.000
       5 -> 16         0.49136
       6 -> 20         0.13644
       8 -> 21         0.11345
       8 -> 23         0.45948

 Excited State  62:      Singlet-A"    16.4743 eV   75.26 nm  f=0.0118  <S**2>=0.000
       5 -> 15         0.28442
       5 -> 16        -0.31229
       6 -> 20        -0.25242
       8 -> 23         0.46913
       9 -> 31        -0.15268

 Excited State  63:      Singlet-A'    16.5591 eV   74.87 nm  f=0.0168  <S**2>=0.000
       6 -> 19        -0.26136
       9 -> 32         0.63157

 Excited State  64:      Singlet-A"    16.5840 eV   74.76 nm  f=0.0166  <S**2>=0.000
       5 -> 15         0.11938
       8 -> 23         0.10500
       9 -> 31         0.66978

 Excited State  65:      Singlet-A'    16.6843 eV   74.31 nm  f=0.1029  <S**2>=0.000
       6 -> 19         0.52703
       7 -> 21        -0.31586
       8 -> 22         0.13253
       9 -> 32         0.25025

 Excited State  66:      Singlet-A"    16.8715 eV   73.49 nm  f=0.1203  <S**2>=0.000
       5 -> 15         0.19097
       5 -> 16        -0.16382
       6 -> 20         0.60870
       9 -> 31        -0.11514

 Excited State  67:      Singlet-A'    16.9647 eV   73.08 nm  f=0.1069  <S**2>=0.000
       5 -> 17         0.67001
       7 -> 21        -0.13618

 Excited State  68:      Singlet-A'    17.1130 eV   72.45 nm  f=0.0828  <S**2>=0.000
       4 -> 10        -0.39195
       6 -> 19         0.17914
       7 -> 21         0.51653

 Excited State  69:      Singlet-A"    17.1560 eV   72.27 nm  f=0.0985  <S**2>=0.000
       7 -> 22        -0.19595
       8 -> 24         0.65773

 Excited State  70:      Singlet-A"    17.2331 eV   71.95 nm  f=0.0000  <S**2>=0.000
       5 -> 18        -0.19408
       7 -> 22         0.64227
       8 -> 24         0.18662

 Excited State  71:      Singlet-A'    17.4203 eV   71.17 nm  f=0.0070  <S**2>=0.000
       4 -> 10         0.20691
       7 -> 23        -0.14416
       9 -> 32         0.11026
       9 -> 33         0.64214

 Excited State  72:      Singlet-A"    17.4238 eV   71.16 nm  f=0.0009  <S**2>=0.000
       5 -> 18         0.66344
       7 -> 22         0.18316

 Excited State  73:      Singlet-A'    17.5319 eV   70.72 nm  f=0.0338  <S**2>=0.000
       4 -> 10        -0.26443
       7 -> 23         0.55677
       9 -> 33         0.21940
       9 -> 34         0.17944

 Excited State  74:      Singlet-A'    17.5857 eV   70.50 nm  f=0.0126  <S**2>=0.000
       4 -> 10         0.41102
       6 -> 19         0.13654
       6 -> 21         0.10232
       7 -> 21         0.25045
       7 -> 23         0.37411
       9 -> 34        -0.19944

 Excited State  75:      Singlet-A"    17.7991 eV   69.66 nm  f=0.0104  <S**2>=0.000
       8 -> 25         0.68869

 Excited State  76:      Singlet-A'    17.8250 eV   69.56 nm  f=0.0005  <S**2>=0.000
       5 -> 20         0.10972
       6 -> 19         0.10462
       6 -> 21         0.16121
       7 -> 24         0.17123
       9 -> 34         0.60913

 Excited State  77:      Singlet-A"    17.9917 eV   68.91 nm  f=0.0339  <S**2>=0.000
       5 -> 19         0.67251
       6 -> 22        -0.11699

 Excited State  78:      Singlet-A'    18.0558 eV   68.67 nm  f=0.0121  <S**2>=0.000
       4 -> 11        -0.18012
       6 -> 21         0.57564
       7 -> 24        -0.33277

 Excited State  79:      Singlet-A'    18.1766 eV   68.21 nm  f=0.0628  <S**2>=0.000
       5 -> 20        -0.31820
       6 -> 21         0.18659
       7 -> 24         0.40047
       8 -> 26         0.37372
       9 -> 36        -0.12684

 Excited State  80:      Singlet-A'    18.2089 eV   68.09 nm  f=0.0016  <S**2>=0.000
       5 -> 20         0.36777
       7 -> 24        -0.17196
       8 -> 26         0.55522

 Excited State  81:      Singlet-A"    18.2167 eV   68.06 nm  f=0.0071  <S**2>=0.000
       5 -> 19         0.10889
       6 -> 22         0.68506

 Excited State  82:      Singlet-A'    18.3788 eV   67.46 nm  f=0.0313  <S**2>=0.000
       4 -> 11         0.41228
       5 -> 20        -0.36960
       7 -> 24        -0.26610
       8 -> 26         0.19785
       8 -> 27         0.11368
       9 -> 36         0.16824

 Excited State  83:      Singlet-A'    18.4195 eV   67.31 nm  f=0.0737  <S**2>=0.000
       4 -> 11         0.47690
       5 -> 20         0.28265
       6 -> 21         0.21923
       7 -> 24         0.21222
       7 -> 25         0.14074
       8 -> 28        -0.11986
       9 -> 34        -0.12340

 Excited State  84:      Singlet-A"    18.4223 eV   67.30 nm  f=0.0007  <S**2>=0.000
       9 -> 35         0.69549

 Excited State  85:      Singlet-A'    18.5384 eV   66.88 nm  f=0.0260  <S**2>=0.000
       6 -> 23         0.51374
       8 -> 27        -0.14638
       8 -> 28         0.10127
       9 -> 36         0.40967

 Excited State  86:      Singlet-A'    18.7633 eV   66.08 nm  f=0.0323  <S**2>=0.000
       6 -> 23        -0.34291
       6 -> 24         0.15444
       7 -> 25         0.40816
       8 -> 28         0.10950
       9 -> 36         0.38134

 Excited State  87:      Singlet-A"    18.7713 eV   66.05 nm  f=0.0068  <S**2>=0.000
       9 -> 37         0.69091

 Excited State  88:      Singlet-A"    18.9489 eV   65.43 nm  f=0.0129  <S**2>=0.000
       7 -> 27        -0.12503
       8 -> 29         0.63034
       8 -> 30        -0.23285

 Excited State  89:      Singlet-A'    18.9602 eV   65.39 nm  f=0.0217  <S**2>=0.000
       6 -> 23         0.18296
       6 -> 24        -0.39191
       6 -> 25         0.15050
       7 -> 25         0.44015
       8 -> 28         0.15623
       9 -> 36        -0.17549

 Excited State  90:      Singlet-A"    19.0588 eV   65.05 nm  f=0.0099  <S**2>=0.000
       4 -> 12         0.67603
       8 -> 29         0.11788

 Excited State  91:      Singlet-A'    19.1492 eV   64.75 nm  f=0.1116  <S**2>=0.000
       8 -> 27         0.50115
       8 -> 28         0.45029

 Excited State  92:      Singlet-A"    19.2027 eV   64.57 nm  f=0.0183  <S**2>=0.000
       5 -> 21         0.27890
       7 -> 26         0.30341
       8 -> 29         0.13282
       8 -> 30         0.54316

 Excited State  93:      Singlet-A"    19.2446 eV   64.43 nm  f=0.0119  <S**2>=0.000
       4 -> 12         0.13639
       7 -> 26         0.61717
       8 -> 29        -0.13015
       8 -> 30        -0.24017

 Excited State  94:      Singlet-A'    19.2540 eV   64.39 nm  f=0.2232  <S**2>=0.000
       6 -> 23         0.18397
       6 -> 24         0.42404
       6 -> 25         0.15038
       7 -> 25         0.23695
       8 -> 27         0.21870
       8 -> 28        -0.26642
       9 -> 36        -0.15279

 Excited State  95:      Singlet-A"    19.3369 eV   64.12 nm  f=0.0469  <S**2>=0.000
       4 -> 12         0.10475
       5 -> 21         0.61356
       7 -> 27         0.11682
       8 -> 30        -0.24076

 Excited State  96:      Singlet-A'    19.4302 eV   63.81 nm  f=0.0833  <S**2>=0.000
       4 -> 11         0.11106
       4 -> 13        -0.22835
       5 -> 22        -0.28280
       6 -> 24         0.25913
       7 -> 24        -0.10145
       7 -> 29         0.19934
       8 -> 27        -0.26740
       8 -> 28         0.31720
       9 -> 36        -0.15891

 Excited State  97:      Singlet-A'    19.5923 eV   63.28 nm  f=0.0101  <S**2>=0.000
       4 -> 13        -0.45651
       5 -> 22         0.51849

 Excited State  98:      Singlet-A'    19.6769 eV   63.01 nm  f=0.0438  <S**2>=0.000
       4 -> 13         0.46605
       5 -> 22         0.37550
       6 -> 24         0.17828
       7 -> 29         0.13251
       8 -> 27        -0.14953
       8 -> 28         0.17118

 Excited State  99:      Singlet-A"    19.8539 eV   62.45 nm  f=0.0005  <S**2>=0.000
       4 -> 14         0.12221
       5 -> 23         0.68432

 Excited State 100:      Singlet-A"    19.8882 eV   62.34 nm  f=0.0515  <S**2>=0.000
       7 -> 27         0.51279
       7 -> 28         0.39255
       8 -> 32         0.19184
       9 -> 39         0.10761

 Excited State 101:      Singlet-A'    19.9851 eV   62.04 nm  f=0.1154  <S**2>=0.000
       6 -> 25         0.43994
       7 -> 29         0.34228
       8 -> 27         0.11211
       8 -> 31         0.24745
       9 -> 38         0.26561

 Excited State 102:      Singlet-A"    19.9852 eV   62.04 nm  f=0.0426  <S**2>=0.000
       4 -> 14         0.58596
       7 -> 27         0.14343
       7 -> 28        -0.29026
       8 -> 32        -0.10429

 Excited State 103:      Singlet-A"    20.0057 eV   61.97 nm  f=0.0153  <S**2>=0.000
       4 -> 14        -0.16017
       6 -> 26         0.11601
       7 -> 27         0.10853
       7 -> 28        -0.39356
       8 -> 32         0.51085

 Excited State 104:      Singlet-A'    20.0601 eV   61.81 nm  f=0.0221  <S**2>=0.000
       6 -> 25        -0.28783
       7 -> 29         0.13070
       7 -> 30        -0.23087
       8 -> 31         0.55539
       9 -> 38        -0.14029

 Excited State 105:      Singlet-A"    20.1500 eV   61.53 nm  f=0.0142  <S**2>=0.000
       4 -> 14         0.27990
       6 -> 28        -0.13811
       7 -> 27        -0.35223
       7 -> 28         0.25908
       8 -> 32         0.36659
       8 -> 33        -0.11526
       9 -> 39        -0.10852

 Excited State 106:      Singlet-A'    20.1561 eV   61.51 nm  f=0.0094  <S**2>=0.000
       6 -> 25         0.14466
       6 -> 29         0.10013
       7 -> 29        -0.20542

 The electronic state is 1-A'.
 Alpha  occ. eigenvalues --  -14.31096 -10.20382  -0.87136  -0.65630  -0.49585
 Alpha  occ. eigenvalues --   -0.44540  -0.40846  -0.37160  -0.24301
 Alpha virt. eigenvalues --    0.01903   0.05354   0.08583   0.10395   0.12020
 Alpha virt. eigenvalues --    0.14283   0.14973   0.16367   0.19202   0.21059
 Alpha virt. eigenvalues --    0.21530   0.26013   0.26636   0.27945   0.29900

 Mulliken charges:
               1
     1  C    0.868325
     2  N   -0.211849
     3  H   -0.122378
     4  H   -0.220195
     5  H   -0.220195
     6  H   -0.046854
     7  H   -0.046854
 Sum of Mulliken charges =   0.00000

 Dipole moment (field-independent basis, Debye):
    X=              1.2490    Y=              0.3443    Z=             -0.0000  Tot=              1.2955
 Quadrupole moment (field-independent basis, Debye-Ang):
   XX=            -15.1916   YY=            -14.5501   ZZ=            -12.8269
   XY=             -2.0874   XZ=              0.0000   YZ=              0.0000

 Normal termination of Gaussian 16 at Mon Mar 21 04:02:00 2022.
