 Gaussian 16, Revision C.01,
 Gaussian 16:  EM64L-G16RevC.01  3-Jul-2019

 ---------------------------------------------------------------------
 #P TD(Nstates=10000) b3lyp/Gen SCF(maxcycles=100) Int(Grid=ultrafine)
 ---------------------------------------------------------------------

 ---------------------
 xGDB7_00001_tier4.com
 ---------------------
 Symbolic Z-matrix:
 Charge =  0 Multiplicity = 1

                         Standard orientation:
 ---------------------------------------------------------------------
 Center     Atomic      Atomic             Coordinates (Angstroms)
 Number     Number       Type             X           Y           Z
 ---------------------------------------------------------------------
      1          8           0        0.000000    0.000000    0.596896
      2          8           0        0.000000    0.000000   -0.596896
 ---------------------------------------------------------------------

 SCF Done:  E(RB3LYP) =  -150.153984924     A.U. after    8 cycles

 Excitation energies and oscillator strengths:

 Excited state symmetry could not be determined.
 Excited State   1:      Singlet-?Sym    0.0017 eV 725899.77 nm  f=0.0000  <S**2>=0.000
       8 ->  9        -8.57953
       8 -> 16         0.14598
       8 <-  9        -8.55037
       8 <- 16         0.14511
 This state for optimization and/or second-order correction.
 Total Energy, E(TD-HF/TD-DFT) =  -150.153922156
 Copying the excited state density for this state as the 1-particle RhoCI density.

 Excited state symmetry could not be determined.
 Excited State   2:      Singlet-?Sym    6.7524 eV  183.62 nm  f=0.0000  <S**2>=0.000
       7 ->  9         0.70602

 Excited state symmetry could not be determined.
 Excited State   3:      Singlet-?Sym    7.6772 eV  161.50 nm  f=0.0000  <S**2>=0.000
       5 ->  9         0.70673

 Excited state symmetry could not be determined.
 Excited State   4:      Singlet-?Sym    7.7356 eV  160.28 nm  f=0.0210  <S**2>=0.000
       8 -> 10         0.70579

 Excited state symmetry could not be determined.
 Excited State   5:      Singlet-?Sym    7.7614 eV  159.74 nm  f=0.0000  <S**2>=0.000
       8 -> 11         0.70481

 Excited state symmetry could not be determined.
 Excited State   6:      Singlet-?Sym    8.6207 eV  143.82 nm  f=0.0000  <S**2>=0.000
       8 -> 12         0.70592

 Excited state symmetry could not be determined.
 Excited State   7:      Singlet-?Sym    8.7552 eV  141.61 nm  f=0.0911  <S**2>=0.000
       6 ->  9         0.21626
       8 -> 13         0.67259

 Excited state symmetry could not be determined.
 Excited State   8:      Singlet-?Sym   10.0936 eV  122.83 nm  f=0.0000  <S**2>=0.000
       8 -> 14         0.70451

 Excited state symmetry could not be determined.
 Excited State   9:      Singlet-?Sym   10.4789 eV  118.32 nm  f=0.0887  <S**2>=0.000
       5 -> 17        -0.14983
       6 ->  9         0.65468
       8 -> 13        -0.21594
       6 <-  9        -0.11085

 Excited state symmetry could not be determined.
 Excited State  10:      Singlet-?Sym   10.5064 eV  118.01 nm  f=0.0000  <S**2>=0.000
       8 -> 16         0.70636

 Excited state symmetry could not be determined.
 Excited State  11:      Singlet-?Sym   10.7442 eV  115.40 nm  f=0.0000  <S**2>=0.000
       8 -> 15         0.70418

 Excited state symmetry could not be determined.
 Excited State  12:      Singlet-?Sym   11.7901 eV  105.16 nm  f=0.0094  <S**2>=0.000
       8 -> 17         0.69572
       8 -> 18        -0.10903

 Excited state symmetry could not be determined.
 Excited State  13:      Singlet-?Sym   14.8958 eV   83.23 nm  f=0.1035  <S**2>=0.000
       7 -> 11         0.17197
       8 -> 17         0.11213
       8 -> 18         0.67578

 Excited state symmetry could not be determined.
 Excited State  14:      Singlet-?Sym   15.1372 eV   81.91 nm  f=0.0000  <S**2>=0.000
       7 -> 10         0.67172
       8 -> 20        -0.21196

 Excited state symmetry could not be determined.
 Excited State  15:      Singlet-?Sym   15.2500 eV   81.30 nm  f=0.0467  <S**2>=0.000
       7 -> 11         0.68363
       8 -> 18        -0.17346

 Excited state symmetry could not be determined.
 Excited State  16:      Singlet-?Sym   15.2789 eV   81.15 nm  f=0.0000  <S**2>=0.000
       6 -> 10         0.53567
       8 -> 19        -0.45734

 Excited state symmetry could not be determined.
 Excited State  17:      Singlet-?Sym   15.4137 eV   80.44 nm  f=0.1303  <S**2>=0.000
       4 ->  9         0.13993
       6 -> 11         0.69124

 Excited state symmetry could not be determined.
 Excited State  18:      Singlet-?Sym   15.4291 eV   80.36 nm  f=0.0000  <S**2>=0.000
       7 -> 10         0.21374
       8 -> 20         0.67346

 Excited state symmetry could not be determined.
 Excited State  19:      Singlet-?Sym   15.4374 eV   80.31 nm  f=0.0000  <S**2>=0.000
       6 -> 10         0.45729
       8 -> 19         0.53758

 Excited State  20:      Singlet-SGU   15.6373 eV   79.29 nm  f=0.2394  <S**2>=0.000
       5 -> 10         0.70345

 Excited state symmetry could not be determined.
 Excited State  21:      Singlet-?Sym   15.8102 eV   78.42 nm  f=0.0258  <S**2>=0.000
       4 ->  9         0.67469
       6 -> 11        -0.14119

 Excited State  22:      Singlet-SGG   15.8911 eV   78.02 nm  f=0.0000  <S**2>=0.000
       5 -> 11         0.65469
       6 -> 12        -0.17202
       7 -> 13        -0.19916

 Excited state symmetry could not be determined.
 Excited State  23:      Singlet-?Sym   16.0166 eV   77.41 nm  f=0.0000  <S**2>=0.000
       7 -> 12         0.70554

 Excited state symmetry could not be determined.
 Excited State  24:      Singlet-?Sym   16.1797 eV   76.63 nm  f=0.0000  <S**2>=0.000
       6 -> 12         0.50207
       7 -> 13        -0.49711

 Excited state symmetry could not be determined.
 Excited State  25:      Singlet-?Sym   16.3860 eV   75.66 nm  f=0.0000  <S**2>=0.000
       6 -> 13         0.70605

 Excited state symmetry could not be determined.
 Excited State  26:      Singlet-?Sym   16.5451 eV   74.94 nm  f=0.0646  <S**2>=0.000
       5 -> 12         0.70032

 Excited state symmetry could not be determined.
 Excited State  27:      Singlet-?Sym   16.7116 eV   74.19 nm  f=0.0528  <S**2>=0.000
       5 -> 13         0.70630

 Excited state symmetry could not be determined.
 Excited State  28:      Singlet-?Sym   17.0051 eV   72.91 nm  f=0.0000  <S**2>=0.000
       5 -> 11         0.24844
       5 -> 14        -0.13953
       6 -> 12         0.45157
       7 -> 13         0.44880

 Excited state symmetry could not be determined.
 Excited State  29:      Singlet-?Sym   17.5901 eV   70.49 nm  f=0.0427  <S**2>=0.000
       7 -> 14         0.70377

 Excited state symmetry could not be determined.
 Excited State  30:      Singlet-?Sym   17.8260 eV   69.55 nm  f=0.0648  <S**2>=0.000
       6 -> 14         0.70025

 Excited state symmetry could not be determined.
 Excited State  31:      Singlet-?Sym   17.9468 eV   69.08 nm  f=0.0000  <S**2>=0.000
       7 -> 16         0.70381

 Excited state symmetry could not be determined.
 Excited State  32:      Singlet-?Sym   17.9475 eV   69.08 nm  f=0.0104  <S**2>=0.000
       6 -> 16        -0.21790
       7 -> 15         0.66903

 Excited state symmetry could not be determined.
 Excited State  33:      Singlet-?Sym   18.0907 eV   68.53 nm  f=0.0000  <S**2>=0.000
       5 -> 14         0.69155

 Excited state symmetry could not be determined.
 Excited State  34:      Singlet-?Sym   18.0966 eV   68.51 nm  f=0.0000  <S**2>=0.000
       6 -> 15         0.70452

 Excited state symmetry could not be determined.
 Excited State  35:      Singlet-?Sym   18.2245 eV   68.03 nm  f=0.0329  <S**2>=0.000
       5 -> 17         0.12353
       6 -> 16         0.66349
       7 -> 15         0.20366

 Excited state symmetry could not be determined.
 Excited State  36:      Singlet-?Sym   18.3468 eV   67.58 nm  f=0.0000  <S**2>=0.000
       5 -> 15         0.70595

 Excited state symmetry could not be determined.
 Excited State  37:      Singlet-?Sym   18.3728 eV   67.48 nm  f=0.0000  <S**2>=0.000
       5 -> 16         0.70562

 Excited state symmetry could not be determined.
 Excited State  38:      Singlet-?Sym   19.0949 eV   64.93 nm  f=0.0000  <S**2>=0.000
       7 -> 17         0.69168
       7 -> 18        -0.12081

 Excited state symmetry could not be determined.
 Excited State  39:      Singlet-?Sym   19.1782 eV   64.65 nm  f=0.0000  <S**2>=0.000
       6 -> 17         0.69008
       6 -> 18        -0.12343

 Excited state symmetry could not be determined.
 Excited State  40:      Singlet-?Sym   20.2365 eV   61.27 nm  f=0.0000  <S**2>=0.000
       8 -> 22         0.70639

 Excited state symmetry could not be determined.
 Excited State  41:      Singlet-?Sym   20.2600 eV   61.20 nm  f=0.0000  <S**2>=0.000
       8 -> 21         0.70488

 Excited state symmetry could not be determined.
 Excited State  42:      Singlet-?Sym   20.2791 eV   61.14 nm  f=0.0034  <S**2>=0.000
       5 -> 17        -0.40954
       8 -> 23         0.56169

 Excited state symmetry could not be determined.
 Excited State  43:      Singlet-?Sym   21.3588 eV   58.05 nm  f=0.1086  <S**2>=0.000
       6 -> 19        -0.13198
       8 -> 25         0.69077

 Excited state symmetry could not be determined.
 Excited State  44:      Singlet-?Sym   21.3734 eV   58.01 nm  f=0.1502  <S**2>=0.000
       6 -> 20         0.14388
       8 -> 24         0.68867

 Excited State  45:      Singlet-SGU   21.6129 eV   57.37 nm  f=0.6406  <S**2>=0.000
       4 -> 11         0.43236
       5 -> 17         0.36568
       5 -> 18         0.21402
       8 -> 23         0.35179

 Excited state symmetry could not be determined.
 Excited State  46:      Singlet-?Sym   21.7976 eV   56.88 nm  f=0.0000  <S**2>=0.000
       8 -> 26         0.70564

 Excited state symmetry could not be determined.
 Excited State  47:      Singlet-?Sym   21.8677 eV   56.70 nm  f=0.0606  <S**2>=0.000
       8 -> 28         0.70177

 Excited State  48:      Singlet-SGG   22.0100 eV   56.33 nm  f=0.0000  <S**2>=0.000
       4 -> 10         0.59086
       8 -> 27        -0.38252

 Excited state symmetry could not be determined.
 Excited State  49:      Singlet-?Sym   22.2700 eV   55.67 nm  f=0.0000  <S**2>=0.000
       7 -> 17         0.12016
       7 -> 18         0.69571

 Excited state symmetry could not be determined.
 Excited State  50:      Singlet-?Sym   22.4531 eV   55.22 nm  f=0.0000  <S**2>=0.000
       6 -> 17         0.12375
       6 -> 18         0.69528

 Excited State  51:      Singlet-SGU   22.5309 eV   55.03 nm  f=0.0689  <S**2>=0.000
       4 -> 11         0.48794
       5 -> 17        -0.20684
       5 -> 18        -0.45454

 Excited state symmetry could not be determined.
 Excited State  52:      Singlet-?Sym   22.6851 eV   54.65 nm  f=0.0024  <S**2>=0.000
       6 -> 20         0.43008
       7 -> 19         0.55581

 Excited state symmetry could not be determined.
 Excited State  53:      Singlet-?Sym   22.6888 eV   54.65 nm  f=0.0014  <S**2>=0.000
       6 -> 19        -0.43080
       7 -> 20         0.55451

 Excited state symmetry could not be determined.
 Excited State  54:      Singlet-?Sym   22.8375 eV   54.29 nm  f=0.0000  <S**2>=0.000
       4 -> 10         0.38345
       8 -> 27         0.57468

 Excited state symmetry could not be determined.
 Excited State  55:      Singlet-?Sym   23.0525 eV   53.78 nm  f=0.0000  <S**2>=0.000
       4 -> 12         0.70463

 Excited state symmetry could not be determined.
 Excited State  56:      Singlet-?Sym   23.2311 eV   53.37 nm  f=0.0000  <S**2>=0.000
       4 -> 13         0.70554

 Excited state symmetry could not be determined.
 Excited State  57:      Singlet-?Sym   23.2338 eV   53.36 nm  f=0.0000  <S**2>=0.000
       5 -> 19         0.70664

 Excited state symmetry could not be determined.
 Excited State  58:      Singlet-?Sym   23.2502 eV   53.33 nm  f=0.0000  <S**2>=0.000
       5 -> 20         0.70624

 Excited state symmetry could not be determined.
 Excited State  59:      Singlet-?Sym   23.6943 eV   52.33 nm  f=0.6368  <S**2>=0.000
       6 -> 19         0.53571
       7 -> 20         0.43049

 Excited state symmetry could not be determined.
 Excited State  60:      Singlet-?Sym   23.7775 eV   52.14 nm  f=0.6773  <S**2>=0.000
       4 ->  9        -0.10129
       6 -> 20         0.53048
       7 -> 19        -0.42199
       8 -> 24        -0.10597

 Excited state symmetry could not be determined.
 Excited State  61:      Singlet-?Sym   24.4650 eV   50.68 nm  f=0.0038  <S**2>=0.000
       4 -> 11         0.12140
       4 -> 14         0.66506
       5 -> 18         0.16655

 Excited State  62:      Singlet-SGU   24.8929 eV   49.81 nm  f=0.7547  <S**2>=0.000
       4 -> 11         0.21509
       4 -> 14        -0.22888
       5 -> 17        -0.31122
       5 -> 18         0.44727
       5 -> 28        -0.11363
       6 ->  9        -0.14759
       8 -> 23        -0.19774
       8 -> 30        -0.10928

 Excited state symmetry could not be determined.
 Excited State  63:      Singlet-?Sym   24.9201 eV   49.75 nm  f=0.0005  <S**2>=0.000
       4 -> 15         0.70046

 Excited state symmetry could not be determined.
 Excited State  64:      Singlet-?Sym   24.9733 eV   49.65 nm  f=0.0001  <S**2>=0.000
       4 -> 16         0.69850

 Excited State  65:      Singlet-SGG   26.7933 eV   46.27 nm  f=0.0000  <S**2>=0.000
       4 -> 17         0.63719
       5 -> 21         0.16738
       6 -> 22        -0.18285
       7 -> 23        -0.14820

 Excited state symmetry could not be determined.
 Excited State  66:      Singlet-?Sym   27.6438 eV   44.85 nm  f=0.0000  <S**2>=0.000
       7 -> 22         0.70397

 Excited state symmetry could not be determined.
 Excited State  67:      Singlet-?Sym   27.8141 eV   44.58 nm  f=0.0354  <S**2>=0.000
       5 -> 23        -0.18254
       7 -> 21         0.68043

 Excited state symmetry could not be determined.
 Excited State  68:      Singlet-?Sym   27.8533 eV   44.51 nm  f=0.0000  <S**2>=0.000
       6 -> 22         0.57155
       7 -> 23        -0.40331

 Excited state symmetry could not be determined.
 Excited State  69:      Singlet-?Sym   27.9219 eV   44.40 nm  f=0.0029  <S**2>=0.000
       5 -> 22        -0.32333
       6 -> 21         0.62787

 Excited state symmetry could not be determined.
 Excited State  70:      Singlet-?Sym   28.1904 eV   43.98 nm  f=0.0000  <S**2>=0.000
       6 -> 23         0.70451

 Excited state symmetry could not be determined.
 Excited State  71:      Singlet-?Sym   28.2016 eV   43.96 nm  f=0.0000  <S**2>=0.000
       4 -> 18         0.13906
       5 -> 21         0.43526
       6 -> 22         0.25165
       7 -> 23         0.46533

 Excited state symmetry could not be determined.
 Excited State  72:      Singlet-?Sym   28.3159 eV   43.79 nm  f=0.0000  <S**2>=0.000
       3 ->  9         0.55744
       6 -> 25         0.15175
       7 -> 24        -0.40035

 Excited state symmetry could not be determined.
 Excited State  73:      Singlet-?Sym   28.5724 eV   43.39 nm  f=0.3301  <S**2>=0.000
       5 -> 22         0.62069
       6 -> 21         0.31688

 Excited state symmetry could not be determined.
 Excited State  74:      Singlet-?Sym   28.5767 eV   43.39 nm  f=0.0000  <S**2>=0.000
       6 -> 24        -0.37663
       7 -> 25         0.59819

 Excited state symmetry could not be determined.
 Excited State  75:      Singlet-?Sym   28.6065 eV   43.34 nm  f=0.0000  <S**2>=0.000
       3 ->  9         0.18677
       6 -> 25         0.50469
       7 -> 24         0.45725

 Excited state symmetry could not be determined.
 Excited State  76:      Singlet-?Sym   28.8411 eV   42.99 nm  f=0.2717  <S**2>=0.000
       5 -> 23         0.67797
       7 -> 21         0.17673

 Excited state symmetry could not be determined.
 Excited State  77:      Singlet-?Sym   28.9128 eV   42.88 nm  f=0.0000  <S**2>=0.000
       4 -> 17        -0.26265
       4 -> 18        -0.23594
       5 -> 21         0.50415
       6 -> 22        -0.21586
       7 -> 23        -0.25106

 Excited state symmetry could not be determined.
 Excited State  78:      Singlet-?Sym   28.9381 eV   42.84 nm  f=0.0000  <S**2>=0.000
       6 -> 24         0.59395
       7 -> 25         0.37220

 Excited state symmetry could not be determined.
 Excited State  79:      Singlet-?Sym   28.9641 eV   42.81 nm  f=0.0000  <S**2>=0.000
       4 -> 19         0.21592
       5 -> 24         0.62065
       7 -> 26        -0.23892

 Excited state symmetry could not be determined.
 Excited State  80:      Singlet-?Sym   28.9877 eV   42.77 nm  f=0.0018  <S**2>=0.000
       4 -> 20         0.21553
       5 -> 25         0.64174
       6 -> 26         0.17669

 Excited state symmetry could not be determined.
 Excited State  81:      Singlet-?Sym   29.0760 eV   42.64 nm  f=0.0000  <S**2>=0.000
       3 ->  9        -0.33863
       5 -> 26        -0.10061
       6 -> 25         0.44447
       6 -> 28         0.24599
       7 -> 24        -0.33454

 Excited state symmetry could not be determined.
 Excited State  82:      Singlet-?Sym   29.2360 eV   42.41 nm  f=0.0000  <S**2>=0.000
       5 -> 24         0.24468
       7 -> 26         0.65800

 Excited state symmetry could not be determined.
 Excited State  83:      Singlet-?Sym   29.2607 eV   42.37 nm  f=0.0000  <S**2>=0.000
       7 -> 28         0.69917

 Excited state symmetry could not be determined.
 Excited State  84:      Singlet-?Sym   29.3911 eV   42.18 nm  f=0.0002  <S**2>=0.000
       5 -> 25         0.20332
       5 -> 28         0.15402
       6 -> 26        -0.36525
       7 -> 27         0.54551

 Excited state symmetry could not be determined.
 Excited State  85:      Singlet-?Sym   29.5145 eV   42.01 nm  f=0.0000  <S**2>=0.000
       3 ->  9         0.18120
       5 -> 26        -0.15436
       6 -> 25        -0.14916
       6 -> 28         0.63481
       7 -> 24         0.13056

 Excited state symmetry could not be determined.
 Excited State  86:      Singlet-?Sym   29.5271 eV   41.99 nm  f=0.0192  <S**2>=0.000
       5 -> 28         0.47485
       6 -> 26         0.47292
       7 -> 27         0.20367

 Excited state symmetry could not be determined.
 Excited State  87:      Singlet-?Sym   29.5582 eV   41.95 nm  f=0.0000  <S**2>=0.000
       5 -> 24         0.12943
       6 -> 27         0.69124

 Excited state symmetry could not be determined.
 Excited State  88:      Singlet-?Sym   29.6793 eV   41.77 nm  f=0.0000  <S**2>=0.000
       5 -> 26         0.68080
       6 -> 28         0.17849

 Excited state symmetry could not be determined.
 Excited State  89:      Singlet-?Sym   29.7905 eV   41.62 nm  f=0.0000  <S**2>=0.000
       4 -> 19         0.66854
       5 -> 24        -0.19517
       6 -> 27         0.10493

 Excited state symmetry could not be determined.
 Excited State  90:      Singlet-?Sym   29.8008 eV   41.60 nm  f=0.0000  <S**2>=0.000
       5 -> 27         0.69958

 Excited state symmetry could not be determined.
 Excited State  91:      Singlet-?Sym   29.8061 eV   41.60 nm  f=0.0000  <S**2>=0.000
       4 -> 20         0.66975
       5 -> 25        -0.19991

 Excited State  92:      Singlet-SGG   29.8581 eV   41.52 nm  f=0.0000  <S**2>=0.000
       4 -> 18         0.64675
       5 -> 21         0.10532
       6 -> 22        -0.17084
       7 -> 23        -0.18477

 Excited state symmetry could not be determined.
 Excited State  93:      Singlet-?Sym   30.5426 eV   40.59 nm  f=0.0022  <S**2>=0.000
       5 -> 28         0.45478
       6 -> 26        -0.29652
       7 -> 27        -0.34891
       8 -> 30        -0.24355

 Excited state symmetry could not be determined.
 Excited State  94:      Singlet-?Sym   32.3863 eV   38.28 nm  f=0.0000  <S**2>=0.000
       8 -> 29         0.70198

 Excited state symmetry could not be determined.
 Excited State  95:      Singlet-?Sym   34.3700 eV   36.07 nm  f=0.0277  <S**2>=0.000
       3 -> 10         0.21982
       3 -> 17        -0.16049
       4 -> 21         0.33938
       5 -> 28         0.13258
       8 -> 30         0.51846

 Excited state symmetry could not be determined.
 Excited State  96:      Singlet-?Sym   34.7924 eV   35.64 nm  f=0.0000  <S**2>=0.000
       4 -> 22         0.70475

 Excited state symmetry could not be determined.
 Excited State  97:      Singlet-?Sym   34.8094 eV   35.62 nm  f=0.0772  <S**2>=0.000
       3 -> 10        -0.15043
       4 -> 21         0.61734
       8 -> 30        -0.27925

 Excited state symmetry could not be determined.
 Excited State  98:      Singlet-?Sym   34.8382 eV   35.59 nm  f=0.0000  <S**2>=0.000
       8 -> 31         0.70095

 Excited state symmetry could not be determined.
 Excited State  99:      Singlet-?Sym   35.1408 eV   35.28 nm  f=0.0000  <S**2>=0.000
       4 -> 23         0.70063

 Excited state symmetry could not be determined.
 Excited State 100:      Singlet-?Sym   35.6161 eV   34.81 nm  f=0.0000  <S**2>=0.000
       4 -> 24         0.70688

 Excited state symmetry could not be determined.
 Excited State 101:      Singlet-?Sym   35.6257 eV   34.80 nm  f=0.0000  <S**2>=0.000
       4 -> 25         0.70680

 Excited State 102:      Singlet-SGG   35.9981 eV   34.44 nm  f=0.0000  <S**2>=0.000
       3 -> 11         0.70215

 Excited state symmetry could not be determined.
 Excited State 103:      Singlet-?Sym   36.2542 eV   34.20 nm  f=0.0587  <S**2>=0.000
       4 -> 26         0.70389

 Excited state symmetry could not be determined.
 Excited State 104:      Singlet-?Sym   36.3500 eV   34.11 nm  f=0.0000  <S**2>=0.000
       4 -> 28         0.70441

 Excited state symmetry could not be determined.
 Excited State 105:      Singlet-?Sym   36.3825 eV   34.08 nm  f=0.0542  <S**2>=0.000
       4 -> 27         0.70419

 Excited State 106:      Singlet-SGU   36.4643 eV   34.00 nm  f=0.0061  <S**2>=0.000
       3 -> 10         0.64814
       3 -> 17         0.14442
       8 -> 30        -0.19573

 Excited state symmetry could not be determined.
 Excited State 107:      Singlet-?Sym   36.9703 eV   33.54 nm  f=0.0007  <S**2>=0.000
       3 -> 12         0.70571

 Excited state symmetry could not be determined.
 Excited State 108:      Singlet-?Sym   37.1337 eV   33.39 nm  f=0.0003  <S**2>=0.000
       3 -> 13         0.70565

 Excited state symmetry could not be determined.
 Excited State 109:      Singlet-?Sym   38.4751 eV   32.22 nm  f=0.0000  <S**2>=0.000
       3 -> 14         0.70114

 Excited state symmetry could not be determined.
 Excited State 110:      Singlet-?Sym   38.7901 eV   31.96 nm  f=0.0000  <S**2>=0.000
       3 -> 15         0.70626

 Excited state symmetry could not be determined.
 Excited State 111:      Singlet-?Sym   38.8455 eV   31.92 nm  f=0.0000  <S**2>=0.000
       3 -> 16         0.70647

 Excited state symmetry could not be determined.
 Excited State 112:      Singlet-?Sym   39.7117 eV   31.22 nm  f=0.0000  <S**2>=0.000
       7 -> 29         0.70325

 Excited state symmetry could not be determined.
 Excited State 113:      Singlet-?Sym   40.0311 eV   30.97 nm  f=0.0000  <S**2>=0.000
       6 -> 29         0.54078
       7 -> 30        -0.45175

 Excited state symmetry could not be determined.
 Excited State 114:      Singlet-?Sym   40.3269 eV   30.74 nm  f=0.0563  <S**2>=0.000
       5 -> 29         0.70380

 Excited state symmetry could not be determined.
 Excited State 115:      Singlet-?Sym   40.4163 eV   30.68 nm  f=0.0000  <S**2>=0.000
       6 -> 30         0.70676

 Excited state symmetry could not be determined.
 Excited State 116:      Singlet-?Sym   40.7138 eV   30.45 nm  f=0.0013  <S**2>=0.000
       5 -> 30         0.48858
       7 -> 31        -0.13526
       8 -> 32         0.49027

 Excited state symmetry could not be determined.
 Excited State 117:      Singlet-?Sym   40.9085 eV   30.31 nm  f=0.1198  <S**2>=0.000
       5 -> 30         0.50578
       8 -> 32        -0.48845

 Excited State 118:      Singlet-SGG   42.1237 eV   29.43 nm  f=0.0000  <S**2>=0.000
       5 -> 31         0.45542
       6 -> 29        -0.31646
       7 -> 30        -0.40809
       8 -> 35         0.12526

 Excited state symmetry could not be determined.
 Excited State 119:      Singlet-?Sym   42.4192 eV   29.23 nm  f=0.0996  <S**2>=0.000
       7 -> 31         0.69096
       8 -> 32         0.13858

 Excited State 120:      Singlet-SGU   42.4982 eV   29.17 nm  f=0.1903  <S**2>=0.000
       3 -> 17         0.63362
       3 -> 18         0.12289
       4 -> 31        -0.12540
       5 -> 32         0.11895
       8 -> 30         0.14016

 Excited state symmetry could not be determined.
 Excited State 121:      Singlet-?Sym   42.5051 eV   29.17 nm  f=0.1241  <S**2>=0.000

 Unable to determine electronic state:  partially filled degenerate orbitals.
 Alpha  occ. eigenvalues --  -19.30582 -19.30565  -1.30311  -0.79225  -0.55456
 Alpha  occ. eigenvalues --   -0.54464  -0.53707  -0.26594
 Alpha virt. eigenvalues --   -0.19496   0.06038   0.07072   0.10092   0.10675
 Alpha virt. eigenvalues --    0.15353   0.16194   0.16433   0.24151   0.33444
 Alpha virt. eigenvalues --    0.36117   0.36176   0.53628   0.54271   0.55518

 Mulliken charges:
               1
     1  O   -0.000000
     2  O   -0.000000
 Sum of Mulliken charges =  -0.00000

 Dipole moment (field-independent basis, Debye):
    X=              0.0000    Y=             -0.0000    Z=             -0.0000  Tot=              0.0000
 Quadrupole moment (field-independent basis, Debye-Ang):
   XX=            -11.2027   YY=             -9.2876   ZZ=            -10.8591
   XY=              0.0000   XZ=              0.0000   YZ=              0.0000

 Normal termination of Gaussian 16 at Mon Mar 21 20:10:44 2022.
