 Gaussian 16, Revision C.01,
 Gaussian 16:  EM64L-G16RevC.01  3-Jul-2019

 ---------------------------------------------------------------------
 #P TD(Nstates=10000) b3lyp/Gen SCF(maxcycles=100) Int(Grid=ultrafine)
 ---------------------------------------------------------------------

 ---------------------
 xGDB7_00001_tier4.com
 ---------------------
 Symbolic Z-matrix:
 Charge =  0 Multiplicity = 1

                         Standard orientation:
 ---------------------------------------------------------------------
 Center     Atomic      Atomic             Coordinates (Angstroms)
 Number     Number       Type             X           Y           Z
 ---------------------------------------------------------------------
      1          6           0        0.037922   -0.393776    0.738519
      2          6           0        0.037922   -0.393776   -0.738519
      3          7           0        0.037922    0.865964    0.000000
      4          1           0        0.953211   -0.606479    1.276872
      5          1           0       -0.870248   -0.700655    1.244917
      6          1           0       -0.870248   -0.700655   -1.244917
      7          1           0        0.953211   -0.606479   -1.276872
      8          1           0       -0.886454    1.277834    0.000000
 ---------------------------------------------------------------------

 SCF Done:  E(RB3LYP) =  -133.835056920     A.U. after   12 cycles

 Excitation energies and oscillator strengths:

 Excited State   1:      Singlet-A'     6.4804 eV  191.32 nm  f=0.0016  <S**2>=0.000
      12 -> 13         0.69323
      12 -> 15         0.13264
 This state for optimization and/or second-order correction.
 Total Energy, E(TD-HF/TD-DFT) =  -133.596906616
 Copying the excited state density for this state as the 1-particle RhoCI density.

 Excited State   2:      Singlet-A'     7.2612 eV  170.75 nm  f=0.0308  <S**2>=0.000
      12 -> 13        -0.13269
      12 -> 15         0.69278

 Excited State   3:      Singlet-A"     7.2973 eV  169.90 nm  f=0.0044  <S**2>=0.000
      12 -> 14         0.70565

 Excited State   4:      Singlet-A'     8.0289 eV  154.42 nm  f=0.0748  <S**2>=0.000
      12 -> 16         0.70196

 Excited State   5:      Singlet-A"     8.6864 eV  142.73 nm  f=0.0405  <S**2>=0.000
      12 -> 17         0.69420

 Excited State   6:      Singlet-A'     8.7842 eV  141.14 nm  f=0.0102  <S**2>=0.000
      11 -> 13         0.69475

 Excited State   7:      Singlet-A"     9.1034 eV  136.20 nm  f=0.0007  <S**2>=0.000
      10 -> 13         0.69837

 Excited State   8:      Singlet-A'     9.1110 eV  136.08 nm  f=0.0057  <S**2>=0.000
      12 -> 18         0.69279

 Excited State   9:      Singlet-A'     9.5798 eV  129.42 nm  f=0.0454  <S**2>=0.000
      11 -> 15         0.69472

 Excited State  10:      Singlet-A"     9.5858 eV  129.34 nm  f=0.0434  <S**2>=0.000
      10 -> 15         0.16291
      11 -> 14         0.67685

 Excited State  11:      Singlet-A"     9.7102 eV  127.68 nm  f=0.0181  <S**2>=0.000
      12 -> 19         0.70087

 Excited State  12:      Singlet-A"     9.8378 eV  126.03 nm  f=0.0119  <S**2>=0.000
       9 -> 13         0.58646
      10 -> 15        -0.34118
      11 -> 14         0.16994

 Excited State  13:      Singlet-A"     9.8845 eV  125.43 nm  f=0.0786  <S**2>=0.000
       9 -> 13         0.37750
      10 -> 15         0.58164

 Excited State  14:      Singlet-A'     9.9308 eV  124.85 nm  f=0.0046  <S**2>=0.000
      10 -> 14        -0.47597
      12 -> 20         0.51668

 Excited State  15:      Singlet-A'     9.9613 eV  124.47 nm  f=0.0376  <S**2>=0.000
      10 -> 14         0.51772
      12 -> 20         0.47226

 Excited State  16:      Singlet-A'    10.2822 eV  120.58 nm  f=0.0249  <S**2>=0.000
      11 -> 16         0.69965

 Excited State  17:      Singlet-A"    10.5330 eV  117.71 nm  f=0.0061  <S**2>=0.000
       9 -> 15        -0.46630
      10 -> 16         0.49423
      11 -> 17        -0.11915
      12 -> 21        -0.13973

 Excited State  18:      Singlet-A"    10.6054 eV  116.91 nm  f=0.0024  <S**2>=0.000
       9 -> 15         0.34375
      10 -> 16         0.41322
      11 -> 17        -0.12924
      12 -> 21         0.43293

 Excited State  19:      Singlet-A'    10.6380 eV  116.55 nm  f=0.0852  <S**2>=0.000
       9 -> 14         0.70128

 Excited State  20:      Singlet-A"    10.6893 eV  115.99 nm  f=0.0144  <S**2>=0.000
       9 -> 15        -0.39606
      10 -> 16        -0.24104
      12 -> 21         0.52106

 Excited State  21:      Singlet-A"    11.0237 eV  112.47 nm  f=0.0101  <S**2>=0.000
      11 -> 17        -0.11693
      12 -> 22         0.69109

 Excited State  22:      Singlet-A'    11.1134 eV  111.56 nm  f=0.0134  <S**2>=0.000
      10 -> 17        -0.27733
      12 -> 23         0.63719

 Excited State  23:      Singlet-A"    11.2584 eV  110.13 nm  f=0.2032  <S**2>=0.000
       9 -> 16        -0.23690
      10 -> 16         0.14482
      11 -> 17         0.59767
      12 -> 22         0.11171

 Excited State  24:      Singlet-A'    11.3182 eV  109.54 nm  f=0.0477  <S**2>=0.000
      10 -> 17        -0.32622
      11 -> 18         0.36991
      12 -> 23        -0.14453
      12 -> 24         0.46895

 Excited State  25:      Singlet-A'    11.4608 eV  108.18 nm  f=0.0131  <S**2>=0.000
      10 -> 17         0.13319
      11 -> 18         0.58684
      12 -> 23         0.12287
      12 -> 24        -0.33115

 Excited State  26:      Singlet-A"    11.4856 eV  107.95 nm  f=0.0500  <S**2>=0.000
       9 -> 16         0.65142
      10 -> 18         0.10677
      11 -> 17         0.20829

 Excited State  27:      Singlet-A"    11.7095 eV  105.88 nm  f=0.0054  <S**2>=0.000
      10 -> 18         0.69472

 Excited State  28:      Singlet-A'    11.7845 eV  105.21 nm  f=0.0101  <S**2>=0.000
       9 -> 17         0.59886
      10 -> 17         0.18450
      12 -> 24         0.18900
      12 -> 25         0.22866

 Excited State  29:      Singlet-A'    11.8702 eV  104.45 nm  f=0.0104  <S**2>=0.000
      10 -> 17        -0.21102
      11 -> 20        -0.21839
      12 -> 24        -0.12368
      12 -> 25         0.59671

 Excited State  30:      Singlet-A'    11.8988 eV  104.20 nm  f=0.0225  <S**2>=0.000
       9 -> 17         0.34305
      10 -> 17        -0.30994
      11 -> 20        -0.26157
      12 -> 23        -0.12748
      12 -> 24        -0.25857
      12 -> 25        -0.27510
      12 -> 27        -0.16762

 Excited State  31:      Singlet-A"    11.9444 eV  103.80 nm  f=0.0063  <S**2>=0.000
      11 -> 19         0.69514

 Excited State  32:      Singlet-A'    12.2939 eV  100.85 nm  f=0.0173  <S**2>=0.000
       8 -> 13         0.10171
      10 -> 19         0.69012

 Excited State  33:      Singlet-A"    12.4557 eV   99.54 nm  f=0.0000  <S**2>=0.000
       9 -> 18         0.68334
      12 -> 26         0.12894

 Excited State  34:      Singlet-A"    12.4915 eV   99.25 nm  f=0.0147  <S**2>=0.000
      10 -> 20         0.54303
      12 -> 26         0.43412

 Excited State  35:      Singlet-A'    12.5085 eV   99.12 nm  f=0.0427  <S**2>=0.000
       8 -> 13         0.61264
      11 -> 20         0.30616

 Excited State  36:      Singlet-A"    12.5229 eV   99.01 nm  f=0.0389  <S**2>=0.000
      10 -> 20        -0.43858
      11 -> 21         0.11111
      12 -> 26         0.51413

 Excited State  37:      Singlet-A'    12.5337 eV   98.92 nm  f=0.0063  <S**2>=0.000
       8 -> 13        -0.29941
       8 -> 15        -0.10198
       9 -> 19        -0.18777
      10 -> 17        -0.10214
      10 -> 19         0.10571
      10 -> 21         0.10913
      11 -> 20         0.43164
      12 -> 24        -0.12819
      12 -> 27        -0.28033
      12 -> 28         0.14066

 Excited State  38:      Singlet-A'    12.8732 eV   96.31 nm  f=0.0918  <S**2>=0.000
       8 -> 15        -0.17691
      10 -> 17        -0.19698
      10 -> 21        -0.15600
      11 -> 20         0.13937
      12 -> 27         0.54851
      12 -> 28         0.14802

 Excited State  39:      Singlet-A"    12.9737 eV   95.57 nm  f=0.0111  <S**2>=0.000
      11 -> 21         0.66059
      11 -> 22        -0.19200

 Excited State  40:      Singlet-A'    13.1323 eV   94.41 nm  f=0.0150  <S**2>=0.000
       8 -> 15        -0.23662
       9 -> 19         0.56220
      10 -> 21         0.32296

 Excited State  41:      Singlet-A"    13.2184 eV   93.80 nm  f=0.0311  <S**2>=0.000
       8 -> 14         0.52869
       9 -> 20        -0.41052
      11 -> 22        -0.18577

 Excited State  42:      Singlet-A'    13.2591 eV   93.51 nm  f=0.1733  <S**2>=0.000
       8 -> 15         0.58798
       9 -> 19         0.10946
      10 -> 21         0.16301
      11 -> 23         0.17143
      11 -> 25        -0.10281
      12 -> 27         0.12298

 Excited State  43:      Singlet-A"    13.2916 eV   93.28 nm  f=0.0908  <S**2>=0.000
       8 -> 14         0.33278
       9 -> 20         0.17956
      11 -> 21         0.12977
      11 -> 22         0.56802

 Excited State  44:      Singlet-A'    13.3605 eV   92.80 nm  f=0.0700  <S**2>=0.000
       8 -> 15         0.17608
      10 -> 21        -0.11190
      11 -> 23        -0.24551
      12 -> 28         0.59905

 Excited State  45:      Singlet-A"    13.3796 eV   92.67 nm  f=0.0087  <S**2>=0.000
       8 -> 14         0.31463
       9 -> 20         0.51922
      11 -> 21        -0.13909
      11 -> 22        -0.29687

 Excited State  46:      Singlet-A'    13.3922 eV   92.58 nm  f=0.0470  <S**2>=0.000
       9 -> 22         0.10478
      11 -> 23         0.60674
      12 -> 28         0.23122

 Excited State  47:      Singlet-A'    13.5435 eV   91.55 nm  f=0.0046  <S**2>=0.000
       7 -> 13        -0.32500
       8 -> 16        -0.18743
       9 -> 19        -0.24787
      10 -> 21         0.47431
      11 -> 23        -0.12246
      12 -> 27         0.10692

 Excited State  48:      Singlet-A'    13.6262 eV   90.99 nm  f=0.0045  <S**2>=0.000
      10 -> 22         0.61889
      11 -> 24        -0.32074

 Excited State  49:      Singlet-A"    13.6468 eV   90.85 nm  f=0.0076  <S**2>=0.000
      10 -> 23         0.65558
      12 -> 29         0.22241

 Excited State  50:      Singlet-A"    13.7163 eV   90.39 nm  f=0.0069  <S**2>=0.000
      10 -> 23        -0.23734
      12 -> 29         0.64909

 Excited State  51:      Singlet-A'    13.7708 eV   90.03 nm  f=0.0130  <S**2>=0.000
       8 -> 16         0.14202
      10 -> 22         0.30340
      11 -> 24         0.56327

 Excited State  52:      Singlet-A'    13.9994 eV   88.56 nm  f=0.0687  <S**2>=0.000
       7 -> 13         0.42584
       8 -> 16        -0.38396
       9 -> 21         0.32760
       9 -> 22        -0.17411
      11 -> 24         0.10294

 Excited State  53:      Singlet-A"    14.0080 eV   88.51 nm  f=0.0401  <S**2>=0.000
      10 -> 24         0.67824
      12 -> 29        -0.12325

 Excited State  54:      Singlet-A'    14.1226 eV   87.79 nm  f=0.0530  <S**2>=0.000
       7 -> 13        -0.12043
       8 -> 16         0.30493
       9 -> 21         0.58132
      11 -> 25        -0.14702

 Excited State  55:      Singlet-A'    14.3198 eV   86.58 nm  f=0.1129  <S**2>=0.000
       7 -> 13        -0.12534
       7 -> 15        -0.12232
       9 -> 21         0.14026
      11 -> 25         0.46473
      12 -> 30        -0.43837

 Excited State  56:      Singlet-A"    14.3470 eV   86.42 nm  f=0.0065  <S**2>=0.000
       8 -> 17         0.27496
       9 -> 23         0.54524
      10 -> 25         0.32894

 Excited State  57:      Singlet-A'    14.3776 eV   86.23 nm  f=0.0673  <S**2>=0.000
       7 -> 15        -0.10630
       8 -> 16        -0.11392
      11 -> 25         0.34329
      12 -> 30         0.53760

 Excited State  58:      Singlet-A"    14.4111 eV   86.03 nm  f=0.0034  <S**2>=0.000
       8 -> 17         0.61013
       9 -> 23        -0.14919
      10 -> 25        -0.28800

 Excited State  59:      Singlet-A'    14.4255 eV   85.95 nm  f=0.0207  <S**2>=0.000
       7 -> 13         0.35053
       7 -> 15        -0.29834
       7 -> 16         0.10436
       8 -> 16         0.32735
       8 -> 18         0.12143
       9 -> 19        -0.14038
      10 -> 21         0.19633
      10 -> 26        -0.10271
      11 -> 20        -0.10228
      11 -> 25         0.16648

 Excited State  60:      Singlet-A'    14.5224 eV   85.37 nm  f=0.2010  <S**2>=0.000
       7 -> 15        -0.19548
       8 -> 16        -0.14551
       9 -> 22         0.57842
      10 -> 26         0.16496
      11 -> 25        -0.17908

 Excited State  61:      Singlet-A"    14.6259 eV   84.77 nm  f=0.0660  <S**2>=0.000
       7 -> 14        -0.20698
       9 -> 23        -0.32017
       9 -> 24        -0.36185
      10 -> 25         0.41766
      11 -> 26        -0.12993

 Excited State  62:      Singlet-A"    14.6520 eV   84.62 nm  f=0.0016  <S**2>=0.000
       7 -> 14         0.61712
       9 -> 23        -0.16947
      10 -> 25         0.14679
      11 -> 26         0.14855
      12 -> 31         0.19155

 Excited State  63:      Singlet-A"    14.7219 eV   84.22 nm  f=0.0200  <S**2>=0.000
       7 -> 14        -0.12602
       9 -> 24         0.21721
      11 -> 26        -0.18694
      12 -> 31         0.61878

 Excited State  64:      Singlet-A'    14.7267 eV   84.19 nm  f=0.2879  <S**2>=0.000
       7 -> 15         0.54224
       8 -> 18         0.20770
       9 -> 22         0.21818
      10 -> 21         0.10744
      11 -> 25         0.16699
      12 -> 32         0.13553

 Excited State  65:      Singlet-A"    14.7929 eV   83.81 nm  f=0.0017  <S**2>=0.000
       7 -> 14        -0.19490
       9 -> 24        -0.13811
      11 -> 26         0.61932
      12 -> 31         0.18193

 Excited State  66:      Singlet-A'    14.9357 eV   83.01 nm  f=0.0276  <S**2>=0.000
       7 -> 15         0.11072
       8 -> 18         0.13579
      11 -> 27         0.48103
      12 -> 32        -0.44319

 Excited State  67:      Singlet-A"    14.9580 eV   82.89 nm  f=0.4266  <S**2>=0.000
       7 -> 14        -0.11828
       8 -> 17         0.11484
       9 -> 23        -0.15508
       9 -> 24         0.50647
       9 -> 25         0.16833
      10 -> 25         0.27400
      10 -> 28         0.10962
      11 -> 26         0.18350
      12 -> 31        -0.11795

 Excited State  68:      Singlet-A'    14.9914 eV   82.70 nm  f=0.0715  <S**2>=0.000
      10 -> 26         0.37219
      11 -> 27         0.42121
      12 -> 32         0.39124

 Excited State  69:      Singlet-A'    15.1473 eV   81.85 nm  f=0.0530  <S**2>=0.000
       7 -> 16        -0.27217
       8 -> 18         0.46733
      10 -> 26        -0.32299
      12 -> 32         0.20891

 Excited State  70:      Singlet-A"    15.1869 eV   81.64 nm  f=0.0005  <S**2>=0.000
       9 -> 25         0.28612
      10 -> 27         0.61687

 Excited State  71:      Singlet-A'    15.3292 eV   80.88 nm  f=0.2429  <S**2>=0.000
       7 -> 16        -0.14377
       8 -> 18         0.32180
       9 -> 22        -0.11355
      10 -> 26         0.37288
      11 -> 27        -0.17891
      12 -> 32        -0.15294
      12 -> 33         0.34029

 Excited State  72:      Singlet-A"    15.3753 eV   80.64 nm  f=0.0700  <S**2>=0.000
       9 -> 24        -0.12697
       9 -> 25         0.59847
      10 -> 27        -0.26831
      11 -> 29         0.11450

 Excited State  73:      Singlet-A'    15.5491 eV   79.74 nm  f=0.2719  <S**2>=0.000
       7 -> 16         0.42840
       8 -> 18         0.27547
       9 -> 22        -0.10609
      11 -> 28         0.14854
      12 -> 33        -0.36986

 Excited State  74:      Singlet-A'    15.6131 eV   79.41 nm  f=0.0164  <S**2>=0.000
       6 -> 14         0.10497
       7 -> 16         0.41255
       8 -> 16        -0.11886
      10 -> 26        -0.18920
      12 -> 33         0.44252

 Excited State  75:      Singlet-A"    15.6651 eV   79.15 nm  f=0.0127  <S**2>=0.000
       8 -> 19         0.66181
      10 -> 27        -0.10035
      10 -> 28        -0.12123

 Excited State  76:      Singlet-A'    15.6720 eV   79.11 nm  f=0.0554  <S**2>=0.000
      11 -> 28         0.65386
      12 -> 33         0.14545

 Excited State  77:      Singlet-A"    15.6810 eV   79.07 nm  f=0.0014  <S**2>=0.000
       7 -> 17         0.56819
      10 -> 28         0.24061
      11 -> 29         0.29155

 Excited State  78:      Singlet-A"    15.8365 eV   78.29 nm  f=0.0081  <S**2>=0.000
      10 -> 28        -0.26714
      12 -> 34         0.62377

 Excited State  79:      Singlet-A'    15.9020 eV   77.97 nm  f=0.1616  <S**2>=0.000
       8 -> 20        -0.21132
       9 -> 26         0.65117

 Excited State  80:      Singlet-A"    15.9216 eV   77.87 nm  f=0.0659  <S**2>=0.000
       6 -> 13         0.11024
       7 -> 17        -0.25232
       9 -> 27        -0.31357
      10 -> 28         0.43555
      12 -> 34         0.30516

 Excited State  81:      Singlet-A'    15.9577 eV   77.70 nm  f=0.1362  <S**2>=0.000
       8 -> 20         0.63558
       9 -> 26         0.16443
      10 -> 29         0.16083

 Excited State  82:      Singlet-A"    16.0336 eV   77.33 nm  f=0.0003  <S**2>=0.000
       7 -> 17        -0.25744
       9 -> 27         0.50810
      10 -> 28         0.10322
      11 -> 29         0.38456

 Excited State  83:      Singlet-A"    16.1642 eV   76.70 nm  f=0.2099  <S**2>=0.000
       6 -> 13        -0.26152
       7 -> 17        -0.10635
       9 -> 27        -0.31597
       9 -> 28         0.15026
      10 -> 28        -0.24825
      11 -> 29         0.44288

 Excited State  84:      Singlet-A"    16.3548 eV   75.81 nm  f=0.0086  <S**2>=0.000
       6 -> 13         0.59028
       8 -> 21        -0.10529
       9 -> 28         0.10134
      10 -> 28        -0.14170
      11 -> 29         0.11036
      11 -> 31        -0.15165
      12 -> 35        -0.16584
      12 -> 36         0.11094

 Excited State  85:      Singlet-A"    16.4320 eV   75.45 nm  f=0.0022  <S**2>=0.000
       6 -> 13         0.12186
      12 -> 35         0.57450
      12 -> 36        -0.31085

 Excited State  86:      Singlet-A'    16.5450 eV   74.94 nm  f=0.0453  <S**2>=0.000
       7 -> 18         0.53303
      10 -> 29         0.27955
      12 -> 37         0.29891

 Excited State  87:      Singlet-A'    16.5687 eV   74.83 nm  f=0.0266  <S**2>=0.000
       7 -> 18         0.20196
      10 -> 29        -0.13201
      11 -> 30         0.56743
      12 -> 37        -0.30977

 Excited State  88:      Singlet-A"    16.6211 eV   74.59 nm  f=0.0017  <S**2>=0.000
       8 -> 21        -0.17608
      12 -> 35         0.33590
      12 -> 36         0.58526

 Excited State  89:      Singlet-A'    16.6316 eV   74.55 nm  f=0.1732  <S**2>=0.000
       7 -> 18        -0.34231
       7 -> 20         0.10919
       8 -> 20        -0.10340
      10 -> 29         0.47902
      11 -> 30         0.29106

 Excited State  90:      Singlet-A"    16.6995 eV   74.24 nm  f=0.0252  <S**2>=0.000
       8 -> 21         0.61006
       9 -> 28         0.17088
      11 -> 31        -0.19025
      12 -> 36         0.14447

 Excited State  91:      Singlet-A"    16.7568 eV   73.99 nm  f=0.0325  <S**2>=0.000
       8 -> 21        -0.13034
       9 -> 27         0.12237
       9 -> 28         0.63968
      11 -> 31         0.11704

 Excited State  92:      Singlet-A'    16.7579 eV   73.99 nm  f=0.0832  <S**2>=0.000
       7 -> 18        -0.14985
       8 -> 23        -0.12148
      10 -> 29        -0.26012
      11 -> 30         0.26401
      12 -> 37         0.51340

 Excited State  93:      Singlet-A"    16.9151 eV   73.30 nm  f=0.0062  <S**2>=0.000
       6 -> 15         0.44354
       7 -> 19         0.24377
       8 -> 21         0.13021
       8 -> 22        -0.29597
      10 -> 30         0.34516

 Excited State  94:      Singlet-A"    16.9689 eV   73.07 nm  f=0.0052  <S**2>=0.000
       6 -> 15        -0.20550
       7 -> 19        -0.41433
      10 -> 30         0.44614
      11 -> 31         0.26218

 Excited State  95:      Singlet-A"    16.9970 eV   72.94 nm  f=0.0007  <S**2>=0.000
       6 -> 15         0.24932
       8 -> 21         0.14030
       8 -> 22         0.49545
      11 -> 31         0.36664

 Excited State  96:      Singlet-A'    17.0395 eV   72.76 nm  f=0.0019  <S**2>=0.000
       6 -> 14         0.10979
       8 -> 23         0.16416
      12 -> 38         0.65867
      12 -> 39        -0.12002

 Excited State  97:      Singlet-A"    17.0444 eV   72.74 nm  f=0.0332  <S**2>=0.000
       6 -> 15        -0.32812
       7 -> 19         0.41888
       8 -> 22         0.25205
      10 -> 30         0.34442
      11 -> 31        -0.11047

 Excited State  98:      Singlet-A'    17.0498 eV   72.72 nm  f=0.0200  <S**2>=0.000
       8 -> 23         0.65082
      10 -> 31        -0.14931
      12 -> 38        -0.14915

 Excited State  99:      Singlet-A'    17.1362 eV   72.35 nm  f=0.0175  <S**2>=0.000
       6 -> 14         0.50052
       7 -> 20        -0.12082
       8 -> 24         0.10656
      11 -> 32        -0.40109
      12 -> 38        -0.12069

 Excited State 100:      Singlet-A'    17.1406 eV   72.33 nm  f=0.0407  <S**2>=0.000
       7 -> 20        -0.11080
       9 -> 29         0.65397
      12 -> 39        -0.15202

 Excited State 101:      Singlet-A'    17.2423 eV   71.91 nm  f=0.0613  <S**2>=0.000
       5 -> 13        -0.14557
       6 -> 14        -0.11438
       7 -> 20        -0.36572
       9 -> 29        -0.10223
      10 -> 31         0.51676
      11 -> 32         0.14465

 Excited State 102:      Singlet-A'    17.2649 eV   71.81 nm  f=0.0173  <S**2>=0.000
       6 -> 14         0.30567
       7 -> 20         0.24608
       8 -> 24        -0.12450
       9 -> 29        -0.12811
      10 -> 31         0.11631
      11 -> 32         0.42090
      12 -> 39        -0.28678

 Excited State 103:      Singlet-A"    17.2764 eV   71.76 nm  f=0.0167  <S**2>=0.000
      10 -> 32        -0.19189
      12 -> 40         0.65676

 Excited State 104:      Singlet-A'    17.3107 eV   71.62 nm  f=0.0154  <S**2>=0.000
       6 -> 14         0.21604
       7 -> 20         0.10865
       8 -> 24         0.24102
      11 -> 32         0.22817
      12 -> 39         0.53781

 Excited State 105:      Singlet-A"    17.3198 eV   71.59 nm  f=0.0209  <S**2>=0.000
       6 -> 13         0.11247
       6 -> 15        -0.22262
       7 -> 19         0.20993
       7 -> 21        -0.16600
       8 -> 22        -0.18968
      10 -> 28        -0.10849
      10 -> 30        -0.11792
      10 -> 32         0.30133
      11 -> 31         0.33023
      12 -> 40         0.17555

 Excited State 106:      Singlet-A'    17.3952 eV   71.27 nm  f=0.0057  <S**2>=0.000
       5 -> 13         0.52750

 The electronic state is 1-A'.
 Alpha  occ. eigenvalues --  -14.32738 -10.21607 -10.21583  -0.95799  -0.65599
 Alpha  occ. eigenvalues --   -0.61408  -0.52734  -0.47590  -0.37998  -0.35414
 Alpha  occ. eigenvalues --   -0.34235  -0.25703
 Alpha virt. eigenvalues --    0.02170   0.04694   0.04929   0.07919   0.10778
 Alpha virt. eigenvalues --    0.11751   0.13662   0.15087   0.17984   0.18720
 Alpha virt. eigenvalues --    0.19034   0.20347   0.22212   0.24273   0.25252

 Mulliken charges:
               1
     1  C    0.792861
     2  C    0.792861
     3  N   -0.343033
     4  H   -0.335690
     5  H   -0.256479
     6  H   -0.256479
     7  H   -0.335690
     8  H   -0.058353
 Sum of Mulliken charges =  -0.00000

 Dipole moment (field-independent basis, Debye):
    X=             -1.3016    Y=             -1.0715    Z=              0.0000  Tot=              1.6859
 Quadrupole moment (field-independent basis, Debye-Ang):
   XX=            -17.9627   YY=            -21.4161   ZZ=            -18.8456
   XY=             -2.1338   XZ=              0.0000   YZ=              0.0000

 Normal termination of Gaussian 16 at Mon Mar 21 04:03:05 2022.
