 Gaussian 16, Revision C.01,
 Gaussian 16:  EM64L-G16RevC.01  3-Jul-2019

 ---------------------------------------------------------------------
 #P TD(Nstates=10000) b3lyp/Gen SCF(maxcycles=100) Int(Grid=ultrafine)
 ---------------------------------------------------------------------

 ---------------------
 xGDB7_00001_tier4.com
 ---------------------
 Symbolic Z-matrix:
 Charge =  0 Multiplicity = 1

                         Standard orientation:
 ---------------------------------------------------------------------
 Center     Atomic      Atomic             Coordinates (Angstroms)
 Number     Number       Type             X           Y           Z
 ---------------------------------------------------------------------
      1          6           0        0.000000    1.163894   -0.193136
      2          8           0       -0.000000   -0.000000    0.585449
      3          6           0       -0.000000   -1.163894   -0.193136
      4          1           0        0.000000    2.015478    0.485827
      5          1           0       -0.890390    1.219204   -0.834404
      6          1           0        0.890390    1.219204   -0.834404
      7          1           0       -0.000000   -2.015478    0.485827
      8          1           0        0.890390   -1.219204   -0.834404
      9          1           0       -0.890390   -1.219204   -0.834404
 ---------------------------------------------------------------------

 SCF Done:  E(RB3LYP) =  -154.924030152     A.U. after   11 cycles

 Excitation energies and oscillator strengths:

 Excited State   1:      Singlet-B1     6.7226 eV  184.43 nm  f=0.0293  <S**2>=0.000
      13 -> 14         0.70289
 This state for optimization and/or second-order correction.
 Total Energy, E(TD-HF/TD-DFT) =  -154.676980356
 Copying the excited state density for this state as the 1-particle RhoCI density.

 Excited State   2:      Singlet-A2     7.5805 eV  163.56 nm  f=0.0000  <S**2>=0.000
      13 -> 15         0.70594

 Excited State   3:      Singlet-B1     7.8426 eV  158.09 nm  f=0.0195  <S**2>=0.000
      13 -> 16         0.69742

 Excited State   4:      Singlet-A1     8.3531 eV  148.43 nm  f=0.0128  <S**2>=0.000
      12 -> 14         0.38646
      13 -> 17         0.58900

 Excited State   5:      Singlet-B1     8.3931 eV  147.72 nm  f=0.0258  <S**2>=0.000
      13 -> 18         0.69983

 Excited State   6:      Singlet-A1     8.4804 eV  146.20 nm  f=0.0628  <S**2>=0.000
      12 -> 14         0.57970
      13 -> 17        -0.38466

 Excited State   7:      Singlet-A2     9.0654 eV  136.77 nm  f=0.0000  <S**2>=0.000
      13 -> 19         0.70382

 Excited State   8:      Singlet-B2     9.2436 eV  134.13 nm  f=0.0020  <S**2>=0.000
      11 -> 14        -0.11270
      12 -> 15         0.69666

 Excited State   9:      Singlet-A1     9.4462 eV  131.25 nm  f=0.0370  <S**2>=0.000
      12 -> 16         0.65568
      13 -> 20         0.24723

 Excited State  10:      Singlet-B1     9.4532 eV  131.16 nm  f=0.0022  <S**2>=0.000
      13 -> 21         0.70426

 Excited State  11:      Singlet-A1     9.7106 eV  127.68 nm  f=0.0595  <S**2>=0.000
      12 -> 16        -0.23538
      13 -> 20         0.65076

 Excited State  12:      Singlet-B2     9.8391 eV  126.01 nm  f=0.0654  <S**2>=0.000
      11 -> 14         0.16295
      13 -> 22         0.68479

 Excited State  13:      Singlet-B2     9.9593 eV  124.49 nm  f=0.0995  <S**2>=0.000
      11 -> 14         0.67316
      12 -> 15         0.11063
      13 -> 22        -0.16255

 Excited State  14:      Singlet-B1    10.0271 eV  123.65 nm  f=0.0569  <S**2>=0.000
      12 -> 17         0.70535

 Excited State  15:      Singlet-A1    10.1240 eV  122.47 nm  f=0.0099  <S**2>=0.000
      12 -> 18         0.70179

 Excited State  16:      Singlet-A2    10.3422 eV  119.88 nm  f=0.0000  <S**2>=0.000
      10 -> 14         0.69466

 Excited State  17:      Singlet-B1    10.5951 eV  117.02 nm  f=0.0022  <S**2>=0.000
      13 -> 23         0.70307

 Excited State  18:      Singlet-A2    10.6329 eV  116.60 nm  f=0.0000  <S**2>=0.000
      13 -> 24         0.69247

 Excited State  19:      Singlet-B2    10.7118 eV  115.75 nm  f=0.0668  <S**2>=0.000
      11 -> 16         0.16044
      12 -> 19         0.68195

 Excited State  20:      Singlet-A1    10.8101 eV  114.69 nm  f=0.0308  <S**2>=0.000
      11 -> 15         0.69940

 Excited State  21:      Singlet-B2    10.8909 eV  113.84 nm  f=0.0047  <S**2>=0.000
      11 -> 16         0.13503
      13 -> 25         0.69141

 Excited State  22:      Singlet-B1    11.1023 eV  111.67 nm  f=0.0043  <S**2>=0.000
      10 -> 15         0.11954
      12 -> 20         0.69384

 Excited State  23:      Singlet-B2    11.1218 eV  111.48 nm  f=0.0787  <S**2>=0.000
      11 -> 16         0.64248
      11 -> 18         0.16604
      12 -> 19        -0.17178
      13 -> 25        -0.12467

 Excited State  24:      Singlet-B1    11.2443 eV  110.26 nm  f=0.1058  <S**2>=0.000
      10 -> 15         0.69193
      12 -> 20        -0.11975

 Excited State  25:      Singlet-A1    11.2462 eV  110.25 nm  f=0.0512  <S**2>=0.000
      12 -> 21         0.70021

 Excited State  26:      Singlet-A2    11.3765 eV  108.98 nm  f=0.0000  <S**2>=0.000
      11 -> 17        -0.37427
      12 -> 22         0.58729

 Excited State  27:      Singlet-A2    11.5191 eV  107.63 nm  f=0.0000  <S**2>=0.000
      10 -> 16         0.62221
      11 -> 17        -0.27737

 Excited State  28:      Singlet-A2    11.5985 eV  106.90 nm  f=0.0000  <S**2>=0.000
      13 -> 26         0.68228

 Excited State  29:      Singlet-A2    11.6303 eV  106.60 nm  f=0.0000  <S**2>=0.000
      10 -> 16         0.27937
      11 -> 17         0.52667
      12 -> 22         0.37370

 Excited State  30:      Singlet-B2    11.6803 eV  106.15 nm  f=0.1580  <S**2>=0.000
      10 -> 17         0.15617
      11 -> 16        -0.15793
      11 -> 18         0.66431

 Excited State  31:      Singlet-A1    11.8200 eV  104.89 nm  f=0.0092  <S**2>=0.000
      12 -> 23         0.22083
      13 -> 27         0.65954

 Excited State  32:      Singlet-A2    12.0753 eV  102.68 nm  f=0.0000  <S**2>=0.000
      10 -> 18         0.68023

 Excited State  33:      Singlet-B2    12.1818 eV  101.78 nm  f=0.0072  <S**2>=0.000
       7 -> 14         0.11013
      10 -> 17         0.64031
      11 -> 18        -0.14205
      12 -> 24         0.18922

 Excited State  34:      Singlet-B2    12.3267 eV  100.58 nm  f=0.0181  <S**2>=0.000
      10 -> 17        -0.17774
      12 -> 24         0.67390

 Excited State  35:      Singlet-A2    12.4434 eV   99.64 nm  f=0.0000  <S**2>=0.000
      10 -> 21        -0.18193
      11 -> 20        -0.21396
      12 -> 25         0.60924
      13 -> 28        -0.18745

 Excited State  36:      Singlet-A1    12.4886 eV   99.28 nm  f=0.0629  <S**2>=0.000
      11 -> 19         0.64391
      12 -> 23        -0.24663

 Excited State  37:      Singlet-A1    12.5115 eV   99.10 nm  f=0.0008  <S**2>=0.000
       8 -> 14         0.45546
      11 -> 19         0.21709
      12 -> 23         0.44831
      13 -> 27        -0.14592

 Excited State  38:      Singlet-B1    12.5520 eV   98.78 nm  f=0.0902  <S**2>=0.000
       9 -> 14         0.69180
      10 -> 19        -0.10308

 Excited State  39:      Singlet-A1    12.6276 eV   98.19 nm  f=0.0875  <S**2>=0.000
       8 -> 14         0.52296
      12 -> 23        -0.40039
      13 -> 27         0.14311

 Excited State  40:      Singlet-A2    12.6650 eV   97.90 nm  f=0.0000  <S**2>=0.000
      11 -> 20         0.19920
      12 -> 25         0.27800
      13 -> 26         0.10318
      13 -> 28         0.58645

 Excited State  41:      Singlet-A2    12.7448 eV   97.28 nm  f=0.0000  <S**2>=0.000
      10 -> 21         0.10547
      11 -> 20         0.60822
      12 -> 25         0.16593
      13 -> 28        -0.27587

 Excited State  42:      Singlet-B1    12.7546 eV   97.21 nm  f=0.0134  <S**2>=0.000
       9 -> 14         0.10236
      10 -> 19         0.68388

 Excited State  43:      Singlet-B2    12.7711 eV   97.08 nm  f=0.0006  <S**2>=0.000
       7 -> 14         0.29618
      10 -> 20        -0.13436
      11 -> 21         0.60688

 Excited State  44:      Singlet-B2    12.8641 eV   96.38 nm  f=0.0035  <S**2>=0.000
       7 -> 14         0.61479
      11 -> 21        -0.32064

 Excited State  45:      Singlet-B1    12.8977 eV   96.13 nm  f=0.0019  <S**2>=0.000
       8 -> 17         0.10118
      11 -> 22         0.67491
      12 -> 27         0.13719

 Excited State  46:      Singlet-A2    13.2028 eV   93.91 nm  f=0.0000  <S**2>=0.000
       9 -> 15        -0.11217
      10 -> 21         0.64955
      11 -> 20        -0.18198

 Excited State  47:      Singlet-B1    13.2227 eV   93.77 nm  f=0.0080  <S**2>=0.000
      12 -> 27        -0.11413
      13 -> 29         0.65317
      13 -> 30        -0.19529

 Excited State  48:      Singlet-B2    13.2448 eV   93.61 nm  f=0.0039  <S**2>=0.000
      10 -> 20         0.65317
      12 -> 26         0.18742

 Excited State  49:      Singlet-B2    13.3628 eV   92.78 nm  f=0.1295  <S**2>=0.000
       8 -> 15        -0.25784
      10 -> 20        -0.12938
      12 -> 26         0.62033

 Excited State  50:      Singlet-A2    13.3857 eV   92.62 nm  f=0.0000  <S**2>=0.000
       9 -> 15         0.68886
      10 -> 21         0.10913

 Excited State  51:      Singlet-B1    13.3879 eV   92.61 nm  f=0.0069  <S**2>=0.000
      11 -> 22        -0.14804
      12 -> 27         0.67423

 Excited State  52:      Singlet-B2    13.4507 eV   92.18 nm  f=0.0224  <S**2>=0.000
       7 -> 16         0.11039
       8 -> 15         0.63993
      10 -> 20        -0.12122
      12 -> 26         0.21573

 Excited State  53:      Singlet-A1    13.5638 eV   91.41 nm  f=0.0045  <S**2>=0.000
       7 -> 15         0.39257
       8 -> 18         0.11408
      10 -> 22         0.53572
      11 -> 24        -0.16993

 Excited State  54:      Singlet-A1    13.6088 eV   91.11 nm  f=0.0056  <S**2>=0.000
       7 -> 15         0.45873
       8 -> 16        -0.32169
       8 -> 18        -0.18870
      10 -> 22        -0.15522
      11 -> 24         0.34071

 Excited State  55:      Singlet-B1    13.6805 eV   90.63 nm  f=0.0010  <S**2>=0.000
       9 -> 16         0.63524
      13 -> 29        -0.11132
      13 -> 30        -0.21042

 Excited State  56:      Singlet-A1    13.7806 eV   89.97 nm  f=0.0736  <S**2>=0.000
       7 -> 15         0.26987
       8 -> 16         0.57720
      10 -> 22        -0.21963

 Excited State  57:      Singlet-B1    13.7920 eV   89.90 nm  f=0.0324  <S**2>=0.000
       9 -> 16         0.19086
      11 -> 25        -0.25152
      13 -> 29         0.15893
      13 -> 30         0.60006

 Excited State  58:      Singlet-B1    13.9625 eV   88.80 nm  f=0.0191  <S**2>=0.000
       8 -> 17         0.10207
       9 -> 16         0.19656
       9 -> 18        -0.26143
      10 -> 24         0.23298
      11 -> 25         0.53488
      13 -> 30         0.12256

 Excited State  59:      Singlet-B2    13.9922 eV   88.61 nm  f=0.0168  <S**2>=0.000
       7 -> 16         0.52808
      11 -> 23        -0.43280

 Excited State  60:      Singlet-A1    14.0354 eV   88.34 nm  f=0.0045  <S**2>=0.000
       7 -> 15        -0.12676
       8 -> 16         0.14455
       9 -> 17        -0.35240
      10 -> 22         0.24214
      11 -> 24         0.50101

 Excited State  61:      Singlet-B2    14.0478 eV   88.26 nm  f=0.3513  <S**2>=0.000
       7 -> 16         0.41939
      11 -> 23         0.54043
      12 -> 28        -0.10672

 Excited State  62:      Singlet-A2    14.1742 eV   87.47 nm  f=0.0000  <S**2>=0.000
      10 -> 23         0.21881
      13 -> 31         0.64652

 Excited State  63:      Singlet-B1    14.1815 eV   87.43 nm  f=0.0037  <S**2>=0.000
       8 -> 17         0.68343
      11 -> 22        -0.10455

 Excited State  64:      Singlet-A1    14.2299 eV   87.13 nm  f=0.0136  <S**2>=0.000
       8 -> 18         0.47439
       9 -> 17         0.45205
      11 -> 24         0.24611

 Excited State  65:      Singlet-B1    14.2701 eV   86.88 nm  f=0.0673  <S**2>=0.000
       9 -> 18         0.50002
      11 -> 25         0.18218
      13 -> 33         0.44280

 Excited State  66:      Singlet-A1    14.2909 eV   86.76 nm  f=0.0693  <S**2>=0.000
      10 -> 25        -0.10499
      13 -> 32         0.68413

 Excited State  67:      Singlet-A2    14.3350 eV   86.49 nm  f=0.0000  <S**2>=0.000
       7 -> 17         0.69792

 Excited State  68:      Singlet-B1    14.3757 eV   86.25 nm  f=0.0103  <S**2>=0.000
       9 -> 18        -0.37915
      10 -> 24        -0.21036
      11 -> 25        -0.12216
      13 -> 33         0.52146

 Excited State  69:      Singlet-A2    14.3862 eV   86.18 nm  f=0.0000  <S**2>=0.000
       9 -> 19        -0.13006
      10 -> 23         0.64532
      13 -> 31        -0.22859

 Excited State  70:      Singlet-B2    14.4118 eV   86.03 nm  f=0.0007  <S**2>=0.000
       7 -> 18         0.57426
      12 -> 28        -0.38336

 Excited State  71:      Singlet-B1    14.5320 eV   85.32 nm  f=0.1666  <S**2>=0.000
       9 -> 21        -0.10729
      10 -> 24         0.51807
      11 -> 25        -0.20551
      13 -> 30        -0.10846
      13 -> 33         0.11190
      13 -> 34         0.35853

 Excited State  72:      Singlet-A1    14.5578 eV   85.17 nm  f=0.0006  <S**2>=0.000
       7 -> 15         0.13084
       7 -> 19        -0.13676
       8 -> 18         0.36899
       8 -> 21        -0.11384
       9 -> 17        -0.32761
      10 -> 22        -0.13695
      10 -> 25         0.20758
      11 -> 26         0.29389

 Excited State  73:      Singlet-B1    14.6558 eV   84.60 nm  f=0.0901  <S**2>=0.000
       9 -> 21         0.10591
      10 -> 24        -0.29575
      11 -> 25         0.13140
      13 -> 34         0.59962

 Excited State  74:      Singlet-B2    14.6818 eV   84.45 nm  f=0.2674  <S**2>=0.000
       7 -> 18         0.35849
       8 -> 19        -0.16581
       9 -> 22         0.10128
      12 -> 28         0.53616

 Excited State  75:      Singlet-A1    14.6897 eV   84.40 nm  f=0.0938  <S**2>=0.000
       7 -> 19         0.13433
       8 -> 16         0.12928
       8 -> 18        -0.14330
       8 -> 21        -0.13805
       9 -> 17         0.12110
      10 -> 25         0.59709
      12 -> 29        -0.11129

 Excited State  76:      Singlet-A1    14.8559 eV   83.46 nm  f=0.0905  <S**2>=0.000
       7 -> 19        -0.11997
      10 -> 25         0.15087
      11 -> 26        -0.41265
      11 -> 28         0.10585
      12 -> 29         0.46827
      12 -> 30        -0.13681

 Excited State  77:      Singlet-A2    14.9053 eV   83.18 nm  f=0.0000  <S**2>=0.000
       8 -> 22        -0.14357
       9 -> 19        -0.28737
      11 -> 27         0.62329

 Excited State  78:      Singlet-A2    14.9289 eV   83.05 nm  f=0.0000  <S**2>=0.000
       9 -> 19         0.62170
      10 -> 23         0.15536
      11 -> 27         0.28053

 Excited State  79:      Singlet-A1    14.9993 eV   82.66 nm  f=0.0089  <S**2>=0.000
       7 -> 19         0.20877
       8 -> 18        -0.14572
       9 -> 17         0.11280
       9 -> 20         0.17833
      10 -> 25        -0.11994
      11 -> 26         0.40556
      12 -> 29         0.43311

 Excited State  80:      Singlet-B2    15.0362 eV   82.46 nm  f=0.0002  <S**2>=0.000
       7 -> 18         0.10515
       8 -> 19         0.64792
       9 -> 22         0.17098

 Excited State  81:      Singlet-B1    15.1746 eV   81.70 nm  f=0.0358  <S**2>=0.000
       8 -> 20         0.39547
       9 -> 21         0.48923
      10 -> 26        -0.21590
      11 -> 25        -0.11776
      13 -> 36         0.16359

 Excited State  82:      Singlet-A1    15.2317 eV   81.40 nm  f=0.0488  <S**2>=0.000
       7 -> 19         0.53878
       8 -> 18         0.11092
       9 -> 20         0.21782
      11 -> 26        -0.18205
      12 -> 29        -0.11934
      13 -> 35         0.19697
      13 -> 38         0.14695

 Excited State  83:      Singlet-B1    15.3449 eV   80.80 nm  f=0.0389  <S**2>=0.000
       8 -> 20        -0.29625
       9 -> 21         0.10170
      10 -> 26         0.14072
      13 -> 36         0.61205

 Excited State  84:      Singlet-A1    15.3925 eV   80.55 nm  f=0.0006  <S**2>=0.000
       7 -> 19        -0.15455
       8 -> 21        -0.34889
       9 -> 20         0.47555
      11 -> 26        -0.10401
      12 -> 29        -0.10607
      13 -> 35        -0.28368

 Excited State  85:      Singlet-B1    15.3965 eV   80.53 nm  f=0.0002  <S**2>=0.000
       9 -> 21         0.34498
      10 -> 26         0.56017
      13 -> 36        -0.21359

 Excited State  86:      Singlet-B2    15.4000 eV   80.51 nm  f=0.2466  <S**2>=0.000
       8 -> 19         0.12113
       9 -> 22        -0.15833
      10 -> 27         0.65823

 Excited State  87:      Singlet-A1    15.4162 eV   80.42 nm  f=0.0042  <S**2>=0.000
       8 -> 21        -0.26821
       9 -> 20        -0.19302
      11 -> 26        -0.10650
      12 -> 29         0.15741
      12 -> 30         0.55864
      13 -> 35        -0.14588

 Excited State  88:      Singlet-B2    15.4404 eV   80.30 nm  f=0.0443  <S**2>=0.000
       7 -> 21         0.64101
       9 -> 22         0.21269
      13 -> 37         0.18868

 Excited State  89:      Singlet-A2    15.4539 eV   80.23 nm  f=0.0000  <S**2>=0.000
       7 -> 20         0.69489

 Excited State  90:      Singlet-B1    15.5074 eV   79.95 nm  f=0.1841  <S**2>=0.000
       7 -> 22         0.27260
       8 -> 20         0.45004
       9 -> 21        -0.23789
      10 -> 26         0.29284
      13 -> 36         0.19547

 Excited State  91:      Singlet-A1    15.5265 eV   79.85 nm  f=0.0022  <S**2>=0.000
       7 -> 19        -0.23236
       9 -> 20         0.22875
      12 -> 30         0.27697
      12 -> 33        -0.12450
      13 -> 35         0.51361

 Excited State  92:      Singlet-A1    15.5638 eV   79.66 nm  f=0.0970  <S**2>=0.000
       8 -> 21         0.43567
       9 -> 20         0.24933
      12 -> 30         0.24345
      13 -> 35        -0.26028
      13 -> 38         0.32104

 Excited State  93:      Singlet-A2    15.6135 eV   79.41 nm  f=0.0000  <S**2>=0.000
       8 -> 22         0.67817
      11 -> 27         0.15671

 Excited State  94:      Singlet-B2    15.7188 eV   78.88 nm  f=0.1217  <S**2>=0.000
       7 -> 21        -0.18270
      12 -> 31        -0.34982
      13 -> 37         0.55044

 Excited State  95:      Singlet-B2    15.7709 eV   78.62 nm  f=0.0004  <S**2>=0.000
       7 -> 21        -0.10179
       9 -> 22         0.55412
      10 -> 27         0.21128
      12 -> 31        -0.18279
      13 -> 37        -0.25754

 Excited State  96:      Singlet-B1    15.8190 eV   78.38 nm  f=0.2605  <S**2>=0.000
       7 -> 22         0.61724
       8 -> 20        -0.15220
      12 -> 32         0.23296

 Excited State  97:      Singlet-A1    15.8554 eV   78.20 nm  f=0.0402  <S**2>=0.000
       8 -> 21        -0.20279
       9 -> 20        -0.11593
      11 -> 28        -0.13833
      12 -> 30        -0.13160
      12 -> 33        -0.28792
      13 -> 38         0.53609

 Excited State  98:      Singlet-B2    15.9567 eV   77.70 nm  f=0.0170  <S**2>=0.000
       7 -> 21        -0.14202
       8 -> 24        -0.10755
       9 -> 22         0.20656
      11 -> 29        -0.17933
      12 -> 31         0.55214
      13 -> 37         0.24134

 Excited State  99:      Singlet-B1    15.9865 eV   77.56 nm  f=0.1476  <S**2>=0.000
       7 -> 22        -0.16957
       9 -> 21        -0.11167
      12 -> 32         0.64939

 Excited State 100:      Singlet-A2    16.0166 eV   77.41 nm  f=0.0000  <S**2>=0.000
      13 -> 39         0.69021

 Excited State 101:      Singlet-A1    16.1157 eV   76.93 nm  f=0.0822  <S**2>=0.000
      11 -> 28        -0.19222
      12 -> 33         0.59511
      12 -> 34         0.11426
      13 -> 38         0.18407

 Excited State 102:      Singlet-A1    16.2777 eV   76.17 nm  f=0.0070  <S**2>=0.000
       6 -> 14         0.10409
      11 -> 28         0.10820
      12 -> 34         0.66837

 Excited State 103:      Singlet-A1    16.3775 eV   75.70 nm  f=0.1921  <S**2>=0.000
       8 -> 21        -0.11123
       8 -> 23         0.35116
      11 -> 28         0.54176
      13 -> 38         0.11370

 Excited State 104:      Singlet-B2    16.3944 eV   75.63 nm  f=0.0123  <S**2>=0.000
       9 -> 25         0.15535
      13 -> 40         0.67161

 Excited State 105:      Singlet-A2    16.4083 eV   75.56 nm  f=0.0000  <S**2>=0.000
       8 -> 25         0.13423
       9 -> 24         0.57633
      13 -> 39        -0.11597
      13 -> 41        -0.34842

 Excited State 106:      Singlet-B1    16.4285 eV   75.47 nm  f=0.0053  <S**2>=0.000
       9 -> 21         0.10248
       9 -> 23        -0.46315
      10 -> 28         0.50906

 Excited State 107:      Singlet-B2    16.4645 eV   75.30 nm  f=0.0822  <S**2>=0.000
       7 -> 23        -0.11135
       8 -> 24         0.65933
      11 -> 29        -0.14696

 Excited State 108:      Singlet-B1    16.5471 eV   74.93 nm  f=0.0104  <S**2>=0.000
       9 -> 23         0.51222
      10 -> 28         0.46985

 Excited State 109:      Singlet-A2    16.5654 eV   74.85 nm  f=0.0000  <S**2>=0.000
       8 -> 25         0.50902
       9 -> 24         0.15715
      10 -> 29        -0.10862
      13 -> 41         0.42775

 Excited State 110:      Singlet-A1    16.6257 eV   74.57 nm  f=0.1645  <S**2>=0.000
       6 -> 14        -0.11743
       7 -> 24        -0.12426
       7 -> 26         0.10858
       8 -> 23         0.56915
       9 -> 27         0.10825
      11 -> 28        -0.25639

 Excited State 111:      Singlet-B2    16.6815 eV   74.32 nm  f=0.1415  <S**2>=0.000
       7 -> 23         0.52437
       9 -> 25         0.12814
      11 -> 29        -0.39795
      12 -> 31        -0.10391

 Excited State 112:      Singlet-B2    16.7002 eV   74.24 nm  f=0.0252  <S**2>=0.000
       7 -> 23         0.36034
       8 -> 24         0.14153
       9 -> 25         0.29243
      11 -> 29         0.45965

 Excited State 113:      Singlet-A2    16.7576 eV   73.99 nm  f=0.0000  <S**2>=0.000
       8 -> 25         0.43504
       9 -> 24        -0.34538
      12 -> 37        -0.10209
      13 -> 41        -0.39692

 Excited State 114:      Singlet-B2    16.7766 eV   73.90 nm  f=0.0271  <S**2>=0.000
       7 -> 23        -0.26022
       9 -> 25         0.59597
      11 -> 29        -0.13687
      13 -> 40        -0.14803

 Excited State 115:      Singlet-A1    16.7870 eV   73.86 nm  f=0.0044  <S**2>=0.000
       6 -> 14        -0.26841
       7 -> 24         0.62220

 Excited State 116:      Singlet-B1    16.9051 eV   73.34 nm  f=0.0364  <S**2>=0.000
       7 -> 25         0.67250
      12 -> 38         0.12958

 Excited State 117:      Singlet-A2    16.9211 eV   73.27 nm  f=0.0000  <S**2>=0.000
      10 -> 29         0.66031
      10 -> 30        -0.16541

 Excited State 118:      Singlet-A1    17.0023 eV   72.92 nm  f=0.0006  <S**2>=0.000
       6 -> 14         0.45816

 The electronic state is 1-A1.
 Alpha  occ. eigenvalues --  -19.14559 -10.23122 -10.23121  -1.03451  -0.72291
 Alpha  occ. eigenvalues --   -0.63492  -0.48765  -0.47975  -0.47901  -0.40084
 Alpha  occ. eigenvalues --   -0.38371  -0.32732  -0.26659
 Alpha virt. eigenvalues --    0.01812   0.04668   0.06525   0.07950   0.08248
 Alpha virt. eigenvalues --    0.10672   0.12297   0.12360   0.13200   0.16475
 Alpha virt. eigenvalues --    0.16606   0.17116   0.20255   0.20366   0.24979

 Mulliken charges:
               1
     1  C    0.836568
     2  O   -0.795650
     3  C    0.836568
     4  H   -0.290669
     5  H   -0.074037
     6  H   -0.074037
     7  H   -0.290669
     8  H   -0.074037
     9  H   -0.074037
 Sum of Mulliken charges =  -0.00000

 Dipole moment (field-independent basis, Debye):
    X=             -0.0000    Y=             -0.0000    Z=             -1.2982  Tot=              1.2982
 Quadrupole moment (field-independent basis, Debye-Ang):
   XX=            -20.4574   YY=            -17.7295   ZZ=            -21.6001
   XY=             -0.0000   XZ=             -0.0000   YZ=             -0.0000

 Normal termination of Gaussian 16 at Mon Mar 21 20:08:34 2022.
