 Gaussian 16, Revision C.01,
 Gaussian 16:  EM64L-G16RevC.01  3-Jul-2019

 ---------------------------------------------------------------------
 #P TD(Nstates=10000) b3lyp/Gen SCF(maxcycles=100) Int(Grid=ultrafine)
 ---------------------------------------------------------------------

 ---------------------
 xGDB7_00001_tier4.com
 ---------------------
 Symbolic Z-matrix:
 Charge =  0 Multiplicity = 1

                         Standard orientation:
 ---------------------------------------------------------------------
 Center     Atomic      Atomic             Coordinates (Angstroms)
 Number     Number       Type             X           Y           Z
 ---------------------------------------------------------------------
      1          6           0       -1.208422   -0.239069   -0.021917
      2          6           0        0.083893    0.553452    0.046734
      3          8           0        1.233467   -0.256002   -0.105864
      4          1           0       -2.071999    0.425135    0.051700
      5          1           0       -1.270670   -0.957756    0.799731
      6          1           0       -1.270625   -0.788280   -0.962327
      7          1           0        0.130030    1.119197    0.986112
      8          1           0        0.125951    1.277026   -0.768547
      9          1           0        1.236751   -0.913605    0.591341
 ---------------------------------------------------------------------

 SCF Done:  E(RB3LYP) =  -154.941975752     A.U. after   12 cycles

 Excitation energies and oscillator strengths:

 Excited State   1:      Singlet-A      6.7843 eV  182.75 nm  f=0.0111  <S**2>=0.000
      13 -> 14         0.69071
      13 -> 15        -0.13985
 This state for optimization and/or second-order correction.
 Total Energy, E(TD-HF/TD-DFT) =  -154.692655742
 Copying the excited state density for this state as the 1-particle RhoCI density.

 Excited State   2:      Singlet-A      7.8156 eV  158.64 nm  f=0.0176  <S**2>=0.000
      13 -> 14         0.13179
      13 -> 15         0.67616
      13 -> 16         0.13782

 Excited State   3:      Singlet-A      8.1828 eV  151.52 nm  f=0.0262  <S**2>=0.000
      12 -> 14         0.15433
      13 -> 15        -0.11728
      13 -> 16         0.67363

 Excited State   4:      Singlet-A      8.2540 eV  150.21 nm  f=0.0208  <S**2>=0.000
      12 -> 14         0.68132
      13 -> 16        -0.14539

 Excited State   5:      Singlet-A      8.6643 eV  143.10 nm  f=0.0519  <S**2>=0.000
      13 -> 17         0.70241

 Excited State   6:      Singlet-A      9.1535 eV  135.45 nm  f=0.0153  <S**2>=0.000
      11 -> 14        -0.12775
      12 -> 15         0.68218

 Excited State   7:      Singlet-A      9.3882 eV  132.06 nm  f=0.0222  <S**2>=0.000
      13 -> 18         0.69669

 Excited State   8:      Singlet-A      9.5255 eV  130.16 nm  f=0.0534  <S**2>=0.000
      12 -> 16         0.63490
      13 -> 19         0.28933

 Excited State   9:      Singlet-A      9.5319 eV  130.07 nm  f=0.0421  <S**2>=0.000
      10 -> 14         0.13671
      11 -> 14        -0.31014
      12 -> 16        -0.24392
      13 -> 19         0.55104

 Excited State  10:      Singlet-A      9.5729 eV  129.52 nm  f=0.0269  <S**2>=0.000
      11 -> 14         0.60374
      12 -> 15         0.12464
      12 -> 16        -0.14330
      13 -> 19         0.29713

 Excited State  11:      Singlet-A      9.7918 eV  126.62 nm  f=0.0013  <S**2>=0.000
      10 -> 14        -0.20758
      13 -> 20         0.65578
      13 -> 21        -0.10250

 Excited State  12:      Singlet-A      9.8623 eV  125.72 nm  f=0.0284  <S**2>=0.000
      10 -> 14         0.64144
      11 -> 14         0.11455
      13 -> 20         0.19175

 Excited State  13:      Singlet-A     10.0339 eV  123.57 nm  f=0.0559  <S**2>=0.000
      12 -> 17         0.69248

 Excited State  14:      Singlet-A     10.1695 eV  121.92 nm  f=0.0008  <S**2>=0.000
      13 -> 20         0.12119
      13 -> 21         0.68131

 Excited State  15:      Singlet-A     10.4240 eV  118.94 nm  f=0.0129  <S**2>=0.000
      11 -> 15         0.64699
      13 -> 22         0.23807

 Excited State  16:      Singlet-A     10.4809 eV  118.30 nm  f=0.0171  <S**2>=0.000
      11 -> 15        -0.22611
      13 -> 22         0.64819

 Excited State  17:      Singlet-A     10.6203 eV  116.74 nm  f=0.0115  <S**2>=0.000
      10 -> 15         0.32480
      13 -> 23         0.59829

 Excited State  18:      Singlet-A     10.6850 eV  116.04 nm  f=0.0289  <S**2>=0.000
      10 -> 15         0.50903
      12 -> 18        -0.35883
      13 -> 23        -0.31531

 Excited State  19:      Singlet-A     10.7295 eV  115.55 nm  f=0.0332  <S**2>=0.000
      10 -> 15         0.30852
      11 -> 16         0.33507
      12 -> 18         0.49453
      12 -> 19        -0.15829

 Excited State  20:      Singlet-A     10.7877 eV  114.93 nm  f=0.0618  <S**2>=0.000
      10 -> 15        -0.14337
      11 -> 16         0.59590
      12 -> 18        -0.31066

 Excited State  21:      Singlet-A     10.9336 eV  113.40 nm  f=0.0382  <S**2>=0.000
      10 -> 16         0.32326
      11 -> 16         0.12190
      12 -> 19         0.58499

 Excited State  22:      Singlet-A     11.0474 eV  112.23 nm  f=0.1214  <S**2>=0.000
      10 -> 16         0.60727
      12 -> 19        -0.32414

 Excited State  23:      Singlet-A     11.2181 eV  110.52 nm  f=0.0091  <S**2>=0.000
       9 -> 14         0.47160
      12 -> 20        -0.13881
      13 -> 24        -0.46190

 Excited State  24:      Singlet-A     11.2365 eV  110.34 nm  f=0.0099  <S**2>=0.000
       9 -> 14         0.39141
      12 -> 20         0.49827
      13 -> 24         0.24059
      13 -> 25        -0.11861

 Excited State  25:      Singlet-A     11.2760 eV  109.95 nm  f=0.0067  <S**2>=0.000
       9 -> 14         0.30286
      11 -> 17        -0.12019
      12 -> 20        -0.41718
      13 -> 24         0.42159
      13 -> 25         0.11718

 Excited State  26:      Singlet-A     11.3464 eV  109.27 nm  f=0.1143  <S**2>=0.000
      11 -> 17         0.67679
      13 -> 24         0.12000

 Excited State  27:      Singlet-A     11.5240 eV  107.59 nm  f=0.0099  <S**2>=0.000
      10 -> 17         0.45694
      12 -> 21        -0.24645
      13 -> 25        -0.43916

 Excited State  28:      Singlet-A     11.6005 eV  106.88 nm  f=0.0233  <S**2>=0.000
      12 -> 21         0.60587
      12 -> 22        -0.15702
      13 -> 25        -0.24312

 Excited State  29:      Singlet-A     11.6133 eV  106.76 nm  f=0.0252  <S**2>=0.000
       8 -> 14         0.13372
      10 -> 17         0.50800
      12 -> 21         0.16370
      13 -> 25         0.40339

 Excited State  30:      Singlet-A     11.7886 eV  105.17 nm  f=0.0063  <S**2>=0.000
       8 -> 14         0.52918
      10 -> 17        -0.11214
      11 -> 18        -0.11339
      12 -> 22        -0.40537

 Excited State  31:      Singlet-A     11.8401 eV  104.72 nm  f=0.0204  <S**2>=0.000
       8 -> 14         0.41469
      12 -> 21         0.11818
      12 -> 22         0.49926
      13 -> 25        -0.12173

 Excited State  32:      Singlet-A     11.9426 eV  103.82 nm  f=0.0720  <S**2>=0.000
      10 -> 18        -0.12399
      11 -> 18         0.54586
      12 -> 22        -0.17176
      12 -> 23         0.35689

 Excited State  33:      Singlet-A     12.0779 eV  102.65 nm  f=0.0117  <S**2>=0.000
      10 -> 18        -0.16164
      11 -> 18         0.10806
      11 -> 19        -0.14874
      12 -> 23        -0.29303
      13 -> 24         0.10975
      13 -> 25        -0.11348
      13 -> 26         0.44543
      13 -> 27         0.27735
      13 -> 28         0.12656

 Excited State  34:      Singlet-A     12.0829 eV  102.61 nm  f=0.0091  <S**2>=0.000
       9 -> 15        -0.36496
      11 -> 18        -0.28284
      12 -> 23         0.44053
      13 -> 26         0.23446

 Excited State  35:      Singlet-A     12.1174 eV  102.32 nm  f=0.0142  <S**2>=0.000
       9 -> 15         0.49743
      11 -> 18        -0.14414
      11 -> 19         0.20985
      11 -> 20         0.14982
      12 -> 23         0.21287
      13 -> 26         0.28532

 Excited State  36:      Singlet-A     12.1704 eV  101.87 nm  f=0.0131  <S**2>=0.000
       9 -> 15        -0.21560
      11 -> 19         0.54440
      12 -> 23        -0.11278
      13 -> 26         0.17829
      13 -> 27        -0.26577

 Excited State  37:      Singlet-A     12.2172 eV  101.48 nm  f=0.0724  <S**2>=0.000
       9 -> 15        -0.13714
      10 -> 18         0.60257
      11 -> 18         0.13911
      13 -> 27         0.22111

 Excited State  38:      Singlet-A     12.2379 eV  101.31 nm  f=0.0196  <S**2>=0.000
      10 -> 18        -0.20279
      11 -> 19         0.30389
      13 -> 26        -0.24179
      13 -> 27         0.51013

 Excited State  39:      Singlet-A     12.3960 eV  100.02 nm  f=0.0164  <S**2>=0.000
       9 -> 16        -0.26670
      10 -> 19        -0.30344
      11 -> 20         0.51141
      12 -> 24         0.16002

 Excited State  40:      Singlet-A     12.4326 eV   99.73 nm  f=0.0180  <S**2>=0.000
       9 -> 16         0.48236
      10 -> 19         0.24708
      10 -> 20         0.18910
      11 -> 20         0.35448

 Excited State  41:      Singlet-A     12.4463 eV   99.62 nm  f=0.0125  <S**2>=0.000
       9 -> 16        -0.38253
      10 -> 19         0.55572
      11 -> 20         0.12461

 Excited State  42:      Singlet-A     12.5958 eV   98.43 nm  f=0.0039  <S**2>=0.000
      13 -> 26        -0.15416
      13 -> 28         0.66174

 Excited State  43:      Singlet-A     12.6399 eV   98.09 nm  f=0.0766  <S**2>=0.000
       8 -> 15         0.38064
       9 -> 16        -0.13938
      10 -> 20         0.44736
      11 -> 20        -0.11032
      11 -> 21         0.11183
      12 -> 24        -0.21741

 Excited State  44:      Singlet-A     12.6766 eV   97.81 nm  f=0.0978  <S**2>=0.000
       8 -> 15         0.44390
      10 -> 20        -0.13039
      12 -> 24         0.48160

 Excited State  45:      Singlet-A     12.7179 eV   97.49 nm  f=0.0316  <S**2>=0.000
       8 -> 15         0.35597
      10 -> 20        -0.35328
      11 -> 20         0.13203
      11 -> 21        -0.25714
      12 -> 24        -0.33541

 Excited State  46:      Singlet-A     12.8142 eV   96.76 nm  f=0.0064  <S**2>=0.000
       7 -> 14        -0.11571
       8 -> 16         0.19941
      10 -> 20        -0.21034
      10 -> 22         0.14207
      11 -> 21         0.41444
      11 -> 22        -0.29599
      12 -> 24        -0.20144
      12 -> 25        -0.19950

 Excited State  47:      Singlet-A     12.8814 eV   96.25 nm  f=0.0035  <S**2>=0.000
       9 -> 17         0.45109
      10 -> 20         0.15591
      10 -> 21        -0.12841
      11 -> 21        -0.21849
      11 -> 22        -0.12730
      12 -> 25        -0.40124

 Excited State  48:      Singlet-A     12.9729 eV   95.57 nm  f=0.0368  <S**2>=0.000
       8 -> 16        -0.21074
       9 -> 17        -0.19779
      10 -> 21        -0.22960
      10 -> 22         0.15440
      11 -> 21         0.10867
      11 -> 22         0.42335
      12 -> 25        -0.33786

 Excited State  49:      Singlet-A     13.0122 eV   95.28 nm  f=0.0175  <S**2>=0.000
       9 -> 17        -0.30102
      10 -> 21         0.45940
      11 -> 21        -0.18654
      12 -> 25        -0.33337

 Excited State  50:      Singlet-A     13.0491 eV   95.01 nm  f=0.0250  <S**2>=0.000
       8 -> 16         0.54236
       9 -> 17        -0.16232
      10 -> 21        -0.29985
      11 -> 21        -0.24426

 Excited State  51:      Singlet-A     13.1160 eV   94.53 nm  f=0.0086  <S**2>=0.000
       7 -> 14        -0.29827
       8 -> 16         0.25253
       9 -> 17         0.29948
      10 -> 21         0.26775
      10 -> 22         0.12082
      11 -> 22         0.35609

 Excited State  52:      Singlet-A     13.2065 eV   93.88 nm  f=0.0531  <S**2>=0.000
       7 -> 14         0.56804
       9 -> 17         0.14154
      10 -> 21         0.12300
      10 -> 22         0.27602
      11 -> 22         0.11542

 Excited State  53:      Singlet-A     13.3571 eV   92.82 nm  f=0.0070  <S**2>=0.000
       8 -> 17        -0.13502
       9 -> 18        -0.19563
      10 -> 22        -0.36233
      10 -> 23        -0.17578
      11 -> 21         0.11306
      11 -> 23         0.40830
      12 -> 26        -0.13087
      13 -> 29         0.15895

 Excited State  54:      Singlet-A     13.4153 eV   92.42 nm  f=0.0398  <S**2>=0.000
       8 -> 17         0.23120
      10 -> 22         0.23975
      11 -> 22        -0.14595
      13 -> 29         0.55662

 Excited State  55:      Singlet-A     13.4754 eV   92.01 nm  f=0.0417  <S**2>=0.000
       7 -> 14        -0.13514
       8 -> 17         0.10062
       9 -> 19         0.14020
      10 -> 22         0.25288
      10 -> 23        -0.14331
      11 -> 23         0.37879
      12 -> 27        -0.27403
      13 -> 29        -0.29073

 Excited State  56:      Singlet-A     13.5063 eV   91.80 nm  f=0.0187  <S**2>=0.000
       9 -> 18         0.39057
      11 -> 23         0.22912
      11 -> 24        -0.15220
      12 -> 26         0.10188
      12 -> 27         0.44336

 Excited State  57:      Singlet-A     13.6102 eV   91.10 nm  f=0.0366  <S**2>=0.000
       8 -> 17         0.41776
       9 -> 18        -0.24630
      10 -> 23        -0.10804
      12 -> 26         0.37376
      12 -> 27         0.16148
      13 -> 29        -0.12678
      13 -> 30         0.15384

 Excited State  58:      Singlet-A     13.6557 eV   90.79 nm  f=0.0364  <S**2>=0.000
       8 -> 17        -0.20783
       9 -> 18         0.16016
      10 -> 23         0.13658
      12 -> 26         0.47290
      12 -> 27        -0.30401
      13 -> 29         0.12247
      13 -> 30         0.14127

 Excited State  59:      Singlet-A     13.6912 eV   90.56 nm  f=0.0251  <S**2>=0.000
       9 -> 18        -0.18867
       9 -> 19         0.15968
      10 -> 23         0.53232
      11 -> 23         0.22607
      12 -> 26        -0.10460
      12 -> 27         0.18273

 Excited State  60:      Singlet-A     13.7528 eV   90.15 nm  f=0.0320  <S**2>=0.000
       8 -> 17         0.20904
       9 -> 18         0.22623
       9 -> 19        -0.26301
      10 -> 23         0.17308
      11 -> 24        -0.17448
      12 -> 26        -0.16481
      12 -> 27        -0.16405
      13 -> 30         0.41312

 Excited State  61:      Singlet-A     13.8251 eV   89.68 nm  f=0.0034  <S**2>=0.000
       7 -> 15        -0.17649
       8 -> 17        -0.24556
       8 -> 18        -0.11340
       9 -> 18        -0.18233
       9 -> 19         0.16760
      10 -> 22         0.16101
      10 -> 23        -0.18556
      13 -> 30         0.45454

 Excited State  62:      Singlet-A     13.9276 eV   89.02 nm  f=0.0339  <S**2>=0.000
       7 -> 15        -0.10084
       8 -> 18        -0.12909
       9 -> 19        -0.24313
       9 -> 20        -0.17225
      10 -> 24         0.14889
      11 -> 24         0.47052
      11 -> 25        -0.23900
      12 -> 28         0.13409

 Excited State  63:      Singlet-A     14.0001 eV   88.56 nm  f=0.0612  <S**2>=0.000
       7 -> 15         0.30188
       8 -> 18         0.13400
       9 -> 18         0.11945
       9 -> 19         0.37026
      10 -> 22        -0.12734
      10 -> 24        -0.12605
      10 -> 25        -0.11093
      11 -> 24         0.21198
      11 -> 25        -0.18687
      12 -> 26        -0.13430
      13 -> 30         0.14975

 Excited State  64:      Singlet-A     14.0047 eV   88.53 nm  f=0.0087  <S**2>=0.000
       7 -> 15         0.46583
       7 -> 16         0.11124
       8 -> 18        -0.13143
       9 -> 19        -0.11033
       9 -> 20        -0.40546
      11 -> 24        -0.18797

 Excited State  65:      Singlet-A     14.0479 eV   88.26 nm  f=0.0006  <S**2>=0.000
       7 -> 15         0.12785
       8 -> 18         0.12234
       9 -> 20         0.18395
       9 -> 21        -0.10655
      11 -> 25         0.24733
      12 -> 28         0.53632

 Excited State  66:      Singlet-A     14.0932 eV   87.97 nm  f=0.0573  <S**2>=0.000
       7 -> 15         0.27051
       7 -> 16         0.11459
       8 -> 18        -0.26950
       9 -> 20         0.47736
      10 -> 24         0.17907
      12 -> 28        -0.15624

 Excited State  67:      Singlet-A     14.2095 eV   87.25 nm  f=0.1037  <S**2>=0.000
       7 -> 16        -0.11553
       8 -> 18        -0.15033
       8 -> 19         0.14751
       9 -> 18         0.15305
       9 -> 23         0.11478
      11 -> 24         0.19945
      11 -> 25         0.51145
      12 -> 28        -0.17609

 Excited State  68:      Singlet-A     14.2669 eV   86.90 nm  f=0.1257  <S**2>=0.000
       7 -> 16        -0.26673
       8 -> 18        -0.29690
       9 -> 19         0.18981
       9 -> 21         0.19026
      10 -> 24         0.32733
      11 -> 24        -0.15046
      12 -> 28         0.27497

 Excited State  69:      Singlet-A     14.3376 eV   86.48 nm  f=0.0496  <S**2>=0.000
       7 -> 16         0.20914
       8 -> 18         0.32476
       8 -> 20        -0.12145
       9 -> 21         0.20536
       9 -> 22        -0.10975
      10 -> 24         0.35474
      10 -> 25         0.30868

 Excited State  70:      Singlet-A     14.4119 eV   86.03 nm  f=0.0052  <S**2>=0.000
       7 -> 15        -0.10111
       7 -> 16         0.48405
       8 -> 19         0.21322
       9 -> 21         0.22212
      10 -> 25        -0.33847

 Excited State  71:      Singlet-A     14.4276 eV   85.94 nm  f=0.0021  <S**2>=0.000
       8 -> 18         0.14746
       8 -> 19         0.42786
       9 -> 21        -0.35456
      10 -> 24         0.12080
      11 -> 25        -0.11216
      11 -> 27         0.13415
      13 -> 31        -0.29391

 Excited State  72:      Singlet-A     14.5343 eV   85.30 nm  f=0.0542  <S**2>=0.000
       8 -> 18        -0.17937
       8 -> 19         0.20814
       9 -> 21         0.14274
       9 -> 22         0.16010
      10 -> 24        -0.26191
      10 -> 25         0.41822
      11 -> 27        -0.13155
      12 -> 28         0.10174
      12 -> 29         0.14660
      13 -> 31        -0.19330

 Excited State  73:      Singlet-A     14.5597 eV   85.16 nm  f=0.0797  <S**2>=0.000
       7 -> 15         0.11736
       7 -> 16        -0.25109
       7 -> 17        -0.19945
       8 -> 17        -0.11179
       8 -> 18         0.15117
       8 -> 19         0.23056
       8 -> 20         0.12089
       9 -> 19        -0.17106
       9 -> 21         0.40828
      10 -> 25        -0.12707

 Excited State  74:      Singlet-A     14.6484 eV   84.64 nm  f=0.0334  <S**2>=0.000
       7 -> 17         0.17481
       8 -> 19         0.15146
       8 -> 20         0.33312
      10 -> 25         0.11412
      13 -> 31         0.34514
      13 -> 32         0.37989

 Excited State  75:      Singlet-A     14.6680 eV   84.53 nm  f=0.0079  <S**2>=0.000
       8 -> 19        -0.16171
       8 -> 20         0.40596
       9 -> 22        -0.30991
      11 -> 27        -0.19581
      13 -> 31        -0.33484

 Excited State  76:      Singlet-A     14.7429 eV   84.10 nm  f=0.0346  <S**2>=0.000
       7 -> 17         0.19171
       8 -> 20         0.32740
       9 -> 22         0.31584
      11 -> 26         0.19941
      11 -> 27         0.19825
      12 -> 29        -0.20817
      13 -> 32        -0.26692

 Excited State  77:      Singlet-A     14.7509 eV   84.05 nm  f=0.0483  <S**2>=0.000
       8 -> 19        -0.13937
       9 -> 22         0.39364
      12 -> 29        -0.19579
      13 -> 31        -0.16871
      13 -> 32         0.45099

 Excited State  78:      Singlet-A     14.8263 eV   83.62 nm  f=0.0510  <S**2>=0.000
       7 -> 17         0.14771
       8 -> 20        -0.18325
       9 -> 22        -0.25000
      11 -> 26         0.48409
      11 -> 27         0.11026
      12 -> 29        -0.24360
      13 -> 32         0.16245

 Excited State  79:      Singlet-A     14.8414 eV   83.54 nm  f=0.0551  <S**2>=0.000
       7 -> 17        -0.11450
       8 -> 19        -0.16129
      11 -> 26         0.18827
      11 -> 27         0.30750
      12 -> 29         0.47399
      12 -> 30         0.15025
      13 -> 31        -0.10651
      13 -> 32         0.10448

 Excited State  80:      Singlet-A     14.9269 eV   83.06 nm  f=0.1364  <S**2>=0.000
       7 -> 17        -0.21955
       9 -> 23         0.13704
      10 -> 24        -0.10745
      10 -> 25         0.12498
      10 -> 26         0.11298
      10 -> 27         0.15373
      11 -> 26        -0.24551
      11 -> 27         0.42149
      12 -> 29        -0.21054
      13 -> 33        -0.15527

 Excited State  81:      Singlet-A     14.9914 eV   82.70 nm  f=0.0157  <S**2>=0.000
       7 -> 17         0.47086
       9 -> 23        -0.17294
      10 -> 24        -0.10282
      11 -> 26        -0.27986
      11 -> 27         0.20499
      13 -> 31        -0.12250

 Excited State  82:      Singlet-A     15.0812 eV   82.21 nm  f=0.0297  <S**2>=0.000
       9 -> 23        -0.38990
      10 -> 26         0.39761
      10 -> 27        -0.38271

 Excited State  83:      Singlet-A     15.0942 eV   82.14 nm  f=0.0749  <S**2>=0.000
       8 -> 21         0.59988
       8 -> 22        -0.11110
       9 -> 23        -0.10922
      10 -> 26        -0.14845
      11 -> 28         0.15482
      12 -> 30        -0.14993

 Excited State  84:      Singlet-A     15.1767 eV   81.69 nm  f=0.0761  <S**2>=0.000
       7 -> 17         0.10121
       8 -> 21         0.11670
       8 -> 22        -0.11085
      10 -> 26         0.44068
      10 -> 27         0.40276
      11 -> 27        -0.11123
      11 -> 28        -0.19360

 Excited State  85:      Singlet-A     15.1940 eV   81.60 nm  f=0.0230  <S**2>=0.000
       8 -> 22         0.11758
      11 -> 28         0.29191
      12 -> 30         0.57530
      13 -> 34         0.10010

 Excited State  86:      Singlet-A     15.2143 eV   81.49 nm  f=0.0196  <S**2>=0.000
       8 -> 21         0.12088
       9 -> 23         0.31180
      10 -> 26         0.13202
      10 -> 27        -0.18075
      10 -> 28         0.10351
      13 -> 33         0.51823
      13 -> 34         0.11943

 Excited State  87:      Singlet-A     15.3211 eV   80.92 nm  f=0.2243  <S**2>=0.000

 The electronic state is 1-A.
 Alpha  occ. eigenvalues --  -19.14272 -10.23461 -10.18365  -1.01720  -0.74733
 Alpha  occ. eigenvalues --   -0.62716  -0.51099  -0.46189  -0.44083  -0.38910
 Alpha  occ. eigenvalues --   -0.37928  -0.33348  -0.28321
 Alpha virt. eigenvalues --    0.00988   0.04066   0.05211   0.07444   0.09875
 Alpha virt. eigenvalues --    0.10860   0.11576   0.12847   0.13751   0.15018
 Alpha virt. eigenvalues --    0.17017   0.17996   0.20483   0.20600   0.22210

 Mulliken charges:
               1
     1  C    0.538065
     2  C    0.417345
     3  O   -0.391347
     4  H   -0.068053
     5  H   -0.109393
     6  H   -0.085554
     7  H   -0.185374
     8  H   -0.271856
     9  H    0.156168
 Sum of Mulliken charges =  -0.00000

 Dipole moment (field-independent basis, Debye):
    X=             -1.3126    Y=             -0.1516    Z=              1.1399  Tot=              1.7451
 Quadrupole moment (field-independent basis, Debye-Ang):
   XX=            -22.8054   YY=            -18.9739   ZZ=            -19.5716
   XY=             -0.9571   XZ=              1.7316   YZ=             -1.4717

 Normal termination of Gaussian 16 at Mon Mar 21 20:10:36 2022.
