 Gaussian 16, Revision C.01,
 Gaussian 16:  EM64L-G16RevC.01  3-Jul-2019

 ---------------------------------------------------------------------
 #P TD(Nstates=10000) b3lyp/Gen SCF(maxcycles=100) Int(Grid=ultrafine)
 ---------------------------------------------------------------------

 ---------------------
 xGDB7_00001_tier4.com
 ---------------------
 Symbolic Z-matrix:
 Charge =  0 Multiplicity = 1

                         Standard orientation:
 ---------------------------------------------------------------------
 Center     Atomic      Atomic             Coordinates (Angstroms)
 Number     Number       Type             X           Y           Z
 ---------------------------------------------------------------------
      1          6           0        0.000000    0.000000    0.761397
      2          6           0       -0.000000   -0.000000   -0.761397
      3          1           0        0.000000    1.017110    1.157248
      4          1           0        0.880843   -0.508555    1.157248
      5          1           0       -0.880843   -0.508555    1.157248
      6          1           0        0.880843    0.508555   -1.157248
      7          1           0       -0.880843    0.508555   -1.157248
      8          1           0       -0.000000   -1.017110   -1.157248
 ---------------------------------------------------------------------

 SCF Done:  E(RB3LYP) =  -79.7769420478     A.U. after    9 cycles

 Excitation energies and oscillator strengths:

 Excited State   1:      Singlet-EG     8.9302 eV  138.84 nm  f=0.0000  <S**2>=0.000
       9 -> 10         0.70602
 This state for optimization and/or second-order correction.
 Total Energy, E(TD-HF/TD-DFT) =  -79.4487618288
 Copying the excited state density for this state as the 1-particle RhoCI density.

 Excited State   2:      Singlet-EG     8.9302 eV  138.84 nm  f=0.0000  <S**2>=0.000
       8 -> 10         0.70602

 Excited State   3:      Singlet-A1G    9.7425 eV  127.26 nm  f=0.0000  <S**2>=0.000
       7 -> 10         0.70273

 Excited State   4:      Singlet-EU     9.8471 eV  125.91 nm  f=0.0905  <S**2>=0.000
       8 -> 11         0.70514

 Excited State   5:      Singlet-EU     9.8471 eV  125.91 nm  f=0.0905  <S**2>=0.000
       9 -> 11         0.70514

 Excited State   6:      Singlet-A2U   10.5795 eV  117.19 nm  f=0.1989  <S**2>=0.000
       7 -> 11         0.70300

 Excited State   7:      Singlet-EG    10.8383 eV  114.39 nm  f=0.0000  <S**2>=0.000
       8 -> 12        -0.49871
       9 -> 13         0.49873

 Excited State   8:      Singlet-EG    10.8510 eV  114.26 nm  f=0.0594  <S**2>=0.000
       8 -> 13        -0.49819
       9 -> 12         0.49819

 Excited State   9:      Singlet-EG    10.8510 eV  114.26 nm  f=0.0594  <S**2>=0.000
       8 -> 12         0.49820
       9 -> 13         0.49818

 Excited State  10:      Singlet-EG    11.1753 eV  110.94 nm  f=0.2942  <S**2>=0.000
       8 -> 13         0.49460
       9 -> 12         0.49460

 Excited State  11:      Singlet-EU    11.2790 eV  109.92 nm  f=0.0000  <S**2>=0.000
       8 -> 15        -0.49796
       9 -> 14         0.49797

 Excited State  12:      Singlet-EU    11.4829 eV  107.97 nm  f=0.0555  <S**2>=0.000
       6 -> 10         0.64539
       7 -> 13         0.28322

 Excited State  13:      Singlet-EU    11.4829 eV  107.97 nm  f=0.0555  <S**2>=0.000
       5 -> 10         0.64539
       7 -> 12         0.28323

 Excited State  14:      Singlet-EU    11.4935 eV  107.87 nm  f=0.0000  <S**2>=0.000
       8 -> 14        -0.49771
       9 -> 15         0.49829

 Excited State  15:      Singlet-EU    11.4935 eV  107.87 nm  f=0.0000  <S**2>=0.000
       8 -> 15         0.49800
       9 -> 14         0.49800

 Excited State  16:      Singlet-EU    11.4981 eV  107.83 nm  f=0.0000  <S**2>=0.000
       8 -> 14         0.48790
       9 -> 15         0.48730

 Excited State  17:      Singlet-EU    11.5928 eV  106.95 nm  f=0.1245  <S**2>=0.000
       6 -> 10        -0.28159
       7 -> 13         0.64211

 Excited State  18:      Singlet-EU    11.5928 eV  106.95 nm  f=0.1245  <S**2>=0.000
       5 -> 10        -0.28160
       7 -> 12         0.64211

 Excited State  19:      Singlet-EG    12.0024 eV  103.30 nm  f=0.0000  <S**2>=0.000
       7 -> 15         0.70070

 Excited State  20:      Singlet-EG    12.0024 eV  103.30 nm  f=0.0000  <S**2>=0.000
       7 -> 14         0.70070

 Excited State  21:      Singlet-EG    12.1715 eV  101.86 nm  f=0.0000  <S**2>=0.000
       6 -> 11         0.42302
       8 -> 16         0.55928

 Excited State  22:      Singlet-EG    12.1715 eV  101.86 nm  f=0.0000  <S**2>=0.000
       5 -> 11         0.42302
       9 -> 16         0.55929

 Excited State  23:      Singlet-EG    12.4649 eV   99.47 nm  f=0.0000  <S**2>=0.000
       5 -> 11         0.56300
       9 -> 16        -0.42422

 Excited State  24:      Singlet-EG    12.4649 eV   99.47 nm  f=0.0000  <S**2>=0.000
       6 -> 11         0.56300
       8 -> 16        -0.42422

 Excited State  25:      Singlet-EU    12.6046 eV   98.36 nm  f=0.0000  <S**2>=0.000
       5 -> 13         0.12671
       6 -> 12        -0.12671
       8 -> 18        -0.48237
       9 -> 17         0.48240

 Excited State  26:      Singlet-EU    12.6289 eV   98.17 nm  f=0.0000  <S**2>=0.000
       5 -> 13         0.13118
       6 -> 12         0.13119
       8 -> 18         0.47947
       9 -> 17         0.47944

 Excited State  27:      Singlet-EU    12.6289 eV   98.17 nm  f=0.0000  <S**2>=0.000
       5 -> 12        -0.13118
       6 -> 13         0.13118
       8 -> 17         0.47946
       9 -> 18        -0.47945

 Excited State  28:      Singlet-EU    12.9309 eV   95.88 nm  f=0.0000  <S**2>=0.000
       7 -> 16         0.40095
       8 -> 17         0.40508
       9 -> 18         0.40508

 Excited State  29:      Singlet-EG    13.1609 eV   94.21 nm  f=0.0000  <S**2>=0.000
       5 -> 14         0.13919
       6 -> 15        -0.13919
       8 -> 19         0.47888
       9 -> 20        -0.47888

 Excited State  30:      Singlet-A1G   13.1628 eV   94.19 nm  f=0.0000  <S**2>=0.000
       5 -> 12         0.27958
       6 -> 13         0.27959
       7 -> 16         0.49970
       8 -> 17        -0.21111
       9 -> 18        -0.21111

 Excited State  31:      Singlet-EU    13.2391 eV   93.65 nm  f=0.0029  <S**2>=0.000
       8 -> 20         0.22264
       9 -> 19        -0.22265
       9 -> 21         0.62218

 Excited State  32:      Singlet-EU    13.2391 eV   93.65 nm  f=0.0029  <S**2>=0.000
       8 -> 19         0.22264
       8 -> 21         0.62218
       9 -> 20         0.22264

 Excited State  33:      Singlet-EG    13.3554 eV   92.83 nm  f=0.0000  <S**2>=0.000
       5 -> 13         0.15067
       6 -> 12         0.15067
       7 -> 17         0.66959

 Excited State  34:      Singlet-EG    13.3554 eV   92.83 nm  f=0.0000  <S**2>=0.000
       5 -> 12        -0.15067
       6 -> 13         0.15067
       7 -> 18         0.66959

 Excited State  35:      Singlet-EU    13.3801 eV   92.66 nm  f=0.0000  <S**2>=0.000
       5 -> 13         0.48234
       6 -> 12        -0.48233
       8 -> 18         0.12613
       9 -> 17        -0.12613

 Excited State  36:      Singlet-EU    13.4121 eV   92.44 nm  f=0.0000  <S**2>=0.000
       5 -> 13         0.45729
       6 -> 12         0.45730
       7 -> 17        -0.22194
       8 -> 18        -0.12441
       9 -> 17        -0.12441

 Excited State  37:      Singlet-EU    13.4121 eV   92.44 nm  f=0.0000  <S**2>=0.000
       5 -> 12         0.45730
       6 -> 13        -0.45730
       7 -> 18         0.22193
       8 -> 17         0.12441
       9 -> 18        -0.12441

 Excited State  38:      Singlet-EG    13.5323 eV   91.62 nm  f=0.0861  <S**2>=0.000
       5 -> 14         0.12695
       6 -> 15         0.12695
       7 -> 20         0.26663
       8 -> 19         0.39886
       8 -> 21        -0.25094
       9 -> 20         0.39886

 Excited State  39:      Singlet-EG    13.5323 eV   91.62 nm  f=0.0861  <S**2>=0.000
       5 -> 15        -0.12695
       6 -> 14         0.12695
       7 -> 19         0.26663
       8 -> 20         0.39886
       9 -> 19        -0.39885
       9 -> 21        -0.25094

 Excited State  40:      Singlet-EG    13.5865 eV   91.26 nm  f=0.1435  <S**2>=0.000
       7 -> 21         0.21006
       8 -> 20         0.46663
       9 -> 19         0.46663

 Excited State  41:      Singlet-EG    13.8280 eV   89.66 nm  f=0.0169  <S**2>=0.000
       5 -> 15         0.44262
       6 -> 14         0.44264
       7 -> 21         0.29811

 Excited State  42:      Singlet-EG    13.8456 eV   89.55 nm  f=0.0000  <S**2>=0.000
       5 -> 14        -0.47767
       6 -> 15         0.47767
       8 -> 19         0.14062
       9 -> 20        -0.14062

 Excited State  43:      Singlet-EU    13.9424 eV   88.93 nm  f=0.0589  <S**2>=0.000
       5 -> 14        -0.31486
       6 -> 15        -0.31486
       7 -> 20         0.53523

 Excited State  44:      Singlet-EU    13.9424 eV   88.93 nm  f=0.0589  <S**2>=0.000
       5 -> 15         0.31487
       6 -> 14        -0.31485
       7 -> 19         0.53523

 Excited State  45:      Singlet-EG    14.3104 eV   86.64 nm  f=0.2494  <S**2>=0.000
       5 -> 14         0.32714
       5 -> 17         0.11199
       6 -> 15         0.32714
       6 -> 16         0.21468
       6 -> 18         0.11199
       7 -> 20         0.32566
       8 -> 19        -0.11351
       8 -> 21         0.17103
       8 -> 22         0.14123
       9 -> 20        -0.11351
       9 -> 23         0.14123

 Excited State  46:      Singlet-EG    14.3104 eV   86.64 nm  f=0.2494  <S**2>=0.000
       5 -> 15        -0.32714
       5 -> 16         0.21468
       5 -> 18        -0.11199
       6 -> 14         0.32714
       6 -> 17         0.11199
       7 -> 19         0.32566
       8 -> 20        -0.11351
       8 -> 23         0.14123
       9 -> 19         0.11351
       9 -> 21         0.17103
       9 -> 22        -0.14123

 Excited State  47:      Singlet-A2U   14.5026 eV   85.49 nm  f=0.0790  <S**2>=0.000
       5 -> 15        -0.19847
       6 -> 14        -0.19847
       7 -> 21         0.48540
       8 -> 20        -0.12468
       8 -> 23        -0.24914
       9 -> 19        -0.12468
       9 -> 22        -0.24914

 Excited State  48:      Singlet-EU    14.5574 eV   85.17 nm  f=0.0000  <S**2>=0.000
       4 -> 11         0.11220
       5 -> 12         0.39139
       6 -> 13         0.39139
       7 -> 16        -0.27694
       8 -> 17         0.16811
       9 -> 18         0.16811

 Excited State  49:      Singlet-EG    14.7221 eV   84.22 nm  f=0.0000  <S**2>=0.000
       5 -> 17        -0.13985
       6 -> 18         0.13985
       8 -> 22         0.47754
       9 -> 23        -0.47753

 Excited State  50:      Singlet-EG    14.7952 eV   83.80 nm  f=0.0661  <S**2>=0.000
       5 -> 16         0.39307
       8 -> 23        -0.40142
       9 -> 22         0.40143

 Excited State  51:      Singlet-EG    14.7952 eV   83.80 nm  f=0.0661  <S**2>=0.000
       6 -> 16        -0.39308
       8 -> 22         0.40142
       9 -> 23         0.40143

 Excited State  52:      Singlet-EU    14.9469 eV   82.95 nm  f=0.2624  <S**2>=0.000
       5 -> 17        -0.11288
       6 -> 16         0.50945
       6 -> 18        -0.11289
       7 -> 20        -0.12365
       7 -> 23        -0.17444
       8 -> 19         0.10282
       8 -> 22         0.24388
       9 -> 20         0.10281
       9 -> 23         0.24388

 Excited State  53:      Singlet-EU    14.9469 eV   82.95 nm  f=0.2624  <S**2>=0.000
       5 -> 16         0.50946
       5 -> 18         0.11289
       6 -> 17        -0.11289
       7 -> 19        -0.12365
       7 -> 22        -0.17444
       8 -> 20         0.10281
       8 -> 23         0.24388
       9 -> 19        -0.10281
       9 -> 22        -0.24388

 Excited State  54:      Singlet-EG    15.0527 eV   82.37 nm  f=0.8155  <S**2>=0.000
       5 -> 18         0.21922
       6 -> 17         0.21922
       7 -> 21         0.26032
       8 -> 23         0.38971
       9 -> 22         0.38970

 Excited State  55:      Singlet-EG    15.2288 eV   81.41 nm  f=0.0000  <S**2>=0.000
       5 -> 17        -0.47840
       6 -> 18         0.47841
       8 -> 22        -0.14129
       9 -> 23         0.14130

 Excited State  56:      Singlet-EG    15.2967 eV   81.05 nm  f=0.0434  <S**2>=0.000
       5 -> 16        -0.10379
       5 -> 18         0.44824
       6 -> 17        -0.44823
       7 -> 22         0.23069

 Excited State  57:      Singlet-EG    15.2967 eV   81.05 nm  f=0.0434  <S**2>=0.000
       5 -> 17         0.44824
       6 -> 16         0.10380
       6 -> 18         0.44823
       7 -> 23        -0.23069

 Excited State  58:      Singlet-EG    15.4755 eV   80.12 nm  f=0.0006  <S**2>=0.000
       4 -> 10         0.16777
       5 -> 18         0.42539
       6 -> 17         0.42540
       7 -> 21        -0.17525
       7 -> 24         0.13942
       8 -> 23        -0.13688
       9 -> 22        -0.13688

 Excited State  59:      Singlet-EU    15.6429 eV   79.26 nm  f=0.2969  <S**2>=0.000
       5 -> 16         0.13608
       5 -> 18        -0.11504
       6 -> 17         0.11505
       7 -> 22         0.63342

 Excited State  60:      Singlet-EU    15.6429 eV   79.26 nm  f=0.2969  <S**2>=0.000
       5 -> 17         0.11505
       6 -> 16         0.13608
       6 -> 18         0.11505
       7 -> 23         0.63342

 Excited State  61:      Singlet-EU    15.7097 eV   78.92 nm  f=0.0000  <S**2>=0.000
       5 -> 20        -0.49752
       6 -> 19         0.49753

 Excited State  62:      Singlet-EG    15.7513 eV   78.71 nm  f=0.0000  <S**2>=0.000
       5 -> 20         0.20407
       6 -> 19         0.20406
       6 -> 21         0.64020

 Excited State  63:      Singlet-EG    15.7513 eV   78.71 nm  f=0.0000  <S**2>=0.000
       5 -> 19        -0.20406
       5 -> 21         0.64020
       6 -> 20         0.20407

 Excited State  64:      Singlet-EU    16.0162 eV   77.41 nm  f=0.0000  <S**2>=0.000
       5 -> 19         0.49357
       6 -> 20         0.49356

 Excited State  65:      Singlet-EU    16.0531 eV   77.23 nm  f=0.0000  <S**2>=0.000
       5 -> 19        -0.44432
       5 -> 21        -0.28360
       6 -> 20         0.44433

 Excited State  66:      Singlet-EU    16.0531 eV   77.23 nm  f=0.0000  <S**2>=0.000
       5 -> 20         0.44432
       6 -> 19         0.44432
       6 -> 21        -0.28361

 Excited State  67:      Singlet-EU    16.0983 eV   77.02 nm  f=0.0615  <S**2>=0.000
       9 -> 24         0.69823

 Excited State  68:      Singlet-EU    16.0983 eV   77.02 nm  f=0.0615  <S**2>=0.000
       8 -> 24         0.69823

 Excited State  69:      Singlet-A2U   16.3665 eV   75.75 nm  f=0.0176  <S**2>=0.000
       4 -> 10         0.64014
       7 -> 24        -0.25869

 Excited State  70:      Singlet-EG    16.6634 eV   74.41 nm  f=0.0000  <S**2>=0.000
       9 -> 25         0.69324

 Excited State  71:      Singlet-EG    16.6634 eV   74.41 nm  f=0.0000  <S**2>=0.000
       8 -> 25         0.69325

 Excited State  72:      Singlet-EU    16.9020 eV   73.35 nm  f=0.0186  <S**2>=0.000
       9 -> 26         0.70444

 Excited State  73:      Singlet-EU    16.9020 eV   73.35 nm  f=0.0186  <S**2>=0.000
       8 -> 26         0.70444

 Excited State  74:      Singlet-A2U   17.1693 eV   72.21 nm  f=0.3175  <S**2>=0.000
       4 -> 10         0.19721
       7 -> 21         0.11020
       7 -> 24         0.62278
       7 -> 35        -0.13229

 Excited State  75:      Singlet-A1G   17.1852 eV   72.15 nm  f=0.0000  <S**2>=0.000
       4 -> 11         0.62854
       7 -> 25         0.28729

 Excited State  76:      Singlet-EU    17.2719 eV   71.78 nm  f=0.0000  <S**2>=0.000
       5 -> 23         0.49015
       6 -> 22         0.48963

 Excited State  77:      Singlet-EU    17.2719 eV   71.78 nm  f=0.0000  <S**2>=0.000
       5 -> 22        -0.48988
       6 -> 23         0.48990

 Excited State  78:      Singlet-EU    17.2747 eV   71.77 nm  f=0.0000  <S**2>=0.000
       5 -> 23        -0.49715
       6 -> 22         0.49767

 Excited State  79:      Singlet-A1G   17.3587 eV   71.42 nm  f=0.0000  <S**2>=0.000
       4 -> 11        -0.21372
       5 -> 22         0.33126
       6 -> 23         0.33124
       7 -> 25         0.43780
       8 -> 28         0.11528
       9 -> 29         0.11527

 Excited State  80:      Singlet-A1G   17.5058 eV   70.82 nm  f=0.0000  <S**2>=0.000
       4 -> 11        -0.10394
       5 -> 22        -0.36350
       6 -> 23        -0.36348
       7 -> 25         0.42500
       8 -> 28         0.12567
       9 -> 29         0.12567

 Excited State  81:      Singlet-A1U   17.6465 eV   70.26 nm  f=0.0000  <S**2>=0.000
       7 -> 26         0.70597

 Excited State  82:      Singlet-EU    17.8902 eV   69.30 nm  f=0.0000  <S**2>=0.000
       8 -> 29        -0.49271
       9 -> 28         0.49271

 Excited State  83:      Singlet-EU    17.9647 eV   69.02 nm  f=0.0492  <S**2>=0.000
       8 -> 27         0.64962
       8 -> 30        -0.17035
       9 -> 31        -0.17034

 Excited State  84:      Singlet-EU    17.9647 eV   69.02 nm  f=0.0492  <S**2>=0.000
       8 -> 31        -0.17035
       9 -> 27         0.64962
       9 -> 30         0.17035

 Excited State  85:      Singlet-EG    18.0182 eV   68.81 nm  f=0.0000  <S**2>=0.000
       8 -> 30        -0.49717
       9 -> 31         0.49717

 Excited State  86:      Singlet-EG    18.1192 eV   68.43 nm  f=0.0000  <S**2>=0.000
       4 -> 13         0.38722
       8 -> 29        -0.29816
       8 -> 32        -0.36705
       9 -> 28        -0.29816

 Excited State  87:      Singlet-EG    18.1192 eV   68.43 nm  f=0.0000  <S**2>=0.000
       4 -> 12         0.38732
       8 -> 28        -0.29813
       9 -> 29         0.29811
       9 -> 32        -0.36700

 Excited State  88:      Singlet-EG    18.1387 eV   68.35 nm  f=0.0000  <S**2>=0.000
       4 -> 13         0.54855
       6 -> 24        -0.14688
       8 -> 29         0.20568
       8 -> 32         0.28565
       9 -> 28         0.20568

 Excited State  89:      Singlet-EG    18.1387 eV   68.35 nm  f=0.0000  <S**2>=0.000
       4 -> 12         0.54849
       5 -> 24        -0.14686
       8 -> 28         0.20574
       9 -> 29        -0.20572
       9 -> 32         0.28571

 Excited State  90:      Singlet-EG    18.2516 eV   67.93 nm  f=0.1076  <S**2>=0.000
       7 -> 31         0.18716
       8 -> 27         0.23490
       8 -> 30         0.43989
       9 -> 31         0.43989

 Excited State  91:      Singlet-EG    18.2516 eV   67.93 nm  f=0.1076  <S**2>=0.000
       7 -> 30         0.18716
       8 -> 31         0.43990
       9 -> 27         0.23491
       9 -> 30        -0.43989

 Excited State  92:      Singlet-EU    18.2730 eV   67.85 nm  f=0.0000  <S**2>=0.000
       4 -> 11         0.14590
       7 -> 25        -0.14500
       8 -> 28         0.44369
       9 -> 29         0.44375

 Excited State  93:      Singlet-EG    18.3460 eV   67.58 nm  f=0.0000  <S**2>=0.000
       4 -> 12        -0.11711
       5 -> 24        -0.15812
       7 -> 29        -0.31107
       8 -> 28        -0.27026
       9 -> 29         0.27021
       9 -> 32         0.45349

 Excited State  94:      Singlet-EG    18.3460 eV   67.58 nm  f=0.0000  <S**2>=0.000
       4 -> 13        -0.11711
       6 -> 24        -0.15812
       7 -> 28        -0.31108
       8 -> 29        -0.27024
       8 -> 32         0.45348
       9 -> 28        -0.27024

 Excited State  95:      Singlet-EG    18.5394 eV   66.88 nm  f=0.2453  <S**2>=0.000
       7 -> 27         0.16121
       8 -> 31         0.47439
       9 -> 30         0.47440

 Excited State  96:      Singlet-EG    18.5858 eV   66.71 nm  f=0.0000  <S**2>=0.000
       6 -> 24         0.53361
       7 -> 28        -0.43212

 Excited State  97:      Singlet-EG    18.5858 eV   66.71 nm  f=0.0000  <S**2>=0.000
       5 -> 24         0.53356
       7 -> 29        -0.43217

 Excited State  98:      Singlet-EG    18.6336 eV   66.54 nm  f=0.0000  <S**2>=0.000
       4 -> 12         0.16315
       5 -> 24         0.38001
       7 -> 29         0.43191
       8 -> 28        -0.17081
       9 -> 29         0.17081
       9 -> 32         0.25641

 Excited State  99:      Singlet-EG    18.6336 eV   66.54 nm  f=0.0000  <S**2>=0.000
       4 -> 13         0.16314
       6 -> 24         0.37995
       7 -> 28         0.43195
       8 -> 29        -0.17082
       8 -> 32         0.25642
       9 -> 28        -0.17082

 Excited State 100:      Singlet-EU    18.6380 eV   66.52 nm  f=0.0085  <S**2>=0.000
       4 -> 14        -0.39603
       6 -> 25         0.17520
       7 -> 31         0.43437
       8 -> 27        -0.10685
       8 -> 35        -0.32541

 Excited State 101:      Singlet-EU    18.6380 eV   66.52 nm  f=0.0085  <S**2>=0.000
       4 -> 15        -0.39603
       5 -> 25         0.17520
       7 -> 30         0.43437
       9 -> 27        -0.10685
       9 -> 35        -0.32541

 Excited State 102:      Singlet-EU    18.7193 eV   66.23 nm  f=0.0001  <S**2>=0.000
       4 -> 15         0.55603
       7 -> 30         0.20254
       9 -> 35        -0.36578

 Excited State 103:      Singlet-EU    18.7193 eV   66.23 nm  f=0.0001  <S**2>=0.000
       4 -> 14         0.55603
       7 -> 31         0.20253
       8 -> 35        -0.36578

 Excited State 104:      Singlet-A2U   18.7448 eV   66.14 nm  f=0.0634  <S**2>=0.000
       7 -> 27         0.68064
       8 -> 31        -0.10942
       9 -> 30        -0.10943

 Excited State 105:      Singlet-A1G   18.9461 eV   65.44 nm  f=0.0000  <S**2>=0.000
       7 -> 32         0.57320
       8 -> 33         0.28156
       9 -> 34         0.28159

 Excited State 106:      Singlet-EU    18.9995 eV   65.26 nm  f=0.0000  <S**2>=0.000
       8 -> 33         0.49016
       9 -> 34        -0.49015

 Excited State 107:      Singlet-EU    18.9995 eV   65.26 nm  f=0.0000  <S**2>=0.000
       8 -> 34         0.49017
       9 -> 33         0.49014

 Excited State 108:      Singlet-EU    19.0175 eV   65.19 nm  f=0.0000  <S**2>=0.000
       8 -> 34        -0.49288
       9 -> 33         0.49292

 Excited State 109:      Singlet-EU    19.0797 eV   64.98 nm  f=0.0830  <S**2>=0.000
       4 -> 14         0.12310
       5 -> 28         0.11170
       6 -> 29         0.11170
       7 -> 31         0.44711
       8 -> 30        -0.10560
       8 -> 35         0.46249
       9 -> 31        -0.10560

 Excited State 110:      Singlet-EU    19.0797 eV   64.98 nm  f=0.0830  <S**2>=0.000
       4 -> 15         0.12310
       5 -> 29        -0.11170
       6 -> 28         0.11170
       7 -> 30         0.44712
       8 -> 31        -0.10560
       9 -> 30         0.10561
       9 -> 35         0.46249

 The electronic state is 1-A1G.
 Alpha  occ. eigenvalues --  -10.17593 -10.17582  -0.74942  -0.61170  -0.43794
 Alpha  occ. eigenvalues --   -0.43794  -0.37272  -0.34570  -0.34570
 Alpha virt. eigenvalues --    0.02210   0.05201   0.09559   0.09559   0.11524
 Alpha virt. eigenvalues --    0.11524   0.14931   0.16001   0.16001   0.18624
 Alpha virt. eigenvalues --    0.18624   0.18909   0.23879   0.23879   0.28744

 Mulliken charges:
               1
     1  C    0.321840
     2  C    0.321840
     3  H   -0.107280
     4  H   -0.107280
     5  H   -0.107280
     6  H   -0.107280
     7  H   -0.107280
     8  H   -0.107280
 Sum of Mulliken charges =   0.00000

 Dipole moment (field-independent basis, Debye):
    X=              0.0000    Y=             -0.0000    Z=              0.0000  Tot=              0.0000
 Quadrupole moment (field-independent basis, Debye-Ang):
   XX=            -15.0407   YY=            -15.0407   ZZ=            -15.8029
   XY=              0.0000   XZ=              0.0000   YZ=             -0.0000

 Normal termination of Gaussian 16 at Mon Mar 21 19:57:04 2022.
