 Gaussian 16, Revision C.01,
 Gaussian 16:  EM64L-G16RevC.01  3-Jul-2019

 ---------------------------------------------------------------------
 #P TD(Nstates=10000) b3lyp/Gen SCF(maxcycles=100) Int(Grid=ultrafine)
 ---------------------------------------------------------------------

 ---------------------
 xGDB7_00001_tier4.com
 ---------------------
 Symbolic Z-matrix:
 Charge =  0 Multiplicity = 1

                         Standard orientation:
 ---------------------------------------------------------------------
 Center     Atomic      Atomic             Coordinates (Angstroms)
 Number     Number       Type             X           Y           Z
 ---------------------------------------------------------------------
      1          9           0        0.000000    0.000000    0.688193
      2          9           0        0.000000    0.000000   -0.688193
 ---------------------------------------------------------------------

 SCF Done:  E(RB3LYP) =  -199.361258765     A.U. after   10 cycles

 Excitation energies and oscillator strengths:

 Excited state symmetry could not be determined.
 Excited State   1:      Singlet-?Sym    4.8416 eV  256.08 nm  f=0.0001  <S**2>=0.000
       8 -> 10        -0.15516
       9 -> 10         0.69065
 This state for optimization and/or second-order correction.
 Total Energy, E(TD-HF/TD-DFT) =  -199.183333234
 Copying the excited state density for this state as the 1-particle RhoCI density.

 Excited state symmetry could not be determined.
 Excited State   2:      Singlet-?Sym    4.8416 eV  256.08 nm  f=0.0001  <S**2>=0.000
       8 -> 10         0.69065
       9 -> 10         0.15516

 Excited state symmetry could not be determined.
 Excited State   3:      Singlet-?Sym    8.6726 eV  142.96 nm  f=0.0000  <S**2>=0.000
       6 -> 10         0.38360
       7 -> 10         0.59290

 Excited state symmetry could not be determined.
 Excited State   4:      Singlet-?Sym    8.6726 eV  142.96 nm  f=0.0000  <S**2>=0.000
       6 -> 10         0.59290
       7 -> 10        -0.38360

 Excited state symmetry could not be determined.
 Excited State   5:      Singlet-?Sym   12.6445 eV   98.05 nm  f=0.0000  <S**2>=0.000
       8 -> 11        -0.27687
       9 -> 11         0.64740

 Excited state symmetry could not be determined.
 Excited State   6:      Singlet-?Sym   12.6445 eV   98.05 nm  f=0.0000  <S**2>=0.000
       8 -> 11         0.64740
       9 -> 11         0.27687

 Excited state symmetry could not be determined.
 Excited State   7:      Singlet-?Sym   12.9380 eV   95.83 nm  f=0.0281  <S**2>=0.000
       9 -> 12         0.70399

 Excited state symmetry could not be determined.
 Excited State   8:      Singlet-?Sym   12.9380 eV   95.83 nm  f=0.0281  <S**2>=0.000
       8 -> 12         0.70399

 Excited State   9:      Singlet-SGU   13.2150 eV   93.82 nm  f=0.3673  <S**2>=0.000
       5 -> 10         0.44729
       8 -> 14        -0.38489
       9 -> 13        -0.38489

 Excited state symmetry could not be determined.
 Excited State  10:      Singlet-?Sym   13.7878 eV   89.92 nm  f=0.0000  <S**2>=0.000
       8 -> 13         0.49953
       9 -> 14         0.49953

 Excited state symmetry could not be determined.
 Excited State  11:      Singlet-?Sym   13.7878 eV   89.92 nm  f=0.0000  <S**2>=0.000
       8 -> 14        -0.49953
       9 -> 13         0.49953

 Excited state symmetry could not be determined.
 Excited State  12:      Singlet-?Sym   13.7966 eV   89.87 nm  f=0.0000  <S**2>=0.000
       8 -> 13        -0.49954
       9 -> 14         0.49954

 Excited state symmetry could not be determined.
 Excited State  13:      Singlet-?Sym   15.5670 eV   79.65 nm  f=0.0000  <S**2>=0.000
       9 -> 17         0.69806

 Excited state symmetry could not be determined.
 Excited State  14:      Singlet-?Sym   15.5670 eV   79.65 nm  f=0.0000  <S**2>=0.000
       8 -> 17         0.69806

 Excited state symmetry could not be determined.
 Excited State  15:      Singlet-?Sym   15.6291 eV   79.33 nm  f=0.0000  <S**2>=0.000
       8 -> 15         0.49720
       9 -> 16        -0.49720

 Excited state symmetry could not be determined.
 Excited State  16:      Singlet-?Sym   15.6292 eV   79.33 nm  f=0.0000  <S**2>=0.000
       8 -> 16         0.49720
       9 -> 15         0.49720

 Excited state symmetry could not be determined.
 Excited State  17:      Singlet-?Sym   15.6682 eV   79.13 nm  f=0.0000  <S**2>=0.000
       8 -> 16        -0.49676
       9 -> 15         0.49676

 Excited State  18:      Singlet-SGU   15.8255 eV   78.34 nm  f=0.3136  <S**2>=0.000
       5 -> 10         0.49624
       5 -> 12         0.21638
       8 -> 14         0.30546
       9 -> 13         0.30546

 Excited state symmetry could not be determined.
 Excited State  19:      Singlet-?Sym   16.0976 eV   77.02 nm  f=0.0000  <S**2>=0.000
       8 -> 15         0.48699
       9 -> 16         0.48699

 Excited state symmetry could not be determined.
 Excited State  20:      Singlet-?Sym   16.5965 eV   74.71 nm  f=0.0996  <S**2>=0.000
       6 -> 11         0.48637
       7 -> 11         0.51028

 Excited state symmetry could not be determined.
 Excited State  21:      Singlet-?Sym   16.5965 eV   74.71 nm  f=0.0996  <S**2>=0.000
       6 -> 11         0.51028
       7 -> 11        -0.48637

 Excited state symmetry could not be determined.
 Excited State  22:      Singlet-?Sym   16.8431 eV   73.61 nm  f=0.0000  <S**2>=0.000
       6 -> 12         0.61320
       7 -> 12        -0.33481

 Excited state symmetry could not be determined.
 Excited State  23:      Singlet-?Sym   16.8431 eV   73.61 nm  f=0.0000  <S**2>=0.000
       6 -> 12         0.33481
       7 -> 12         0.61320

 Excited state symmetry could not be determined.
 Excited State  24:      Singlet-?Sym   17.6433 eV   70.27 nm  f=0.0000  <S**2>=0.000
       6 -> 14        -0.49724
       7 -> 13         0.49724

 Excited state symmetry could not be determined.
 Excited State  25:      Singlet-?Sym   17.6433 eV   70.27 nm  f=0.0000  <S**2>=0.000
       6 -> 13         0.49724
       7 -> 14         0.49724

 Excited state symmetry could not be determined.
 Excited State  26:      Singlet-?Sym   17.6601 eV   70.21 nm  f=0.0000  <S**2>=0.000
       6 -> 13        -0.49678
       7 -> 14         0.49678

 Excited State  27:      Singlet-SGG   18.0557 eV   68.67 nm  f=0.0000  <S**2>=0.000
       5 -> 11         0.53752
       6 -> 14        -0.32135
       7 -> 13        -0.32135

 Excited State  28:      Singlet-SGU   18.9315 eV   65.49 nm  f=0.0106  <S**2>=0.000
       5 -> 12         0.60268
       6 -> 15         0.24185
       7 -> 16         0.24185

 Excited State  29:      Singlet-SGG   18.9476 eV   65.44 nm  f=0.0000  <S**2>=0.000
       5 -> 11         0.44529
       5 -> 17        -0.11996
       6 -> 14         0.36243
       7 -> 13         0.36243
       8 -> 15         0.10121
       9 -> 16         0.10121

 Excited state symmetry could not be determined.
 Excited State  30:      Singlet-?Sym   19.3563 eV   64.05 nm  f=0.0099  <S**2>=0.000
       5 -> 13         0.49563
       5 -> 14        -0.49320

 Excited state symmetry could not be determined.
 Excited State  31:      Singlet-?Sym   19.3563 eV   64.05 nm  f=0.0099  <S**2>=0.000
       5 -> 13         0.49320
       5 -> 14         0.49563

 Excited state symmetry could not be determined.
 Excited State  32:      Singlet-?Sym   19.5036 eV   63.57 nm  f=0.0000  <S**2>=0.000
       6 -> 16         0.49945
       7 -> 15         0.49945

 Excited state symmetry could not be determined.
 Excited State  33:      Singlet-?Sym   19.5036 eV   63.57 nm  f=0.0000  <S**2>=0.000
       6 -> 15         0.49945
       7 -> 16        -0.49945

 Excited state symmetry could not be determined.
 Excited State  34:      Singlet-?Sym   19.5276 eV   63.49 nm  f=0.0633  <S**2>=0.000
       6 -> 17         0.30927
       7 -> 17         0.62543

 Excited state symmetry could not be determined.
 Excited State  35:      Singlet-?Sym   19.5276 eV   63.49 nm  f=0.0633  <S**2>=0.000
       6 -> 17         0.62543
       7 -> 17        -0.30927

 Excited state symmetry could not be determined.
 Excited State  36:      Singlet-?Sym   19.5366 eV   63.46 nm  f=0.0000  <S**2>=0.000
       6 -> 16        -0.49950
       7 -> 15         0.49950

 Excited state symmetry could not be determined.
 Excited State  37:      Singlet-?Sym   20.1726 eV   61.46 nm  f=0.0038  <S**2>=0.000
       5 -> 10         0.17417
       5 -> 12        -0.28973
       6 -> 15         0.42506
       7 -> 16         0.42506

 Excited state symmetry could not be determined.
 Excited State  38:      Singlet-?Sym   21.0058 eV   59.02 nm  f=0.0655  <S**2>=0.000
       8 -> 18         0.38443
       9 -> 18         0.59228

 Excited state symmetry could not be determined.
 Excited State  39:      Singlet-?Sym   21.0058 eV   59.02 nm  f=0.0655  <S**2>=0.000
       8 -> 18         0.59228
       9 -> 18        -0.38443

 Excited state symmetry could not be determined.
 Excited State  40:      Singlet-?Sym   21.2021 eV   58.48 nm  f=0.0000  <S**2>=0.000
       5 -> 15         0.60853
       5 -> 16         0.35967

 Excited state symmetry could not be determined.
 Excited State  41:      Singlet-?Sym   21.2021 eV   58.48 nm  f=0.0000  <S**2>=0.000
       5 -> 15        -0.35967
       5 -> 16         0.60853

 Excited State  42:      Singlet-SGG   21.2602 eV   58.32 nm  f=0.0000  <S**2>=0.000
       5 -> 17         0.69183

 Excited state symmetry could not be determined.
 Excited State  43:      Singlet-?Sym   22.4718 eV   55.17 nm  f=0.0000  <S**2>=0.000
       8 -> 19         0.17699
       8 -> 20         0.46716
       9 -> 19         0.46717
       9 -> 20        -0.17699

 Excited state symmetry could not be determined.
 Excited State  44:      Singlet-?Sym   22.4718 eV   55.17 nm  f=0.0000  <S**2>=0.000
       8 -> 19         0.46717
       8 -> 20        -0.17699
       9 -> 19        -0.17699
       9 -> 20        -0.46716

 Excited state symmetry could not be determined.
 Excited State  45:      Singlet-?Sym   22.8590 eV   54.24 nm  f=0.0000  <S**2>=0.000
       8 -> 20         0.49234
       9 -> 19        -0.49233

 Excited state symmetry could not be determined.
 Excited State  46:      Singlet-?Sym   22.8590 eV   54.24 nm  f=0.0000  <S**2>=0.000
       8 -> 19         0.49233
       9 -> 20         0.49234

 Excited state symmetry could not be determined.
 Excited State  47:      Singlet-?Sym   24.8040 eV   49.99 nm  f=0.0000  <S**2>=0.000
       6 -> 18         0.69595
       7 -> 18        -0.12049

 Excited state symmetry could not be determined.
 Excited State  48:      Singlet-?Sym   24.8040 eV   49.99 nm  f=0.0000  <S**2>=0.000
       6 -> 18         0.12049
       7 -> 18         0.69595

 Excited State  49:      Singlet-SGG   24.9594 eV   49.67 nm  f=0.0000  <S**2>=0.000
       4 -> 10         0.68305

 Excited state symmetry could not be determined.
 Excited State  50:      Singlet-?Sym   26.2454 eV   47.24 nm  f=0.0000  <S**2>=0.000
       6 -> 19         0.48636
       7 -> 20        -0.48636

 Excited state symmetry could not be determined.
 Excited State  51:      Singlet-?Sym   26.2454 eV   47.24 nm  f=0.0000  <S**2>=0.000
       6 -> 20         0.48636
       7 -> 19         0.48636

 Excited state symmetry could not be determined.
 Excited State  52:      Singlet-?Sym   26.5688 eV   46.67 nm  f=0.0000  <S**2>=0.000
       8 -> 21         0.49941
       9 -> 22        -0.49941

 Excited state symmetry could not be determined.
 Excited State  53:      Singlet-?Sym   26.5688 eV   46.67 nm  f=0.0000  <S**2>=0.000
       8 -> 22         0.49941
       9 -> 21         0.49941

 Excited State  54:      Singlet-SGU   26.5818 eV   46.64 nm  f=0.1638  <S**2>=0.000
       5 -> 18         0.66178
       8 -> 21         0.17426
       9 -> 22         0.17426

 Excited state symmetry could not be determined.
 Excited State  55:      Singlet-?Sym   26.6705 eV   46.49 nm  f=0.0000  <S**2>=0.000
       8 -> 22        -0.49964
       9 -> 21         0.49964

 Excited state symmetry could not be determined.
 Excited State  56:      Singlet-?Sym   27.1570 eV   45.65 nm  f=0.3332  <S**2>=0.000
       6 -> 19         0.35034
       6 -> 20         0.33868
       7 -> 19        -0.33868
       7 -> 20         0.35034

 Excited state symmetry could not be determined.
 Excited State  57:      Singlet-?Sym   27.1570 eV   45.65 nm  f=0.3332  <S**2>=0.000
       6 -> 19         0.33868
       6 -> 20        -0.35034
       7 -> 19         0.35034
       7 -> 20         0.33868

 Excited state symmetry could not be determined.
 Excited State  58:      Singlet-?Sym   28.1164 eV   44.10 nm  f=0.0000  <S**2>=0.000
       5 -> 20         0.70679

 Excited state symmetry could not be determined.
 Excited State  59:      Singlet-?Sym   28.1164 eV   44.10 nm  f=0.0000  <S**2>=0.000
       5 -> 19         0.70679

 Excited state symmetry could not be determined.
 Excited State  60:      Singlet-?Sym   28.2398 eV   43.90 nm  f=1.0341  <S**2>=0.000
       4 -> 11        -0.15384
       5 -> 10        -0.12568
       5 -> 18        -0.23120
       8 -> 21         0.44490
       9 -> 22         0.44490

 Excited state symmetry could not be determined.
 Excited State  61:      Singlet-?Sym   28.5290 eV   43.46 nm  f=0.0144  <S**2>=0.000
       8 -> 23         0.29387
       8 -> 25         0.10736
       9 -> 23         0.61579
       9 -> 24        -0.10733

 Excited state symmetry could not be determined.
 Excited State  62:      Singlet-?Sym   28.5290 eV   43.46 nm  f=0.0144  <S**2>=0.000
       8 -> 23         0.61579
       8 -> 24         0.10733
       9 -> 23        -0.29387
       9 -> 25         0.10736

 Excited state symmetry could not be determined.
 Excited State  63:      Singlet-?Sym   28.6059 eV   43.34 nm  f=0.0000  <S**2>=0.000
       8 -> 24        -0.29394
       8 -> 25         0.39700
       9 -> 24         0.39702
       9 -> 25         0.29393

 Excited state symmetry could not be determined.
 Excited State  64:      Singlet-?Sym   28.6059 eV   43.34 nm  f=0.0000  <S**2>=0.000
       8 -> 24         0.39702
       8 -> 25         0.29393
       9 -> 24         0.29394
       9 -> 25        -0.39700

 Excited state symmetry could not be determined.
 Excited State  65:      Singlet-?Sym   29.2162 eV   42.44 nm  f=0.5380  <S**2>=0.000
       5 -> 22        -0.12744
       8 -> 25         0.46808
       9 -> 23        -0.15082
       9 -> 24        -0.46807

 Excited state symmetry could not be determined.
 Excited State  66:      Singlet-?Sym   29.2162 eV   42.44 nm  f=0.5380  <S**2>=0.000
       5 -> 21        -0.12744
       8 -> 23        -0.15082
       8 -> 24         0.46807
       9 -> 25         0.46808

 Excited state symmetry could not be determined.
 Excited State  67:      Singlet-?Sym   30.2327 eV   41.01 nm  f=0.0000  <S**2>=0.000
       6 -> 22         0.41122
       7 -> 21         0.41122
       8 -> 27        -0.28397
       9 -> 28        -0.28397

 Excited state symmetry could not be determined.
 Excited State  68:      Singlet-?Sym   30.2327 eV   41.01 nm  f=0.0000  <S**2>=0.000
       6 -> 21         0.41121
       7 -> 22        -0.41121
       8 -> 28        -0.28398
       9 -> 27         0.28398

 Excited state symmetry could not be determined.
 Excited State  69:      Singlet-?Sym   30.3457 eV   40.86 nm  f=0.0000  <S**2>=0.000
       6 -> 22        -0.41638
       7 -> 21         0.41638
       8 -> 27         0.27669
       9 -> 28        -0.27669

 Excited state symmetry could not be determined.
 Excited State  70:      Singlet-?Sym   30.6150 eV   40.50 nm  f=0.0000  <S**2>=0.000
       6 -> 23         0.15298
       8 -> 26         0.64783
       9 -> 26        -0.22198

 Excited state symmetry could not be determined.
 Excited State  71:      Singlet-?Sym   30.6150 eV   40.50 nm  f=0.0000  <S**2>=0.000
       7 -> 23         0.15298
       8 -> 26         0.22198
       9 -> 26         0.64783

 Excited state symmetry could not be determined.
 Excited State  72:      Singlet-?Sym   30.8793 eV   40.15 nm  f=0.0000  <S**2>=0.000
       6 -> 22        -0.27660
       7 -> 21         0.27660
       8 -> 27        -0.41601
       9 -> 28         0.41601

 Excited state symmetry could not be determined.
 Excited State  73:      Singlet-?Sym   30.8890 eV   40.14 nm  f=0.0000  <S**2>=0.000
       6 -> 21        -0.28412
       7 -> 22         0.28412
       8 -> 28        -0.41108
       9 -> 27         0.41108

 Excited state symmetry could not be determined.
 Excited State  74:      Singlet-?Sym   30.8890 eV   40.14 nm  f=0.0000  <S**2>=0.000
       6 -> 22         0.28411
       7 -> 21         0.28411
       8 -> 27         0.41108
       9 -> 28         0.41108

 Excited State  75:      Singlet-SGG   31.0437 eV   39.94 nm  f=0.0000  <S**2>=0.000
       4 -> 12         0.54884
       6 -> 21         0.31038
       7 -> 22         0.31038

 Excited State  76:      Singlet-SGU   31.2081 eV   39.73 nm  f=0.0488  <S**2>=0.000
       3 -> 10         0.12566
       4 -> 11         0.67588

 Excited State  77:      Singlet-SGG   31.8060 eV   38.98 nm  f=0.0000  <S**2>=0.000
       4 -> 12         0.44388
       6 -> 21        -0.38065
       7 -> 22        -0.38065

 Excited state symmetry could not be determined.
 Excited State  78:      Singlet-?Sym   31.9008 eV   38.87 nm  f=0.0000  <S**2>=0.000
       5 -> 26         0.12645
       8 -> 28         0.48293
       9 -> 27         0.48293

 Excited state symmetry could not be determined.
 Excited State  79:      Singlet-?Sym   32.0791 eV   38.65 nm  f=0.0000  <S**2>=0.000
       4 -> 13         0.65706
       4 -> 14         0.18210
       6 -> 25        -0.12268
       7 -> 24         0.12267

 Excited state symmetry could not be determined.
 Excited State  80:      Singlet-?Sym   32.0791 eV   38.65 nm  f=0.0000  <S**2>=0.000
       4 -> 13        -0.18210
       4 -> 14         0.65706
       6 -> 24        -0.12267
       7 -> 25        -0.12268

 Excited State  81:      Singlet-SGU   32.3144 eV   38.37 nm  f=0.0665  <S**2>=0.000
       3 -> 10         0.64357
       5 -> 23        -0.13663
       6 -> 28         0.15209
       7 -> 27         0.15209

 Excited state symmetry could not be determined.
 Excited State  82:      Singlet-?Sym   32.3799 eV   38.29 nm  f=0.0000  <S**2>=0.000
       6 -> 24        -0.30672
       6 -> 25         0.39432
       7 -> 24         0.39432
       7 -> 25         0.30672

 Excited state symmetry could not be determined.
 Excited State  83:      Singlet-?Sym   32.3799 eV   38.29 nm  f=0.0000  <S**2>=0.000
       6 -> 24         0.39432
       6 -> 25         0.30672
       7 -> 24         0.30672
       7 -> 25        -0.39432

 Excited state symmetry could not be determined.
 Excited State  84:      Singlet-?Sym   32.5017 eV   38.15 nm  f=0.0000  <S**2>=0.000
       6 -> 23         0.22152
       7 -> 23         0.64911
       9 -> 26        -0.15543

 Excited state symmetry could not be determined.
 Excited State  85:      Singlet-?Sym   32.5017 eV   38.15 nm  f=0.0000  <S**2>=0.000
       6 -> 23         0.64911
       7 -> 23        -0.22152
       8 -> 26        -0.15543

 Excited state symmetry could not be determined.
 Excited State  86:      Singlet-?Sym   32.6743 eV   37.95 nm  f=0.4236  <S**2>=0.000
       4 -> 15        -0.11558
       5 -> 21         0.65410
       5 -> 22         0.17500

 Excited state symmetry could not be determined.
 Excited State  87:      Singlet-?Sym   32.6743 eV   37.95 nm  f=0.4236  <S**2>=0.000
       4 -> 16        -0.11558
       5 -> 21        -0.17500
       5 -> 22         0.65410

 Excited state symmetry could not be determined.
 Excited State  88:      Singlet-?Sym   32.8455 eV   37.75 nm  f=0.0000  <S**2>=0.000
       4 -> 13        -0.16470
       6 -> 24         0.17736
       6 -> 25        -0.44661
       7 -> 24         0.44661
       7 -> 25         0.17736

 Excited state symmetry could not be determined.
 Excited State  89:      Singlet-?Sym   32.8455 eV   37.75 nm  f=0.0000  <S**2>=0.000
       4 -> 14         0.16470
       6 -> 24         0.44661
       6 -> 25         0.17736
       7 -> 24        -0.17736
       7 -> 25         0.44661

 Excited State  90:      Singlet-SGU   33.7528 eV   36.73 nm  f=0.0457  <S**2>=0.000
       4 -> 17         0.64021
       5 -> 23        -0.29103

 Excited state symmetry could not be determined.
 Excited State  91:      Singlet-?Sym   33.9663 eV   36.50 nm  f=0.0000  <S**2>=0.000
       4 -> 15         0.68105
       4 -> 16        -0.10137
       6 -> 26         0.11763

 Excited state symmetry could not be determined.
 Excited State  92:      Singlet-?Sym   33.9663 eV   36.50 nm  f=0.0000  <S**2>=0.000
       4 -> 15         0.10137
       4 -> 16         0.68105
       7 -> 26         0.11763

 Excited state symmetry could not be determined.
 Excited State  93:      Singlet-?Sym   34.1509 eV   36.30 nm  f=0.0000  <S**2>=0.000
       5 -> 24         0.69708

 Excited state symmetry could not be determined.
 Excited State  94:      Singlet-?Sym   34.1509 eV   36.30 nm  f=0.0000  <S**2>=0.000
       5 -> 25         0.69708

 Excited State  95:      Singlet-SGU   34.1620 eV   36.29 nm  f=0.0037  <S**2>=0.000
       4 -> 17         0.27891
       5 -> 23         0.57060
       6 -> 28         0.21607
       7 -> 27         0.21607

 Excited state symmetry could not be determined.
 Excited State  96:      Singlet-?Sym   34.5603 eV   35.87 nm  f=0.0000  <S**2>=0.000
       5 -> 25         0.11677
       6 -> 27         0.49211
       7 -> 28         0.49211

 Excited state symmetry could not be determined.
 Excited State  97:      Singlet-?Sym   34.5603 eV   35.87 nm  f=0.0000  <S**2>=0.000
       5 -> 24        -0.11677
       6 -> 28        -0.49211
       7 -> 27         0.49211

 Excited state symmetry could not be determined.
 Excited State  98:      Singlet-?Sym   34.5697 eV   35.87 nm  f=0.0000  <S**2>=0.000
       6 -> 27        -0.49893
       7 -> 28         0.49893

 Excited state symmetry could not be determined.
 Excited State  99:      Singlet-?Sym   34.7064 eV   35.72 nm  f=0.0792  <S**2>=0.000
       4 -> 15        -0.10228
       5 -> 21        -0.10195
       6 -> 26         0.68605

 Excited state symmetry could not be determined.
 Excited State 100:      Singlet-?Sym   34.7064 eV   35.72 nm  f=0.0792  <S**2>=0.000
       4 -> 16        -0.10228
       5 -> 22        -0.10195
       7 -> 26         0.68605

 Excited state symmetry could not be determined.
 Excited State 101:      Singlet-?Sym   35.9272 eV   34.51 nm  f=0.0729  <S**2>=0.000
       3 -> 10        -0.22034
       5 -> 23        -0.25143
       6 -> 28         0.41392
       7 -> 27         0.41392
       8 -> 29         0.11599
       9 -> 30         0.11599

 Excited state symmetry could not be determined.
 Excited State 102:      Singlet-?Sym   36.2855 eV   34.17 nm  f=0.0000  <S**2>=0.000
       5 -> 28         0.70347

 Excited state symmetry could not be determined.
 Excited State 103:      Singlet-?Sym   36.2855 eV   34.17 nm  f=0.0000  <S**2>=0.000
       5 -> 27         0.70347

 Excited State 104:      Singlet-SGG   36.7568 eV   33.73 nm  f=0.0000  <S**2>=0.000
       5 -> 26         0.68498

 Excited State 105:      Singlet-SGG   38.4223 eV   32.27 nm  f=0.0000  <S**2>=0.000
       3 -> 11         0.69931

 Excited State 106:      Singlet-SGU   38.7278 eV   32.01 nm  f=0.0015  <S**2>=0.000
       3 -> 12         0.70552

 Excited State 107:      Singlet-SGG   39.3903 eV   31.48 nm  f=0.0000  <S**2>=0.000
       4 -> 18         0.70182

 Excited state symmetry could not be determined.
 Excited State 108:      Singlet-?Sym   39.5663 eV   31.34 nm  f=0.0007  <S**2>=0.000
       3 -> 13         0.23629
       3 -> 14         0.66529

 Excited state symmetry could not be determined.
 Excited State 109:      Singlet-?Sym   39.5663 eV   31.34 nm  f=0.0007  <S**2>=0.000
       3 -> 13         0.66529
       3 -> 14        -0.23629

 The electronic state is 1-SGG.
 Alpha  occ. eigenvalues --  -24.81584 -24.81568  -1.36621  -1.09176  -0.62708
 Alpha  occ. eigenvalues --   -0.56464  -0.56464  -0.42397  -0.42397
 Alpha virt. eigenvalues --   -0.14991   0.09475   0.09758   0.13620   0.13620
 Alpha virt. eigenvalues --    0.19843   0.19843   0.20241   0.39760   0.47391
 Alpha virt. eigenvalues --    0.47391   0.62708   0.62708   0.68737   0.69272

 Mulliken charges:
               1
     1  F    0.000000
     2  F    0.000000
 Sum of Mulliken charges =   0.00000

 Dipole moment (field-independent basis, Debye):
    X=              0.0000    Y=             -0.0000    Z=              0.0000  Tot=              0.0000
 Quadrupole moment (field-independent basis, Debye-Ang):
   XX=             -9.8025   YY=             -9.8025   ZZ=             -9.0391
   XY=              0.0000   XZ=              0.0000   YZ=              0.0000

 Normal termination of Gaussian 16 at Mon Mar 21 20:04:18 2022.
