 Gaussian 16, Revision C.01,
 Gaussian 16:  EM64L-G16RevC.01  3-Jul-2019

 ---------------------------------------------------------------------
 #P TD(Nstates=10000) b3lyp/Gen SCF(maxcycles=100) Int(Grid=ultrafine)
 ---------------------------------------------------------------------

 ---------------------
 xGDB7_00001_tier4.com
 ---------------------
 Symbolic Z-matrix:
 Charge =  0 Multiplicity = 1

                         Standard orientation:
 ---------------------------------------------------------------------
 Center     Atomic      Atomic             Coordinates (Angstroms)
 Number     Number       Type             X           Y           Z
 ---------------------------------------------------------------------
      1          7           0        1.106441    0.142513   -0.090982
      2          7           0       -0.080753   -0.512520    0.006066
      3          6           0       -1.148696    0.167456    0.008166
      4          1           0        1.854749   -0.409916    0.291533
      5          1           0        1.109676    1.100453    0.242713
      6          1           0       -2.089851   -0.366199    0.035249
      7          1           0       -1.162209    1.260974   -0.024080
 ---------------------------------------------------------------------

 SCF Done:  E(RB3LYP) =  -149.866712653     A.U. after   13 cycles

 Excitation energies and oscillator strengths:

 Excited State   1:      Singlet-A      5.7722 eV  214.80 nm  f=0.0122  <S**2>=0.000
      11 -> 13         0.67028
      12 -> 13         0.21389
 This state for optimization and/or second-order correction.
 Total Energy, E(TD-HF/TD-DFT) =  -149.654588575
 Copying the excited state density for this state as the 1-particle RhoCI density.

 Excited State   2:      Singlet-A      5.9701 eV  207.67 nm  f=0.1171  <S**2>=0.000
      11 -> 13        -0.19347
      12 -> 13         0.56666
      12 -> 14         0.35780

 Excited State   3:      Singlet-A      6.2945 eV  196.97 nm  f=0.0893  <S**2>=0.000
      12 -> 13        -0.33738
      12 -> 14         0.60468

 Excited State   4:      Singlet-A      7.0883 eV  174.91 nm  f=0.0265  <S**2>=0.000
      12 -> 15         0.69854

 Excited State   5:      Singlet-A      7.3424 eV  168.86 nm  f=0.0432  <S**2>=0.000
      11 -> 14         0.69915

 Excited State   6:      Singlet-A      7.6986 eV  161.05 nm  f=0.0154  <S**2>=0.000
      12 -> 16         0.69780

 Excited State   7:      Singlet-A      8.1186 eV  152.72 nm  f=0.0259  <S**2>=0.000
      11 -> 15         0.70006

 Excited State   8:      Singlet-A      8.5114 eV  145.67 nm  f=0.0108  <S**2>=0.000
      12 -> 17         0.69489

 Excited State   9:      Singlet-A      8.8235 eV  140.52 nm  f=0.0625  <S**2>=0.000
      11 -> 16         0.54030
      12 -> 18        -0.44461

 Excited State  10:      Singlet-A      8.8603 eV  139.93 nm  f=0.0558  <S**2>=0.000
      11 -> 16         0.44048
      12 -> 18         0.53749

 Excited State  11:      Singlet-A      9.3127 eV  133.13 nm  f=0.0063  <S**2>=0.000
       9 -> 13        -0.10158
      12 -> 19         0.69082

 Excited State  12:      Singlet-A      9.5676 eV  129.59 nm  f=0.0135  <S**2>=0.000
       9 -> 13         0.51104
      10 -> 13        -0.32516
      11 -> 17        -0.32279
      12 -> 19         0.11911

 Excited State  13:      Singlet-A      9.6183 eV  128.90 nm  f=0.0432  <S**2>=0.000
       9 -> 13         0.32401
      11 -> 17         0.57058
      11 -> 18         0.21079

 Excited State  14:      Singlet-A      9.8285 eV  126.15 nm  f=0.0798  <S**2>=0.000
      11 -> 17        -0.21758
      11 -> 18         0.66549

 Excited State  15:      Singlet-A     10.1459 eV  122.20 nm  f=0.0765  <S**2>=0.000
       9 -> 13         0.30718
      10 -> 13         0.50833
      10 -> 14         0.21519
      11 -> 19         0.18654
      12 -> 20         0.10829
      12 -> 21         0.11699

 Excited State  16:      Singlet-A     10.2685 eV  120.74 nm  f=0.0196  <S**2>=0.000
      11 -> 19         0.64852
      12 -> 20        -0.22210

 Excited State  17:      Singlet-A     10.4287 eV  118.89 nm  f=0.0335  <S**2>=0.000
      10 -> 14        -0.45571
      12 -> 21         0.52410

 Excited State  18:      Singlet-A     10.4575 eV  118.56 nm  f=0.0177  <S**2>=0.000
      10 -> 13        -0.10499
      10 -> 14         0.41931
      12 -> 20        -0.38205
      12 -> 21         0.37431

 Excited State  19:      Singlet-A     10.5324 eV  117.72 nm  f=0.0524  <S**2>=0.000
      10 -> 13        -0.20779
      10 -> 14         0.22368
      11 -> 19         0.17605
      12 -> 20         0.50350
      12 -> 21         0.24510

 Excited State  20:      Singlet-A     10.8112 eV  114.68 nm  f=0.0571  <S**2>=0.000
      12 -> 22         0.69402

 Excited State  21:      Singlet-A     11.1431 eV  111.27 nm  f=0.0247  <S**2>=0.000
      11 -> 20         0.69152

 Excited State  22:      Singlet-A     11.2406 eV  110.30 nm  f=0.1054  <S**2>=0.000
       9 -> 14         0.63646
      10 -> 15        -0.20241
      11 -> 21        -0.14425

 Excited State  23:      Singlet-A     11.2922 eV  109.80 nm  f=0.0082  <S**2>=0.000
       9 -> 14         0.20041
      10 -> 15         0.66157

 Excited State  24:      Singlet-A     11.4328 eV  108.45 nm  f=0.0283  <S**2>=0.000
       9 -> 14         0.10204
      11 -> 21         0.59762
      12 -> 23         0.30063
      12 -> 24        -0.14827

 Excited State  25:      Singlet-A     11.5192 eV  107.63 nm  f=0.0584  <S**2>=0.000
       9 -> 14        -0.10708
      11 -> 21        -0.29467
      12 -> 23         0.44381
      12 -> 24        -0.41175

 Excited State  26:      Singlet-A     11.5857 eV  107.01 nm  f=0.0227  <S**2>=0.000
      11 -> 22         0.12976
      12 -> 23         0.39942
      12 -> 24         0.53518

 Excited State  27:      Singlet-A     11.7922 eV  105.14 nm  f=0.0663  <S**2>=0.000
      11 -> 22         0.66582

 Excited State  28:      Singlet-A     11.9038 eV  104.15 nm  f=0.0147  <S**2>=0.000
      10 -> 16         0.67868
      11 -> 22        -0.10280

 Excited State  29:      Singlet-A     11.9160 eV  104.05 nm  f=0.0036  <S**2>=0.000
       8 -> 13         0.64658
      12 -> 25         0.22110

 Excited State  30:      Singlet-A     12.0834 eV  102.61 nm  f=0.0656  <S**2>=0.000
       9 -> 15         0.68110

 Excited State  31:      Singlet-A     12.1747 eV  101.84 nm  f=0.0879  <S**2>=0.000
       8 -> 13        -0.16041
      11 -> 23         0.31771
      12 -> 25         0.57769

 Excited State  32:      Singlet-A     12.2569 eV  101.16 nm  f=0.0494  <S**2>=0.000
       8 -> 13         0.13916
      11 -> 23         0.61832
      12 -> 25        -0.28504

 Excited State  33:      Singlet-A     12.4328 eV   99.72 nm  f=0.0849  <S**2>=0.000
      11 -> 24        -0.12224
      12 -> 26         0.60221
      12 -> 27        -0.29854

 Excited State  34:      Singlet-A     12.7015 eV   97.61 nm  f=0.0264  <S**2>=0.000
      10 -> 17         0.44651
      11 -> 24        -0.44647
      12 -> 26        -0.19359
      12 -> 27        -0.14950

 Excited State  35:      Singlet-A     12.7513 eV   97.23 nm  f=0.0552  <S**2>=0.000
       9 -> 16         0.27037
      10 -> 17         0.29264
      12 -> 26         0.24237
      12 -> 27         0.51183

 Excited State  36:      Singlet-A     12.7740 eV   97.06 nm  f=0.0141  <S**2>=0.000
      10 -> 17         0.42949
      11 -> 24         0.45896
      11 -> 25         0.18722
      12 -> 27        -0.19912

 Excited State  37:      Singlet-A     12.8454 eV   96.52 nm  f=0.0419  <S**2>=0.000
       7 -> 13         0.10829
       9 -> 16         0.61777
      12 -> 26        -0.13323
      12 -> 27        -0.24076

 Excited State  38:      Singlet-A     12.8853 eV   96.22 nm  f=0.0038  <S**2>=0.000
       7 -> 13         0.67637
       9 -> 16        -0.11503
      10 -> 18         0.10078

 Excited State  39:      Singlet-A     13.0825 eV   94.77 nm  f=0.0274  <S**2>=0.000
       7 -> 13        -0.10073
      10 -> 18         0.68867

 Excited State  40:      Singlet-A     13.2344 eV   93.68 nm  f=0.0162  <S**2>=0.000
       8 -> 14         0.15704
      11 -> 24        -0.13866
      11 -> 25         0.61037
      11 -> 26         0.16280
      11 -> 27        -0.10231

 Excited State  41:      Singlet-A     13.4306 eV   92.31 nm  f=0.0158  <S**2>=0.000
      10 -> 19        -0.10283
      11 -> 25        -0.17715
      11 -> 26         0.65181
      11 -> 27        -0.10924

 Excited State  42:      Singlet-A     13.5269 eV   91.66 nm  f=0.0952  <S**2>=0.000
       8 -> 14        -0.12787
      10 -> 19         0.66652
      11 -> 26         0.11497

 Excited State  43:      Singlet-A     13.5695 eV   91.37 nm  f=0.0181  <S**2>=0.000
       8 -> 14         0.54260
       9 -> 17        -0.27333
       9 -> 18        -0.30232

 Excited State  44:      Singlet-A     13.6805 eV   90.63 nm  f=0.0117  <S**2>=0.000
       8 -> 14         0.30292
       9 -> 17         0.52559
       9 -> 18         0.18229
      10 -> 19         0.13781
      11 -> 25        -0.10841
      11 -> 27        -0.14237

 Excited State  45:      Singlet-A     13.8467 eV   89.54 nm  f=0.0436  <S**2>=0.000
       8 -> 14         0.14098
      11 -> 26         0.12567
      11 -> 27         0.64135

 Excited State  46:      Singlet-A     13.8777 eV   89.34 nm  f=0.0058  <S**2>=0.000
       8 -> 14         0.13436
       9 -> 17        -0.27876
       9 -> 18         0.55845
       9 -> 19         0.17253
      10 -> 20        -0.16412

 Excited State  47:      Singlet-A     14.1468 eV   87.64 nm  f=0.0186  <S**2>=0.000
       7 -> 14         0.46238
       8 -> 15         0.11430
       9 -> 19         0.14025
      12 -> 28        -0.45773
      12 -> 29         0.13450

 Excited State  48:      Singlet-A     14.1986 eV   87.32 nm  f=0.0891  <S**2>=0.000
       7 -> 14         0.48140
       8 -> 15        -0.12830
      12 -> 28         0.44612
      12 -> 29        -0.10164

 Excited State  49:      Singlet-A     14.3081 eV   86.65 nm  f=0.0230  <S**2>=0.000
       8 -> 15         0.34428
       9 -> 19         0.20195
      10 -> 20        -0.16715
      12 -> 28         0.24660
      12 -> 29         0.46974

 Excited State  50:      Singlet-A     14.3639 eV   86.32 nm  f=0.1135  <S**2>=0.000
       7 -> 14        -0.11640
       9 -> 19         0.53261
      10 -> 20         0.38332

 Excited State  51:      Singlet-A     14.4062 eV   86.06 nm  f=0.0727  <S**2>=0.000
       8 -> 15        -0.30510
       9 -> 19        -0.24016
      10 -> 20         0.30457
      12 -> 29         0.46883

 Excited State  52:      Singlet-A     14.5525 eV   85.20 nm  f=0.0192  <S**2>=0.000
       8 -> 15         0.19629
       9 -> 19        -0.11666
      10 -> 20         0.21715
      10 -> 21        -0.20506
      10 -> 22        -0.11756
      12 -> 30         0.55327

 Excited State  53:      Singlet-A     14.6169 eV   84.82 nm  f=0.0369  <S**2>=0.000
       7 -> 16        -0.12129
       8 -> 15         0.35338
       9 -> 17        -0.10305
       9 -> 18         0.10286
       9 -> 19        -0.10387
      10 -> 20         0.29187
      10 -> 21         0.41429
      12 -> 30        -0.17544

 Excited State  54:      Singlet-A     14.6784 eV   84.47 nm  f=0.0172  <S**2>=0.000
       8 -> 15        -0.16231
      10 -> 20        -0.13528
      10 -> 21         0.51088
      12 -> 30         0.36679

 Excited State  55:      Singlet-A     14.9734 eV   82.80 nm  f=0.0425  <S**2>=0.000
       7 -> 15         0.18091
       8 -> 16         0.57886
      10 -> 22         0.29897
      11 -> 28         0.10740

 Excited State  56:      Singlet-A     15.0344 eV   82.47 nm  f=0.0229  <S**2>=0.000
       6 -> 13        -0.12955
       8 -> 16        -0.21799
       9 -> 20         0.19512
      10 -> 22         0.28591
      11 -> 28         0.47979
      11 -> 29        -0.21012

 Excited State  57:      Singlet-A     15.0929 eV   82.15 nm  f=0.0057  <S**2>=0.000
       7 -> 15         0.28753
       9 -> 20         0.53413
      10 -> 22         0.10167
      11 -> 28        -0.26496

 Excited State  58:      Singlet-A     15.1024 eV   82.10 nm  f=0.0257  <S**2>=0.000
       7 -> 15         0.22301
       8 -> 16        -0.25540
       9 -> 20        -0.34206
      10 -> 22         0.38890
      10 -> 23         0.13189
      11 -> 28        -0.17568
      12 -> 31        -0.10579

 Excited State  59:      Singlet-A     15.1353 eV   81.92 nm  f=0.0565  <S**2>=0.000
       7 -> 15         0.52067
      10 -> 22        -0.29171
      11 -> 28         0.18371
      11 -> 29        -0.18516
      11 -> 30        -0.11275

 Excited State  60:      Singlet-A     15.2214 eV   81.45 nm  f=0.0469  <S**2>=0.000
      11 -> 28        -0.12253
      12 -> 31         0.66120

 Excited State  61:      Singlet-A     15.2694 eV   81.20 nm  f=0.0249  <S**2>=0.000
       6 -> 13         0.47742
       9 -> 20         0.12355
       9 -> 21        -0.17288
       9 -> 22         0.12585
       9 -> 23        -0.10595
      10 -> 24         0.12765
      11 -> 28         0.17862
      11 -> 29         0.27861
      12 -> 31         0.16320

 Excited State  62:      Singlet-A     15.3666 eV   80.68 nm  f=0.0421  <S**2>=0.000
       6 -> 13        -0.30784
       7 -> 15         0.11106
       7 -> 16         0.13390
       9 -> 22        -0.11256
      11 -> 28         0.22435
      11 -> 29         0.48648
      11 -> 30         0.12432

 Excited State  63:      Singlet-A     15.4868 eV   80.06 nm  f=0.0435  <S**2>=0.000
       6 -> 13         0.11321
       9 -> 21         0.62512
      11 -> 30         0.16994

 Excited State  64:      Singlet-A     15.5474 eV   79.75 nm  f=0.0015  <S**2>=0.000
      10 -> 23        -0.23126
      11 -> 30         0.13872
      12 -> 32         0.58574
      12 -> 33         0.23879

 Excited State  65:      Singlet-A     15.5795 eV   79.58 nm  f=0.0009  <S**2>=0.000
       8 -> 17         0.15224
       9 -> 22         0.14845
      10 -> 23         0.47405
      10 -> 24        -0.24355
      12 -> 32         0.10592
      12 -> 33         0.30245

 Excited State  66:      Singlet-A     15.6398 eV   79.27 nm  f=0.0387  <S**2>=0.000
       8 -> 17        -0.16611
       9 -> 22         0.16377
      11 -> 29        -0.18505
      11 -> 30         0.57582
      12 -> 32        -0.16495

 Excited State  67:      Singlet-A     15.7172 eV   78.88 nm  f=0.0611  <S**2>=0.000
       9 -> 22         0.13678
      10 -> 23        -0.33383
      10 -> 24        -0.13227
      11 -> 30        -0.12498
      12 -> 32        -0.25713
      12 -> 33         0.45570
      12 -> 34        -0.11903

 Excited State  68:      Singlet-A     15.7764 eV   78.59 nm  f=0.0983  <S**2>=0.000
       6 -> 13        -0.17137
       8 -> 17         0.21512
       9 -> 22         0.38322
      10 -> 24         0.47360

 Excited State  69:      Singlet-A     15.8345 eV   78.30 nm  f=0.0582  <S**2>=0.000
       7 -> 16         0.23312
       9 -> 22         0.41168
      10 -> 23        -0.12286
      10 -> 24        -0.31378
      12 -> 32         0.13063
      12 -> 33        -0.26976
      12 -> 34         0.10416

 Excited State  70:      Singlet-A     15.9173 eV   77.89 nm  f=0.0422  <S**2>=0.000
       7 -> 16        -0.36711
       7 -> 17         0.10363
       8 -> 17         0.37900
       8 -> 18        -0.15751
       9 -> 23         0.17704
      10 -> 23        -0.10167
      10 -> 24        -0.20342
      12 -> 33        -0.16894

 Excited State  71:      Singlet-A     16.0327 eV   77.33 nm  f=0.2272  <S**2>=0.000
       6 -> 14        -0.12302
       7 -> 16         0.23456
       8 -> 17         0.39086
       8 -> 18         0.40436
       8 -> 19         0.10609
       9 -> 22        -0.10140
       9 -> 23        -0.13681
      11 -> 32         0.10106
      12 -> 36        -0.12959

 Excited State  72:      Singlet-A     16.0906 eV   77.05 nm  f=0.0431  <S**2>=0.000
       7 -> 16         0.24755
       9 -> 23         0.58492
      12 -> 34        -0.11740

 Excited State  73:      Singlet-A     16.1686 eV   76.68 nm  f=0.0676  <S**2>=0.000
       6 -> 14         0.18302
       8 -> 18         0.26639
       9 -> 23         0.14868
      10 -> 25        -0.19642
      11 -> 31        -0.14959
      12 -> 34         0.46913
      12 -> 35         0.21760

 Excited State  74:      Singlet-A     16.1882 eV   76.59 nm  f=0.1244  <S**2>=0.000
       6 -> 14         0.21004
       7 -> 16        -0.14684
       8 -> 17        -0.14203
       8 -> 18         0.38456
       9 -> 22         0.12978
      10 -> 25         0.18786
      11 -> 31        -0.15939
      11 -> 32        -0.12160
      12 -> 34        -0.27733
      12 -> 35        -0.13702

 Excited State  75:      Singlet-A     16.2477 eV   76.31 nm  f=0.0150  <S**2>=0.000
       6 -> 14         0.11452
       8 -> 18         0.14284
      11 -> 31         0.65919

 Excited State  76:      Singlet-A     16.3066 eV   76.03 nm  f=0.0134  <S**2>=0.000
      10 -> 25         0.59915
      12 -> 34         0.13561
      12 -> 35         0.30951

 Excited State  77:      Singlet-A     16.4348 eV   75.44 nm  f=0.0358  <S**2>=0.000
       6 -> 14         0.31203
       7 -> 17        -0.15257
       8 -> 19         0.48093
      11 -> 32         0.27080
      12 -> 35        -0.11079
      12 -> 36         0.14947

 Excited State  78:      Singlet-A     16.4431 eV   75.40 nm  f=0.0489  <S**2>=0.000
       6 -> 14        -0.27464
       8 -> 19         0.47573
       9 -> 24        -0.19495
      11 -> 32        -0.32693

 Excited State  79:      Singlet-A     16.4906 eV   75.18 nm  f=0.0528  <S**2>=0.000
       6 -> 13        -0.11877
       9 -> 22         0.13582
       9 -> 24         0.22372
      10 -> 25        -0.15969
      12 -> 34        -0.28539
      12 -> 35         0.49927

 Excited State  80:      Singlet-A     16.5483 eV   74.92 nm  f=0.0962  <S**2>=0.000
       6 -> 14        -0.15512
       7 -> 17        -0.30338
       7 -> 18        -0.10366
       9 -> 24         0.46522
      10 -> 26         0.11113
      11 -> 32        -0.19322
      11 -> 33        -0.17747
      12 -> 34         0.11364
      12 -> 35        -0.13130
      12 -> 36        -0.10874

 Excited State  81:      Singlet-A     16.5828 eV   74.77 nm  f=0.0100  <S**2>=0.000
       9 -> 24        -0.13293
      10 -> 26         0.52797
      10 -> 27        -0.26371
      11 -> 32         0.13041
      11 -> 33        -0.17498
      12 -> 36         0.18521

 Excited State  82:      Singlet-A     16.6225 eV   74.59 nm  f=0.0566  <S**2>=0.000
       6 -> 14        -0.14298
       7 -> 17         0.35579
       8 -> 18         0.13572
       9 -> 24         0.29473
      10 -> 26        -0.14893
      12 -> 36         0.43397

 Excited State  83:      Singlet-A     16.6754 eV   74.35 nm  f=0.0185  <S**2>=0.000
       6 -> 14        -0.28267
       7 -> 16        -0.15496
       7 -> 17        -0.19222
       7 -> 18        -0.29995
       7 -> 19        -0.13813
       9 -> 24        -0.12776
       9 -> 25         0.18147
      10 -> 26        -0.10299
      11 -> 32         0.35520
      11 -> 33         0.13614

 Excited State  84:      Singlet-A     16.7575 eV   73.99 nm  f=0.0345  <S**2>=0.000
       9 -> 24         0.11667
      10 -> 26         0.11869
      10 -> 27        -0.12163
      11 -> 32        -0.12177
      11 -> 33         0.60423
      12 -> 36         0.16206

 Excited State  85:      Singlet-A     16.8228 eV   73.70 nm  f=0.0997  <S**2>=0.000
       7 -> 17         0.33269
       8 -> 17        -0.14516
       9 -> 24         0.14894
      10 -> 26         0.27201
      10 -> 27         0.20932
      11 -> 32         0.16924
      11 -> 33         0.16380
      12 -> 35        -0.10821
      12 -> 36        -0.32696

 Excited State  86:      Singlet-A     16.9321 eV   73.22 nm  f=0.1558  <S**2>=0.000
       7 -> 18        -0.38730
      10 -> 26         0.20474
      10 -> 27         0.41222
      11 -> 32        -0.18392
      12 -> 36         0.17924

 Excited State  87:      Singlet-A     17.0473 eV   72.73 nm  f=0.0537  <S**2>=0.000
       6 -> 14        -0.16928
       6 -> 15        -0.24915
       7 -> 16        -0.10303
       7 -> 17        -0.16640
       7 -> 18         0.36450
       9 -> 27         0.10169
      10 -> 26         0.10980
      10 -> 27         0.34617
      11 -> 35         0.14629

 Excited State  88:      Singlet-A     17.1601 eV   72.25 nm  f=0.1662  <S**2>=0.000
       6 -> 15        -0.34168
       7 -> 19        -0.12198
       9 -> 25         0.43085
      11 -> 34        -0.35175

 Excited State  89:      Singlet-A     17.2028 eV   72.07 nm  f=0.0030  <S**2>=0.000
       6 -> 15         0.19935
       7 -> 18         0.14961
       9 -> 25         0.46135
      11 -> 34         0.40638
      11 -> 35        -0.15525

 Excited State  90:      Singlet-A     17.2722 eV   71.78 nm  f=0.0154  <S**2>=0.000
       6 -> 15         0.33676
       7 -> 19         0.24015
       8 -> 20         0.33971
       9 -> 25         0.14949
       9 -> 26        -0.13413
      11 -> 34        -0.23664
      11 -> 35         0.28404

 Excited State  91:      Singlet-A     17.3035 eV   71.65 nm  f=0.0171  <S**2>=0.000
       7 -> 19        -0.33823
       8 -> 20         0.46826
       8 -> 21         0.15293
      11 -> 34         0.25307
      11 -> 35         0.12251

 Excited State  92:      Singlet-A     17.3840 eV   71.32 nm  f=0.0209  <S**2>=0.000
       6 -> 15        -0.23197
       6 -> 16         0.11081
       7 -> 18        -0.16731
       7 -> 19         0.47608
       8 -> 20         0.24582
       9 -> 26         0.16195
      11 -> 35        -0.15221

 Excited State  93:      Singlet-A     17.4444 eV   71.07 nm  f=0.0733  <S**2>=0.000
       8 -> 20        -0.15380
       9 -> 26         0.50515
      11 -> 35         0.41137

 Excited State  94:      Singlet-A     17.5451 eV   70.67 nm  f=0.0736  <S**2>=0.000
       6 -> 15         0.18772
       6 -> 16        -0.19777
       7 -> 18         0.12515
       8 -> 20         0.17384
       9 -> 26         0.37676
       9 -> 27         0.14086
      11 -> 34        -0.20449
      11 -> 35        -0.32320

 The electronic state is 1-A.
 Alpha  occ. eigenvalues --  -14.36413 -14.36333 -10.21104  -0.99613  -0.80482
 Alpha  occ. eigenvalues --   -0.61332  -0.53689  -0.51075  -0.42664  -0.39908
 Alpha  occ. eigenvalues --   -0.28079  -0.24530
 Alpha virt. eigenvalues --   -0.01172   0.02357   0.05265   0.08101   0.11356
 Alpha virt. eigenvalues --    0.12154   0.13625   0.17062   0.17997   0.19316
 Alpha virt. eigenvalues --    0.21129   0.22077   0.24246   0.25461   0.27277

 Mulliken charges:
               1
     1  N    0.232602
     2  N   -0.241719
     3  C    0.773081
     4  H   -0.041957
     5  H   -0.025363
     6  H   -0.463971
     7  H   -0.232673
 Sum of Mulliken charges =  -0.00000

 Dipole moment (field-independent basis, Debye):
    X=              0.4834    Y=              1.6068    Z=              0.9869  Tot=              1.9466
 Quadrupole moment (field-independent basis, Debye-Ang):
   XX=            -15.1115   YY=            -18.8209   ZZ=            -20.6202
   XY=             -0.2974   XZ=              1.8132   YZ=              0.2858

 Normal termination of Gaussian 16 at Mon Mar 21 19:58:28 2022.
