 Gaussian 16, Revision C.01,
 Gaussian 16:  EM64L-G16RevC.01  3-Jul-2019

 ---------------------------------------------------------------------
 #P TD(Nstates=10000) b3lyp/Gen SCF(maxcycles=100) Int(Grid=ultrafine)
 ---------------------------------------------------------------------

 ---------------------
 xGDB7_00001_tier4.com
 ---------------------
 Symbolic Z-matrix:
 Charge =  0 Multiplicity = 1

                         Standard orientation:
 ---------------------------------------------------------------------
 Center     Atomic      Atomic             Coordinates (Angstroms)
 Number     Number       Type             X           Y           Z
 ---------------------------------------------------------------------
      1          7           0        1.078471   -0.156900   -0.000001
      2          6           0       -0.161963    0.384944   -0.000002
      3          8           0       -1.189170   -0.245458    0.000001
      4          1           0        1.898427    0.419427    0.000004
      5          1           0        1.178124   -1.157073    0.000005
      6          1           0       -0.140706    1.489948    0.000007
 ---------------------------------------------------------------------

 SCF Done:  E(RB3LYP) =  -169.788041815     A.U. after   13 cycles

 Excitation energies and oscillator strengths:

 Excited State   1:      Singlet-A      5.6379 eV  219.91 nm  f=0.0007  <S**2>=0.000
      12 -> 13         0.70549
 This state for optimization and/or second-order correction.
 Total Energy, E(TD-HF/TD-DFT) =  -169.580851339
 Copying the excited state density for this state as the 1-particle RhoCI density.

 Excited State   2:      Singlet-A      6.8009 eV  182.31 nm  f=0.0057  <S**2>=0.000
      11 -> 13         0.25327
      12 -> 14         0.65726

 Excited State   3:      Singlet-A      7.1113 eV  174.35 nm  f=0.0119  <S**2>=0.000
      11 -> 14         0.70530

 Excited State   4:      Singlet-A      7.5317 eV  164.62 nm  f=0.0858  <S**2>=0.000
      11 -> 13         0.17190
      12 -> 15         0.67955

 Excited State   5:      Singlet-A      7.9229 eV  156.49 nm  f=0.3194  <S**2>=0.000
      11 -> 13         0.61036
      12 -> 14        -0.24289
      12 -> 15        -0.18657

 Excited State   6:      Singlet-A      7.9503 eV  155.95 nm  f=0.0030  <S**2>=0.000
      11 -> 15         0.70021

 Excited State   7:      Singlet-A      8.5216 eV  145.49 nm  f=0.0546  <S**2>=0.000
      12 -> 16         0.69644

 Excited State   8:      Singlet-A      8.9224 eV  138.96 nm  f=0.0059  <S**2>=0.000
      11 -> 16         0.69632

 Excited State   9:      Singlet-A      9.2553 eV  133.96 nm  f=0.0094  <S**2>=0.000
      12 -> 18         0.70457

 Excited State  10:      Singlet-A      9.3130 eV  133.13 nm  f=0.0192  <S**2>=0.000
      12 -> 17         0.69068

 Excited State  11:      Singlet-A      9.6601 eV  128.35 nm  f=0.0021  <S**2>=0.000
      11 -> 17         0.69066

 Excited State  12:      Singlet-A      9.7617 eV  127.01 nm  f=0.0039  <S**2>=0.000
      11 -> 18        -0.22963
      12 -> 19         0.65977

 Excited State  13:      Singlet-A      9.9892 eV  124.12 nm  f=0.0097  <S**2>=0.000
      11 -> 18         0.64192
      12 -> 19         0.21089
      12 -> 20         0.15318

 Excited State  14:      Singlet-A     10.0059 eV  123.91 nm  f=0.0023  <S**2>=0.000
       9 -> 13         0.68567
      11 -> 19        -0.12021

 Excited State  15:      Singlet-A     10.1721 eV  121.89 nm  f=0.0179  <S**2>=0.000
      11 -> 18        -0.14341
      12 -> 20         0.68915

 Excited State  16:      Singlet-A     10.2009 eV  121.54 nm  f=0.0014  <S**2>=0.000
       9 -> 13         0.11225
      11 -> 19         0.68815

 Excited State  17:      Singlet-A     10.7142 eV  115.72 nm  f=0.0077  <S**2>=0.000
      10 -> 14         0.60581
      11 -> 20         0.34355

 Excited State  18:      Singlet-A     10.7514 eV  115.32 nm  f=0.0569  <S**2>=0.000
      10 -> 14        -0.35574
      11 -> 20         0.59297

 Excited State  19:      Singlet-A     10.9320 eV  113.41 nm  f=0.0056  <S**2>=0.000
      12 -> 21         0.69122

 Excited State  20:      Singlet-A     10.9450 eV  113.28 nm  f=0.0207  <S**2>=0.000
       9 -> 14         0.60370
      10 -> 13        -0.32227
      12 -> 23         0.11162

 Excited State  21:      Singlet-A     11.1226 eV  111.47 nm  f=0.0070  <S**2>=0.000
       9 -> 14         0.25213
      10 -> 13         0.36332
      11 -> 21         0.14728
      12 -> 22         0.51700

 Excited State  22:      Singlet-A     11.1686 eV  111.01 nm  f=0.0733  <S**2>=0.000
       9 -> 14        -0.25728
      10 -> 13        -0.37579
      11 -> 21        -0.13593
      12 -> 22         0.44339
      12 -> 23         0.25100

 Excited State  23:      Singlet-A     11.3801 eV  108.95 nm  f=0.0629  <S**2>=0.000
      11 -> 21         0.46209
      12 -> 22        -0.14239
      12 -> 23         0.50904

 Excited State  24:      Singlet-A     11.4996 eV  107.82 nm  f=0.0005  <S**2>=0.000
       8 -> 13        -0.11900
      10 -> 15         0.68764

 Excited State  25:      Singlet-A     11.6858 eV  106.10 nm  f=0.0080  <S**2>=0.000
      11 -> 22         0.67339
      11 -> 23         0.17950

 Excited State  26:      Singlet-A     11.7267 eV  105.73 nm  f=0.0567  <S**2>=0.000
       9 -> 15         0.18834
      10 -> 13        -0.25961
      11 -> 21         0.44908
      12 -> 23        -0.36480

 Excited State  27:      Singlet-A     11.7873 eV  105.18 nm  f=0.0784  <S**2>=0.000
       9 -> 15         0.67431
      11 -> 21        -0.12615
      12 -> 23         0.13566

 Excited State  28:      Singlet-A     11.7907 eV  105.15 nm  f=0.0037  <S**2>=0.000
      12 -> 24         0.69638

 Excited State  29:      Singlet-A     11.8956 eV  104.23 nm  f=0.0000  <S**2>=0.000
       8 -> 13        -0.47081
      11 -> 23         0.50179

 Excited State  30:      Singlet-A     11.9071 eV  104.13 nm  f=0.0090  <S**2>=0.000
       8 -> 13         0.49422
      10 -> 15         0.10582
      11 -> 22        -0.16720
      11 -> 23         0.44902

 Excited State  31:      Singlet-A     12.4296 eV   99.75 nm  f=0.0126  <S**2>=0.000
       9 -> 16        -0.14754
      11 -> 24         0.66258

 Excited State  32:      Singlet-A     12.5498 eV   98.79 nm  f=0.0485  <S**2>=0.000
      10 -> 16         0.70172

 Excited State  33:      Singlet-A     12.7058 eV   97.58 nm  f=0.0155  <S**2>=0.000
       8 -> 14         0.58309
       9 -> 16         0.33837
      10 -> 13        -0.10963
      12 -> 27         0.10369

 Excited State  34:      Singlet-A     12.8776 eV   96.28 nm  f=0.0318  <S**2>=0.000
       8 -> 14        -0.34560
       9 -> 16         0.55681
       9 -> 17         0.10851
      10 -> 18         0.14425
      11 -> 24         0.15549

 Excited State  35:      Singlet-A     13.3046 eV   93.19 nm  f=0.0098  <S**2>=0.000
       9 -> 18         0.15574
      10 -> 17         0.65350
      12 -> 26         0.17419

 Excited State  36:      Singlet-A     13.3294 eV   93.02 nm  f=0.0012  <S**2>=0.000
      12 -> 25         0.69266

 Excited State  37:      Singlet-A     13.4044 eV   92.50 nm  f=0.1072  <S**2>=0.000
       8 -> 15        -0.26663
       9 -> 17         0.61400
      10 -> 18        -0.16968

 Excited State  38:      Singlet-A     13.4408 eV   92.24 nm  f=0.0215  <S**2>=0.000
       9 -> 18         0.17979
      10 -> 17        -0.20226
      12 -> 26         0.64463

 Excited State  39:      Singlet-A     13.4894 eV   91.91 nm  f=0.0180  <S**2>=0.000
       9 -> 18         0.66158
      12 -> 26        -0.21937

 Excited State  40:      Singlet-A     13.5485 eV   91.51 nm  f=0.1762  <S**2>=0.000
       8 -> 15         0.59738
       9 -> 16        -0.10859
       9 -> 17         0.29512
      10 -> 18         0.12404

 Excited State  41:      Singlet-A     13.5555 eV   91.46 nm  f=0.0205  <S**2>=0.000
       8 -> 15        -0.19526
       9 -> 16        -0.11081
      10 -> 18         0.63109
      12 -> 27        -0.10676

 Excited State  42:      Singlet-A     13.7932 eV   89.89 nm  f=0.0190  <S**2>=0.000
      10 -> 19         0.65993
      11 -> 25         0.22804

 Excited State  43:      Singlet-A     13.8327 eV   89.63 nm  f=0.1032  <S**2>=0.000
       7 -> 13        -0.15145
      10 -> 19        -0.23033
      11 -> 25         0.63693

 Excited State  44:      Singlet-A     13.9298 eV   89.01 nm  f=0.0180  <S**2>=0.000
       9 -> 19         0.64135
      11 -> 26         0.26503

 Excited State  45:      Singlet-A     13.9887 eV   88.63 nm  f=0.1654  <S**2>=0.000
       9 -> 19        -0.21868
      11 -> 26         0.47744
      12 -> 27         0.42323

 Excited State  46:      Singlet-A     14.0083 eV   88.51 nm  f=0.0006  <S**2>=0.000
       7 -> 13         0.68098
      11 -> 25         0.14401

 Excited State  47:      Singlet-A     14.1404 eV   87.68 nm  f=0.1072  <S**2>=0.000
       8 -> 16         0.17955
       9 -> 19         0.14553
       9 -> 20        -0.25345
      11 -> 26        -0.40225
      12 -> 27         0.43369

 Excited State  48:      Singlet-A     14.2514 eV   87.00 nm  f=0.0142  <S**2>=0.000
      10 -> 20         0.44681
      11 -> 27         0.53643

 Excited State  49:      Singlet-A     14.3318 eV   86.51 nm  f=0.0828  <S**2>=0.000
       6 -> 13        -0.10538
      10 -> 20         0.52394
      11 -> 27        -0.44358

 Excited State  50:      Singlet-A     14.4872 eV   85.58 nm  f=0.0198  <S**2>=0.000
       9 -> 20         0.63128
      11 -> 26        -0.11616
      12 -> 27         0.17729
      12 -> 28        -0.12899

 Excited State  51:      Singlet-A     14.5445 eV   85.25 nm  f=0.0278  <S**2>=0.000
       7 -> 14        -0.10115
       8 -> 16         0.65090
      12 -> 27        -0.12839
      12 -> 28         0.12813

 Excited State  52:      Singlet-A     14.7869 eV   83.85 nm  f=0.0804  <S**2>=0.000
       7 -> 14         0.63559
       7 -> 15         0.10585
      10 -> 21        -0.19367

 Excited State  53:      Singlet-A     15.0111 eV   82.59 nm  f=0.0826  <S**2>=0.000
       7 -> 14         0.14869
      10 -> 21         0.60094
      12 -> 28         0.29479

 Excited State  54:      Singlet-A     15.0964 eV   82.13 nm  f=0.0025  <S**2>=0.000
       8 -> 18        -0.29655
       9 -> 21         0.63501

 Excited State  55:      Singlet-A     15.2139 eV   81.49 nm  f=0.0039  <S**2>=0.000
      10 -> 22         0.65759
      10 -> 23         0.21984

 Excited State  56:      Singlet-A     15.2516 eV   81.29 nm  f=0.0016  <S**2>=0.000
       9 -> 22         0.23301
       9 -> 23         0.10411
      10 -> 21        -0.22555
      12 -> 28         0.50908
      12 -> 29        -0.24204
      12 -> 31        -0.12866

 Excited State  57:      Singlet-A     15.2873 eV   81.10 nm  f=0.0087  <S**2>=0.000
       7 -> 15        -0.10890
       8 -> 17         0.59138
       8 -> 19         0.18411
       9 -> 22         0.21805
       9 -> 23         0.17349

 Excited State  58:      Singlet-A     15.3459 eV   80.79 nm  f=0.0139  <S**2>=0.000
       8 -> 18         0.63411
       9 -> 21         0.29530

 Excited State  59:      Singlet-A     15.3778 eV   80.63 nm  f=0.0042  <S**2>=0.000
       8 -> 17        -0.18602
       9 -> 22         0.20484
       9 -> 23         0.19393
      12 -> 29         0.58743

 Excited State  60:      Singlet-A     15.4368 eV   80.32 nm  f=0.0015  <S**2>=0.000
      10 -> 22        -0.21937
      10 -> 23         0.65887

 Excited State  61:      Singlet-A     15.5099 eV   79.94 nm  f=0.0304  <S**2>=0.000
       9 -> 22         0.53685
       9 -> 23        -0.33954
      10 -> 24        -0.12712
      12 -> 28        -0.17272

 Excited State  62:      Singlet-A     15.5806 eV   79.58 nm  f=0.0197  <S**2>=0.000
       7 -> 15         0.52536
       8 -> 17        -0.13122
       8 -> 19         0.21355
       9 -> 22         0.18403
       9 -> 23         0.28256
      12 -> 31         0.10990

 Excited State  63:      Singlet-A     15.6143 eV   79.40 nm  f=0.0174  <S**2>=0.000
      10 -> 22         0.10211
      11 -> 28         0.63598
      12 -> 30        -0.26859

 Excited State  64:      Singlet-A     15.6888 eV   79.03 nm  f=0.0336  <S**2>=0.000
       6 -> 13        -0.13356
      11 -> 28         0.28403
      12 -> 30         0.62966

 Excited State  65:      Singlet-A     15.6923 eV   79.01 nm  f=0.0209  <S**2>=0.000
       7 -> 14         0.10839
       7 -> 15        -0.32315
       8 -> 17        -0.14664
       9 -> 23         0.39329
      10 -> 21         0.14257
      12 -> 28        -0.20432
      12 -> 29        -0.24869
      12 -> 31        -0.10676
      12 -> 32         0.14959

 Excited State  66:      Singlet-A     15.7925 eV   78.51 nm  f=0.0160  <S**2>=0.000
       7 -> 15        -0.12602
       8 -> 19        -0.18547
       9 -> 23         0.19108
      10 -> 24        -0.35742
      12 -> 31         0.42966
      12 -> 32        -0.25789

 Excited State  67:      Singlet-A     15.8931 eV   78.01 nm  f=0.0000  <S**2>=0.000
      11 -> 29         0.68520

 Excited State  68:      Singlet-A     15.9140 eV   77.91 nm  f=0.0294  <S**2>=0.000
       8 -> 19        -0.39075
      10 -> 24         0.49820
      12 -> 31         0.22066

 Excited State  69:      Singlet-A     15.9333 eV   77.81 nm  f=0.0095  <S**2>=0.000
       7 -> 15        -0.19817
       7 -> 16         0.14382
       8 -> 17        -0.16545
       8 -> 19         0.40561
       9 -> 23        -0.13029
      10 -> 24         0.24548
      12 -> 31         0.18682
      12 -> 32        -0.28952

 Excited State  70:      Singlet-A     15.9826 eV   77.57 nm  f=0.0003  <S**2>=0.000
       6 -> 13        -0.16670
       9 -> 24         0.67148

 Excited State  71:      Singlet-A     16.1448 eV   76.80 nm  f=0.0613  <S**2>=0.000
       8 -> 19         0.15148
      12 -> 31         0.39141
      12 -> 32         0.54261

 Excited State  72:      Singlet-A     16.2031 eV   76.52 nm  f=0.0019  <S**2>=0.000
      11 -> 29        -0.10125
      11 -> 31         0.48473
      11 -> 32        -0.48113

 Excited State  73:      Singlet-A     16.2514 eV   76.29 nm  f=0.0056  <S**2>=0.000
       7 -> 16        -0.12679
       8 -> 20         0.65790
      11 -> 30         0.15006

 Excited State  74:      Singlet-A     16.3092 eV   76.02 nm  f=0.0882  <S**2>=0.000
       6 -> 14         0.27568
       8 -> 20        -0.12743
      11 -> 30         0.61441

 Excited State  75:      Singlet-A     16.3913 eV   75.64 nm  f=0.1945  <S**2>=0.000
       6 -> 13         0.61456
       9 -> 24         0.17205
      11 -> 31        -0.10231
      12 -> 30         0.13791

 Excited State  76:      Singlet-A     16.5290 eV   75.01 nm  f=0.0094  <S**2>=0.000
       6 -> 14         0.55896
       7 -> 16        -0.35277
      11 -> 30        -0.18653

 Excited State  77:      Singlet-A     16.5366 eV   74.98 nm  f=0.0001  <S**2>=0.000
      11 -> 31         0.48711
      11 -> 32         0.49581

 Excited State  78:      Singlet-A     16.7583 eV   73.98 nm  f=0.0377  <S**2>=0.000
       6 -> 14         0.14155
       7 -> 16         0.16289
      11 -> 30        -0.12200
      12 -> 33         0.63464

 Excited State  79:      Singlet-A     16.8501 eV   73.58 nm  f=0.0000  <S**2>=0.000
       8 -> 21         0.69896

 Excited State  80:      Singlet-A     16.8942 eV   73.39 nm  f=0.0771  <S**2>=0.000
       6 -> 14         0.23622
       6 -> 15        -0.22690
       7 -> 16         0.47999
       8 -> 20         0.10778
      10 -> 24        -0.11047
      12 -> 33        -0.26645
      12 -> 34        -0.12602

 Excited State  81:      Singlet-A     17.0566 eV   72.69 nm  f=0.0034  <S**2>=0.000
      11 -> 33         0.68449

 Excited State  82:      Singlet-A     17.2413 eV   71.91 nm  f=0.0657  <S**2>=0.000
       6 -> 15        -0.12771
       7 -> 17        -0.31252
       8 -> 22         0.58282
      12 -> 34        -0.10987

 Excited State  83:      Singlet-A     17.3302 eV   71.54 nm  f=0.0000  <S**2>=0.000
      10 -> 25         0.69126

 Excited State  84:      Singlet-A     17.3784 eV   71.34 nm  f=0.0248  <S**2>=0.000
       6 -> 15         0.28206
       7 -> 16         0.10668
       7 -> 17         0.50436
       8 -> 22         0.31452
      12 -> 34        -0.15245

 Excited State  85:      Singlet-A     17.4216 eV   71.17 nm  f=0.0078  <S**2>=0.000
       7 -> 18         0.59404
       8 -> 24        -0.34051

 Excited State  86:      Singlet-A     17.4779 eV   70.94 nm  f=0.0322  <S**2>=0.000
       6 -> 15        -0.20891
       7 -> 17         0.15403
       8 -> 23        -0.33643
       9 -> 25         0.42828
      10 -> 26        -0.22567
      12 -> 34         0.22810

 Excited State  87:      Singlet-A     17.5225 eV   70.76 nm  f=0.0666  <S**2>=0.000
       7 -> 19        -0.14588
       8 -> 23         0.36964
       9 -> 25         0.44063
       9 -> 27         0.10914
      10 -> 26         0.33652

 Excited State  88:      Singlet-A     17.5443 eV   70.67 nm  f=0.1485  <S**2>=0.000
       6 -> 15        -0.24504
       7 -> 17         0.19425
       8 -> 23         0.43025
       9 -> 25        -0.12026
      10 -> 26        -0.41896

 Excited State  89:      Singlet-A     17.6311 eV   70.32 nm  f=0.0872  <S**2>=0.000
       6 -> 15        -0.31388
       7 -> 17         0.16880
       7 -> 19        -0.13291
       9 -> 25        -0.27477
      10 -> 26         0.33170
      12 -> 34         0.35269

 Excited State  90:      Singlet-A     17.6441 eV   70.27 nm  f=0.0024  <S**2>=0.000
       7 -> 18         0.33459
       8 -> 24         0.48469
       9 -> 26         0.37159

 Excited State  91:      Singlet-A     17.7175 eV   69.98 nm  f=0.0118  <S**2>=0.000
       8 -> 24        -0.33676
       9 -> 26         0.52053
      10 -> 27        -0.30488

 Excited State  92:      Singlet-A     17.8273 eV   69.55 nm  f=0.0149  <S**2>=0.000
       6 -> 15         0.27652
       7 -> 16         0.11057
       7 -> 17        -0.13057
       7 -> 19        -0.27848
       9 -> 27         0.35335
      10 -> 26        -0.10504
      12 -> 34         0.37599

 Excited State  93:      Singlet-A     17.8423 eV   69.49 nm  f=0.0954  <S**2>=0.000
       8 -> 24        -0.11432
       9 -> 26         0.26720
      10 -> 27         0.61600

 Excited State  94:      Singlet-A     17.9681 eV   69.00 nm  f=0.0309  <S**2>=0.000
       7 -> 19         0.58657
       7 -> 20        -0.10772
       9 -> 27         0.22499
      10 -> 26         0.11759
      12 -> 34         0.18265

 Excited State  95:      Singlet-A     18.0527 eV   68.68 nm  f=0.0093  <S**2>=0.000
      11 -> 34         0.68987

 Excited State  96:      Singlet-A     18.1905 eV   68.16 nm  f=0.1250  <S**2>=0.000
       6 -> 15        -0.16700
       7 -> 16        -0.11760
       7 -> 20         0.20630
       8 -> 22        -0.11132
       8 -> 23        -0.12996
       9 -> 25        -0.11934
       9 -> 27         0.50161
      12 -> 34        -0.24292

 Excited State  97:      Singlet-A     18.2693 eV   67.86 nm  f=0.0111  <S**2>=0.000
      12 -> 35         0.69696

 Excited State  98:      Singlet-A     18.3402 eV   67.60 nm  f=0.0166  <S**2>=0.000
       6 -> 16         0.68133

 Excited State  99:      Singlet-A     18.4524 eV   67.19 nm  f=0.0175  <S**2>=0.000
       7 -> 17        -0.11424
       7 -> 20         0.46799
      11 -> 35         0.10029
      12 -> 36         0.46448

 Excited State 100:      Singlet-A     18.4778 eV   67.10 nm  f=0.0522  <S**2>=0.000
       7 -> 20        -0.42772
       9 -> 27         0.10910
      12 -> 34        -0.10048
      12 -> 36         0.49845

 Excited State 101:      Singlet-A     18.8854 eV   65.65 nm  f=0.0023  <S**2>=0.000
       6 -> 17         0.12331
      11 -> 35         0.64602
      12 -> 37         0.18507

 Excited State 102:      Singlet-A     18.9104 eV   65.56 nm  f=0.0585  <S**2>=0.000
       7 -> 21         0.49261
      10 -> 28         0.13887
      11 -> 36        -0.46070

 Excited State 103:      Singlet-A     18.9810 eV   65.32 nm  f=0.0412  <S**2>=0.000
       7 -> 21         0.47558
      10 -> 28        -0.10309
      11 -> 36         0.48773

 Excited State 104:      Singlet-A     19.1068 eV   64.89 nm  f=0.0417  <S**2>=0.000
       6 -> 17         0.58973
       7 -> 22        -0.13911
       8 -> 25        -0.21528
       8 -> 27        -0.11690
      12 -> 37        -0.18605

 Excited State 105:      Singlet-A     19.1480 eV   64.75 nm  f=0.0051  <S**2>=0.000
       6 -> 18        -0.33177
      10 -> 28         0.58549
      11 -> 36         0.15548

 Excited State 106:      Singlet-A     19.2062 eV   64.55 nm  f=0.0031  <S**2>=0.000
       6 -> 18         0.59208
       8 -> 26         0.11627
      10 -> 28         0.33801

 Excited State 107:      Singlet-A     19.2935 eV   64.26 nm  f=0.0131  <S**2>=0.000
       6 -> 17        -0.21389
       8 -> 25        -0.35214
       9 -> 28         0.46551
      12 -> 37        -0.26393

 Excited State 108:      Singlet-A     19.3875 eV   63.95 nm  f=0.1130  <S**2>=0.000
       6 -> 17         0.10455
       6 -> 19         0.13643
       7 -> 22        -0.13541
       7 -> 23        -0.10018
       8 -> 25         0.49715
       9 -> 28         0.36504
      12 -> 37        -0.14887

 Excited State 109:      Singlet-A     19.3909 eV   63.94 nm  f=0.0514  <S**2>=0.000
       6 -> 18        -0.14047
       7 -> 24        -0.11537
       8 -> 26         0.61463
      10 -> 29         0.27300

 Excited State 110:      Singlet-A     19.4279 eV   63.82 nm  f=0.0197  <S**2>=0.000
       8 -> 26        -0.27244
      10 -> 29         0.61800
      10 -> 31         0.10564
      11 -> 36        -0.10384
      11 -> 37        -0.10749

 Excited State 111:      Singlet-A     19.4836 eV   63.64 nm  f=0.0237  <S**2>=0.000
       6 -> 17         0.10054
       6 -> 19        -0.28960
       7 -> 22         0.48682
       7 -> 23         0.29431
       8 -> 25         0.17352
       9 -> 28         0.10270
      10 -> 30         0.11137

 Excited State 112:      Singlet-A     19.5615 eV   63.38 nm  f=0.0045  <S**2>=0.000
       6 -> 19         0.21074
       7 -> 22        -0.10160
       7 -> 23         0.27645
       8 -> 27        -0.12554
       9 -> 28         0.25235
       9 -> 29         0.17520
       9 -> 31         0.19828
      10 -> 30         0.25722
      12 -> 37         0.34552

 Excited State 113:      Singlet-A     19.6255 eV   63.18 nm  f=0.0468  <S**2>=0.000
       6 -> 19         0.42347
       7 -> 22         0.37755
       7 -> 23        -0.28231
       9 -> 29         0.20680
      10 -> 30         0.11926

 The electronic state is 1-A.
 Alpha  occ. eigenvalues --  -19.12138 -14.36960 -10.29931  -1.04318  -0.91633
 Alpha  occ. eigenvalues --   -0.63626  -0.57298  -0.49452  -0.42832  -0.42364
 Alpha  occ. eigenvalues --   -0.29388  -0.27416
 Alpha virt. eigenvalues --    0.00229   0.00979   0.03954   0.07684   0.10589
 Alpha virt. eigenvalues --    0.10907   0.12209   0.14133   0.16625   0.17892
 Alpha virt. eigenvalues --    0.18368   0.19887   0.25424   0.26082   0.27604

 Mulliken charges:
               1
     1  N    0.327745
     2  C    0.627245
     3  O   -0.368265
     4  H   -0.162457
     5  H   -0.124701
     6  H   -0.299566
 Sum of Mulliken charges =  -0.00000

 Dipole moment (field-independent basis, Debye):
    X=              3.9043    Y=              0.8794    Z=              0.0000  Tot=              4.0021
 Quadrupole moment (field-independent basis, Debye-Ang):
   XX=            -18.3655   YY=            -15.7275   ZZ=            -18.9579
   XY=             -1.3305   XZ=              0.0000   YZ=             -0.0000

 1\1\GINC-HEL13\SP\RB3LYP TD-FC\Gen\C1H3N1O1\SABYASACHI\21-Mar-2022\0\\
 #P TD(Nstates=10000) b3lyp/Gen SCF(maxcycles=100) Int(Grid=ultrafine)\
 \xGDB7_00001_tier4.com\\0,1\N,0,-1.078471,-0.1569,0.000001\C,0,0.16196
 3,0.384944,0.000002\O,0,1.18917,-0.245458,-0.000001\H,0,-1.898427,0.41
 9427,-0.000004\H,0,-1.178124,-1.157073,-0.000005\H,0,0.140706,1.489948
 ,-0.000007\\Version=EM64L-G16RevC.01\State=1-A\HF=-169.7880418\RMSD=5.
 505e-09\PG=C01 [X(C1H3N1O1)]\\@
 The archive entry for this job was punched.

 Normal termination of Gaussian 16 at Mon Mar 21 04:02:56 2022.
