 Gaussian 16, Revision C.01,
 Gaussian 16:  EM64L-G16RevC.01  3-Jul-2019

 ---------------------------------------------------------------------
 #P TD(Nstates=10000) b3lyp/Gen SCF(maxcycles=100) Int(Grid=ultrafine)
 ---------------------------------------------------------------------

 ---------------------
 xGDB7_00001_tier4.com
 ---------------------
 Symbolic Z-matrix:
 Charge =  0 Multiplicity = 1

                         Standard orientation:
 ---------------------------------------------------------------------
 Center     Atomic      Atomic             Coordinates (Angstroms)
 Number     Number       Type             X           Y           Z
 ---------------------------------------------------------------------
      1          9           0       -1.139724   -0.269725    0.000000
      2          6           0        0.000000    0.430281    0.000000
      3          6           0        1.180852   -0.148760    0.000000
      4          1           0       -0.180450    1.498331    0.000000
      5          1           0        1.283634   -1.225170    0.000000
      6          1           0        2.069222    0.465238    0.000000
 ---------------------------------------------------------------------

 SCF Done:  E(RB3LYP) =  -177.705316594     A.U. after   12 cycles

 Excitation energies and oscillator strengths:

 Excited State   1:      Singlet-A"     7.2304 eV  171.48 nm  f=0.0404  <S**2>=0.000
      12 -> 14         0.70338
 This state for optimization and/or second-order correction.
 Total Energy, E(TD-HF/TD-DFT) =  -177.439605151
 Copying the excited state density for this state as the 1-particle RhoCI density.

 Excited State   2:      Singlet-A'     7.6918 eV  161.19 nm  f=0.3159  <S**2>=0.000
      12 -> 13         0.69508

 Excited State   3:      Singlet-A"     7.8284 eV  158.38 nm  f=0.0073  <S**2>=0.000
      12 -> 15         0.69834

 Excited State   4:      Singlet-A"     8.6106 eV  143.99 nm  f=0.0020  <S**2>=0.000
      11 -> 13         0.14724
      12 -> 16         0.67967

 Excited State   5:      Singlet-A"     8.7776 eV  141.25 nm  f=0.0002  <S**2>=0.000
      11 -> 13         0.68707
      12 -> 16        -0.13644

 Excited State   6:      Singlet-A"     9.0537 eV  136.94 nm  f=0.0016  <S**2>=0.000
      12 -> 16        -0.10643
      12 -> 17         0.68879

 Excited State   7:      Singlet-A"     9.7377 eV  127.32 nm  f=0.0001  <S**2>=0.000
      10 -> 13         0.69831

 Excited State   8:      Singlet-A"     9.8975 eV  125.27 nm  f=0.0064  <S**2>=0.000
      12 -> 18         0.69998

 Excited State   9:      Singlet-A'    10.1504 eV  122.15 nm  f=0.0000  <S**2>=0.000
      11 -> 14         0.50198
      11 -> 15        -0.12057
      12 -> 19        -0.47521

 Excited State  10:      Singlet-A'    10.2468 eV  121.00 nm  f=0.0093  <S**2>=0.000
      11 -> 14         0.46203
      12 -> 19         0.51193

 Excited State  11:      Singlet-A"    10.5323 eV  117.72 nm  f=0.1283  <S**2>=0.000
       8 -> 13         0.10992
      12 -> 20         0.67963
      12 -> 21         0.13904

 Excited State  12:      Singlet-A'    10.8517 eV  114.25 nm  f=0.0846  <S**2>=0.000
      10 -> 14        -0.16038
      11 -> 14         0.15747
      11 -> 15         0.66372

 Excited State  13:      Singlet-A"    11.0274 eV  112.43 nm  f=0.0053  <S**2>=0.000
      12 -> 20        -0.13937
      12 -> 21         0.68536

 Excited State  14:      Singlet-A'    11.1374 eV  111.32 nm  f=0.0837  <S**2>=0.000
      10 -> 14         0.64426
      11 -> 15         0.16388
      12 -> 22        -0.19327

 Excited State  15:      Singlet-A'    11.2811 eV  109.90 nm  f=0.0403  <S**2>=0.000
      10 -> 14         0.12349
      11 -> 16        -0.33206
      12 -> 22         0.60020

 Excited State  16:      Singlet-A'    11.5932 eV  106.95 nm  f=0.1671  <S**2>=0.000
       9 -> 13         0.10782
      10 -> 14         0.14412
      11 -> 16         0.58356
      11 -> 17         0.12835
      12 -> 22         0.27213

 Excited State  17:      Singlet-A"    11.6457 eV  106.46 nm  f=0.0028  <S**2>=0.000
       8 -> 13        -0.19297
      12 -> 23         0.67495

 Excited State  18:      Singlet-A'    11.7359 eV  105.65 nm  f=0.0858  <S**2>=0.000
      10 -> 14        -0.12581
      10 -> 15         0.68405

 Excited State  19:      Singlet-A"    11.8094 eV  104.99 nm  f=0.0224  <S**2>=0.000
       8 -> 13         0.65995
      12 -> 23         0.19748

 Excited State  20:      Singlet-A'    11.8689 eV  104.46 nm  f=0.0604  <S**2>=0.000
       9 -> 13         0.66117

 Excited State  21:      Singlet-A'    12.1643 eV  101.92 nm  f=0.0745  <S**2>=0.000
      11 -> 16        -0.12894
      11 -> 17         0.66993

 Excited State  22:      Singlet-A'    12.5791 eV   98.56 nm  f=0.0175  <S**2>=0.000
      10 -> 16         0.54121
      10 -> 17        -0.14905
      12 -> 24        -0.40665

 Excited State  23:      Singlet-A"    12.6145 eV   98.29 nm  f=0.0504  <S**2>=0.000
       9 -> 14         0.68145
       9 -> 15        -0.15977

 Excited State  24:      Singlet-A'    12.7308 eV   97.39 nm  f=0.1528  <S**2>=0.000
       8 -> 14         0.13660
      10 -> 16         0.41303
      10 -> 17         0.26838
      12 -> 24         0.45635

 Excited State  25:      Singlet-A"    12.8580 eV   96.43 nm  f=0.0121  <S**2>=0.000
       7 -> 13        -0.18244
      11 -> 19         0.67541

 Excited State  26:      Singlet-A'    12.9181 eV   95.98 nm  f=0.0041  <S**2>=0.000
      11 -> 18         0.69320

 Excited State  27:      Singlet-A"    13.0354 eV   95.11 nm  f=0.0294  <S**2>=0.000
       7 -> 13         0.60765
      11 -> 19         0.18725
      12 -> 25        -0.28250

 Excited State  28:      Singlet-A"    13.1086 eV   94.58 nm  f=0.0059  <S**2>=0.000
       7 -> 13         0.29463
      12 -> 25         0.61117
      12 -> 27        -0.14736

 Excited State  29:      Singlet-A'    13.1897 eV   94.00 nm  f=0.0505  <S**2>=0.000
       8 -> 15        -0.14636
      10 -> 17         0.48662
      11 -> 20         0.39600
      12 -> 24        -0.20667
      12 -> 26        -0.11409

 Excited State  30:      Singlet-A'    13.2334 eV   93.69 nm  f=0.0160  <S**2>=0.000
       8 -> 14         0.65224
      10 -> 17        -0.17622
      12 -> 26        -0.16190

 Excited State  31:      Singlet-A"    13.2887 eV   93.30 nm  f=0.0003  <S**2>=0.000
       9 -> 14         0.16378
       9 -> 15         0.67726

 Excited State  32:      Singlet-A"    13.4182 eV   92.40 nm  f=0.0038  <S**2>=0.000
       9 -> 16         0.11013
      12 -> 25         0.17378
      12 -> 27         0.66709

 Excited State  33:      Singlet-A'    13.4627 eV   92.09 nm  f=0.0322  <S**2>=0.000
       8 -> 15         0.12481
      10 -> 17        -0.26240
      10 -> 18        -0.10357
      11 -> 20         0.56404
      12 -> 24         0.15686
      12 -> 26         0.16970

 Excited State  34:      Singlet-A'    13.5931 eV   91.21 nm  f=0.0183  <S**2>=0.000
       8 -> 14         0.12214
       8 -> 15        -0.18130
      10 -> 18         0.27332
      12 -> 26         0.58150

 Excited State  35:      Singlet-A'    13.8271 eV   89.67 nm  f=0.1363  <S**2>=0.000
       8 -> 15         0.46791
      10 -> 18         0.16610
      10 -> 20        -0.11851
      11 -> 21         0.45217

 Excited State  36:      Singlet-A'    13.8616 eV   89.44 nm  f=0.0752  <S**2>=0.000
       8 -> 15        -0.29961
      10 -> 18        -0.39394
      11 -> 21         0.45502
      12 -> 26         0.12315

 Excited State  37:      Singlet-A"    13.8807 eV   89.32 nm  f=0.0069  <S**2>=0.000
       9 -> 16         0.57514
      10 -> 19         0.31649
      11 -> 22        -0.18577
      12 -> 27        -0.10074

 Excited State  38:      Singlet-A"    13.9133 eV   89.11 nm  f=0.0195  <S**2>=0.000
       9 -> 16        -0.32970
      10 -> 19         0.59651
      11 -> 22        -0.10883

 Excited State  39:      Singlet-A'    14.0723 eV   88.10 nm  f=0.0636  <S**2>=0.000
       8 -> 14        -0.14052
       8 -> 15        -0.28757
      10 -> 17        -0.17170
      10 -> 18         0.42412
      11 -> 21         0.23082
      12 -> 24         0.14185
      12 -> 26        -0.21481

 Excited State  40:      Singlet-A"    14.1438 eV   87.66 nm  f=0.0021  <S**2>=0.000
       9 -> 16         0.10326
      10 -> 19         0.18558
      11 -> 22         0.66809

 Excited State  41:      Singlet-A'    14.3285 eV   86.53 nm  f=0.0117  <S**2>=0.000
       7 -> 14        -0.12629
       8 -> 15         0.12235
       8 -> 16        -0.25941
      10 -> 20         0.60540
      11 -> 23         0.11906

 Excited State  42:      Singlet-A"    14.5230 eV   85.37 nm  f=0.0070  <S**2>=0.000
       9 -> 17         0.67722

 Excited State  43:      Singlet-A'    14.5266 eV   85.35 nm  f=0.0468  <S**2>=0.000
       7 -> 14         0.49271
       8 -> 16         0.26444
      10 -> 20         0.26702
      11 -> 23        -0.31204

 Excited State  44:      Singlet-A'    14.6571 eV   84.59 nm  f=0.0130  <S**2>=0.000
       7 -> 14         0.45392
       8 -> 16        -0.36901
       9 -> 19         0.11898
      11 -> 23         0.29396

 Excited State  45:      Singlet-A'    14.6774 eV   84.47 nm  f=0.0798  <S**2>=0.000
       8 -> 16         0.41621
       9 -> 19         0.10563
      10 -> 21        -0.13379
      11 -> 23         0.50210

 Excited State  46:      Singlet-A"    14.8540 eV   83.47 nm  f=0.0064  <S**2>=0.000
       6 -> 13         0.12636
      12 -> 28         0.68009

 Excited State  47:      Singlet-A'    14.9732 eV   82.80 nm  f=0.0557  <S**2>=0.000
       8 -> 17         0.62889
       9 -> 19         0.11877
      10 -> 21        -0.22065

 Excited State  48:      Singlet-A"    14.9956 eV   82.68 nm  f=0.0313  <S**2>=0.000
       6 -> 13        -0.20042
      10 -> 22         0.66269

 Excited State  49:      Singlet-A'    15.1425 eV   81.88 nm  f=0.0007  <S**2>=0.000
       7 -> 15         0.61963
       9 -> 19        -0.26694
      10 -> 21        -0.16952

 Excited State  50:      Singlet-A'    15.2864 eV   81.11 nm  f=0.1506  <S**2>=0.000
       7 -> 15         0.25048
       8 -> 16         0.10409
       8 -> 17         0.16137
       9 -> 19         0.19680
      10 -> 21         0.53738
      12 -> 31        -0.15448

 Excited State  51:      Singlet-A"    15.3093 eV   80.99 nm  f=0.0004  <S**2>=0.000
       6 -> 13        -0.12320
       9 -> 18         0.67843

 Excited State  52:      Singlet-A"    15.4308 eV   80.35 nm  f=0.0037  <S**2>=0.000
       6 -> 13        -0.25553
       8 -> 19        -0.12675
      10 -> 22        -0.10572
      11 -> 24         0.59125
      12 -> 29        -0.14613

 Excited State  53:      Singlet-A'    15.4971 eV   80.00 nm  f=0.0256  <S**2>=0.000
       7 -> 15         0.14274
       7 -> 16         0.26979
       8 -> 18         0.23725
       9 -> 19         0.50541
      10 -> 21        -0.15107
      11 -> 23        -0.12734
      11 -> 25         0.13228

 Excited State  54:      Singlet-A"    15.4975 eV   80.00 nm  f=0.0395  <S**2>=0.000
       6 -> 13        -0.10728
      11 -> 24         0.11117
      12 -> 29         0.67814

 Excited State  55:      Singlet-A"    15.5324 eV   79.82 nm  f=0.0287  <S**2>=0.000
       6 -> 13         0.38159
       9 -> 20        -0.28032
      10 -> 22         0.11875
      11 -> 24         0.28907
      12 -> 30         0.36848

 Excited State  56:      Singlet-A"    15.6455 eV   79.25 nm  f=0.0104  <S**2>=0.000
       6 -> 13        -0.14326
       9 -> 20         0.38939
      12 -> 30         0.54668

 Excited State  57:      Singlet-A'    15.6458 eV   79.24 nm  f=0.0763  <S**2>=0.000
       7 -> 16         0.13411
      10 -> 23         0.66326
      12 -> 31        -0.10593

 Excited State  58:      Singlet-A'    15.7071 eV   78.94 nm  f=0.1220  <S**2>=0.000
       7 -> 16         0.37917
       8 -> 18        -0.16275
      10 -> 21         0.17145
      12 -> 31         0.51680

 Excited State  59:      Singlet-A'    15.8294 eV   78.33 nm  f=0.2046  <S**2>=0.000
       7 -> 16         0.40860
       8 -> 18        -0.32726
      10 -> 23        -0.13846
      11 -> 25         0.12103
      12 -> 31        -0.40659

 Excited State  60:      Singlet-A'    15.9436 eV   77.76 nm  f=0.0197  <S**2>=0.000
       7 -> 16         0.25962
       8 -> 18         0.48626
       8 -> 20         0.14930
       9 -> 19        -0.18450
      11 -> 25        -0.26329
      12 -> 31        -0.13102

 Excited State  61:      Singlet-A"    15.9566 eV   77.70 nm  f=0.1118  <S**2>=0.000
       6 -> 13         0.26895
       8 -> 19         0.41299
       9 -> 20         0.37999
      10 -> 22         0.12062
      11 -> 24         0.17414
      12 -> 30        -0.15901

 Excited State  62:      Singlet-A"    15.9966 eV   77.51 nm  f=0.0716  <S**2>=0.000
       6 -> 13        -0.21693
       8 -> 19         0.54225
       9 -> 20        -0.29358
      10 -> 24        -0.15812
      12 -> 30         0.12448

 Excited State  63:      Singlet-A'    16.0856 eV   77.08 nm  f=0.1196  <S**2>=0.000
       8 -> 17         0.11270
       8 -> 18         0.20995
       9 -> 19        -0.14708
      10 -> 21         0.12179
      11 -> 25         0.49009
      11 -> 27        -0.34749

 Excited State  64:      Singlet-A"    16.1448 eV   76.80 nm  f=0.0094  <S**2>=0.000
      10 -> 24        -0.13346
      12 -> 32         0.67763

 Excited State  65:      Singlet-A"    16.1747 eV   76.65 nm  f=0.0205  <S**2>=0.000
       7 -> 19         0.10410
      10 -> 24         0.64923
      12 -> 32         0.10047

 Excited State  66:      Singlet-A"    16.2039 eV   76.52 nm  f=0.0000  <S**2>=0.000
       9 -> 21         0.68791

 Excited State  67:      Singlet-A'    16.3391 eV   75.88 nm  f=0.0269  <S**2>=0.000
       6 -> 14        -0.21147
       7 -> 17        -0.27649
       8 -> 20         0.57663

 Excited State  68:      Singlet-A"    16.3490 eV   75.84 nm  f=0.0450  <S**2>=0.000
       8 -> 22         0.11527
      11 -> 26         0.67616

 Excited State  69:      Singlet-A'    16.3660 eV   75.76 nm  f=0.0300  <S**2>=0.000
       6 -> 14        -0.33253
       9 -> 22        -0.13341
      11 -> 25         0.28914
      11 -> 27         0.50873

 Excited State  70:      Singlet-A'    16.4533 eV   75.36 nm  f=0.0134  <S**2>=0.000
       6 -> 14         0.48377
       7 -> 17        -0.33876
       8 -> 21        -0.10453
      11 -> 25         0.19389
      11 -> 27         0.25444

 Excited State  71:      Singlet-A'    16.6040 eV   74.67 nm  f=0.0281  <S**2>=0.000
       6 -> 14        -0.21891
       6 -> 15         0.15595
       7 -> 17        -0.35796
       8 -> 20        -0.29231
       9 -> 22         0.42654

 Excited State  72:      Singlet-A'    16.7918 eV   73.84 nm  f=0.0129  <S**2>=0.000
       6 -> 15        -0.13562
       7 -> 17         0.29973
       7 -> 18         0.14800
       8 -> 20         0.14830
       9 -> 22         0.43804
      10 -> 25        -0.32675
      11 -> 27         0.10016

 Excited State  73:      Singlet-A"    16.8990 eV   73.37 nm  f=0.0118  <S**2>=0.000
       8 -> 22        -0.17225
       9 -> 23         0.31335
      12 -> 33         0.57914

 Excited State  74:      Singlet-A'    16.9422 eV   73.18 nm  f=0.0012  <S**2>=0.000
       7 -> 17         0.12847
       8 -> 21         0.10626
       9 -> 22         0.25573
      10 -> 25         0.59190

 Excited State  75:      Singlet-A"    16.9432 eV   73.18 nm  f=0.0106  <S**2>=0.000
       8 -> 22         0.15715
       9 -> 23         0.61941
      12 -> 33        -0.25587

 Excited State  76:      Singlet-A'    17.0533 eV   72.70 nm  f=0.0364  <S**2>=0.000
       7 -> 18         0.30087
       8 -> 21         0.58310
      12 -> 34        -0.12829

 Excited State  77:      Singlet-A"    17.0992 eV   72.51 nm  f=0.0368  <S**2>=0.000
       7 -> 19         0.24596
       8 -> 22         0.61418
      11 -> 26        -0.11853
      12 -> 33         0.16827

 Excited State  78:      Singlet-A'    17.1319 eV   72.37 nm  f=0.0017  <S**2>=0.000
       6 -> 15         0.53164
       7 -> 18         0.38210
       8 -> 21        -0.10595
      10 -> 27         0.10261

 Excited State  79:      Singlet-A"    17.1729 eV   72.20 nm  f=0.0749  <S**2>=0.000
       7 -> 19         0.64024
       8 -> 22        -0.19790
      10 -> 24        -0.10011
      12 -> 33        -0.14326

 Excited State  80:      Singlet-A'    17.2402 eV   71.92 nm  f=0.0182  <S**2>=0.000
       6 -> 14        -0.13083
       6 -> 15        -0.31539
       7 -> 17        -0.13574
       7 -> 18         0.45747
       8 -> 21        -0.24763
      10 -> 27        -0.16936
      12 -> 34         0.15134

 Excited State  81:      Singlet-A"    17.3190 eV   71.59 nm  f=0.1187  <S**2>=0.000
      10 -> 26         0.67490

 Excited State  82:      Singlet-A'    17.4015 eV   71.25 nm  f=0.0100  <S**2>=0.000
       6 -> 15        -0.17313
       8 -> 23         0.10656
      10 -> 27         0.61794

 Excited State  83:      Singlet-A'    17.5981 eV   70.45 nm  f=0.0095  <S**2>=0.000
       7 -> 20         0.52263
       8 -> 23        -0.34891
      12 -> 34         0.28020

 Excited State  84:      Singlet-A'    17.6268 eV   70.34 nm  f=0.0586  <S**2>=0.000
       7 -> 20         0.37220
       8 -> 23         0.48486
      11 -> 28        -0.30376

 Excited State  85:      Singlet-A'    17.7393 eV   69.89 nm  f=0.0650  <S**2>=0.000
       6 -> 16        -0.22277
       7 -> 20        -0.11252
       8 -> 21         0.12808
       8 -> 23         0.27584
      11 -> 28         0.24254
      12 -> 34         0.48264

 Excited State  86:      Singlet-A"    17.8757 eV   69.36 nm  f=0.0390  <S**2>=0.000
      12 -> 35         0.68968

 Excited State  87:      Singlet-A'    17.8945 eV   69.29 nm  f=0.0902  <S**2>=0.000
       6 -> 16         0.52687
       7 -> 20        -0.14347
       7 -> 21        -0.18318
       9 -> 24        -0.18471
      11 -> 28        -0.12227
      12 -> 34         0.26147

 Excited State  88:      Singlet-A'    17.9232 eV   69.18 nm  f=0.1080  <S**2>=0.000
       6 -> 16         0.17539
       6 -> 17         0.11967
       7 -> 21         0.18355
       8 -> 23         0.13817
       9 -> 24        -0.32793
      10 -> 27        -0.11144
      11 -> 28         0.46525
      11 -> 29        -0.10398
      12 -> 34        -0.11995

 Excited State  89:      Singlet-A'    18.0748 eV   68.60 nm  f=0.0069  <S**2>=0.000
       6 -> 16         0.27385
       9 -> 24         0.57874
      11 -> 28         0.16413
      11 -> 29        -0.13459

 Excited State  90:      Singlet-A"    18.1707 eV   68.23 nm  f=0.0021  <S**2>=0.000
       7 -> 22        -0.15233
       8 -> 24         0.11668
      12 -> 36         0.64693
      12 -> 37         0.14715

 Excited State  91:      Singlet-A"    18.2329 eV   68.00 nm  f=0.0137  <S**2>=0.000
       6 -> 19         0.10237
       7 -> 22         0.11966
       8 -> 24         0.65114
      11 -> 31        -0.11378
      12 -> 36        -0.11016

 Excited State  92:      Singlet-A'    18.3001 eV   67.75 nm  f=0.0050  <S**2>=0.000
       6 -> 17        -0.44487
       7 -> 21         0.50180

 Excited State  93:      Singlet-A"    18.3702 eV   67.49 nm  f=0.0145  <S**2>=0.000
       7 -> 22         0.37229
       8 -> 24        -0.15144
       9 -> 25         0.50086
       9 -> 27        -0.23564

 Excited State  94:      Singlet-A"    18.4063 eV   67.36 nm  f=0.0252  <S**2>=0.000
       7 -> 22         0.31619
       9 -> 25        -0.25749
       9 -> 27         0.14272
      12 -> 37         0.54471

 Excited State  95:      Singlet-A'    18.4360 eV   67.25 nm  f=0.0263  <S**2>=0.000
       6 -> 16         0.13165
       7 -> 23        -0.17727
      11 -> 29         0.50510
      11 -> 30         0.37172
      12 -> 38         0.14686

 Excited State  96:      Singlet-A'    18.4816 eV   67.09 nm  f=0.0064  <S**2>=0.000
       6 -> 17        -0.25754
       7 -> 21        -0.14602
      11 -> 29        -0.33771
      11 -> 30         0.50337

 Excited State  97:      Singlet-A"    18.5011 eV   67.01 nm  f=0.0934  <S**2>=0.000
       5 -> 13        -0.10036
       7 -> 22         0.40369
       9 -> 25        -0.22957
      11 -> 31        -0.24777
      12 -> 36         0.15900
      12 -> 37        -0.39229

 Excited State  98:      Singlet-A'    18.5777 eV   66.74 nm  f=0.0038  <S**2>=0.000
       9 -> 26        -0.11088
      12 -> 38         0.66255

 Excited State  99:      Singlet-A'    18.6735 eV   66.40 nm  f=0.0005  <S**2>=0.000
       6 -> 17         0.40917
       7 -> 21         0.29405
       8 -> 27         0.11869
       9 -> 26         0.21764
      11 -> 28        -0.17437
      11 -> 29        -0.22506
      11 -> 30         0.20703

 Excited State 100:      Singlet-A"    18.7099 eV   66.27 nm  f=0.0250  <S**2>=0.000
       7 -> 22         0.16992
       9 -> 25        -0.20666
       9 -> 27        -0.22305
      11 -> 31         0.58588

 Excited State 101:      Singlet-A'    18.7156 eV   66.25 nm  f=0.0236  <S**2>=0.000
       7 -> 23         0.28542
       8 -> 25         0.11190
      10 -> 28         0.59823
      11 -> 29         0.14300

 Excited State 102:      Singlet-A"    18.7980 eV   65.96 nm  f=0.0001  <S**2>=0.000
       9 -> 25         0.25265
       9 -> 27         0.58221
      11 -> 31         0.26699

 Excited State 103:      Singlet-A'    18.8396 eV   65.81 nm  f=0.0412  <S**2>=0.000
       7 -> 23         0.55774
       9 -> 26         0.24603
      10 -> 28        -0.29154
      11 -> 30         0.10624

 Excited State 104:      Singlet-A'    18.9976 eV   65.26 nm  f=0.0038  <S**2>=0.000
       6 -> 17        -0.12401
       7 -> 21        -0.12115
       7 -> 23        -0.19666
       8 -> 27        -0.18455
       9 -> 26         0.59213

 Excited State 105:      Singlet-A'    19.0524 eV   65.08 nm  f=0.2612  <S**2>=0.000
       6 -> 18        -0.39973
       8 -> 25         0.53787

 Excited State 106:      Singlet-A'    19.1568 eV   64.72 nm  f=0.0352  <S**2>=0.000
       6 -> 18         0.10541
       6 -> 20         0.13703
       8 -> 25         0.13455
       8 -> 27         0.18261
      11 -> 32         0.62185

 Excited State 107:      Singlet-A"    19.1681 eV   64.68 nm  f=0.0023  <S**2>=0.000
       6 -> 19         0.68177
       8 -> 24        -0.11235

 Excited State 108:      Singlet-A'    19.1983 eV   64.58 nm  f=0.0502  <S**2>=0.000
       6 -> 18         0.54663
       8 -> 25         0.36124
      11 -> 32        -0.14599

 The electronic state is 1-A'.
 Alpha  occ. eigenvalues --  -24.71518 -10.27893 -10.19477  -1.22005  -0.77398
 Alpha  occ. eigenvalues --   -0.61475  -0.54197  -0.49564  -0.47568  -0.41985
 Alpha  occ. eigenvalues --   -0.38632  -0.27977
 Alpha virt. eigenvalues --   -0.00391   0.02695   0.04750   0.08086   0.09893
 Alpha virt. eigenvalues --    0.12473   0.13142   0.14643   0.16783   0.17519
 Alpha virt. eigenvalues --    0.18763   0.22392   0.24340   0.25640   0.26254

 Mulliken charges:
               1
     1  F   -0.428707
     2  C    0.739501
     3  C    0.252522
     4  H   -0.229093
     5  H   -0.224568
     6  H   -0.109656
 Sum of Mulliken charges =  -0.00000

 Dipole moment (field-independent basis, Debye):
    X=              1.1861    Y=              0.7703    Z=              0.0000  Tot=              1.4142
 Quadrupole moment (field-independent basis, Debye-Ang):
   XX=            -17.9183   YY=            -15.8489   ZZ=            -19.0306
   XY=             -0.8579   XZ=              0.0000   YZ=              0.0000

 Normal termination of Gaussian 16 at Mon Mar 21 19:58:02 2022.
