 Gaussian 16, Revision C.01,
 Gaussian 16:  EM64L-G16RevC.01  3-Jul-2019

 ---------------------------------------------------------------------
 #P TD(Nstates=10000) b3lyp/Gen SCF(maxcycles=100) Int(Grid=ultrafine)
 ---------------------------------------------------------------------

 ---------------------
 xGDB7_00001_tier4.com
 ---------------------
 Symbolic Z-matrix:
 Charge =  0 Multiplicity = 1

                         Standard orientation:
 ---------------------------------------------------------------------
 Center     Atomic      Atomic             Coordinates (Angstroms)
 Number     Number       Type             X           Y           Z
 ---------------------------------------------------------------------
      1          6           0       -1.240791   -0.237624   -0.027525
      2          6           0        0.048946    0.559205    0.053709
      3          7           0        1.202342   -0.317606   -0.116703
      4          1           0       -2.109817    0.415828    0.064703
      5          1           0       -1.292929   -0.976209    0.776809
      6          1           0       -1.300329   -0.769884   -0.977746
      7          1           0        0.066306    1.122818    0.997967
      8          1           0        0.069957    1.296574   -0.752592
      9          1           0        1.236408   -1.003082    0.627159
     10          1           0        2.065080    0.207710   -0.076483
 ---------------------------------------------------------------------

 SCF Done:  E(RB3LYP) =  -135.089838915     A.U. after   13 cycles

 Excitation energies and oscillator strengths:

 Excited State   1:      Singlet-A      6.0144 eV  206.15 nm  f=0.0107  <S**2>=0.000
      13 -> 14         0.69242
      13 -> 15        -0.12717
 This state for optimization and/or second-order correction.
 Total Energy, E(TD-HF/TD-DFT) =  -134.868814551
 Copying the excited state density for this state as the 1-particle RhoCI density.

 Excited State   2:      Singlet-A      6.9473 eV  178.46 nm  f=0.0062  <S**2>=0.000
      13 -> 14         0.12998
      13 -> 15         0.68417

 Excited State   3:      Singlet-A      7.1405 eV  173.63 nm  f=0.0263  <S**2>=0.000
      13 -> 16         0.69684

 Excited State   4:      Singlet-A      7.8135 eV  158.68 nm  f=0.0690  <S**2>=0.000
      13 -> 17         0.69433

 Excited State   5:      Singlet-A      8.2783 eV  149.77 nm  f=0.0310  <S**2>=0.000
      13 -> 18         0.69277

 Excited State   6:      Singlet-A      8.7604 eV  141.53 nm  f=0.0039  <S**2>=0.000
      13 -> 19         0.67800
      13 -> 21        -0.13524

 Excited State   7:      Singlet-A      8.9889 eV  137.93 nm  f=0.0026  <S**2>=0.000
      12 -> 14         0.67685
      13 -> 20        -0.17932

 Excited State   8:      Singlet-A      9.0396 eV  137.16 nm  f=0.0014  <S**2>=0.000
      12 -> 14         0.18635
      13 -> 20         0.66218

 Excited State   9:      Singlet-A      9.2816 eV  133.58 nm  f=0.0159  <S**2>=0.000
      13 -> 19         0.13285
      13 -> 21         0.67939

 Excited State  10:      Singlet-A      9.4848 eV  130.72 nm  f=0.0052  <S**2>=0.000
      10 -> 14         0.11725
      11 -> 14         0.68764

 Excited State  11:      Singlet-A      9.6603 eV  128.34 nm  f=0.0631  <S**2>=0.000
      10 -> 14         0.68650
      11 -> 14        -0.10939

 Excited State  12:      Singlet-A      9.7948 eV  126.58 nm  f=0.0407  <S**2>=0.000
      12 -> 15         0.67469
      13 -> 22        -0.17158

 Excited State  13:      Singlet-A      9.8659 eV  125.67 nm  f=0.0009  <S**2>=0.000
      12 -> 15         0.11466
      13 -> 22         0.56876
      13 -> 23        -0.30805
      13 -> 24         0.21696

 Excited State  14:      Singlet-A     10.0035 eV  123.94 nm  f=0.0044  <S**2>=0.000
      12 -> 15         0.13009
      13 -> 22         0.32767
      13 -> 23         0.58006
      13 -> 24        -0.12720

 Excited State  15:      Singlet-A     10.1243 eV  122.46 nm  f=0.1190  <S**2>=0.000
      12 -> 16         0.67404
      13 -> 23        -0.10668
      13 -> 24        -0.14463

 Excited State  16:      Singlet-A     10.2143 eV  121.38 nm  f=0.0072  <S**2>=0.000
      12 -> 16         0.18029
      13 -> 22        -0.10912
      13 -> 23         0.20450
      13 -> 24         0.62951

 Excited State  17:      Singlet-A     10.2958 eV  120.42 nm  f=0.0753  <S**2>=0.000
      11 -> 15         0.69274

 Excited State  18:      Singlet-A     10.4525 eV  118.62 nm  f=0.0260  <S**2>=0.000
      10 -> 15         0.68407

 Excited State  19:      Singlet-A     10.5847 eV  117.13 nm  f=0.0115  <S**2>=0.000
      11 -> 16         0.67866
      12 -> 17         0.13013
      13 -> 25        -0.10536

 Excited State  20:      Singlet-A     10.6484 eV  116.43 nm  f=0.0454  <S**2>=0.000
      10 -> 16         0.10335
      11 -> 16         0.10356
      13 -> 25         0.64616
      13 -> 26         0.13201

 Excited State  21:      Singlet-A     10.7260 eV  115.59 nm  f=0.0131  <S**2>=0.000
      10 -> 16        -0.37686
      11 -> 16        -0.11349
      12 -> 17         0.57489

 Excited State  22:      Singlet-A     10.7973 eV  114.83 nm  f=0.0445  <S**2>=0.000
      10 -> 16         0.57495
      12 -> 17         0.36423

 Excited State  23:      Singlet-A     11.0936 eV  111.76 nm  f=0.0118  <S**2>=0.000
       9 -> 14        -0.11295
      11 -> 17         0.31772
      12 -> 18         0.58506
      13 -> 27         0.13093

 Excited State  24:      Singlet-A     11.1192 eV  111.51 nm  f=0.0203  <S**2>=0.000
       9 -> 14         0.33682
      11 -> 17        -0.13165
      12 -> 18         0.23756
      13 -> 26         0.47947
      13 -> 27        -0.25423

 Excited State  25:      Singlet-A     11.1763 eV  110.93 nm  f=0.0280  <S**2>=0.000
      11 -> 17         0.51180
      12 -> 18        -0.19603
      13 -> 27        -0.42148

 Excited State  26:      Singlet-A     11.1907 eV  110.79 nm  f=0.0617  <S**2>=0.000
       9 -> 14         0.56134
      10 -> 17        -0.14484
      11 -> 17         0.23586
      13 -> 26        -0.18804
      13 -> 27         0.22231

 Excited State  27:      Singlet-A     11.2953 eV  109.77 nm  f=0.0706  <S**2>=0.000
       9 -> 14        -0.14291
      10 -> 17        -0.12033
      11 -> 17         0.20542
      12 -> 18        -0.17694
      12 -> 19         0.13623
      13 -> 26         0.42378
      13 -> 27         0.39940

 Excited State  28:      Singlet-A     11.3206 eV  109.52 nm  f=0.0617  <S**2>=0.000
       9 -> 14         0.13729
      10 -> 17         0.65860
      13 -> 27         0.11344

 Excited State  29:      Singlet-A     11.6021 eV  106.86 nm  f=0.0228  <S**2>=0.000
      10 -> 18         0.12606
      11 -> 18         0.67611

 Excited State  30:      Singlet-A     11.6639 eV  106.30 nm  f=0.0153  <S**2>=0.000
       9 -> 15         0.14756
      10 -> 18        -0.19380
      12 -> 19         0.62428

 Excited State  31:      Singlet-A     11.7612 eV  105.42 nm  f=0.0885  <S**2>=0.000
       9 -> 15        -0.11795
      10 -> 18         0.55170
      11 -> 18        -0.11426
      12 -> 19         0.23521
      12 -> 20        -0.25472
      13 -> 28        -0.14623

 Excited State  32:      Singlet-A     11.8908 eV  104.27 nm  f=0.0412  <S**2>=0.000
       9 -> 15         0.22967
      10 -> 18         0.19899
      13 -> 28         0.61483

 Excited State  33:      Singlet-A     11.9218 eV  104.00 nm  f=0.0400  <S**2>=0.000
       9 -> 15        -0.13056
       9 -> 16         0.13897
      10 -> 18         0.22383
      11 -> 19        -0.12820
      12 -> 20         0.56149
      12 -> 21         0.22716

 Excited State  34:      Singlet-A     12.0165 eV  103.18 nm  f=0.0398  <S**2>=0.000
       9 -> 15         0.50710
      10 -> 18         0.12101
      11 -> 19        -0.37252
      12 -> 21        -0.13605
      13 -> 28        -0.21338

 Excited State  35:      Singlet-A     12.0625 eV  102.78 nm  f=0.0336  <S**2>=0.000
       9 -> 15         0.28174
      11 -> 19         0.22026
      12 -> 21         0.56764

 Excited State  36:      Singlet-A     12.1346 eV  102.17 nm  f=0.0754  <S**2>=0.000
       8 -> 14         0.15662
       9 -> 15         0.20143
      10 -> 18         0.10439
      10 -> 19         0.10419
      11 -> 19         0.46836
      11 -> 20        -0.19158
      12 -> 20         0.16851
      12 -> 21        -0.25987
      13 -> 28        -0.10732
      13 -> 29         0.12396

 Excited State  37:      Singlet-A     12.2524 eV  101.19 nm  f=0.0381  <S**2>=0.000
       8 -> 14         0.48878
       9 -> 16         0.27325
      10 -> 20        -0.14374
      11 -> 19        -0.16880
      11 -> 20        -0.11512
      12 -> 20        -0.15128
      13 -> 29         0.22803

 Excited State  38:      Singlet-A     12.2626 eV  101.11 nm  f=0.0115  <S**2>=0.000
       8 -> 14        -0.27912
       9 -> 16         0.42345
      10 -> 19         0.38155
      13 -> 29        -0.22886

 Excited State  39:      Singlet-A     12.3165 eV  100.67 nm  f=0.0813  <S**2>=0.000
       8 -> 14         0.27737
       9 -> 16        -0.29050
      10 -> 19         0.38398
      11 -> 20         0.22697
      12 -> 22        -0.10238
      13 -> 29        -0.31466

 Excited State  40:      Singlet-A     12.3309 eV  100.55 nm  f=0.0687  <S**2>=0.000
       8 -> 14         0.12704
       9 -> 16         0.31731
      10 -> 19        -0.24984
      11 -> 19         0.15887
      11 -> 20         0.48024
      13 -> 29        -0.16467

 Excited State  41:      Singlet-A     12.3573 eV  100.33 nm  f=0.1012  <S**2>=0.000
       8 -> 14        -0.18023
      10 -> 19         0.25753
      11 -> 20         0.37757
      13 -> 29         0.45421

 Excited State  42:      Singlet-A     12.5356 eV   98.91 nm  f=0.0870  <S**2>=0.000
      10 -> 19         0.11378
      10 -> 20         0.59515
      11 -> 21         0.26762
      12 -> 22        -0.12048

 Excited State  43:      Singlet-A     12.5605 eV   98.71 nm  f=0.0145  <S**2>=0.000
      10 -> 20        -0.15160
      10 -> 21         0.32711
      11 -> 21         0.50321
      12 -> 22         0.25409
      13 -> 29        -0.10952

 Excited State  44:      Singlet-A     12.6550 eV   97.97 nm  f=0.0241  <S**2>=0.000
       9 -> 17        -0.24886
      10 -> 21         0.46312
      12 -> 22        -0.39115

 Excited State  45:      Singlet-A     12.7209 eV   97.46 nm  f=0.0376  <S**2>=0.000
      10 -> 20         0.20784
      10 -> 21         0.34222
      11 -> 21        -0.28719
      12 -> 20        -0.10578
      12 -> 22         0.39303
      12 -> 23         0.10367

 Excited State  46:      Singlet-A     12.8621 eV   96.40 nm  f=0.0370  <S**2>=0.000
       8 -> 15        -0.14930
       9 -> 17         0.47358
      10 -> 21         0.10923
      12 -> 22        -0.23785
      12 -> 23         0.36628

 Excited State  47:      Singlet-A     12.9043 eV   96.08 nm  f=0.0444  <S**2>=0.000
       7 -> 14         0.61185
      12 -> 23         0.22552
      12 -> 24         0.16183

 Excited State  48:      Singlet-A     12.9903 eV   95.44 nm  f=0.0324  <S**2>=0.000
       7 -> 14         0.18142
       8 -> 15         0.30350
       9 -> 17         0.38573
      11 -> 22         0.13628
      12 -> 23        -0.37212
      12 -> 24         0.13294

 Excited State  49:      Singlet-A     13.0055 eV   95.33 nm  f=0.0087  <S**2>=0.000
       7 -> 14        -0.14700
      11 -> 22        -0.13075
      12 -> 24         0.32869
      13 -> 30         0.53348

 Excited State  50:      Singlet-A     13.0467 eV   95.03 nm  f=0.0317  <S**2>=0.000
       8 -> 15         0.45548
      12 -> 23         0.21013
      12 -> 24        -0.30125
      13 -> 30         0.25525
      13 -> 31         0.25488

 Excited State  51:      Singlet-A     13.0899 eV   94.72 nm  f=0.0203  <S**2>=0.000
       8 -> 15        -0.27863
      10 -> 22         0.18825
      11 -> 22         0.41078
      12 -> 23        -0.14815
      12 -> 24        -0.31398
      13 -> 30         0.25937

 Excited State  52:      Singlet-A     13.1346 eV   94.40 nm  f=0.0803  <S**2>=0.000
       8 -> 15        -0.20337
      10 -> 22         0.11778
      11 -> 21        -0.11979
      12 -> 23        -0.12673
      13 -> 30        -0.15157
      13 -> 31         0.57414

 Excited State  53:      Singlet-A     13.1923 eV   93.98 nm  f=0.0404  <S**2>=0.000
       7 -> 14        -0.15003
       8 -> 16        -0.11072
       9 -> 18         0.11960
      10 -> 22         0.20135
      11 -> 22         0.42666
      11 -> 23        -0.22270
      12 -> 23         0.18883
      12 -> 24         0.26615
      13 -> 30        -0.13308

 Excited State  54:      Singlet-A     13.2541 eV   93.54 nm  f=0.0356  <S**2>=0.000
       8 -> 16         0.26823
       9 -> 18         0.22160
      10 -> 22         0.49087
      11 -> 22        -0.16649
      11 -> 23         0.21603

 Excited State  55:      Singlet-A     13.3046 eV   93.19 nm  f=0.0624  <S**2>=0.000
       8 -> 16         0.46746
       9 -> 18        -0.44679
      10 -> 23        -0.15976
      12 -> 24         0.10100

 Excited State  56:      Singlet-A     13.3491 eV   92.88 nm  f=0.1027  <S**2>=0.000
       8 -> 16         0.39018
       9 -> 18         0.36755
      10 -> 22        -0.30756
      11 -> 24         0.15456
      13 -> 31         0.14541

 Excited State  57:      Singlet-A     13.4618 eV   92.10 nm  f=0.0087  <S**2>=0.000
      10 -> 23         0.47371
      11 -> 23        -0.40121
      11 -> 24        -0.19970

 Excited State  58:      Singlet-A     13.5170 eV   91.72 nm  f=0.0085  <S**2>=0.000
       9 -> 18        -0.14846
       9 -> 19         0.11531
       9 -> 20         0.11772
      10 -> 23         0.26309
      10 -> 24         0.21019
      11 -> 22         0.13808
      11 -> 23         0.39209
      11 -> 24        -0.15626
      12 -> 25         0.28178

 Excited State  59:      Singlet-A     13.5548 eV   91.47 nm  f=0.0084  <S**2>=0.000
       9 -> 18        -0.12704
      11 -> 23        -0.11304
      11 -> 24         0.40702
      12 -> 25         0.49782

 Excited State  60:      Singlet-A     13.6587 eV   90.77 nm  f=0.0606  <S**2>=0.000
       9 -> 19         0.25365
      10 -> 23         0.21275
      10 -> 24         0.16235
      11 -> 24         0.44231
      11 -> 25        -0.12858
      12 -> 25        -0.31105

 Excited State  61:      Singlet-A     13.7455 eV   90.20 nm  f=0.0223  <S**2>=0.000
       7 -> 16         0.12092
       9 -> 19        -0.21781
      10 -> 23        -0.17306
      10 -> 24         0.58926

 Excited State  62:      Singlet-A     13.7977 eV   89.86 nm  f=0.0716  <S**2>=0.000
       7 -> 15         0.59988
       7 -> 16        -0.12583
       8 -> 17         0.10509
       9 -> 19         0.25764
      12 -> 25         0.12107

 Excited State  63:      Singlet-A     13.8764 eV   89.35 nm  f=0.0050  <S**2>=0.000
       7 -> 15        -0.26455
       8 -> 17         0.47836
       9 -> 19         0.35357
      10 -> 23        -0.10248

 Excited State  64:      Singlet-A     13.9070 eV   89.15 nm  f=0.0142  <S**2>=0.000
       9 -> 19        -0.17016
      11 -> 25        -0.31168
      12 -> 26         0.53943
      12 -> 27        -0.11977
      13 -> 32         0.13979
      13 -> 33        -0.10284

 Excited State  65:      Singlet-A     13.9793 eV   88.69 nm  f=0.0623  <S**2>=0.000
       7 -> 16         0.43945
       8 -> 17        -0.31993
       9 -> 19         0.27603
       9 -> 20        -0.11966
      10 -> 23        -0.10101
      13 -> 32         0.15753
      13 -> 34        -0.10966

 Excited State  66:      Singlet-A     14.0251 eV   88.40 nm  f=0.0088  <S**2>=0.000
       7 -> 16        -0.10968
       9 -> 20         0.14654
      13 -> 32         0.64373

 Excited State  67:      Singlet-A     14.0777 eV   88.07 nm  f=0.0245  <S**2>=0.000
       7 -> 15         0.12093
       7 -> 16         0.37547
       8 -> 17         0.18614
       9 -> 20         0.33484
      10 -> 23         0.10820
      12 -> 27         0.26191
      13 -> 33        -0.24244

 Excited State  68:      Singlet-A     14.0882 eV   88.01 nm  f=0.0266  <S**2>=0.000
       7 -> 16         0.14838
       9 -> 20         0.10513
       9 -> 21         0.17509
      11 -> 25        -0.10451
      13 -> 33         0.49948
      13 -> 34         0.35226

 Excited State  69:      Singlet-A     14.1350 eV   87.71 nm  f=0.0528  <S**2>=0.000
       7 -> 16        -0.14382
       8 -> 18         0.18910
       9 -> 21         0.15873
      11 -> 25         0.19230
      12 -> 26         0.27241
      12 -> 27         0.45464
      13 -> 34        -0.20608

 Excited State  70:      Singlet-A     14.1732 eV   87.48 nm  f=0.0005  <S**2>=0.000
       7 -> 16        -0.16083
       8 -> 18         0.13248
       9 -> 21         0.39274
      12 -> 27        -0.14025
      13 -> 33        -0.35309
      13 -> 34         0.29544

 Excited State  71:      Singlet-A     14.2121 eV   87.24 nm  f=0.0827  <S**2>=0.000
       8 -> 17        -0.14186
       8 -> 18         0.22734
       9 -> 20         0.39130
      10 -> 25        -0.32161
      11 -> 25        -0.23918
      13 -> 34        -0.21001

 Excited State  72:      Singlet-A     14.2190 eV   87.20 nm  f=0.0171  <S**2>=0.000
       9 -> 20         0.18421
       9 -> 21         0.19049
      10 -> 25         0.43663
      12 -> 27        -0.24201
      13 -> 33         0.12166
      13 -> 34        -0.34852

 Excited State  73:      Singlet-A     14.3220 eV   86.57 nm  f=0.1700  <S**2>=0.000
       9 -> 20         0.15401
       9 -> 21        -0.28828
      10 -> 22         0.10440
      10 -> 26        -0.24815
      11 -> 25         0.38373
      12 -> 26         0.19460
      12 -> 27        -0.18836
      13 -> 34         0.12448

 Excited State  74:      Singlet-A     14.3548 eV   86.37 nm  f=0.0705  <S**2>=0.000
       8 -> 18         0.27657
       9 -> 21        -0.34658
      10 -> 23        -0.10614
      10 -> 25         0.35478
      10 -> 26         0.14322
      11 -> 25        -0.18884
      11 -> 27        -0.15397
      13 -> 34         0.10801

 Excited State  75:      Singlet-A     14.4874 eV   85.58 nm  f=0.0739  <S**2>=0.000
       7 -> 17         0.38294
       8 -> 18         0.38814
       9 -> 19        -0.10240
       9 -> 20        -0.10143
      11 -> 26         0.24687
      11 -> 27        -0.14628
      12 -> 27        -0.11612

 Excited State  76:      Singlet-A     14.5200 eV   85.39 nm  f=0.0668  <S**2>=0.000
       7 -> 17        -0.17909
       8 -> 18        -0.22038
       9 -> 20         0.11849
      10 -> 27         0.14606
      11 -> 26         0.41555
      11 -> 27        -0.34035
      12 -> 28        -0.17991

 Excited State  77:      Singlet-A     14.5495 eV   85.22 nm  f=0.0342  <S**2>=0.000
      10 -> 26         0.14319
      10 -> 27         0.12314
      11 -> 26         0.40248
      11 -> 27         0.52300

 Excited State  78:      Singlet-A     14.6129 eV   84.85 nm  f=0.0404  <S**2>=0.000
      10 -> 25        -0.12658
      10 -> 26         0.48692
      10 -> 27        -0.29113
      11 -> 25         0.12304
      13 -> 35        -0.22373

 Excited State  79:      Singlet-A     14.6421 eV   84.68 nm  f=0.0321  <S**2>=0.000
       8 -> 19        -0.11107
      10 -> 26         0.13020
      10 -> 27        -0.10719
      12 -> 28        -0.10312
      13 -> 35         0.63177

 Excited State  80:      Singlet-A     14.7481 eV   84.07 nm  f=0.0282  <S**2>=0.000
       8 -> 19         0.16234
       9 -> 22         0.27200
      10 -> 26         0.27400
      10 -> 27         0.46855
      11 -> 26        -0.18317
      12 -> 28         0.12291

 Excited State  81:      Singlet-A     14.8645 eV   83.41 nm  f=0.0437  <S**2>=0.000
       7 -> 17        -0.24690
       7 -> 18        -0.10914
       8 -> 18         0.12132
       8 -> 19         0.50082
       9 -> 22         0.11495
      10 -> 27        -0.20241
      12 -> 28        -0.19614

 Excited State  82:      Singlet-A     14.8694 eV   83.38 nm  f=0.0715  <S**2>=0.000
       7 -> 17        -0.16657
       7 -> 18        -0.15589
       8 -> 19        -0.19857
       8 -> 20         0.10042
       9 -> 22         0.31644
      10 -> 27        -0.18932
      12 -> 28         0.41619

 Excited State  83:      Singlet-A     14.8976 eV   83.22 nm  f=0.0377  <S**2>=0.000
       7 -> 17         0.32464
       8 -> 20        -0.12443
       9 -> 22         0.47343
       9 -> 24         0.15093
      10 -> 26        -0.15370
      10 -> 27        -0.11515
      12 -> 28        -0.11503

 Excited State  84:      Singlet-A     14.9825 eV   82.75 nm  f=0.0392  <S**2>=0.000
       7 -> 17        -0.13664
       8 -> 18         0.12137
       8 -> 19        -0.27162
       8 -> 20         0.11432
       8 -> 21         0.11524
       9 -> 22         0.15898
       9 -> 23         0.40969
      11 -> 28         0.12361
      12 -> 28        -0.28586

 Excited State  85:      Singlet-A     15.0741 eV   82.25 nm  f=0.0493  <S**2>=0.000
       7 -> 18         0.35991
       8 -> 19         0.13770
       8 -> 20         0.34968
       9 -> 23         0.10114
       9 -> 24        -0.23586
      13 -> 36         0.27236
      13 -> 37         0.14023

 Excited State  86:      Singlet-A     15.1037 eV   82.09 nm  f=0.0151  <S**2>=0.000
       7 -> 18        -0.17408
       8 -> 20        -0.25816
       9 -> 23         0.13042
      11 -> 28        -0.21750
      13 -> 36         0.51020
      13 -> 37         0.16957

 Excited State  87:      Singlet-A     15.1698 eV   81.73 nm  f=0.0498  <S**2>=0.000
       7 -> 18        -0.26764
       8 -> 20         0.23774
       9 -> 23        -0.26991
       9 -> 24         0.14655
      11 -> 28         0.36374
      12 -> 28        -0.14169
      13 -> 36         0.27167
      13 -> 37        -0.13969

 Excited State  88:      Singlet-A     15.1756 eV   81.70 nm  f=0.0093  <S**2>=0.000
       7 -> 18         0.13571
       8 -> 20        -0.14649
       9 -> 23        -0.21901
       9 -> 24         0.11487
      11 -> 28         0.25554
      13 -> 37         0.50941
      13 -> 38         0.11651
      13 -> 39         0.11312

 Excited State  89:      Singlet-A     15.2573 eV   81.26 nm  f=0.0246  <S**2>=0.000
       7 -> 18        -0.13119
       8 -> 20         0.30424

 The electronic state is 1-A.
 Alpha  occ. eigenvalues --  -14.30957 -10.20720 -10.17436  -0.87619  -0.72657
 Alpha  occ. eigenvalues --   -0.60059  -0.49378  -0.46798  -0.42908  -0.37256
 Alpha  occ. eigenvalues --   -0.36763  -0.34954  -0.24317
 Alpha virt. eigenvalues --    0.01842   0.04653   0.05833   0.08187   0.09872
 Alpha virt. eigenvalues --    0.11800   0.12651   0.13377   0.15417   0.16477
 Alpha virt. eigenvalues --    0.16997   0.19047   0.20247   0.20641   0.23664

 Mulliken charges:
               1
     1  C    0.566053
     2  C    0.299533
     3  N   -0.094895
     4  H   -0.097191
     5  H   -0.099885
     6  H   -0.056116
     7  H   -0.193157
     8  H   -0.240094
     9  H   -0.005403
    10  H   -0.078845
 Sum of Mulliken charges =  -0.00000

 Dipole moment (field-independent basis, Debye):
    X=              0.1472    Y=              0.6037    Z=              1.1007  Tot=              1.2640
 Quadrupole moment (field-independent basis, Debye-Ang):
   XX=            -19.8464   YY=            -21.0546   ZZ=            -21.7123
   XY=              0.7312   XZ=              1.5610   YZ=             -1.6978

 Normal termination of Gaussian 16 at Mon Mar 21 20:08:16 2022.
