 Gaussian 16, Revision C.01,
 Gaussian 16:  EM64L-G16RevC.01  3-Jul-2019

 ---------------------------------------------------------------------
 #P TD(Nstates=10000) b3lyp/Gen SCF(maxcycles=100) Int(Grid=ultrafine)
 ---------------------------------------------------------------------

 ---------------------
 xGDB7_00001_tier4.com
 ---------------------
 Symbolic Z-matrix:
 Charge =  0 Multiplicity = 1

                         Standard orientation:
 ---------------------------------------------------------------------
 Center     Atomic      Atomic             Coordinates (Angstroms)
 Number     Number       Type             X           Y           Z
 ---------------------------------------------------------------------
      1          9           0        0.000000    0.000000    0.091801
      2          1           0        0.000000    0.000000   -0.826212
 ---------------------------------------------------------------------

 SCF Done:  E(RB3LYP) =  -100.376754285     A.U. after    8 cycles

 Excitation energies and oscillator strengths:

 Excited state symmetry could not be determined.
 Excited State   1:      Singlet-?Sym   10.0095 eV  123.87 nm  f=0.0312  <S**2>=0.000
       4 ->  6         0.49503
       5 ->  6         0.50278
 This state for optimization and/or second-order correction.
 Total Energy, E(TD-HF/TD-DFT) =  -100.008912932
 Copying the excited state density for this state as the 1-particle RhoCI density.

 Excited state symmetry could not be determined.
 Excited State   2:      Singlet-?Sym   10.0095 eV  123.87 nm  f=0.0312  <S**2>=0.000
       4 ->  6         0.50278
       5 ->  6        -0.49503

 Excited State   3:      Singlet-SG    13.8996 eV   89.20 nm  f=0.1355  <S**2>=0.000
       3 ->  6         0.63891
       4 ->  8         0.21019
       5 ->  9         0.21019

 Excited state symmetry could not be determined.
 Excited State   4:      Singlet-?Sym   13.9977 eV   88.57 nm  f=0.0000  <S**2>=0.000
       4 ->  9        -0.49931
       5 ->  8         0.49931

 Excited state symmetry could not be determined.
 Excited State   5:      Singlet-?Sym   14.0162 eV   88.46 nm  f=0.0000  <S**2>=0.000
       4 ->  9         0.49962
       5 ->  8         0.49962

 Excited state symmetry could not be determined.
 Excited State   6:      Singlet-?Sym   14.0162 eV   88.46 nm  f=0.0000  <S**2>=0.000
       4 ->  8        -0.49962
       5 ->  9         0.49962

 Excited state symmetry could not be determined.
 Excited State   7:      Singlet-?Sym   14.0940 eV   87.97 nm  f=0.0259  <S**2>=0.000
       4 ->  7         0.39648
       5 ->  7         0.58110

 Excited state symmetry could not be determined.
 Excited State   8:      Singlet-?Sym   14.0940 eV   87.97 nm  f=0.0259  <S**2>=0.000
       4 ->  7         0.58110
       5 ->  7        -0.39648

 Excited state symmetry could not be determined.
 Excited State   9:      Singlet-?Sym   15.6789 eV   79.08 nm  f=0.0167  <S**2>=0.000
       3 ->  6        -0.26381
       3 ->  7        -0.19677
       3 -> 10         0.11248
       4 ->  8         0.41900
       4 -> 12        -0.11048
       5 ->  9         0.41900
       5 -> 11        -0.11048

 Excited state symmetry could not be determined.
 Excited State  10:      Singlet-?Sym   15.9457 eV   77.75 nm  f=0.0708  <S**2>=0.000
       4 -> 10         0.52613
       5 -> 10        -0.46294

 Excited state symmetry could not be determined.
 Excited State  11:      Singlet-?Sym   15.9457 eV   77.75 nm  f=0.0708  <S**2>=0.000
       4 -> 10         0.46294
       5 -> 10         0.52613

 Excited state symmetry could not be determined.
 Excited State  12:      Singlet-?Sym   16.7587 eV   73.98 nm  f=0.0000  <S**2>=0.000
       4 -> 12        -0.49949
       5 -> 11         0.49949

 Excited state symmetry could not be determined.
 Excited State  13:      Singlet-?Sym   16.7587 eV   73.98 nm  f=0.0000  <S**2>=0.000
       4 -> 11         0.49949
       5 -> 12         0.49949

 Excited state symmetry could not be determined.
 Excited State  14:      Singlet-?Sym   16.8703 eV   73.49 nm  f=0.0000  <S**2>=0.000
       4 -> 11         0.49922
       5 -> 12        -0.49922

 Excited state symmetry could not be determined.
 Excited State  15:      Singlet-?Sym   16.9855 eV   72.99 nm  f=0.1998  <S**2>=0.000
       3 ->  7        -0.11256
       3 -> 10         0.12253
       4 -> 12         0.47783
       5 -> 11         0.47783

 Excited state symmetry could not be determined.
 Excited State  16:      Singlet-?Sym   17.7309 eV   69.93 nm  f=0.0001  <S**2>=0.000
       3 ->  8        -0.37639
       3 ->  9         0.59757

 Excited state symmetry could not be determined.
 Excited State  17:      Singlet-?Sym   17.7309 eV   69.93 nm  f=0.0001  <S**2>=0.000
       3 ->  8         0.59757
       3 ->  9         0.37639

 Excited State  18:      Singlet-SG    18.3211 eV   67.67 nm  f=0.0337  <S**2>=0.000
       3 ->  7         0.66404
       3 -> 10         0.13514
       4 ->  8         0.11935
       5 ->  9         0.11935

 Excited state symmetry could not be determined.
 Excited State  19:      Singlet-?Sym   19.1998 eV   64.58 nm  f=0.0141  <S**2>=0.000
       4 -> 13        -0.16607
       5 -> 13         0.68331

 Excited state symmetry could not be determined.
 Excited State  20:      Singlet-?Sym   19.1998 eV   64.58 nm  f=0.0141  <S**2>=0.000
       4 -> 13         0.68331
       5 -> 13         0.16607

 Excited state symmetry could not be determined.
 Excited State  21:      Singlet-?Sym   20.5143 eV   60.44 nm  f=0.0759  <S**2>=0.000
       3 -> 11         0.69412
       3 -> 12        -0.11344

 Excited state symmetry could not be determined.
 Excited State  22:      Singlet-?Sym   20.5143 eV   60.44 nm  f=0.0759  <S**2>=0.000
       3 -> 11         0.11344
       3 -> 12         0.69412

 Excited State  23:      Singlet-SG    20.5906 eV   60.21 nm  f=0.1169  <S**2>=0.000
       3 -> 10         0.65021
       3 -> 13        -0.20138

 Excited State  24:      Singlet-SG    23.6271 eV   52.48 nm  f=0.0738  <S**2>=0.000
       3 -> 10         0.16307
       3 -> 13         0.66798

 Excited state symmetry could not be determined.
 Excited State  25:      Singlet-?Sym   24.5612 eV   50.48 nm  f=0.0000  <S**2>=0.000
       4 -> 14         0.46001
       4 -> 15         0.19594
       5 -> 14         0.19594
       5 -> 15        -0.46001

 Excited state symmetry could not be determined.
 Excited State  26:      Singlet-?Sym   24.5612 eV   50.48 nm  f=0.0000  <S**2>=0.000
       4 -> 14        -0.19594
       4 -> 15         0.46001
       5 -> 14         0.46001
       5 -> 15         0.19594

 Excited state symmetry could not be determined.
 Excited State  27:      Singlet-?Sym   25.6604 eV   48.32 nm  f=0.4219  <S**2>=0.000
       4 -> 14        -0.13008
       4 -> 15        -0.45774
       4 -> 16        -0.19443
       5 -> 14         0.45774
       5 -> 15        -0.13008

 Excited state symmetry could not be determined.
 Excited State  28:      Singlet-?Sym   25.6604 eV   48.32 nm  f=0.4219  <S**2>=0.000
       4 -> 14         0.45774
       4 -> 15        -0.13008
       5 -> 14         0.13008
       5 -> 15         0.45774
       5 -> 16        -0.19443

 Excited state symmetry could not be determined.
 Excited State  29:      Singlet-?Sym   27.2646 eV   45.47 nm  f=0.1789  <S**2>=0.000
       4 -> 15        -0.10562
       4 -> 16         0.51754
       5 -> 14         0.10562
       5 -> 16         0.43344

 Excited state symmetry could not be determined.
 Excited State  30:      Singlet-?Sym   27.2646 eV   45.47 nm  f=0.1789  <S**2>=0.000
       4 -> 14         0.10562
       4 -> 16        -0.43344
       5 -> 15         0.10562
       5 -> 16         0.51754

 Excited state symmetry could not be determined.
 Excited State  31:      Singlet-?Sym   28.4161 eV   43.63 nm  f=0.0000  <S**2>=0.000
       3 -> 14         0.70383

 Excited state symmetry could not be determined.
 Excited State  32:      Singlet-?Sym   28.4161 eV   43.63 nm  f=0.0000  <S**2>=0.000
       3 -> 15         0.70383

 Excited state symmetry could not be determined.
 Excited State  33:      Singlet-?Sym   29.1874 eV   42.48 nm  f=0.0000  <S**2>=0.000
       4 -> 18        -0.49750
       5 -> 17         0.49750

 Excited state symmetry could not be determined.
 Excited State  34:      Singlet-?Sym   29.1874 eV   42.48 nm  f=0.0000  <S**2>=0.000
       4 -> 17         0.49750
       5 -> 18         0.49750

 Excited state symmetry could not be determined.
 Excited State  35:      Singlet-?Sym   29.3063 eV   42.31 nm  f=0.0000  <S**2>=0.000
       4 -> 17         0.49980
       5 -> 18        -0.49980

 Excited state symmetry could not be determined.
 Excited State  36:      Singlet-?Sym   29.8012 eV   41.60 nm  f=0.1297  <S**2>=0.000
       3 -> 16         0.35502
       4 -> 18         0.42692
       5 -> 17         0.42692

 Excited State  37:      Singlet-SG    31.4006 eV   39.48 nm  f=0.1518  <S**2>=0.000
       2 ->  6         0.65026
       3 -> 16        -0.25150

 Excited State  38:      Singlet-SG    32.4127 eV   38.25 nm  f=0.4903  <S**2>=0.000
       2 ->  6         0.24793
       3 -> 16         0.55177
       4 -> 18        -0.24905
       5 -> 17        -0.24905

 Excited state symmetry could not be determined.
 Excited State  39:      Singlet-?Sym   33.4628 eV   37.05 nm  f=0.3017  <S**2>=0.000
       2 ->  9        -0.12415
       3 -> 17         0.68984

 Excited state symmetry could not be determined.
 Excited State  40:      Singlet-?Sym   33.4628 eV   37.05 nm  f=0.3017  <S**2>=0.000
       2 ->  8        -0.12415
       3 -> 18         0.68984

 Excited State  41:      Singlet-SG    35.1646 eV   35.26 nm  f=0.0043  <S**2>=0.000
       2 ->  7         0.69904

 Excited state symmetry could not be determined.
 Excited State  42:      Singlet-?Sym   35.2364 eV   35.19 nm  f=0.0009  <S**2>=0.000
       2 ->  8         0.69346
       3 -> 18         0.11904

 Excited state symmetry could not be determined.
 Excited State  43:      Singlet-?Sym   35.2364 eV   35.19 nm  f=0.0009  <S**2>=0.000
       2 ->  9         0.69346
       3 -> 17         0.11904

 Excited State  44:      Singlet-SG    36.9908 eV   33.52 nm  f=0.0099  <S**2>=0.000
       2 -> 10         0.70432

 Excited state symmetry could not be determined.
 Excited State  45:      Singlet-?Sym   37.3476 eV   33.20 nm  f=0.0035  <S**2>=0.000
       5 -> 19         0.70136

 Excited state symmetry could not be determined.
 Excited State  46:      Singlet-?Sym   37.3476 eV   33.20 nm  f=0.0035  <S**2>=0.000
       4 -> 19         0.70136

 Excited state symmetry could not be determined.
 Excited State  47:      Singlet-?Sym   37.7044 eV   32.88 nm  f=0.0041  <S**2>=0.000
       2 -> 11         0.65995
       2 -> 12         0.23955

 Excited state symmetry could not be determined.
 Excited State  48:      Singlet-?Sym   37.7044 eV   32.88 nm  f=0.0041  <S**2>=0.000
       2 -> 11        -0.23955
       2 -> 12         0.65995

 Excited State  49:      Singlet-SG    40.4473 eV   30.65 nm  f=0.0169  <S**2>=0.000
       2 -> 13         0.67393
       3 -> 19         0.19588

 Excited State  50:      Singlet-SG    41.6838 eV   29.74 nm  f=0.0022  <S**2>=0.000
       2 -> 13        -0.16847
       3 -> 19         0.65281
       4 -> 21        -0.14722
       5 -> 20        -0.14722

 Excited state symmetry could not be determined.
 Excited State  51:      Singlet-?Sym   44.4733 eV   27.88 nm  f=0.0000  <S**2>=0.000
       4 -> 20         0.49987
       5 -> 21        -0.49987

 Excited state symmetry could not be determined.
 Excited State  52:      Singlet-?Sym   44.5915 eV   27.80 nm  f=0.0000  <S**2>=0.000
       2 -> 14        -0.10868
       4 -> 20         0.49397
       5 -> 21         0.49397

 Excited state symmetry could not be determined.
 Excited State  53:      Singlet-?Sym   44.5915 eV   27.80 nm  f=0.0000  <S**2>=0.000
       2 -> 15        -0.10868
       4 -> 21        -0.49397
       5 -> 20         0.49397

 Excited state symmetry could not be determined.
 Excited State  54:      Singlet-?Sym   45.7677 eV   27.09 nm  f=0.0000  <S**2>=0.000
       2 -> 14         0.69869

 Excited state symmetry could not be determined.
 Excited State  55:      Singlet-?Sym   45.7677 eV   27.09 nm  f=0.0000  <S**2>=0.000
       2 -> 15         0.69869

 Excited State  56:      Singlet-SG    48.1350 eV   25.76 nm  f=0.0000  <S**2>=0.000
       2 -> 16         0.69732

 Excited state symmetry could not be determined.
 Excited State  57:      Singlet-?Sym   48.4330 eV   25.60 nm  f=0.0000  <S**2>=0.000
       3 -> 20         0.56837
       3 -> 21         0.41385

 Excited state symmetry could not be determined.
 Excited State  58:      Singlet-?Sym   48.4330 eV   25.60 nm  f=0.0000  <S**2>=0.000
       3 -> 20        -0.41385
       3 -> 21         0.56837

 Excited state symmetry could not be determined.
 Excited State  59:      Singlet-?Sym   50.1833 eV   24.71 nm  f=0.0361  <S**2>=0.000
       2 -> 17        -0.14222
       2 -> 18        -0.16079
       4 -> 22         0.50228
       5 -> 22         0.44426

 Excited state symmetry could not be determined.
 Excited State  60:      Singlet-?Sym   50.1833 eV   24.71 nm  f=0.0361  <S**2>=0.000
       2 -> 17        -0.16079
       2 -> 18         0.14222
       4 -> 22        -0.44426
       5 -> 22         0.50228

 Excited state symmetry could not be determined.
 Excited State  61:      Singlet-?Sym   50.4342 eV   24.58 nm  f=0.0153  <S**2>=0.000
       2 -> 17         0.53585
       2 -> 18        -0.40654
       4 -> 22        -0.12776
       5 -> 22         0.16839

 Excited state symmetry could not be determined.
 Excited State  62:      Singlet-?Sym   50.4342 eV   24.58 nm  f=0.0153  <S**2>=0.000
       2 -> 17         0.40654
       2 -> 18         0.53585
       4 -> 22         0.16839
       5 -> 22         0.12776

 Excited State  63:      Singlet-SG    51.0960 eV   24.26 nm  f=0.0830  <S**2>=0.000
       2 -> 16        -0.10943
       3 -> 19        -0.12769
       3 -> 22         0.45489
       4 -> 21        -0.34627
       5 -> 20        -0.34627

 Excited State  64:      Singlet-SG    57.8295 eV   21.44 nm  f=0.0113  <S**2>=0.000
       2 -> 19         0.45130
       3 -> 22        -0.40655
       4 -> 21        -0.17920
       4 -> 24        -0.14996
       5 -> 20        -0.17920
       5 -> 23        -0.14996

 Excited state symmetry could not be determined.
 Excited State  65:      Singlet-?Sym   58.8707 eV   21.06 nm  f=0.0000  <S**2>=0.000
       4 -> 24        -0.49996
       5 -> 23         0.49996

 Excited state symmetry could not be determined.
 Excited State  66:      Singlet-?Sym   58.8707 eV   21.06 nm  f=0.0000  <S**2>=0.000
       4 -> 23         0.49996
       5 -> 24         0.49996

 Excited state symmetry could not be determined.
 Excited State  67:      Singlet-?Sym   59.0602 eV   20.99 nm  f=0.0000  <S**2>=0.000
       4 -> 23         0.49995
       5 -> 24        -0.49995

 Excited State  68:      Singlet-SG    59.2301 eV   20.93 nm  f=0.1070  <S**2>=0.000
       2 -> 19         0.50526
       3 -> 22         0.18787
       4 -> 21         0.13242
       4 -> 24         0.27615
       5 -> 20         0.13242
       5 -> 23         0.27615

 Excited state symmetry could not be determined.
 Excited State  69:      Singlet-?Sym   60.3364 eV   20.55 nm  f=0.0365  <S**2>=0.000
       2 -> 19        -0.17323
       2 -> 22        -0.12208
       3 -> 22        -0.26456
       3 -> 25         0.19939
       4 -> 21        -0.15687
       4 -> 24         0.37874
       5 -> 20        -0.15687
       5 -> 23         0.37874

 Excited state symmetry could not be determined.
 Excited State  70:      Singlet-?Sym   61.8184 eV   20.06 nm  f=0.0050  <S**2>=0.000
       3 -> 23        -0.23396
       3 -> 24        -0.16840
       4 -> 25         0.37615
       5 -> 25         0.52261

 Excited state symmetry could not be determined.
 Excited State  71:      Singlet-?Sym   61.8184 eV   20.06 nm  f=0.0050  <S**2>=0.000
       3 -> 23         0.16840
       3 -> 24        -0.23396
       4 -> 25         0.52261
       5 -> 25        -0.37615

 Excited state symmetry could not be determined.
 Excited State  72:      Singlet-?Sym   63.0915 eV   19.65 nm  f=0.1607  <S**2>=0.000
       3 -> 23         0.63016
       3 -> 24         0.13559
       5 -> 25         0.28051

 Excited state symmetry could not be determined.
 Excited State  73:      Singlet-?Sym   63.0915 eV   19.65 nm  f=0.1607  <S**2>=0.000
       3 -> 23        -0.13559
       3 -> 24         0.63016
       4 -> 25         0.28051

 Excited state symmetry could not be determined.
 Excited State  74:      Singlet-?Sym   66.1917 eV   18.73 nm  f=0.2000  <S**2>=0.000
       2 -> 20         0.68938
       2 -> 21        -0.14407

 Excited state symmetry could not be determined.
 Excited State  75:      Singlet-?Sym   66.1917 eV   18.73 nm  f=0.2000  <S**2>=0.000
       2 -> 20         0.14407
       2 -> 21         0.68938

 Excited State  76:      Singlet-SG    66.5151 eV   18.64 nm  f=0.0183  <S**2>=0.000
       2 -> 22         0.17406
       3 -> 25         0.66010

 Excited state symmetry could not be determined.
 Excited State  77:      Singlet-?Sym   72.9253 eV   17.00 nm  f=0.0192  <S**2>=0.000
       4 -> 26         0.63991
       5 -> 26        -0.29544

 Excited state symmetry could not be determined.
 Excited State  78:      Singlet-?Sym   72.9253 eV   17.00 nm  f=0.0192  <S**2>=0.000
       4 -> 26         0.29544
       5 -> 26         0.63991

 Excited State  79:      Singlet-SG    73.2005 eV   16.94 nm  f=0.0782  <S**2>=0.000
       2 -> 22         0.64017
       2 -> 25         0.13530
       3 -> 25        -0.11982
       3 -> 26        -0.14452
       4 -> 21        -0.10025
       5 -> 20        -0.10025

 Excited State  80:      Singlet-SG    77.9238 eV   15.91 nm  f=0.0195  <S**2>=0.000
       2 -> 22         0.11496
       2 -> 25         0.10236
       3 -> 26         0.68113

 Excited state symmetry could not be determined.
 Excited State  81:      Singlet-?Sym   79.8688 eV   15.52 nm  f=0.0014  <S**2>=0.000
       2 -> 23         0.69635
       2 -> 24         0.12100

 Excited state symmetry could not be determined.
 Excited State  82:      Singlet-?Sym   79.8688 eV   15.52 nm  f=0.0014  <S**2>=0.000
       2 -> 23        -0.12100
       2 -> 24         0.69635

 Excited State  83:      Singlet-SG    85.1091 eV   14.57 nm  f=0.0387  <S**2>=0.000
       2 -> 22        -0.11036
       2 -> 25         0.67969

 Excited State  84:      Singlet-SG    94.4999 eV   13.12 nm  f=0.0187  <S**2>=0.000
       2 -> 26         0.70461

 Excited state symmetry could not be determined.
 Excited State  85:      Singlet-?Sym   97.2140 eV   12.75 nm  f=0.0000  <S**2>=0.000
       4 -> 27         0.35073
       4 -> 28        -0.35635
       5 -> 27         0.35635
       5 -> 28         0.35073

 Excited state symmetry could not be determined.
 Excited State  86:      Singlet-?Sym   97.2140 eV   12.75 nm  f=0.0000  <S**2>=0.000
       4 -> 27         0.35635
       4 -> 28         0.35073
       5 -> 27        -0.35073
       5 -> 28         0.35635

 Excited state symmetry could not be determined.
 Excited State  87:      Singlet-?Sym  101.2994 eV   12.24 nm  f=0.0000  <S**2>=0.000
       3 -> 27         0.70233

 Excited state symmetry could not be determined.
 Excited State  88:      Singlet-?Sym  101.2994 eV   12.24 nm  f=0.0000  <S**2>=0.000
       3 -> 28         0.70233

 Excited state symmetry could not be determined.
 Excited State  89:      Singlet-?Sym  101.7274 eV   12.19 nm  f=0.2715  <S**2>=0.000
       3 -> 29         0.30801
       3 -> 30        -0.19149
       4 -> 27         0.36340
       4 -> 28         0.22593
       5 -> 27         0.22593
       5 -> 28        -0.36340

 Excited state symmetry could not be determined.
 Excited State  90:      Singlet-?Sym  101.7274 eV   12.19 nm  f=0.2715  <S**2>=0.000
       3 -> 29        -0.19149
       3 -> 30        -0.30801
       4 -> 27        -0.22593
       4 -> 28         0.36340
       5 -> 27         0.36340
       5 -> 28         0.22593

 Excited state symmetry could not be determined.
 Excited State  91:      Singlet-?Sym  102.1276 eV   12.14 nm  f=0.0000  <S**2>=0.000
       4 -> 30         0.49673
       5 -> 29         0.49673

 Excited state symmetry could not be determined.
 Excited State  92:      Singlet-?Sym  102.1276 eV   12.14 nm  f=0.0000  <S**2>=0.000
       4 -> 29         0.49673
       5 -> 30        -0.49673

 Excited state symmetry could not be determined.
 Excited State  93:      Singlet-?Sym  102.2751 eV   12.12 nm  f=0.0000  <S**2>=0.000
       4 -> 30        -0.49998
       5 -> 29         0.49998

 Excited state symmetry could not be determined.
 Excited State  94:      Singlet-?Sym  108.0782 eV   11.47 nm  f=0.5566  <S**2>=0.000
       4 -> 29         0.49188
       5 -> 30         0.49188

 Excited state symmetry could not be determined.
 Excited State  95:      Singlet-?Sym  110.5297 eV   11.22 nm  f=0.6518  <S**2>=0.000
       3 -> 29        -0.36588
       3 -> 30         0.47977
       4 -> 27         0.15214
       4 -> 28         0.19950
       5 -> 27         0.19950
       5 -> 28        -0.15214

 Excited state symmetry could not be determined.
 Excited State  96:      Singlet-?Sym  110.5297 eV   11.22 nm  f=0.6518  <S**2>=0.000
       3 -> 29         0.47977
       3 -> 30         0.36588
       4 -> 27        -0.19950
       4 -> 28         0.15214
       5 -> 27         0.15214
       5 -> 28         0.19950

 Excited state symmetry could not be determined.
 Excited State  97:      Singlet-?Sym  119.8842 eV   10.34 nm  f=0.0000  <S**2>=0.000
       2 -> 27         0.70696

 Excited state symmetry could not be determined.
 Excited State  98:      Singlet-?Sym  119.8842 eV   10.34 nm  f=0.0000  <S**2>=0.000
       2 -> 28         0.70696

 Excited state symmetry could not be determined.
 Excited State  99:      Singlet-?Sym  124.6592 eV    9.95 nm  f=0.0088  <S**2>=0.000
       2 -> 29         0.70057

 Excited state symmetry could not be determined.
 Excited State 100:      Singlet-?Sym  124.6592 eV    9.95 nm  f=0.0088  <S**2>=0.000
       2 -> 30         0.70057

 Excited state symmetry could not be determined.
 Excited State 101:      Singlet-?Sym  128.2726 eV    9.67 nm  f=0.1124  <S**2>=0.000
       5 -> 31         0.69777

 Excited state symmetry could not be determined.
 Excited State 102:      Singlet-?Sym  128.2726 eV    9.67 nm  f=0.1124  <S**2>=0.000
       4 -> 31         0.69777

 Excited State 103:      Singlet-SG   133.4781 eV    9.29 nm  f=0.2296  <S**2>=0.000
       3 -> 31         0.69984

 Excited State 104:      Singlet-SG   149.0276 eV    8.32 nm  f=0.0002  <S**2>=0.000
       2 -> 31         0.70694

 The electronic state is 1-SG.
 Alpha  occ. eigenvalues --  -24.70139  -1.19347  -0.56144  -0.42692  -0.42692
 Alpha virt. eigenvalues --    0.00082   0.14546   0.14771   0.14771   0.21989
 Alpha virt. eigenvalues --    0.24417   0.24417   0.33890   0.55894   0.55894
 Alpha virt. eigenvalues --    0.63598   0.72407   0.72407   1.03219   1.32985

 Mulliken charges:
               1
     1  F   -0.240320
     2  H    0.240320
 Sum of Mulliken charges =  -0.00000

 Dipole moment (field-independent basis, Debye):
    X=              0.0000    Y=              0.0000    Z=             -1.8273  Tot=              1.8273
 Quadrupole moment (field-independent basis, Debye-Ang):
   XX=             -5.9276   YY=             -5.9276   ZZ=             -3.8300
   XY=              0.0000   XZ=              0.0000   YZ=              0.0000

 Normal termination of Gaussian 16 at Mon Mar 21 20:04:16 2022.
