 Gaussian 16, Revision C.01,
 Gaussian 16:  EM64L-G16RevC.01  3-Jul-2019

 ---------------------------------------------------------------------
 #P TD(Nstates=10000) b3lyp/Gen SCF(maxcycles=100) Int(Grid=ultrafine)
 ---------------------------------------------------------------------

 ---------------------
 xGDB7_00001_tier4.com
 ---------------------
 Symbolic Z-matrix:
 Charge =  0 Multiplicity = 1

                         Standard orientation:
 ---------------------------------------------------------------------
 Center     Atomic      Atomic             Coordinates (Angstroms)
 Number     Number       Type             X           Y           Z
 ---------------------------------------------------------------------
      1          6           0        0.000000    0.000000   -1.173653
      2          6           0        0.000000    0.000000    0.280989
      3          7           0        0.000000    0.000000    1.427442
      4          1           0        0.000000    1.024088   -1.545371
      5          1           0       -0.886886   -0.512044   -1.545371
      6          1           0        0.886886   -0.512044   -1.545371
 ---------------------------------------------------------------------

 SCF Done:  E(RB3LYP) =  -132.662521538     A.U. after   13 cycles

 Excitation energies and oscillator strengths:

 Excited state symmetry could not be determined.
 Excited State   1:      Singlet-?Sym    7.9043 eV  156.86 nm  f=0.0000  <S**2>=0.000
      10 -> 14        -0.49354
      11 -> 13         0.49354
 This state for optimization and/or second-order correction.
 Total Energy, E(TD-HF/TD-DFT) =  -132.372044512
 Copying the excited state density for this state as the 1-particle RhoCI density.

 Excited state symmetry could not be determined.
 Excited State   2:      Singlet-?Sym    8.1767 eV  151.63 nm  f=0.0019  <S**2>=0.000
      10 -> 14         0.49433
      11 -> 13         0.49433

 Excited state symmetry could not be determined.
 Excited State   3:      Singlet-?Sym    8.1767 eV  151.63 nm  f=0.0019  <S**2>=0.000
      10 -> 13         0.49433
      11 -> 14        -0.49433

 Excited State   4:      Singlet-E      8.3787 eV  147.98 nm  f=0.0007  <S**2>=0.000
      11 -> 12         0.70343

 Excited State   5:      Singlet-E      8.3787 eV  147.97 nm  f=0.0007  <S**2>=0.000
      10 -> 12         0.70343

 Excited State   6:      Singlet-A1     9.1923 eV  134.88 nm  f=0.0142  <S**2>=0.000
       9 -> 12         0.70242

 Excited State   7:      Singlet-E      9.3356 eV  132.81 nm  f=0.0157  <S**2>=0.000
       9 -> 14         0.70029

 Excited State   8:      Singlet-E      9.3356 eV  132.81 nm  f=0.0157  <S**2>=0.000
       9 -> 13         0.70029

 Excited State   9:      Singlet-E     10.1882 eV  121.69 nm  f=0.0596  <S**2>=0.000
      11 -> 15         0.70352

 Excited State  10:      Singlet-E     10.1882 eV  121.69 nm  f=0.0596  <S**2>=0.000
      10 -> 15         0.70352

 Excited state symmetry could not be determined.
 Excited State  11:      Singlet-?Sym   10.4758 eV  118.35 nm  f=0.4282  <S**2>=0.000
       9 -> 15         0.17329
      10 -> 13         0.35760
      10 -> 16        -0.31387
      11 -> 14         0.35760
      11 -> 17        -0.31387

 Excited state symmetry could not be determined.
 Excited State  12:      Singlet-?Sym   10.9229 eV  113.51 nm  f=0.0000  <S**2>=0.000
      10 -> 17         0.48620
      11 -> 16        -0.48620

 Excited state symmetry could not be determined.
 Excited State  13:      Singlet-?Sym   10.9498 eV  113.23 nm  f=0.0092  <S**2>=0.000
      10 -> 17         0.49405
      11 -> 16         0.49405

 Excited state symmetry could not be determined.
 Excited State  14:      Singlet-?Sym   10.9498 eV  113.23 nm  f=0.0092  <S**2>=0.000
      10 -> 16        -0.49405
      11 -> 17         0.49405

 Excited State  15:      Singlet-A1    11.0244 eV  112.46 nm  f=0.0002  <S**2>=0.000
       9 -> 15         0.66608
      10 -> 16         0.14732
      11 -> 17         0.14732

 Excited state symmetry could not be determined.
 Excited State  16:      Singlet-?Sym   11.6117 eV  106.78 nm  f=0.0000  <S**2>=0.000
      10 -> 19        -0.49070
      11 -> 18         0.49072

 Excited state symmetry could not be determined.
 Excited State  17:      Singlet-?Sym   11.6809 eV  106.14 nm  f=0.0002  <S**2>=0.000
      10 -> 16         0.16228
      10 -> 18         0.46620
      11 -> 17         0.16226
      11 -> 19         0.46599

 Excited State  18:      Singlet-E     11.6821 eV  106.13 nm  f=0.0081  <S**2>=0.000
      10 -> 18         0.38302
      10 -> 20         0.42647
      11 -> 19        -0.38328

 Excited State  19:      Singlet-E     11.6821 eV  106.13 nm  f=0.0081  <S**2>=0.000
      10 -> 19        -0.38316
      11 -> 18        -0.38315
      11 -> 20         0.42646

 Excited State  20:      Singlet-E     11.7544 eV  105.48 nm  f=0.0052  <S**2>=0.000
       8 -> 12         0.13962
       9 -> 17        -0.11868
      10 -> 19         0.28948
      11 -> 18         0.28947
      11 -> 20         0.53939

 Excited State  21:      Singlet-E     11.7544 eV  105.48 nm  f=0.0052  <S**2>=0.000
       7 -> 12         0.13961
       9 -> 16        -0.11869
      10 -> 18        -0.28950
      10 -> 20         0.53938
      11 -> 19         0.28948

 Excited State  22:      Singlet-E     11.8466 eV  104.66 nm  f=0.0121  <S**2>=0.000
       8 -> 12         0.32420
       9 -> 17         0.61415

 Excited State  23:      Singlet-E     11.8466 eV  104.66 nm  f=0.0121  <S**2>=0.000
       7 -> 12         0.32419
       9 -> 16         0.61416

 Excited State  24:      Singlet-E     11.8728 eV  104.43 nm  f=0.1330  <S**2>=0.000
       8 -> 12         0.60946
       9 -> 17        -0.30046
      11 -> 20        -0.11060

 Excited State  25:      Singlet-E     11.8728 eV  104.43 nm  f=0.1330  <S**2>=0.000
       7 -> 12         0.60947
       9 -> 16        -0.30044
      10 -> 20        -0.11061

 Excited state symmetry could not be determined.
 Excited State  26:      Singlet-?Sym   12.0704 eV  102.72 nm  f=0.0000  <S**2>=0.000
       7 -> 14        -0.49380
       8 -> 13         0.49380

 Excited state symmetry could not be determined.
 Excited State  27:      Singlet-?Sym   12.1081 eV  102.40 nm  f=0.6656  <S**2>=0.000
       7 -> 13         0.23622
       8 -> 14         0.23622
       9 -> 15        -0.11089
       9 -> 20        -0.14948
       9 -> 23         0.12820
      10 -> 13         0.25379
      10 -> 16         0.27180
      10 -> 18        -0.14432
      11 -> 14         0.25379
      11 -> 17         0.27180
      11 -> 19        -0.14432

 Excited state symmetry could not be determined.
 Excited State  28:      Singlet-?Sym   12.2864 eV  100.91 nm  f=0.0327  <S**2>=0.000
       7 -> 13         0.48626
       8 -> 14        -0.48626

 Excited state symmetry could not be determined.
 Excited State  29:      Singlet-?Sym   12.2864 eV  100.91 nm  f=0.0327  <S**2>=0.000
       7 -> 14         0.48626
       8 -> 13         0.48626

 Excited State  30:      Singlet-E     12.5352 eV   98.91 nm  f=0.0002  <S**2>=0.000
       9 -> 18         0.70209

 Excited State  31:      Singlet-E     12.5352 eV   98.91 nm  f=0.0002  <S**2>=0.000
       9 -> 19         0.70209

 Excited State  32:      Singlet-A1    12.5452 eV   98.83 nm  f=0.2980  <S**2>=0.000
       9 -> 20         0.68476

 Excited State  33:      Singlet-A1    13.1462 eV   94.31 nm  f=0.0489  <S**2>=0.000
       6 -> 12         0.66765
       7 -> 13         0.10227
       8 -> 14         0.10227
      10 -> 21        -0.10395
      11 -> 22         0.10396

 Excited state symmetry could not be determined.
 Excited State  34:      Singlet-?Sym   13.1958 eV   93.96 nm  f=0.0935  <S**2>=0.000
       6 -> 12        -0.20826
       6 -> 15         0.11738
       7 -> 13         0.37131
       8 -> 14         0.37131
       9 -> 23        -0.14108
       9 -> 24        -0.10210
      10 -> 13        -0.13546
      10 -> 16        -0.10068
      10 -> 21        -0.16719
      11 -> 14        -0.13546
      11 -> 17        -0.10067
      11 -> 22         0.16720

 Excited State  35:      Singlet-E     13.6229 eV   91.01 nm  f=0.0022  <S**2>=0.000
       6 -> 13        -0.23105
       7 -> 15         0.46220
      10 -> 21         0.33379
      11 -> 22         0.33378

 Excited State  36:      Singlet-E     13.6229 eV   91.01 nm  f=0.0022  <S**2>=0.000
       6 -> 14        -0.23083
       8 -> 15         0.46204
      10 -> 22         0.33398
      11 -> 21        -0.33398

 Excited State  37:      Singlet-E     13.6285 eV   90.97 nm  f=0.0060  <S**2>=0.000
       6 -> 14         0.42263
       8 -> 15        -0.25464
      10 -> 22         0.33440
      11 -> 21        -0.33440

 Excited State  38:      Singlet-E     13.6285 eV   90.97 nm  f=0.0060  <S**2>=0.000
       6 -> 13         0.42250
       7 -> 15        -0.25437
      10 -> 21         0.33459
      11 -> 22         0.33459

 Excited state symmetry could not be determined.
 Excited State  39:      Singlet-?Sym   13.6861 eV   90.59 nm  f=0.0000  <S**2>=0.000
      10 -> 22         0.49682
      11 -> 21         0.49682

 Excited State  40:      Singlet-E     13.7175 eV   90.38 nm  f=0.0234  <S**2>=0.000
       6 -> 13         0.40734
       7 -> 15         0.45569
      10 -> 21        -0.15118
      10 -> 23        -0.18211
      10 -> 24        -0.12613
      11 -> 22        -0.15118

 Excited State  41:      Singlet-E     13.7175 eV   90.38 nm  f=0.0234  <S**2>=0.000
       6 -> 14         0.40733
       8 -> 15         0.45570
      10 -> 22        -0.15116
      11 -> 21         0.15116
      11 -> 23        -0.18211
      11 -> 24        -0.12613

 Excited State  42:      Singlet-E     14.2342 eV   87.10 nm  f=0.0124  <S**2>=0.000
       6 -> 13         0.16002
       7 -> 16        -0.17215
       8 -> 17         0.17215
       9 -> 21        -0.18367
      10 -> 23         0.56071
      10 -> 24         0.22173

 Excited State  43:      Singlet-E     14.2342 eV   87.10 nm  f=0.0124  <S**2>=0.000
       6 -> 14         0.16002
       7 -> 17         0.17215
       8 -> 16         0.17215
       9 -> 22         0.18367
      11 -> 23         0.56071
      11 -> 24         0.22173

 Excited state symmetry could not be determined.
 Excited State  44:      Singlet-?Sym   14.2669 eV   86.90 nm  f=0.0000  <S**2>=0.000
       7 -> 17        -0.49683
       8 -> 16         0.49683

 Excited state symmetry could not be determined.
 Excited State  45:      Singlet-?Sym   14.3091 eV   86.65 nm  f=0.0339  <S**2>=0.000
       7 -> 17         0.45907
       8 -> 16         0.45907
       9 -> 22        -0.15215
      11 -> 23        -0.16614

 Excited state symmetry could not be determined.
 Excited State  46:      Singlet-?Sym   14.3091 eV   86.65 nm  f=0.0339  <S**2>=0.000
       7 -> 16        -0.45907
       8 -> 17         0.45907
       9 -> 21         0.15215
      10 -> 23        -0.16614

 Excited state symmetry could not be determined.
 Excited State  47:      Singlet-?Sym   14.3842 eV   86.19 nm  f=0.0266  <S**2>=0.000
       6 -> 15         0.20069
       6 -> 20        -0.12982
       7 -> 13         0.11966
       8 -> 14         0.11966
       9 -> 23         0.17772
      10 -> 21         0.40198
      11 -> 22        -0.40198

 Excited State  48:      Singlet-E     14.4767 eV   85.64 nm  f=0.0450  <S**2>=0.000
       9 -> 21         0.64662
      10 -> 23         0.20087

 Excited State  49:      Singlet-E     14.4767 eV   85.64 nm  f=0.0450  <S**2>=0.000
       9 -> 22         0.64662
      11 -> 23        -0.20087

 Excited State  50:      Singlet-E     14.6973 eV   84.36 nm  f=0.0009  <S**2>=0.000
      10 -> 23        -0.25556
      10 -> 24         0.64445

 Excited State  51:      Singlet-E     14.6973 eV   84.36 nm  f=0.0009  <S**2>=0.000
      11 -> 23        -0.25556
      11 -> 24         0.64445

 Excited state symmetry could not be determined.
 Excited State  52:      Singlet-?Sym   14.8304 eV   83.60 nm  f=0.0126  <S**2>=0.000
       6 -> 15        -0.30189
       6 -> 20        -0.14818
       7 -> 16         0.36930
       7 -> 18        -0.20833
       8 -> 17         0.36929
       8 -> 19        -0.20833

 Excited state symmetry could not be determined.
 Excited State  53:      Singlet-?Sym   14.8592 eV   83.44 nm  f=0.0000  <S**2>=0.000
       7 -> 19        -0.49373
       8 -> 18         0.49373

 Excited State  54:      Singlet-A1    15.0283 eV   82.50 nm  f=0.0001  <S**2>=0.000
       6 -> 15         0.41064
       7 -> 18        -0.39786
       8 -> 19        -0.39785

 Excited State  55:      Singlet-E     15.0447 eV   82.41 nm  f=0.0095  <S**2>=0.000
       7 -> 19         0.21339
       8 -> 18         0.21339
       8 -> 20         0.61951

 Excited State  56:      Singlet-E     15.0447 eV   82.41 nm  f=0.0095  <S**2>=0.000
       7 -> 18        -0.21338
       7 -> 20         0.61951
       8 -> 19         0.21339

 Excited State  57:      Singlet-A1    15.2908 eV   81.08 nm  f=0.1708  <S**2>=0.000
       6 -> 15        -0.22362
       7 -> 16        -0.10188
       8 -> 17        -0.10188
       9 -> 23         0.48477
       9 -> 24        -0.33436
      10 -> 25         0.12445
      11 -> 26        -0.12445

 Excited State  58:      Singlet-E     15.4842 eV   80.07 nm  f=0.1856  <S**2>=0.000
       6 -> 17         0.50182
       7 -> 19        -0.27677
       8 -> 18        -0.27677
       8 -> 20         0.26149

 Excited State  59:      Singlet-E     15.4842 eV   80.07 nm  f=0.1856  <S**2>=0.000
       6 -> 16         0.50183
       7 -> 18         0.27676
       7 -> 20         0.26148
       8 -> 19        -0.27677

 Excited State  60:      Singlet-A1    15.4982 eV   80.00 nm  f=0.0843  <S**2>=0.000
       6 -> 15         0.13172
       7 -> 16         0.10208
       8 -> 17         0.10208
       9 -> 23         0.26146
       9 -> 24         0.46372
      10 -> 25         0.23122
      11 -> 26        -0.23122

 Excited State  61:      Singlet-E     15.6432 eV   79.26 nm  f=0.0218  <S**2>=0.000
       6 -> 17         0.45927
       7 -> 19         0.26502
       8 -> 18         0.26502
       8 -> 20        -0.16225
      10 -> 26        -0.22631
      11 -> 25         0.22629

 Excited State  62:      Singlet-E     15.6432 eV   79.26 nm  f=0.0218  <S**2>=0.000
       6 -> 16         0.45926
       7 -> 18        -0.26503
       7 -> 20        -0.16226
       8 -> 19         0.26503
      10 -> 25        -0.22629
      11 -> 26        -0.22630

 Excited state symmetry could not be determined.
 Excited State  63:      Singlet-?Sym   15.7359 eV   78.79 nm  f=0.0000  <S**2>=0.000
      10 -> 26         0.49223
      11 -> 25         0.49224

 Excited state symmetry could not be determined.
 Excited State  64:      Singlet-?Sym   15.8615 eV   78.17 nm  f=0.0000  <S**2>=0.000
       6 -> 15        -0.23281
       7 -> 16        -0.20630
       8 -> 17        -0.20630
       9 -> 23        -0.21886
       9 -> 24         0.13803
      10 -> 21         0.12128
      10 -> 25         0.30325
      10 -> 28        -0.10445
      11 -> 22        -0.12128
      11 -> 26        -0.30325
      11 -> 29         0.10445

 Excited State  65:      Singlet-A1    15.9297 eV   77.83 nm  f=0.0043  <S**2>=0.000
       6 -> 15        -0.22609
       7 -> 16        -0.13336
       7 -> 18        -0.12989
       8 -> 17        -0.13336
       8 -> 19        -0.12988
       9 -> 24         0.32154
      10 -> 25        -0.24652
      10 -> 28         0.22373
      11 -> 26         0.24653
      11 -> 29        -0.22373

 Excited State  66:      Singlet-E     16.2947 eV   76.09 nm  f=0.1361  <S**2>=0.000
       6 -> 17         0.12903
       6 -> 19         0.49194
       7 -> 19         0.10686
       8 -> 18         0.10686
      10 -> 26         0.28470
      11 -> 25        -0.28470

 Excited State  67:      Singlet-E     16.2947 eV   76.09 nm  f=0.1360  <S**2>=0.000
       6 -> 16         0.12902
       6 -> 18         0.49199
       7 -> 18        -0.10684
       8 -> 19         0.10685
      10 -> 25         0.28468
      11 -> 26         0.28467

 Excited State  68:      Singlet-E     16.3320 eV   75.91 nm  f=0.2269  <S**2>=0.000
       6 -> 19         0.48216
       9 -> 26         0.16971
      10 -> 26        -0.24154
      10 -> 29        -0.16225
      11 -> 25         0.24154
      11 -> 27         0.13668
      11 -> 28         0.16226

 Excited State  69:      Singlet-E     16.3320 eV   75.91 nm  f=0.2269  <S**2>=0.000
       6 -> 18         0.48210
       9 -> 25        -0.16971
      10 -> 25        -0.24157
      10 -> 27         0.13668
      10 -> 28        -0.16227
      11 -> 26        -0.24157
      11 -> 29        -0.16227

 Excited State  70:      Singlet-E     16.5975 eV   74.70 nm  f=0.0005  <S**2>=0.000
       9 -> 25         0.66345
      10 -> 27         0.18972

 Excited State  71:      Singlet-E     16.5975 eV   74.70 nm  f=0.0005  <S**2>=0.000
       9 -> 26         0.66344
      11 -> 27        -0.18980

 Excited State  72:      Singlet-E     16.6031 eV   74.68 nm  f=0.0412  <S**2>=0.000
       9 -> 26         0.15582
      10 -> 29         0.10231
      11 -> 27         0.64873
      11 -> 28        -0.10233

 Excited State  73:      Singlet-E     16.6031 eV   74.68 nm  f=0.0412  <S**2>=0.000
       9 -> 25        -0.15574
      10 -> 27         0.64875
      10 -> 28         0.10232
      11 -> 29         0.10232

 Excited state symmetry could not be determined.
 Excited State  74:      Singlet-?Sym   16.6387 eV   74.52 nm  f=0.0000  <S**2>=0.000
      10 -> 29         0.48826
      11 -> 28         0.48826

 Excited state symmetry could not be determined.
 Excited State  75:      Singlet-?Sym   16.8069 eV   73.77 nm  f=0.2618  <S**2>=0.000
      10 -> 25        -0.15610
      10 -> 28         0.42734
      10 -> 30        -0.17784
      11 -> 26        -0.15609
      11 -> 29         0.42733

 Excited state symmetry could not be determined.
 Excited State  76:      Singlet-?Sym   16.8069 eV   73.77 nm  f=0.2618  <S**2>=0.000
      10 -> 26         0.15609
      10 -> 29        -0.42734
      11 -> 25        -0.15609
      11 -> 28         0.42734
      11 -> 30         0.17783

 Excited State  77:      Singlet-E     17.0757 eV   72.61 nm  f=0.0306  <S**2>=0.000
      10 -> 30         0.67295

 Excited State  78:      Singlet-E     17.0757 eV   72.61 nm  f=0.0306  <S**2>=0.000
      11 -> 30         0.67295

 Excited State  79:      Singlet-E     17.2272 eV   71.97 nm  f=0.0042  <S**2>=0.000
      11 -> 31         0.70135

 Excited State  80:      Singlet-E     17.2272 eV   71.97 nm  f=0.0042  <S**2>=0.000
      10 -> 31         0.70135

 Excited State  81:      Singlet-A1    17.2543 eV   71.86 nm  f=0.3583  <S**2>=0.000
       6 -> 20         0.60980
       7 -> 21         0.14654
       8 -> 22        -0.14655

 Excited state symmetry could not be determined.
 Excited State  82:      Singlet-?Sym   17.3314 eV   71.54 nm  f=0.0036  <S**2>=0.000
       7 -> 21         0.48795
       8 -> 22         0.48791

 Excited state symmetry could not be determined.
 Excited State  83:      Singlet-?Sym   17.3314 eV   71.54 nm  f=0.0036  <S**2>=0.000
       7 -> 22        -0.48793
       8 -> 21         0.48793

 Excited State  84:      Singlet-A1    17.3729 eV   71.37 nm  f=0.0153  <S**2>=0.000
       7 -> 21         0.16371
       8 -> 22        -0.16378
       9 -> 27         0.62139
      10 -> 28         0.10236
      10 -> 32         0.12207
      11 -> 29        -0.10237
      11 -> 33        -0.12207

 Excited state symmetry could not be determined.
 Excited State  85:      Singlet-?Sym   17.3991 eV   71.26 nm  f=0.0000  <S**2>=0.000
       7 -> 22         0.48958
       8 -> 21         0.48957

 Excited State  86:      Singlet-E     17.4041 eV   71.24 nm  f=0.0075  <S**2>=0.000
       9 -> 28         0.67426
       9 -> 32        -0.14473

 Excited State  87:      Singlet-E     17.4041 eV   71.24 nm  f=0.0075  <S**2>=0.000
       9 -> 29         0.67426
       9 -> 33        -0.14473

 Excited state symmetry could not be determined.
 Excited State  88:      Singlet-?Sym   17.5514 eV   70.64 nm  f=0.0530  <S**2>=0.000
       6 -> 20         0.10745
       7 -> 21        -0.39154
       8 -> 22         0.39154
      10 -> 28         0.12751
      10 -> 32         0.23977
      11 -> 29        -0.12751
      11 -> 33        -0.23976

 Excited state symmetry could not be determined.
 Excited State  89:      Singlet-?Sym   17.6043 eV   70.43 nm  f=0.0000  <S**2>=0.000
      10 -> 33         0.49091
      11 -> 32         0.49091

 Excited state symmetry could not be determined.
 Excited State  90:      Singlet-?Sym   17.6892 eV   70.09 nm  f=0.0584  <S**2>=0.000
       7 -> 24         0.10930
      10 -> 32         0.47726
      11 -> 33         0.47731

 Excited state symmetry could not be determined.
 Excited State  91:      Singlet-?Sym   17.6892 eV   70.09 nm  f=0.0584  <S**2>=0.000
       8 -> 24         0.10930
      10 -> 33         0.47728
      11 -> 32        -0.47728

 Excited State  92:      Singlet-A1    17.6928 eV   70.08 nm  f=0.0052  <S**2>=0.000
       6 -> 20         0.11395
       7 -> 21        -0.18707
       8 -> 22         0.18710
       9 -> 27         0.27225
       9 -> 30         0.26837
      10 -> 28        -0.26893
      10 -> 32        -0.15433
      11 -> 29         0.26892
      11 -> 33         0.15418

 Excited State  93:      Singlet-A1    17.9797 eV   68.96 nm  f=0.0411  <S**2>=0.000
       9 -> 27        -0.12825
       9 -> 30         0.57819
      10 -> 32         0.24184
      11 -> 33        -0.24184

 Excited State  94:      Singlet-A2    18.1021 eV   68.49 nm  f=0.0000  <S**2>=0.000
       9 -> 31         0.70681

 Excited State  95:      Singlet-E     18.1052 eV   68.48 nm  f=0.0432  <S**2>=0.000
       8 -> 23         0.52982
       8 -> 24         0.43819

 Excited State  96:      Singlet-E     18.1052 eV   68.48 nm  f=0.0432  <S**2>=0.000
       7 -> 23         0.52982
       7 -> 24         0.43818

 Excited State  97:      Singlet-A1    18.3357 eV   67.62 nm  f=0.0204  <S**2>=0.000
       6 -> 20         0.14080
       6 -> 24         0.12339
       9 -> 23        -0.19063
       9 -> 30         0.27384
      10 -> 25         0.11056
      10 -> 28         0.23428
      10 -> 32        -0.25978
      11 -> 26        -0.11057
      11 -> 29        -0.23429
      11 -> 33         0.25978

 Excited State  98:      Singlet-E     18.3710 eV   67.49 nm  f=0.0539  <S**2>=0.000
       8 -> 23        -0.43112
       8 -> 24         0.47714
       9 -> 33         0.26061

 Excited State  99:      Singlet-E     18.3711 eV   67.49 nm  f=0.0539  <S**2>=0.000
       7 -> 23        -0.43110
       7 -> 24         0.47714
       9 -> 32        -0.26064

 Excited State 100:      Singlet-E     18.4762 eV   67.10 nm  f=0.1098  <S**2>=0.000
       8 -> 23         0.13061
       8 -> 24        -0.20472
       9 -> 29         0.14446

 The electronic state is 1-A1.
 Alpha  occ. eigenvalues --  -14.33071 -10.24557 -10.23368  -0.90885  -0.78011
 Alpha  occ. eigenvalues --   -0.52157  -0.47386  -0.47386  -0.36770  -0.34213
 Alpha  occ. eigenvalues --   -0.34213
 Alpha virt. eigenvalues --    0.00197   0.02297   0.02297   0.06851   0.09987
 Alpha virt. eigenvalues --    0.09987   0.12465   0.12465   0.13066   0.20674
 Alpha virt. eigenvalues --    0.20674   0.22898   0.23890   0.28748   0.28748

 Mulliken charges:
               1
     1  C    0.522919
     2  C   -0.359178
     3  N   -0.005937
     4  H   -0.052602
     5  H   -0.052602
     6  H   -0.052602
 Sum of Mulliken charges =  -0.00000

 Dipole moment (field-independent basis, Debye):
    X=             -0.0000    Y=              0.0000    Z=             -4.0001  Tot=              4.0001
 Quadrupole moment (field-independent basis, Debye-Ang):
   XX=            -17.6690   YY=            -17.6690   ZZ=            -21.1736
   XY=             -0.0000   XZ=              0.0000   YZ=              0.0000

 Normal termination of Gaussian 16 at Mon Mar 21 19:59:46 2022.
