 Gaussian 16, Revision C.01,
 Gaussian 16:  EM64L-G16RevC.01  3-Jul-2019

 ---------------------------------------------------------------------
 #P TD(Nstates=10000) b3lyp/Gen SCF(maxcycles=100) Int(Grid=ultrafine)
 ---------------------------------------------------------------------

 ---------------------
 xGDB7_00001_tier4.com
 ---------------------
 Symbolic Z-matrix:
 Charge =  0 Multiplicity = 1

                         Standard orientation:
 ---------------------------------------------------------------------
 Center     Atomic      Atomic             Coordinates (Angstroms)
 Number     Number       Type             X           Y           Z
 ---------------------------------------------------------------------
      1          6           0       -0.000001    0.000006    0.000000
      2          1           0       -0.991926    0.448073    0.033817
      3          1           0        0.066172   -0.671147   -0.854975
      4          1           0        0.176250   -0.561167    0.916416
      5          1           0        0.749514    0.784204   -0.095260
 ---------------------------------------------------------------------

 SCF Done:  E(RB3LYP) =  -40.4906035029     A.U. after    7 cycles

 Excitation energies and oscillator strengths:

 Excited State   1:      Singlet-A     10.3201 eV  120.14 nm  f=0.1280  <S**2>=0.000
       5 ->  6         0.70678
 This state for optimization and/or second-order correction.
 Total Energy, E(TD-HF/TD-DFT) =  -40.1113474072
 Copying the excited state density for this state as the 1-particle RhoCI density.

 Excited State   2:      Singlet-A     10.3202 eV  120.14 nm  f=0.1280  <S**2>=0.000
       4 ->  6         0.70674

 Excited State   3:      Singlet-A     10.3203 eV  120.14 nm  f=0.1280  <S**2>=0.000
       3 ->  6         0.70675

 Excited State   4:      Singlet-A     12.6493 eV   98.02 nm  f=0.0000  <S**2>=0.000
       4 ->  7         0.12071
       4 ->  8        -0.22606
       4 ->  9         0.41890
       5 ->  7        -0.23909
       5 ->  8         0.35005
       5 ->  9         0.25680

 Excited State   5:      Singlet-A     12.6493 eV   98.02 nm  f=0.0000  <S**2>=0.000
       3 ->  7         0.12847
       3 ->  8        -0.25554
       3 ->  9         0.39911
       5 ->  7         0.41751
       5 ->  8         0.26340

 Excited State   6:      Singlet-A     12.6493 eV   98.02 nm  f=0.0000  <S**2>=0.000
       3 ->  7         0.17549
       3 ->  8        -0.36306
       3 ->  9        -0.28723
       4 ->  7         0.44136
       4 ->  8         0.22214

 Excited State   7:      Singlet-A     12.7515 eV   97.23 nm  f=0.0000  <S**2>=0.000
       3 ->  8         0.17739
       3 ->  9        -0.41843
       4 ->  7        -0.12335
       4 ->  8         0.13714
       5 ->  7         0.43893
       5 ->  8         0.14897
       5 ->  9         0.17935

 Excited State   8:      Singlet-A     12.7516 eV   97.23 nm  f=0.0000  <S**2>=0.000
       3 ->  7        -0.23709
       3 ->  8        -0.19929
       3 ->  9         0.14234
       4 ->  7        -0.21073
       4 ->  8         0.45502
       4 ->  9         0.20740
       5 ->  7        -0.11837
       5 ->  8        -0.11390
       5 ->  9         0.24512

 Excited State   9:      Singlet-A     12.7565 eV   97.19 nm  f=0.1264  <S**2>=0.000
       3 ->  7        -0.14874
       4 ->  8         0.12924
       4 ->  9        -0.41711
       5 ->  7        -0.19216
       5 ->  8         0.46014

 Excited State  10:      Singlet-A     12.7566 eV   97.19 nm  f=0.1264  <S**2>=0.000
       3 ->  7         0.43069
       3 ->  8         0.14408
       4 ->  9        -0.19539
       5 ->  9         0.45093

 Excited State  11:      Singlet-A     12.7566 eV   97.19 nm  f=0.1264  <S**2>=0.000
       3 ->  7        -0.17370
       3 ->  8         0.39890
       3 ->  9         0.21156
       4 ->  7         0.42825
       4 ->  8         0.21912

 Excited State  12:      Singlet-A     13.4193 eV   92.39 nm  f=0.0000  <S**2>=0.000
       4 -> 10         0.30866
       4 -> 11        -0.36845
       5 -> 10         0.12760
       5 -> 11         0.18125
       5 -> 12         0.43729

 Excited State  13:      Singlet-A     13.4193 eV   92.39 nm  f=0.0000  <S**2>=0.000
       3 -> 10        -0.28389
       3 -> 11         0.38566
       5 -> 10        -0.37757
       5 -> 11        -0.23706
       5 -> 12         0.20826

 Excited State  14:      Singlet-A     13.4194 eV   92.39 nm  f=0.0000  <S**2>=0.000
       3 -> 11         0.13730
       3 -> 12         0.46481
       4 -> 10        -0.37345
       4 -> 11        -0.28477
       4 -> 12         0.14360

 Excited State  15:      Singlet-A     13.4311 eV   92.31 nm  f=0.0000  <S**2>=0.000
       3 ->  7        -0.22539
       3 ->  8        -0.11040
       3 -> 10         0.25480
       3 -> 11         0.16977
       4 ->  8        -0.19275
       4 ->  9        -0.13088
       4 -> 12         0.30140
       5 ->  8        -0.11684
       5 ->  9         0.21414
       5 -> 10        -0.18758
       5 -> 11         0.25354

 Excited State  16:      Singlet-A     13.4625 eV   92.10 nm  f=0.0000  <S**2>=0.000
       3 -> 10        -0.27284
       3 -> 11         0.35460
       3 -> 12        -0.12393
       4 -> 12         0.17689
       5 -> 10         0.48090
       5 -> 11         0.11110

 Excited State  17:      Singlet-A     13.4625 eV   92.10 nm  f=0.0000  <S**2>=0.000
       3 -> 10        -0.15127
       3 -> 11        -0.28423
       3 -> 12         0.12038
       4 -> 11         0.22883
       4 -> 12         0.49292
       5 -> 11        -0.24207
       5 -> 12         0.15971

 Excited State  18:      Singlet-A     14.0048 eV   88.53 nm  f=0.0214  <S**2>=0.000
       3 -> 13         0.15149
       3 -> 14         0.35240
       4 -> 10        -0.21366
       4 -> 11         0.27985
       4 -> 12        -0.14135
       5 -> 11         0.20562
       5 -> 12         0.32940
       5 -> 13         0.19613

 Excited State  19:      Singlet-A     14.0048 eV   88.53 nm  f=0.0214  <S**2>=0.000
       3 -> 10         0.34646
       3 -> 11         0.16214
       4 -> 13         0.41144
       4 -> 14        -0.12629
       5 -> 10         0.16398
       5 -> 11        -0.30162
       5 -> 12         0.14487

 Excited State  20:      Singlet-A     14.0048 eV   88.53 nm  f=0.0213  <S**2>=0.000
       3 -> 11        -0.11693
       3 -> 12        -0.36513
       3 -> 13         0.21333
       4 -> 10        -0.31874
       4 -> 11        -0.17931
       5 -> 14         0.36513

 Excited State  21:      Singlet-A     14.2563 eV   86.97 nm  f=0.0000  <S**2>=0.000
       3 -> 13        -0.16039
       3 -> 14        -0.29825
       5 -> 13         0.60200

 Excited State  22:      Singlet-A     14.2564 eV   86.97 nm  f=0.0000  <S**2>=0.000
       3 -> 13        -0.31936
       3 -> 14         0.16433
       4 -> 13         0.16817
       4 -> 14         0.51450
       5 -> 14         0.25473

 Excited State  23:      Singlet-A     14.2565 eV   86.97 nm  f=0.0000  <S**2>=0.000
       3 -> 13         0.43570
       3 -> 14        -0.23569
       4 -> 13         0.13442
       4 -> 14         0.41630
       5 -> 14        -0.22725

 Excited State  24:      Singlet-A     14.6433 eV   84.67 nm  f=0.0000  <S**2>=0.000
       3 ->  7         0.27326
       3 ->  8         0.13384
       3 -> 10         0.20161
       3 -> 11         0.13460
       4 ->  7        -0.11315
       4 ->  8         0.23368
       4 ->  9         0.15868
       4 -> 12         0.23907
       5 ->  8         0.14165
       5 ->  9        -0.25961
       5 -> 10        -0.14824
       5 -> 11         0.20075

 Excited State  25:      Singlet-A     14.8328 eV   83.59 nm  f=0.6876  <S**2>=0.000
       3 -> 12         0.27279
       3 -> 13         0.25675
       4 ->  7        -0.10105
       4 -> 10         0.23736
       4 -> 11         0.14391
       5 -> 13         0.10515
       5 -> 14         0.45025

 Excited State  26:      Singlet-A     14.8328 eV   83.59 nm  f=0.6876  <S**2>=0.000
       3 ->  7         0.10018
       3 -> 10        -0.26274
       3 -> 11        -0.11449
       4 -> 13         0.50729
       4 -> 14        -0.16096
       5 -> 10        -0.12285
       5 -> 11         0.24547

 Excited State  27:      Singlet-A     14.8328 eV   83.59 nm  f=0.6876  <S**2>=0.000
       3 -> 13         0.18589
       3 -> 14         0.42837
       4 ->  9        -0.10770
       4 -> 10         0.16465
       4 -> 11        -0.21339
       4 -> 12         0.10739
       5 -> 11        -0.12844
       5 -> 12        -0.25897
       5 -> 13         0.24524
       5 -> 14        -0.10015

 Excited State  28:      Singlet-A     17.3728 eV   71.37 nm  f=0.1054  <S**2>=0.000
       5 -> 15         0.69747

 Excited State  29:      Singlet-A     17.3729 eV   71.37 nm  f=0.1054  <S**2>=0.000
       4 -> 15         0.69747

 Excited State  30:      Singlet-A     17.3730 eV   71.37 nm  f=0.1054  <S**2>=0.000
       3 -> 15         0.69757

 Excited State  31:      Singlet-A     18.4718 eV   67.12 nm  f=0.0000  <S**2>=0.000
       2 ->  6         0.66734
       5 -> 20         0.11884

 Excited State  32:      Singlet-A     18.7429 eV   66.15 nm  f=0.0344  <S**2>=0.000
       3 -> 18        -0.12336
       4 -> 19        -0.12371
       5 -> 16         0.67862

 Excited State  33:      Singlet-A     18.7431 eV   66.15 nm  f=0.0344  <S**2>=0.000
       3 -> 17        -0.12291
       4 -> 16         0.67856
       5 -> 19         0.12376

 Excited State  34:      Singlet-A     18.7431 eV   66.15 nm  f=0.0344  <S**2>=0.000
       3 -> 16         0.67857
       4 -> 17         0.12311
       5 -> 18         0.12352

 Excited State  35:      Singlet-A     18.9675 eV   65.37 nm  f=0.0000  <S**2>=0.000
       3 -> 17         0.45868
       4 -> 18        -0.17253
       5 -> 17        -0.12336
       5 -> 19         0.47668

 Excited State  36:      Singlet-A     18.9675 eV   65.37 nm  f=0.0000  <S**2>=0.000
       3 -> 17         0.19354
       3 -> 19         0.27689
       4 -> 18         0.54083
       5 -> 17         0.26211
       5 -> 19         0.12374

 Excited State  37:      Singlet-A     19.0076 eV   65.23 nm  f=0.0242  <S**2>=0.000
       3 -> 16        -0.18196
       4 -> 17         0.47065
       5 -> 18         0.47461

 Excited State  38:      Singlet-A     19.0077 eV   65.23 nm  f=0.0242  <S**2>=0.000
       3 -> 17        -0.47159
       4 -> 16        -0.18198
       5 -> 19         0.47398

 Excited State  39:      Singlet-A     19.0077 eV   65.23 nm  f=0.0241  <S**2>=0.000
       3 -> 18         0.47319
       4 -> 19         0.47500
       5 -> 16         0.18201

 Excited State  40:      Singlet-A     19.0410 eV   65.11 nm  f=0.0000  <S**2>=0.000
       4 -> 17        -0.48040
       5 -> 18         0.48533

 Excited State  41:      Singlet-A     19.0411 eV   65.11 nm  f=0.0000  <S**2>=0.000
       3 -> 19         0.48066
       4 -> 17         0.10630
       5 -> 17        -0.48036

 Excited State  42:      Singlet-A     19.0411 eV   65.11 nm  f=0.0000  <S**2>=0.000
       3 -> 18         0.48280
       4 -> 19        -0.48011

 Excited State  43:      Singlet-A     19.1617 eV   64.70 nm  f=0.0000  <S**2>=0.000
       3 -> 19         0.40116
       4 -> 18        -0.40009
       5 -> 17         0.39809

 Excited State  44:      Singlet-A     19.4447 eV   63.76 nm  f=0.0000  <S**2>=0.000
       4 -> 20         0.48047
       5 -> 21         0.30875
       5 -> 22         0.37245

 Excited State  45:      Singlet-A     19.4447 eV   63.76 nm  f=0.0000  <S**2>=0.000
       3 -> 20         0.47284
       5 -> 21        -0.37550
       5 -> 22         0.32370

 Excited State  46:      Singlet-A     19.4448 eV   63.76 nm  f=0.0000  <S**2>=0.000
       3 -> 21         0.29325
       3 -> 22         0.38716
       4 -> 21         0.38468
       4 -> 22        -0.29961

 Excited State  47:      Singlet-A     19.4481 eV   63.75 nm  f=0.0000  <S**2>=0.000
       3 -> 20         0.44734
       3 -> 21         0.12752
       4 -> 21        -0.13875
       4 -> 22        -0.11070
       5 -> 20        -0.23243
       5 -> 21         0.28575
       5 -> 22        -0.31985

 Excited State  48:      Singlet-A     19.4481 eV   63.75 nm  f=0.0000  <S**2>=0.000
       3 -> 20         0.11785
       3 -> 21         0.27617
       3 -> 22        -0.17163
       4 -> 20        -0.16674
       4 -> 21         0.29242
       4 -> 22         0.42369
       5 -> 20         0.19085
       5 -> 21         0.21668

 Excited State  49:      Singlet-A     20.0528 eV   61.83 nm  f=0.2039  <S**2>=0.000
       3 -> 27        -0.10766
       4 -> 20         0.40614
       4 -> 21         0.14777
       5 -> 20         0.28590
       5 -> 21        -0.19285
       5 -> 22        -0.34361

 Excited State  50:      Singlet-A     20.0528 eV   61.83 nm  f=0.2039  <S**2>=0.000
       3 -> 20         0.14965
       3 -> 21        -0.32467
       3 -> 22         0.28284
       4 -> 20        -0.16389
       4 -> 26         0.12653
       5 -> 20         0.36397
       5 -> 21         0.26041

 Excited State  51:      Singlet-A     20.0529 eV   61.83 nm  f=0.2039  <S**2>=0.000
       2 ->  7         0.10581
       3 -> 20        -0.12446
       3 -> 21         0.26849
       3 -> 22         0.37015
       4 -> 21        -0.36102
       4 -> 22         0.29649
       5 -> 27        -0.12003

 Excited State  52:      Singlet-A     20.1083 eV   61.66 nm  f=0.0000  <S**2>=0.000
       2 ->  6        -0.12743
       3 -> 21         0.25895
       3 -> 22        -0.20354
       3 -> 25        -0.21522
       4 -> 21        -0.19665
       4 -> 22        -0.26147
       4 -> 24        -0.20931
       5 -> 20         0.32369
       5 -> 23        -0.20538

 Excited State  53:      Singlet-A     20.8508 eV   59.46 nm  f=0.0000  <S**2>=0.000
       4 -> 23        -0.47041
       4 -> 24         0.15210
       5 -> 23         0.15559
       5 -> 24         0.47185

 Excited State  54:      Singlet-A     20.8509 eV   59.46 nm  f=0.0000  <S**2>=0.000
       3 -> 23        -0.47464
       3 -> 24         0.11090
       5 -> 25         0.48761

 Excited State  55:      Singlet-A     20.8510 eV   59.46 nm  f=0.0000  <S**2>=0.000
       3 -> 23        -0.10738
       3 -> 24        -0.48265
       4 -> 25         0.49194

 Excited State  56:      Singlet-A     20.9308 eV   59.24 nm  f=0.0000  <S**2>=0.000
       3 -> 23         0.42192
       3 -> 24        -0.19362
       4 -> 24         0.13498
       5 -> 24         0.11489
       5 -> 25         0.48300

 Excited State  57:      Singlet-A     20.9308 eV   59.24 nm  f=0.0000  <S**2>=0.000
       3 -> 23        -0.19170
       3 -> 25        -0.27204
       4 -> 23         0.24176
       4 -> 24         0.48967
       5 -> 23        -0.22668
       5 -> 24         0.14929

 Excited State  58:      Singlet-A     20.9747 eV   59.11 nm  f=0.0092  <S**2>=0.000
       3 -> 25        -0.10930
       4 -> 23         0.40700
       4 -> 24        -0.23956
       5 -> 23         0.33316
       5 -> 24         0.37436

 Excited State  59:      Singlet-A     20.9748 eV   59.11 nm  f=0.0092  <S**2>=0.000
       3 -> 24         0.12706
       3 -> 25         0.46806
       4 -> 23         0.14669
       5 -> 23        -0.38944
       5 -> 24         0.27412

 Excited State  60:      Singlet-A     20.9749 eV   59.11 nm  f=0.0093  <S**2>=0.000
       3 -> 23         0.19057
       3 -> 24         0.43770
       3 -> 25        -0.12803
       4 -> 25         0.48237

 Excited State  61:      Singlet-A     21.0071 eV   59.02 nm  f=0.0044  <S**2>=0.000
       2 ->  7         0.60672
       2 ->  8        -0.28553
       2 ->  9         0.13238

 Excited State  62:      Singlet-A     21.0071 eV   59.02 nm  f=0.0044  <S**2>=0.000
       2 ->  7         0.31314
       2 ->  8         0.57624
       2 ->  9        -0.19250

 Excited State  63:      Singlet-A     21.0071 eV   59.02 nm  f=0.0044  <S**2>=0.000
       2 ->  8         0.23151
       2 ->  9         0.64235

 Excited State  64:      Singlet-A     21.7293 eV   57.06 nm  f=0.0265  <S**2>=0.000
       2 -> 10         0.67397
       2 -> 11         0.18987

 Excited State  65:      Singlet-A     21.7294 eV   57.06 nm  f=0.0265  <S**2>=0.000
       2 -> 10        -0.15806
       2 -> 11         0.64521
       2 -> 12         0.23185

 Excited State  66:      Singlet-A     21.7294 eV   57.06 nm  f=0.0265  <S**2>=0.000
       2 -> 10         0.12578
       2 -> 11        -0.20661
       2 -> 12         0.66070

 Excited State  67:      Singlet-A     22.2880 eV   55.63 nm  f=0.0000  <S**2>=0.000
       2 ->  6        -0.15159
       2 -> 15        -0.19504
       3 -> 21         0.13557
       3 -> 22        -0.10655
       3 -> 25         0.31622
       4 -> 21        -0.10314
       4 -> 22        -0.13714
       4 -> 24         0.30748
       5 -> 20         0.17013
       5 -> 23         0.30163
       5 -> 24        -0.10096

 Excited State  68:      Singlet-A     22.4012 eV   55.35 nm  f=0.0000  <S**2>=0.000
       2 -> 13         0.70573

 Excited State  69:      Singlet-A     22.4012 eV   55.35 nm  f=0.0000  <S**2>=0.000
       2 -> 14         0.70573

 Excited State  70:      Singlet-A     22.5617 eV   54.95 nm  f=0.0000  <S**2>=0.000
       3 -> 26        -0.25785
       3 -> 27        -0.24295
       5 -> 26         0.60713

 Excited State  71:      Singlet-A     22.5618 eV   54.95 nm  f=0.0000  <S**2>=0.000
       3 -> 26         0.48787
       3 -> 27        -0.33473
       4 -> 27        -0.12731
       5 -> 27        -0.35542

 Excited State  72:      Singlet-A     22.5618 eV   54.95 nm  f=0.0000  <S**2>=0.000
       3 -> 26         0.13320
       4 -> 26         0.21922
       4 -> 27         0.65373

 Excited State  73:      Singlet-A     23.3478 eV   53.10 nm  f=0.3676  <S**2>=0.000
       3 -> 26         0.26788
       3 -> 27        -0.18786
       5 -> 27         0.58064

 Excited State  74:      Singlet-A     23.3478 eV   53.10 nm  f=0.3676  <S**2>=0.000
       3 -> 26         0.25044
       3 -> 27         0.41522
       4 -> 26         0.32846
       4 -> 27        -0.11631
       5 -> 26         0.30985

 Excited State  75:      Singlet-A     23.3478 eV   53.10 nm  f=0.3676  <S**2>=0.000
       3 -> 26        -0.16135
       3 -> 27        -0.29060
       4 -> 26         0.54220
       4 -> 27        -0.18146
       5 -> 26        -0.12284

 Excited State  76:      Singlet-A     25.6998 eV   48.24 nm  f=0.0000  <S**2>=0.000
       2 -> 15         0.65375
       2 -> 16        -0.19879

 Excited State  77:      Singlet-A     27.0783 eV   45.79 nm  f=0.0000  <S**2>=0.000
       2 -> 17         0.70642

 Excited State  78:      Singlet-A     27.0783 eV   45.79 nm  f=0.0000  <S**2>=0.000
       2 -> 18         0.70642

 Excited State  79:      Singlet-A     27.0784 eV   45.79 nm  f=0.0000  <S**2>=0.000
       2 -> 19         0.70643

 Excited State  80:      Singlet-A     27.2257 eV   45.54 nm  f=0.0000  <S**2>=0.000
       2 -> 15         0.15783
       2 -> 16         0.66694

 Excited State  81:      Singlet-A     27.8163 eV   44.57 nm  f=0.0008  <S**2>=0.000
       2 -> 20         0.69783

 Excited State  82:      Singlet-A     27.8163 eV   44.57 nm  f=0.0008  <S**2>=0.000
       2 -> 21         0.53054
       2 -> 22         0.45707

 Excited State  83:      Singlet-A     27.8163 eV   44.57 nm  f=0.0008  <S**2>=0.000
       2 -> 21        -0.45346
       2 -> 22         0.53282

 Excited State  84:      Singlet-A     29.0555 eV   42.67 nm  f=0.0124  <S**2>=0.000
       2 -> 23         0.70328

 Excited State  85:      Singlet-A     29.0556 eV   42.67 nm  f=0.0124  <S**2>=0.000
       2 -> 24         0.70328

 Excited State  86:      Singlet-A     29.0557 eV   42.67 nm  f=0.0124  <S**2>=0.000
       2 -> 25         0.70332

 Excited State  87:      Singlet-A     30.5906 eV   40.53 nm  f=0.0000  <S**2>=0.000
       4 -> 28         0.48585
       5 -> 29        -0.47561
       5 -> 30        -0.13704

 Excited State  88:      Singlet-A     30.5907 eV   40.53 nm  f=0.0000  <S**2>=0.000
       3 -> 28         0.48912
       5 -> 29        -0.13495
       5 -> 30         0.47883

 Excited State  89:      Singlet-A     30.5908 eV   40.53 nm  f=0.0000  <S**2>=0.000
       3 -> 29         0.44607
       3 -> 30         0.22312
       4 -> 29        -0.22181
       4 -> 30         0.44511

 Excited State  90:      Singlet-A     30.7811 eV   40.28 nm  f=0.0000  <S**2>=0.000
       2 -> 27        -0.38471
       3 -> 28         0.38777
       4 -> 29         0.11748
       4 -> 30         0.10543
       5 -> 28        -0.18362
       5 -> 29         0.18259
       5 -> 30        -0.32815

 Excited State  91:      Singlet-A     30.7812 eV   40.28 nm  f=0.0000  <S**2>=0.000
       2 -> 26         0.38491
       3 -> 28        -0.11197
       3 -> 29        -0.12521
       3 -> 30         0.23384
       4 -> 29         0.41300
       4 -> 30         0.19520
       5 -> 28        -0.19257
       5 -> 30         0.14840

 Excited State  92:      Singlet-A     30.9295 eV   40.09 nm  f=0.0000  <S**2>=0.000
       2 -> 27         0.59275
       3 -> 28         0.25133
       5 -> 28        -0.11879
       5 -> 29         0.11833
       5 -> 30        -0.21274

 Excited State  93:      Singlet-A     30.9295 eV   40.09 nm  f=0.0000  <S**2>=0.000
       2 -> 26         0.59261
       3 -> 30        -0.15161
       4 -> 29        -0.26789
       4 -> 30        -0.12666
       5 -> 28         0.12500

 Excited State  94:      Singlet-A     31.3668 eV   39.53 nm  f=0.0000  <S**2>=0.000
       3 -> 29         0.17975
       3 -> 30        -0.36232
       4 -> 29         0.35907
       4 -> 30         0.18189
       5 -> 28         0.40162

 Excited State  95:      Singlet-A     31.9671 eV   38.78 nm  f=0.1141  <S**2>=0.000
       4 -> 28         0.45580
       5 -> 29         0.41763
       5 -> 30         0.19721
       5 -> 31        -0.21882

 Excited State  96:      Singlet-A     31.9672 eV   38.78 nm  f=0.1142  <S**2>=0.000
       3 -> 28         0.12683
       3 -> 29        -0.23098
       3 -> 30         0.38158
       4 -> 31        -0.22152

 The electronic state is 1-A.
 Alpha  occ. eigenvalues --  -10.17383  -0.69059  -0.39544  -0.39544  -0.39543
 Alpha virt. eigenvalues --    0.02385   0.12031   0.12031   0.12031   0.15102
 Alpha virt. eigenvalues --    0.15102   0.15102   0.17647   0.17647   0.28323
 Alpha virt. eigenvalues --    0.34027   0.35135   0.35135   0.35135   0.37341

 Mulliken charges:
               1
     1  C    0.515615
     2  H   -0.128882
     3  H   -0.128915
     4  H   -0.128925
     5  H   -0.128893
 Sum of Mulliken charges =  -0.00000

 Dipole moment (field-independent basis, Debye):
    X=              0.0000    Y=             -0.0000    Z=              0.0000  Tot=              0.0000
 Quadrupole moment (field-independent basis, Debye-Ang):
   XX=             -8.4836   YY=             -8.4837   ZZ=             -8.4838
   XY=              0.0000   XZ=              0.0000   YZ=             -0.0000

 Normal termination of Gaussian 16 at Mon Mar 21 19:59:13 2022.
