 Gaussian 16, Revision C.01,
 Gaussian 16:  EM64L-G16RevC.01  3-Jul-2019

 ---------------------------------------------------------------------
 #P TD(Nstates=10000) b3lyp/Gen SCF(maxcycles=100) Int(Grid=ultrafine)
 ---------------------------------------------------------------------

 ---------------------
 xGDB7_00001_tier4.com
 ---------------------
 Symbolic Z-matrix:
 Charge =  0 Multiplicity = 1

                         Standard orientation:
 ---------------------------------------------------------------------
 Center     Atomic      Atomic             Coordinates (Angstroms)
 Number     Number       Type             X           Y           Z
 ---------------------------------------------------------------------
      1          8           0       -1.023805   -0.438791    0.000000
      2          6           0       -0.000000    0.418952    0.000000
      3          8           0        1.152985    0.109982   -0.000000
      4          1           0       -0.656943   -1.333011    0.000000
      5          1           0       -0.376498    1.449770    0.000000
 ---------------------------------------------------------------------

 SCF Done:  E(RB3LYP) =  -189.638783833     A.U. after   12 cycles

 Excitation energies and oscillator strengths:

 Excited State   1:      Singlet-A"     5.8385 eV  212.36 nm  f=0.0008  <S**2>=0.000
      12 -> 13         0.70576
 This state for optimization and/or second-order correction.
 Total Energy, E(TD-HF/TD-DFT) =  -189.424223005
 Copying the excited state density for this state as the 1-particle RhoCI density.

 Excited State   2:      Singlet-A'     7.5844 eV  163.47 nm  f=0.0317  <S**2>=0.000
      11 -> 13        -0.23355
      12 -> 14         0.66433

 Excited State   3:      Singlet-A'     8.3474 eV  148.53 nm  f=0.0521  <S**2>=0.000
      12 -> 15         0.70163

 Excited State   4:      Singlet-A"     8.5287 eV  145.37 nm  f=0.0030  <S**2>=0.000
      11 -> 14         0.70341

 Excited State   5:      Singlet-A'     8.7020 eV  142.48 nm  f=0.2225  <S**2>=0.000
      11 -> 13         0.62703
      12 -> 14         0.22390
      12 -> 16         0.13802

 Excited State   6:      Singlet-A"     9.1908 eV  134.90 nm  f=0.0000  <S**2>=0.000
      10 -> 13         0.70368

 Excited State   7:      Singlet-A"     9.4933 eV  130.60 nm  f=0.0009  <S**2>=0.000
      11 -> 15         0.70446

 Excited State   8:      Singlet-A'     9.6203 eV  128.88 nm  f=0.0837  <S**2>=0.000
      11 -> 13        -0.10259
      12 -> 16         0.68236

 Excited State   9:      Singlet-A"     9.6397 eV  128.62 nm  f=0.0156  <S**2>=0.000
      12 -> 17         0.70232

 Excited State  10:      Singlet-A'    10.3647 eV  119.62 nm  f=0.0185  <S**2>=0.000
      12 -> 18         0.68579

 Excited State  11:      Singlet-A'    10.5912 eV  117.06 nm  f=0.0580  <S**2>=0.000
      10 -> 14         0.68630
      11 -> 17        -0.12958

 Excited State  12:      Singlet-A"    10.6887 eV  116.00 nm  f=0.0337  <S**2>=0.000
      11 -> 16         0.70067

 Excited State  13:      Singlet-A'    10.7469 eV  115.37 nm  f=0.0107  <S**2>=0.000
       9 -> 13         0.12208
      10 -> 14        -0.12388
      11 -> 17        -0.44123
      12 -> 19         0.51557

 Excited State  14:      Singlet-A'    10.9038 eV  113.71 nm  f=0.0047  <S**2>=0.000
      11 -> 17         0.49984
      12 -> 19         0.40942
      12 -> 20        -0.20572

 Excited State  15:      Singlet-A'    11.0333 eV  112.37 nm  f=0.0070  <S**2>=0.000
      11 -> 17         0.15525
      12 -> 18         0.11537
      12 -> 19         0.11870
      12 -> 20         0.66364

 Excited State  16:      Singlet-A"    11.2773 eV  109.94 nm  f=0.0056  <S**2>=0.000
       8 -> 13         0.10236
      12 -> 21         0.68898

 Excited State  17:      Singlet-A"    11.3181 eV  109.54 nm  f=0.0004  <S**2>=0.000
       8 -> 13         0.17535
      11 -> 18         0.66240
      11 -> 20        -0.10478

 Excited State  18:      Singlet-A'    11.4761 eV  108.04 nm  f=0.0980  <S**2>=0.000
       9 -> 13         0.20849
      10 -> 15         0.64908
      12 -> 19        -0.12434

 Excited State  19:      Singlet-A"    11.5277 eV  107.55 nm  f=0.0059  <S**2>=0.000
       7 -> 13         0.10290
       8 -> 13         0.65584
      11 -> 18        -0.16897
      12 -> 21        -0.12365

 Excited State  20:      Singlet-A'    11.7593 eV  105.43 nm  f=0.0612  <S**2>=0.000
       9 -> 13         0.60816
      10 -> 15        -0.25310
      11 -> 21         0.11745

 Excited State  21:      Singlet-A"    11.7670 eV  105.37 nm  f=0.0195  <S**2>=0.000
       9 -> 14         0.53635
      11 -> 19        -0.43486

 Excited State  22:      Singlet-A"    11.9311 eV  103.92 nm  f=0.0196  <S**2>=0.000
       9 -> 14         0.43907
      11 -> 19         0.53239
      11 -> 20         0.11820

 Excited State  23:      Singlet-A'    12.0070 eV  103.26 nm  f=0.0560  <S**2>=0.000
      11 -> 21        -0.10643
      12 -> 22         0.69301

 Excited State  24:      Singlet-A"    12.1838 eV  101.76 nm  f=0.0063  <S**2>=0.000
       7 -> 13         0.46111
      11 -> 20         0.51269

 Excited State  25:      Singlet-A"    12.2835 eV  100.94 nm  f=0.0133  <S**2>=0.000
       7 -> 13         0.48424
       8 -> 13        -0.10491
      11 -> 20        -0.44293
      12 -> 23        -0.16041

 Excited State  26:      Singlet-A"    12.4377 eV   99.68 nm  f=0.0000  <S**2>=0.000
       7 -> 13         0.13350
      12 -> 23         0.67778

 Excited State  27:      Singlet-A'    12.5613 eV   98.70 nm  f=0.0023  <S**2>=0.000
       8 -> 14         0.22702
      10 -> 16         0.43938
      11 -> 21         0.49181

 Excited State  28:      Singlet-A'    12.6873 eV   97.72 nm  f=0.0105  <S**2>=0.000
       8 -> 14         0.49438
      10 -> 16         0.20007
      11 -> 21        -0.38810
      12 -> 24        -0.17466

 Excited State  29:      Singlet-A"    12.7076 eV   97.57 nm  f=0.0128  <S**2>=0.000
       9 -> 15         0.67073
      10 -> 17        -0.17443

 Excited State  30:      Singlet-A"    12.7246 eV   97.44 nm  f=0.0136  <S**2>=0.000
       9 -> 15         0.17401
      10 -> 17         0.67605

 Excited State  31:      Singlet-A'    12.8765 eV   96.29 nm  f=0.0316  <S**2>=0.000
       8 -> 14        -0.41260
      10 -> 16         0.48170
      10 -> 18        -0.15223
      11 -> 21        -0.22602

 Excited State  32:      Singlet-A'    13.0588 eV   94.94 nm  f=0.0392  <S**2>=0.000
       8 -> 14         0.11322
      11 -> 23        -0.10555
      12 -> 24         0.65542

 Excited State  33:      Singlet-A"    13.1413 eV   94.35 nm  f=0.0005  <S**2>=0.000
      11 -> 22         0.69958

 Excited State  34:      Singlet-A'    13.4891 eV   91.91 nm  f=0.0634  <S**2>=0.000
       8 -> 15        -0.14854
       9 -> 17        -0.14157
      10 -> 18         0.62546
      11 -> 21        -0.10611
      11 -> 23         0.14582

 Excited State  35:      Singlet-A'    13.6280 eV   90.98 nm  f=0.0203  <S**2>=0.000
       7 -> 14         0.11312
       8 -> 15         0.60824
      10 -> 19        -0.20783
      11 -> 23         0.19047

 Excited State  36:      Singlet-A'    13.7108 eV   90.43 nm  f=0.0187  <S**2>=0.000
       7 -> 14         0.35834
       8 -> 15        -0.22699
      10 -> 18        -0.13024
      11 -> 23         0.53228

 Excited State  37:      Singlet-A'    13.8673 eV   89.41 nm  f=0.0187  <S**2>=0.000
       7 -> 14         0.49447
       9 -> 17        -0.22339
      10 -> 19        -0.17881
      10 -> 20        -0.13216
      11 -> 23        -0.29363
      12 -> 25         0.16583
      12 -> 27         0.11554

 Excited State  38:      Singlet-A'    13.8878 eV   89.28 nm  f=0.0717  <S**2>=0.000
       7 -> 14         0.19322
       8 -> 15         0.19226
      10 -> 19         0.62271
      12 -> 25         0.11782

 Excited State  39:      Singlet-A"    13.9513 eV   88.87 nm  f=0.0283  <S**2>=0.000
       9 -> 16         0.62401
      11 -> 24        -0.30908

 Excited State  40:      Singlet-A"    14.1161 eV   87.83 nm  f=0.0000  <S**2>=0.000
       9 -> 16         0.31710
      11 -> 24         0.62369

 Excited State  41:      Singlet-A'    14.1556 eV   87.59 nm  f=0.1059  <S**2>=0.000
      10 -> 19        -0.12400
      10 -> 20         0.36359
      12 -> 25         0.56643

 Excited State  42:      Singlet-A'    14.1896 eV   87.38 nm  f=0.0399  <S**2>=0.000
       7 -> 14         0.16575
       7 -> 15        -0.19570
       9 -> 17         0.53462
      10 -> 18         0.16270
      10 -> 20         0.19207
      11 -> 23        -0.11102
      12 -> 25        -0.15804
      12 -> 27         0.11399

 Excited State  43:      Singlet-A'    14.2844 eV   86.80 nm  f=0.0052  <S**2>=0.000
       7 -> 15         0.15795
       9 -> 17        -0.26504
      10 -> 20         0.50819
      12 -> 25        -0.28855
      12 -> 27         0.17519

 Excited State  44:      Singlet-A"    14.3768 eV   86.24 nm  f=0.0270  <S**2>=0.000
       8 -> 17         0.23566
      10 -> 21         0.65860

 Excited State  45:      Singlet-A"    14.6778 eV   84.47 nm  f=0.0329  <S**2>=0.000
       6 -> 13         0.10392
       9 -> 18         0.66157
      12 -> 26        -0.15270

 Excited State  46:      Singlet-A'    14.7401 eV   84.11 nm  f=0.1049  <S**2>=0.000
       7 -> 15         0.58281
       8 -> 16        -0.26481
       9 -> 17         0.16528
      10 -> 20        -0.13818
      12 -> 27         0.10996

 Excited State  47:      Singlet-A"    14.8524 eV   83.48 nm  f=0.0094  <S**2>=0.000
       9 -> 18         0.14631
      12 -> 26         0.68260

 Excited State  48:      Singlet-A'    14.8553 eV   83.46 nm  f=0.0696  <S**2>=0.000
       7 -> 15         0.27543
       8 -> 16         0.56840
       9 -> 17         0.10683
      10 -> 20         0.10902
      10 -> 22        -0.10555
      12 -> 27        -0.20050

 Excited State  49:      Singlet-A"    14.9722 eV   82.81 nm  f=0.0014  <S**2>=0.000
       8 -> 17         0.66008
      10 -> 21        -0.23211

 Excited State  50:      Singlet-A'    15.1335 eV   81.93 nm  f=0.0113  <S**2>=0.000
       8 -> 16         0.13735
      10 -> 22         0.66943

 Excited State  51:      Singlet-A"    15.1403 eV   81.89 nm  f=0.0386  <S**2>=0.000
       9 -> 19        -0.34964
      11 -> 25         0.59730

 Excited State  52:      Singlet-A'    15.1409 eV   81.89 nm  f=0.0840  <S**2>=0.000
       8 -> 16         0.20072
       8 -> 18        -0.22016
       9 -> 21        -0.13617
      11 -> 23         0.11004
      12 -> 27         0.55173
      12 -> 28        -0.12844

 Excited State  53:      Singlet-A"    15.1682 eV   81.74 nm  f=0.0054  <S**2>=0.000
       9 -> 19         0.59899
      11 -> 25         0.35643

 Excited State  54:      Singlet-A"    15.5252 eV   79.86 nm  f=0.0013  <S**2>=0.000
       7 -> 17         0.11236
      10 -> 23         0.66302
      11 -> 27         0.18318

 Excited State  55:      Singlet-A"    15.5556 eV   79.70 nm  f=0.0232  <S**2>=0.000
       6 -> 13        -0.10160
       9 -> 20         0.64731
      11 -> 27        -0.22179

 Excited State  56:      Singlet-A'    15.6399 eV   79.27 nm  f=0.0011  <S**2>=0.000
       7 -> 16         0.10925
       8 -> 18        -0.35637
       9 -> 21        -0.15721
      12 -> 28         0.54332

 Excited State  57:      Singlet-A"    15.6992 eV   78.98 nm  f=0.0468  <S**2>=0.000
       6 -> 13        -0.13604
       7 -> 17        -0.13778
       9 -> 20         0.20247
      10 -> 23        -0.16365
      11 -> 27         0.60505

 Excited State  58:      Singlet-A'    15.7024 eV   78.96 nm  f=0.0228  <S**2>=0.000
       8 -> 18        -0.43666
       9 -> 21         0.47741
      12 -> 28        -0.19253

 Excited State  59:      Singlet-A'    15.8721 eV   78.11 nm  f=0.0120  <S**2>=0.000
       7 -> 16         0.59929
       8 -> 19         0.12982
       9 -> 21        -0.22294
      12 -> 28        -0.21590

 Excited State  60:      Singlet-A"    15.8793 eV   78.08 nm  f=0.0213  <S**2>=0.000
       7 -> 17         0.67971
      10 -> 23        -0.14488

 Excited State  61:      Singlet-A'    15.9333 eV   77.81 nm  f=0.0137  <S**2>=0.000
       7 -> 16         0.27014
       7 -> 18         0.10123
       8 -> 18         0.25240
       8 -> 19         0.10481
       9 -> 21         0.37299
      10 -> 24         0.17229
      11 -> 26         0.11536
      12 -> 27         0.15050
      12 -> 28         0.26641

 Excited State  62:      Singlet-A'    15.9824 eV   77.58 nm  f=0.0175  <S**2>=0.000
      10 -> 24        -0.28469
      11 -> 26         0.62438

 Excited State  63:      Singlet-A'    16.0281 eV   77.35 nm  f=0.0289  <S**2>=0.000
       7 -> 16        -0.13453
       8 -> 19         0.63619
      10 -> 24        -0.19157
      11 -> 26        -0.11947

 Excited State  64:      Singlet-A'    16.1768 eV   76.64 nm  f=0.0635  <S**2>=0.000
       7 -> 16        -0.12607
       7 -> 18        -0.15911
       8 -> 19         0.16460
       8 -> 20         0.23113
       9 -> 21        -0.11429
      10 -> 24         0.50636
      11 -> 26         0.23940

 Excited State  65:      Singlet-A'    16.3753 eV   75.71 nm  f=0.0130  <S**2>=0.000
       8 -> 20         0.57346
      10 -> 24        -0.15441
      12 -> 29         0.28535
      12 -> 30         0.14467

 Excited State  66:      Singlet-A"    16.4097 eV   75.56 nm  f=0.0000  <S**2>=0.000
       9 -> 22         0.69289

 Excited State  67:      Singlet-A'    16.4375 eV   75.43 nm  f=0.0262  <S**2>=0.000
       7 -> 18         0.17323
       8 -> 20        -0.25004
      10 -> 24         0.17204
      12 -> 29         0.59421

 Excited State  68:      Singlet-A"    16.5517 eV   74.91 nm  f=0.0007  <S**2>=0.000
       6 -> 13        -0.19728
       8 -> 21         0.65521
      12 -> 31         0.13814

 Excited State  69:      Singlet-A'    16.5820 eV   74.77 nm  f=0.0312  <S**2>=0.000
       7 -> 18         0.60460
      12 -> 29        -0.19297
      12 -> 30        -0.14916
      12 -> 32        -0.14497

 Excited State  70:      Singlet-A"    16.6554 eV   74.44 nm  f=0.0553  <S**2>=0.000
       6 -> 13         0.50296
       8 -> 21         0.24948
       9 -> 20         0.10379
      12 -> 31        -0.35656

 Excited State  71:      Singlet-A'    16.7590 eV   73.98 nm  f=0.0305  <S**2>=0.000
       7 -> 18         0.15540
       9 -> 23         0.18105
      12 -> 30         0.61154
      12 -> 32         0.13533

 Excited State  72:      Singlet-A"    16.8413 eV   73.62 nm  f=0.0084  <S**2>=0.000
       6 -> 13         0.16105
      11 -> 28         0.65488
      12 -> 31         0.14150

 Excited State  73:      Singlet-A'    16.9442 eV   73.17 nm  f=0.0285  <S**2>=0.000
       8 -> 22         0.13481
       9 -> 23         0.59111
      10 -> 25         0.19755
      12 -> 30        -0.12546
      12 -> 32        -0.18791

 Excited State  74:      Singlet-A"    17.0096 eV   72.89 nm  f=0.1723  <S**2>=0.000
       6 -> 13         0.26466
       8 -> 23        -0.14444
       9 -> 24         0.16622
      11 -> 28        -0.19142
      12 -> 31         0.55838

 Excited State  75:      Singlet-A'    17.0565 eV   72.69 nm  f=0.0027  <S**2>=0.000
       7 -> 19         0.65066
       8 -> 22        -0.11898
      10 -> 25        -0.16644

 Excited State  76:      Singlet-A'    17.2243 eV   71.98 nm  f=0.1072  <S**2>=0.000
       7 -> 19         0.19389
       8 -> 22         0.28958
       9 -> 23        -0.27560
      10 -> 25         0.47657
      10 -> 27        -0.10591
      12 -> 32        -0.17347

 Excited State  77:      Singlet-A'    17.2681 eV   71.80 nm  f=0.0001  <S**2>=0.000
       8 -> 22         0.47074
      10 -> 25        -0.43067
      12 -> 32        -0.24330

 Excited State  78:      Singlet-A"    17.3340 eV   71.53 nm  f=0.0232  <S**2>=0.000
       6 -> 13        -0.10843
       8 -> 23         0.13601
       9 -> 24         0.65141
      11 -> 30        -0.13140

 Excited State  79:      Singlet-A'    17.4354 eV   71.11 nm  f=0.0423  <S**2>=0.000
       7 -> 18         0.10582
       7 -> 20         0.64337
       8 -> 22         0.19379
      12 -> 32         0.12268

 Excited State  80:      Singlet-A'    17.4724 eV   70.96 nm  f=0.0232  <S**2>=0.000
       6 -> 14         0.19919
       7 -> 20        -0.19597
       8 -> 22         0.28954
      10 -> 28         0.10124
      12 -> 30        -0.16085
      12 -> 32         0.46876

 Excited State  81:      Singlet-A"    17.6213 eV   70.36 nm  f=0.0004  <S**2>=0.000
       7 -> 21         0.63133
      11 -> 29         0.28765

 Excited State  82:      Singlet-A"    17.6348 eV   70.31 nm  f=0.0001  <S**2>=0.000
       7 -> 21        -0.30218
      11 -> 29         0.62477

 Excited State  83:      Singlet-A'    17.6448 eV   70.27 nm  f=0.1192  <S**2>=0.000
       6 -> 14        -0.46591
       8 -> 22         0.13957
      10 -> 27         0.48295

 Excited State  84:      Singlet-A"    17.7403 eV   69.89 nm  f=0.0042  <S**2>=0.000
       9 -> 24         0.11160
      11 -> 29         0.11518
      11 -> 30         0.61169
      11 -> 32         0.26593

 Excited State  85:      Singlet-A"    17.8740 eV   69.37 nm  f=0.0966  <S**2>=0.000
       6 -> 13         0.15206
       8 -> 23         0.64823
       9 -> 24        -0.11198

 Excited State  86:      Singlet-A'    17.8881 eV   69.31 nm  f=0.0487  <S**2>=0.000
       6 -> 14        -0.37831
       8 -> 24         0.16895
      10 -> 27        -0.35911
      11 -> 31         0.38526
      12 -> 32         0.12452

 Excited State  87:      Singlet-A"    17.9542 eV   69.06 nm  f=0.0627  <S**2>=0.000
       8 -> 23        -0.11031
      10 -> 26         0.68263

 Excited State  88:      Singlet-A"    18.1022 eV   68.49 nm  f=0.0000  <S**2>=0.000
      11 -> 30        -0.29091
      11 -> 32         0.62691

 Excited State  89:      Singlet-A'    18.1331 eV   68.37 nm  f=0.0037  <S**2>=0.000
       6 -> 14         0.16703
       7 -> 22         0.17199
       8 -> 24        -0.10863
      10 -> 27         0.17998
      11 -> 31         0.45152
      12 -> 33         0.39878

 Excited State  90:      Singlet-A'    18.2028 eV   68.11 nm  f=0.0381  <S**2>=0.000
       7 -> 22        -0.12547
       8 -> 24         0.46772
      11 -> 31        -0.22316
      12 -> 33         0.44294

 Excited State  91:      Singlet-A'    18.3481 eV   67.57 nm  f=0.0378  <S**2>=0.000
       7 -> 22         0.63577
       8 -> 24         0.24648
      12 -> 33        -0.11182

 Excited State  92:      Singlet-A"    18.3796 eV   67.46 nm  f=0.0138  <S**2>=0.000
       9 -> 25         0.70041

 Excited State  93:      Singlet-A'    18.4817 eV   67.08 nm  f=0.1089  <S**2>=0.000
       6 -> 14         0.11752
       6 -> 15         0.26070
       7 -> 22        -0.17380
       7 -> 24         0.16138
       8 -> 24         0.36518
      10 -> 27         0.18759
      10 -> 28        -0.10430
      11 -> 31         0.24216
      12 -> 33        -0.27782

 Excited State  94:      Singlet-A"    18.6014 eV   66.65 nm  f=0.0467  <S**2>=0.000
       7 -> 23         0.67977
       9 -> 27         0.11102

 Excited State  95:      Singlet-A'    18.6239 eV   66.57 nm  f=0.0126  <S**2>=0.000
       6 -> 15         0.62153
       8 -> 24        -0.13588
       9 -> 26        -0.10700
      10 -> 28         0.11635
      12 -> 33         0.12511

 Excited State  96:      Singlet-A'    18.9103 eV   65.56 nm  f=0.0612  <S**2>=0.000
      10 -> 28         0.65395

 Excited State  97:      Singlet-A"    18.9727 eV   65.35 nm  f=0.0247  <S**2>=0.000
       7 -> 23        -0.10157
       9 -> 27         0.65987
      11 -> 33         0.13374

 Excited State  98:      Singlet-A"    19.1247 eV   64.83 nm  f=0.0100  <S**2>=0.000
      12 -> 34         0.69867

 Excited State  99:      Singlet-A'    19.2337 eV   64.46 nm  f=0.0096  <S**2>=0.000
       8 -> 25         0.17999
       9 -> 26         0.66139

 Excited State 100:      Singlet-A'    19.3315 eV   64.14 nm  f=0.0157  <S**2>=0.000
       7 -> 24         0.20592
       8 -> 25         0.63637
       9 -> 26        -0.14155

 Excited State 101:      Singlet-A"    19.3745 eV   63.99 nm  f=0.0126  <S**2>=0.000
       9 -> 27        -0.12175
      11 -> 33         0.68468

 Excited State 102:      Singlet-A'    19.4607 eV   63.71 nm  f=0.1475  <S**2>=0.000
       7 -> 24         0.61552
       8 -> 25        -0.20095
      10 -> 30        -0.10843

 Excited State 103:      Singlet-A'    19.6467 eV   63.11 nm  f=0.0069  <S**2>=0.000
      10 -> 29         0.67700

 Excited State 104:      Singlet-A"    19.7252 eV   62.86 nm  f=0.0047  <S**2>=0.000
       6 -> 17         0.69206

 Excited State 105:      Singlet-A'    19.7269 eV   62.85 nm  f=0.0071  <S**2>=0.000
       6 -> 16         0.66276

 Excited State 106:      Singlet-A'    19.7772 eV   62.69 nm  f=0.0117  <S**2>=0.000
       6 -> 16        -0.10051
       8 -> 27         0.14233
      10 -> 30        -0.30755
      10 -> 32        -0.12674
      12 -> 35         0.57163

 Excited State 107:      Singlet-A'    19.9489 eV   62.15 nm  f=0.0076  <S**2>=0.000
       8 -> 27         0.56979
      10 -> 30         0.21310
      10 -> 32         0.24824
      12 -> 36         0.13396

 Excited State 108:      Singlet-A'    20.0223 eV   61.92 nm  f=0.1490  <S**2>=0.000
       7 -> 24         0.10720
       7 -> 25         0.17177
       8 -> 27        -0.24056
      10 -> 30         0.47203
      11 -> 34        -0.12871
      12 -> 35         0.33208

 Excited State 109:      Singlet-A"    20.0379 eV   61.87 nm  f=0.0009  <S**2>=0.000
      10 -> 31         0.69937

 Excited State 110:      Singlet-A'    20.0563 eV   61.82 nm  f=0.0042  <S**2>=0.000
       8 -> 27        -0.22523
      10 -> 30        -0.19261
      10 -> 32         0.59886

 Excited State 111:      Singlet-A"    20.1360 eV   61.57 nm  f=0.0108  <S**2>=0.000
       8 -> 26         0.15842
       9 -> 28         0.67594

 Excited State 112:      Singlet-A"    20.1510 eV   61.53 nm  f=0.0100  <S**2>=0.000
       8 -> 26         0.68183
       9 -> 28        -0.15796

 Excited State 113:      Singlet-A'    20.3204 eV   61.01 nm  f=0.0493  <S**2>=0.000
       6 -> 18        -0.12876
      11 -> 34         0.59809
      12 -> 36         0.28450

 Excited State 114:      Singlet-A'    20.4274 eV   60.70 nm  f=0.0795  <S**2>=0.000
       6 -> 18         0.49096
       7 -> 25         0.40597
       7 -> 27         0.18366

 Excited State 115:      Singlet-A'    20.4490 eV   60.63 nm  f=0.1488  <S**2>=0.000
       6 -> 18        -0.36670
       7 -> 25         0.46339
       7 -> 27        -0.15975
       8 -> 28        -0.10483

 The electronic state is 1-A'.
 Alpha  occ. eigenvalues --  -19.21341 -19.15732 -10.34029  -1.12668  -1.03782
 Alpha  occ. eigenvalues --   -0.68220  -0.54063  -0.50364  -0.47270  -0.42499
 Alpha  occ. eigenvalues --   -0.35345  -0.31066
 Alpha virt. eigenvalues --   -0.02416   0.00589   0.03437   0.07934   0.08377
 Alpha virt. eigenvalues --    0.10922   0.12314   0.13639   0.14309   0.16921
 Alpha virt. eigenvalues --    0.19284   0.20965   0.24617   0.27571   0.27767

 Mulliken charges:
               1
     1  O   -0.193813
     2  C    0.703776
     3  O   -0.297474
     4  H    0.146339
     5  H   -0.358827
 Sum of Mulliken charges =  -0.00000

 Dipole moment (field-independent basis, Debye):
    X=             -1.5390    Y=             -0.2978    Z=             -0.0000  Tot=              1.5675
 Quadrupole moment (field-independent basis, Debye-Ang):
   XX=            -22.4979   YY=            -13.1163   ZZ=            -17.2171
   XY=             -0.0093   XZ=              0.0000   YZ=             -0.0000

 Normal termination of Gaussian 16 at Mon Mar 21 20:00:07 2022.
