 Gaussian 16, Revision C.01,
 Gaussian 16:  EM64L-G16RevC.01  3-Jul-2019

 ---------------------------------------------------------------------
 #P TD(Nstates=10000) b3lyp/Gen SCF(maxcycles=100) Int(Grid=ultrafine)
 ---------------------------------------------------------------------

 ---------------------
 xGDB7_00001_tier4.com
 ---------------------
 Symbolic Z-matrix:
 Charge =  0 Multiplicity = 1

                         Standard orientation:
 ---------------------------------------------------------------------
 Center     Atomic      Atomic             Coordinates (Angstroms)
 Number     Number       Type             X           Y           Z
 ---------------------------------------------------------------------
      1          6           0        0.000000    1.267731   -0.259082
      2          6           0       -0.000000   -0.000000    0.585552
      3          6           0       -0.000000   -1.267731   -0.259082
      4          1           0        0.000000    2.164308    0.363087
      5          1           0       -0.881453    1.307675   -0.903652
      6          1           0        0.881453    1.307675   -0.903652
      7          1           0       -0.874532    0.000000    1.242055
      8          1           0        0.874532   -0.000000    1.242055
      9          1           0       -0.881453   -1.307675   -0.903652
     10          1           0       -0.000000   -2.164308    0.363087
     11          1           0        0.881453   -1.307675   -0.903652
 ---------------------------------------------------------------------

 SCF Done:  E(RB3LYP) =  -119.064793908     A.U. after   11 cycles

 Excitation energies and oscillator strengths:

 Excited State   1:      Singlet-B1     8.5237 eV  145.46 nm  f=0.0029  <S**2>=0.000
      13 -> 14         0.70358
 This state for optimization and/or second-order correction.
 Total Energy, E(TD-HF/TD-DFT) =  -118.751553464
 Copying the excited state density for this state as the 1-particle RhoCI density.

 Excited State   2:      Singlet-B2     8.8699 eV  139.78 nm  f=0.0444  <S**2>=0.000
      11 -> 14         0.70448

 Excited State   3:      Singlet-A1     8.8785 eV  139.65 nm  f=0.0062  <S**2>=0.000
      12 -> 14         0.70014

 Excited State   4:      Singlet-A2     9.3709 eV  132.31 nm  f=0.0000  <S**2>=0.000
      10 -> 14        -0.13204
      13 -> 15         0.69304

 Excited State   5:      Singlet-B1     9.5518 eV  129.80 nm  f=0.1059  <S**2>=0.000
      13 -> 16         0.70359

 Excited State   6:      Singlet-B2     9.6498 eV  128.48 nm  f=0.0179  <S**2>=0.000
       9 -> 14        -0.11753
      12 -> 15         0.69463

 Excited State   7:      Singlet-A1     9.7430 eV  127.26 nm  f=0.0076  <S**2>=0.000
      11 -> 15         0.69362

 Excited State   8:      Singlet-A1     9.8231 eV  126.22 nm  f=0.0942  <S**2>=0.000
      12 -> 16         0.67723
      13 -> 17        -0.17035

 Excited State   9:      Singlet-B2     9.8985 eV  125.26 nm  f=0.0151  <S**2>=0.000
      11 -> 16         0.70513

 Excited State  10:      Singlet-A2     9.9966 eV  124.03 nm  f=0.0000  <S**2>=0.000
      10 -> 14         0.69085
      13 -> 15         0.13068

 Excited State  11:      Singlet-A1    10.1730 eV  121.88 nm  f=0.2069  <S**2>=0.000
      12 -> 16         0.16902
      13 -> 17         0.68029

 Excited State  12:      Singlet-B1    10.3475 eV  119.82 nm  f=0.0909  <S**2>=0.000
      12 -> 17         0.69547

 Excited State  13:      Singlet-A2    10.3523 eV  119.77 nm  f=0.0000  <S**2>=0.000
      11 -> 17         0.70316

 Excited State  14:      Singlet-B1    10.4735 eV  118.38 nm  f=0.0001  <S**2>=0.000
      10 -> 15         0.15076
      13 -> 18         0.68135

 Excited State  15:      Singlet-B2    10.5572 eV  117.44 nm  f=0.0260  <S**2>=0.000
       9 -> 14         0.69187
      12 -> 15         0.11340

 Excited State  16:      Singlet-A1    10.8068 eV  114.73 nm  f=0.0077  <S**2>=0.000
       9 -> 15         0.11450
      12 -> 18         0.69061

 Excited State  17:      Singlet-B2    10.8352 eV  114.43 nm  f=0.1965  <S**2>=0.000
      11 -> 18         0.69118

 Excited State  18:      Singlet-B1    10.8461 eV  114.31 nm  f=0.0816  <S**2>=0.000
      10 -> 15         0.67152
      13 -> 18        -0.13214
      13 -> 20         0.15003

 Excited State  19:      Singlet-A2    10.9883 eV  112.83 nm  f=0.0000  <S**2>=0.000
      10 -> 16         0.67050
      13 -> 21         0.20856

 Excited State  20:      Singlet-A1    11.1482 eV  111.21 nm  f=0.0004  <S**2>=0.000
      12 -> 20        -0.10956
      13 -> 19         0.68344

 Excited State  21:      Singlet-B1    11.2314 eV  110.39 nm  f=0.0274  <S**2>=0.000
      10 -> 15        -0.10378
      12 -> 19         0.61531
      13 -> 20         0.31315

 Excited State  22:      Singlet-B1    11.2781 eV  109.93 nm  f=0.0077  <S**2>=0.000
      12 -> 19        -0.33535
      13 -> 20         0.60764

 Excited State  23:      Singlet-A2    11.2796 eV  109.92 nm  f=0.0000  <S**2>=0.000
      11 -> 19         0.67700
      13 -> 21         0.16915

 Excited State  24:      Singlet-A1    11.3407 eV  109.33 nm  f=0.0820  <S**2>=0.000
       8 -> 14         0.20990
       9 -> 15         0.64607
      12 -> 20         0.14926

 Excited State  25:      Singlet-A2    11.3932 eV  108.82 nm  f=0.0000  <S**2>=0.000
      10 -> 16        -0.20359
      11 -> 19        -0.18584
      13 -> 21         0.64601

 Excited State  26:      Singlet-B2    11.4294 eV  108.48 nm  f=0.0134  <S**2>=0.000
       9 -> 16         0.47303
      10 -> 17        -0.37601
      12 -> 21         0.32008
      13 -> 22         0.13509

 Excited State  27:      Singlet-B2    11.5258 eV  107.57 nm  f=0.0874  <S**2>=0.000
      11 -> 20         0.68110

 Excited State  28:      Singlet-A1    11.6005 eV  106.88 nm  f=0.0181  <S**2>=0.000
       8 -> 14         0.55638
       9 -> 15        -0.10987
      11 -> 21         0.14909
      12 -> 20        -0.38026

 Excited State  29:      Singlet-B2    11.6279 eV  106.63 nm  f=0.0301  <S**2>=0.000
       9 -> 16         0.49782
      10 -> 17         0.43439
      12 -> 21        -0.21076

 Excited State  30:      Singlet-A1    11.6380 eV  106.53 nm  f=0.0096  <S**2>=0.000
       8 -> 14         0.32691
       9 -> 15        -0.22096
      12 -> 20         0.55052
      13 -> 19         0.13015

 Excited State  31:      Singlet-B2    11.7167 eV  105.82 nm  f=0.1318  <S**2>=0.000
      10 -> 17         0.37570
      11 -> 20        -0.10148
      12 -> 21         0.56639

 Excited State  32:      Singlet-A1    11.7339 eV  105.66 nm  f=0.0649  <S**2>=0.000
       8 -> 14        -0.16219
      11 -> 21         0.67381

 Excited State  33:      Singlet-A2    11.8345 eV  104.76 nm  f=0.0000  <S**2>=0.000
       9 -> 17         0.49253
      10 -> 18         0.26347
      12 -> 22        -0.41378

 Excited State  34:      Singlet-B2    11.9024 eV  104.17 nm  f=0.1056  <S**2>=0.000
      10 -> 17         0.10071
      12 -> 21        -0.12083
      13 -> 22         0.67508

 Excited State  35:      Singlet-A2    11.9434 eV  103.81 nm  f=0.0000  <S**2>=0.000
       9 -> 17        -0.30638
      10 -> 18         0.58227
      12 -> 23        -0.16919
      13 -> 25         0.12901

 Excited State  36:      Singlet-B1    12.0349 eV  103.02 nm  f=0.0000  <S**2>=0.000
       7 -> 14        -0.14516
       8 -> 17         0.10629
      11 -> 22         0.65910
      11 -> 23         0.12335

 Excited State  37:      Singlet-B2    12.0837 eV  102.60 nm  f=0.0343  <S**2>=0.000
      10 -> 19         0.19041
      13 -> 23         0.66579

 Excited State  38:      Singlet-B1    12.1467 eV  102.07 nm  f=0.1056  <S**2>=0.000
       7 -> 14         0.67304
      11 -> 22         0.13429
      11 -> 23         0.12289

 Excited State  39:      Singlet-A2    12.1884 eV  101.72 nm  f=0.0000  <S**2>=0.000
       9 -> 17         0.39736
      10 -> 18         0.14717
      12 -> 22         0.56006

 Excited State  40:      Singlet-B1    12.2287 eV  101.39 nm  f=0.0005  <S**2>=0.000
      10 -> 21        -0.17794
      11 -> 22         0.11104
      13 -> 24         0.65410

 Excited State  41:      Singlet-B1    12.2827 eV  100.94 nm  f=0.0366  <S**2>=0.000
       7 -> 14        -0.10722
      11 -> 22        -0.12581
      11 -> 23         0.67046
      13 -> 24         0.11535

 Excited State  42:      Singlet-A2    12.3062 eV  100.75 nm  f=0.0000  <S**2>=0.000
       9 -> 19         0.11918
      10 -> 18         0.13468
      10 -> 20         0.18166
      12 -> 23         0.62636
      13 -> 25         0.13865

 Excited State  43:      Singlet-B2    12.4158 eV   99.86 nm  f=0.0953  <S**2>=0.000
       8 -> 15        -0.26038
       9 -> 18         0.58523
      11 -> 24        -0.11890
      12 -> 25         0.22920

 Excited State  44:      Singlet-B2    12.4550 eV   99.55 nm  f=0.0788  <S**2>=0.000
       8 -> 15         0.58369
       9 -> 18         0.24331
      10 -> 19         0.24306
      12 -> 25         0.13069
      13 -> 23        -0.11952

 Excited State  45:      Singlet-A2    12.4612 eV   99.50 nm  f=0.0000  <S**2>=0.000
      10 -> 18        -0.18003
      10 -> 20         0.30791
      12 -> 23        -0.18230
      13 -> 25         0.57481

 Excited State  46:      Singlet-A1    12.5176 eV   99.05 nm  f=0.0175  <S**2>=0.000
       8 -> 16         0.48222
      11 -> 25        -0.31848
      12 -> 24         0.37561

 Excited State  47:      Singlet-B2    12.5766 eV   98.58 nm  f=0.0135  <S**2>=0.000
       8 -> 15        -0.23917
       9 -> 18        -0.11674
       9 -> 20        -0.10243
      10 -> 19         0.58719
      11 -> 24        -0.19320
      13 -> 23        -0.12070

 Excited State  48:      Singlet-A1    12.6085 eV   98.33 nm  f=0.0015  <S**2>=0.000
       8 -> 16        -0.48059
      11 -> 25        -0.12839
      12 -> 24         0.48842

 Excited State  49:      Singlet-A2    12.6145 eV   98.29 nm  f=0.0000  <S**2>=0.000
      10 -> 20         0.58795
      12 -> 23        -0.11586
      13 -> 25        -0.34562

 Excited State  50:      Singlet-B2    12.6841 eV   97.75 nm  f=0.0237  <S**2>=0.000
       8 -> 15        -0.10721
      10 -> 19         0.15358
      11 -> 24         0.65065
      12 -> 25         0.14169

 Excited State  51:      Singlet-B1    12.7926 eV   96.92 nm  f=0.0405  <S**2>=0.000
       7 -> 16        -0.17751
      10 -> 21         0.64589
      13 -> 24         0.20108

 Excited State  52:      Singlet-B2    12.8048 eV   96.83 nm  f=0.0220  <S**2>=0.000
       9 -> 18        -0.24175
       9 -> 20         0.23080
      11 -> 24        -0.10019
      12 -> 25         0.60145

 Excited State  53:      Singlet-A1    12.8749 eV   96.30 nm  f=0.0015  <S**2>=0.000
       7 -> 17        -0.13326
       8 -> 16         0.10742
      10 -> 22        -0.26179
      11 -> 25         0.52056
      12 -> 24         0.23046
      13 -> 26         0.25776

 Excited State  54:      Singlet-A2    12.9423 eV   95.80 nm  f=0.0000  <S**2>=0.000
       7 -> 15        -0.10873
       9 -> 19         0.67002
      10 -> 20        -0.10696
      12 -> 23        -0.12675

 Excited State  55:      Singlet-A2    12.9719 eV   95.58 nm  f=0.0000  <S**2>=0.000
       7 -> 15         0.68420
       9 -> 19         0.12314

 Excited State  56:      Singlet-B1    13.0490 eV   95.01 nm  f=0.0000  <S**2>=0.000
       8 -> 17         0.66251
       9 -> 22         0.11431
      11 -> 22        -0.11478
      12 -> 26        -0.12447

 Excited State  57:      Singlet-B1    13.1308 eV   94.42 nm  f=0.0043  <S**2>=0.000
       7 -> 16         0.66859
      10 -> 21         0.19963

 Excited State  58:      Singlet-A2    13.1483 eV   94.30 nm  f=0.0000  <S**2>=0.000
      13 -> 27         0.68121

 Excited State  59:      Singlet-A1    13.1779 eV   94.09 nm  f=0.0126  <S**2>=0.000
       8 -> 16         0.10844
       8 -> 18         0.20796
       9 -> 21         0.41477
      10 -> 22         0.17409
      11 -> 25         0.18894
      11 -> 27        -0.10220
      12 -> 24         0.16070
      13 -> 26        -0.40273

 Excited State  60:      Singlet-B2    13.2406 eV   93.64 nm  f=0.0026  <S**2>=0.000
       9 -> 20         0.56739
      11 -> 28         0.11089
      12 -> 25        -0.17942
      12 -> 27        -0.32561

 Excited State  61:      Singlet-B1    13.3036 eV   93.20 nm  f=0.0120  <S**2>=0.000
       8 -> 17         0.16801
       9 -> 23         0.10611
      12 -> 26         0.54913
      12 -> 29         0.10759
      13 -> 28        -0.35735

 Excited State  62:      Singlet-A1    13.3396 eV   92.94 nm  f=0.0472  <S**2>=0.000
       7 -> 17         0.11773
       9 -> 21         0.31553
      10 -> 22         0.38983
      11 -> 27         0.15572
      13 -> 26         0.43466

 Excited State  63:      Singlet-A1    13.3991 eV   92.53 nm  f=0.0361  <S**2>=0.000
       7 -> 17        -0.12950
       8 -> 18        -0.35011
      11 -> 27         0.49140
      13 -> 26        -0.21633
      13 -> 29        -0.16779

 Excited State  64:      Singlet-A2    13.4030 eV   92.50 nm  f=0.0000  <S**2>=0.000
      11 -> 26         0.68904

 Excited State  65:      Singlet-B1    13.4789 eV   91.98 nm  f=0.0353  <S**2>=0.000
       9 -> 22        -0.29488
       9 -> 23        -0.12627
      12 -> 26         0.32283
      12 -> 29        -0.26967
      13 -> 28         0.45559

 Excited State  66:      Singlet-B2    13.5128 eV   91.75 nm  f=0.0706  <S**2>=0.000
       9 -> 20         0.24129
      11 -> 28         0.31061
      12 -> 27         0.56312

 Excited State  67:      Singlet-A1    13.5182 eV   91.72 nm  f=0.0415  <S**2>=0.000
       7 -> 17        -0.32882
       8 -> 18         0.26603
       9 -> 21        -0.32314
      10 -> 22         0.36448
      10 -> 23         0.11797
      11 -> 25         0.14226
      11 -> 27         0.16457
      13 -> 29        -0.10223

 Excited State  68:      Singlet-A1    13.6121 eV   91.08 nm  f=0.0426  <S**2>=0.000
       7 -> 17        -0.26029
       8 -> 18        -0.32686
       9 -> 21         0.10280
      10 -> 22         0.11809
      10 -> 23         0.33568
      11 -> 27        -0.23649
      12 -> 28        -0.31596
      13 -> 29         0.14046

 Excited State  69:      Singlet-A1    13.6850 eV   90.60 nm  f=0.0000  <S**2>=0.000
       7 -> 17         0.12580
      10 -> 23         0.45570
      11 -> 27        -0.16227
      12 -> 28         0.32452
      13 -> 29        -0.36013

 Excited State  70:      Singlet-A2    13.7105 eV   90.43 nm  f=0.0000  <S**2>=0.000
      10 -> 24         0.68602

 Excited State  71:      Singlet-A1    13.7175 eV   90.38 nm  f=0.0367  <S**2>=0.000
       7 -> 17        -0.30736
       8 -> 18        -0.23187
       8 -> 20        -0.14082
      10 -> 22         0.13245
      10 -> 23        -0.30202
      11 -> 27        -0.27832
      12 -> 28         0.33406

 Excited State  72:      Singlet-B1    13.7435 eV   90.21 nm  f=0.0436  <S**2>=0.000
       7 -> 18         0.21925
       9 -> 22         0.52577
      10 -> 25        -0.24122
      12 -> 26         0.19835
      13 -> 28         0.23339

 Excited State  73:      Singlet-A1    13.7794 eV   89.98 nm  f=0.0507  <S**2>=0.000
       8 -> 20         0.16479
      10 -> 23         0.14107
      12 -> 28         0.40502
      13 -> 29         0.50195

 Excited State  74:      Singlet-A2    13.8403 eV   89.58 nm  f=0.0000  <S**2>=0.000
      11 -> 29         0.68926

 Excited State  75:      Singlet-B1    13.8873 eV   89.28 nm  f=0.0094  <S**2>=0.000
       7 -> 18        -0.26718
       8 -> 19         0.25532
       9 -> 22         0.30199
       9 -> 23        -0.28605
      10 -> 25         0.37297
      12 -> 26         0.15969
      12 -> 29        -0.11111

 Excited State  76:      Singlet-B1    13.9291 eV   89.01 nm  f=0.0067  <S**2>=0.000
       8 -> 19         0.20883
       9 -> 22        -0.11395
       9 -> 23        -0.26673
      12 -> 29         0.58337
      13 -> 28         0.14089

 Excited State  77:      Singlet-B2    13.9354 eV   88.97 nm  f=0.1073  <S**2>=0.000
       8 -> 21         0.11391
       9 -> 20        -0.18587
      11 -> 28         0.58897
      12 -> 27        -0.22381
      12 -> 30        -0.13201

 Excited State  78:      Singlet-B1    14.0662 eV   88.14 nm  f=0.0179  <S**2>=0.000
       7 -> 18        -0.19626
       8 -> 19         0.53691
       9 -> 23         0.29118
      10 -> 25        -0.26047

 Excited State  79:      Singlet-B1    14.1099 eV   87.87 nm  f=0.0003  <S**2>=0.000
       7 -> 18         0.39203
       8 -> 19         0.20934
       9 -> 23         0.29888
      10 -> 25         0.43342

 Excited State  80:      Singlet-A1    14.2363 eV   87.09 nm  f=0.0353  <S**2>=0.000
       7 -> 17         0.25884
       8 -> 18        -0.18724
       8 -> 20         0.42447
       9 -> 21        -0.18766
       9 -> 25         0.22171
      10 -> 22         0.14661
      11 -> 25         0.14926
      11 -> 27        -0.13178
      13 -> 26        -0.10057

 Excited State  81:      Singlet-B2    14.2822 eV   86.81 nm  f=0.1053  <S**2>=0.000
       8 -> 21         0.17162
       9 -> 24         0.65525
      10 -> 26         0.13414

 Excited State  82:      Singlet-B1    14.3526 eV   86.38 nm  f=0.1926  <S**2>=0.000
       7 -> 18         0.38354
       7 -> 20         0.16527
       8 -> 19         0.13958
       9 -> 23        -0.25615
      10 -> 25        -0.11013
      10 -> 27         0.37944
      12 -> 29        -0.17484
      13 -> 28        -0.19685

 Excited State  83:      Singlet-B2    14.4377 eV   85.88 nm  f=0.0057  <S**2>=0.000
       8 -> 21         0.61883
       9 -> 24        -0.20941
      10 -> 26         0.20441

 Excited State  84:      Singlet-A1    14.4798 eV   85.63 nm  f=0.1102  <S**2>=0.000
       8 -> 20        -0.26359
       9 -> 25         0.59603
      10 -> 23         0.10614
      11 -> 30         0.10490
      13 -> 29         0.11586

 Excited State  85:      Singlet-A2    14.5317 eV   85.32 nm  f=0.0000  <S**2>=0.000
      13 -> 30         0.69056

 Excited State  86:      Singlet-A1    14.5772 eV   85.05 nm  f=0.1077  <S**2>=0.000
       7 -> 17        -0.20991
       7 -> 19         0.41730
       8 -> 18         0.11936
       8 -> 20         0.38073
       9 -> 21         0.13675
       9 -> 25         0.15064
      10 -> 22        -0.13810

 Excited State  87:      Singlet-B2    14.6804 eV   84.46 nm  f=0.1304  <S**2>=0.000
       8 -> 21        -0.22630
      10 -> 26         0.63954
      10 -> 29        -0.11931

 Excited State  88:      Singlet-A1    14.7072 eV   84.30 nm  f=0.0417  <S**2>=0.000
       7 -> 17         0.16936
       7 -> 19         0.51810
       8 -> 18        -0.14421
       8 -> 20        -0.15914
       9 -> 21        -0.13350
       9 -> 25        -0.20108
       9 -> 27         0.11167
      10 -> 22         0.11015
      12 -> 31         0.11240

 Excited State  89:      Singlet-A2    14.7611 eV   83.99 nm  f=0.0000  <S**2>=0.000
       8 -> 22         0.67782
       8 -> 23         0.10489
       9 -> 26         0.10916

 Excited State  90:      Singlet-B1    14.7773 eV   83.90 nm  f=0.0551  <S**2>=0.000
       7 -> 20         0.54138
       9 -> 23        -0.10067
      10 -> 27        -0.41458

 Excited State  91:      Singlet-B1    14.8435 eV   83.53 nm  f=0.2499  <S**2>=0.000
       7 -> 20        -0.16481
      10 -> 25        -0.11240
      10 -> 27        -0.20503
      13 -> 31         0.61574

 Excited State  92:      Singlet-B2    14.8551 eV   83.46 nm  f=0.0169  <S**2>=0.000
      11 -> 31        -0.26161
      12 -> 30         0.61974

 Excited State  93:      Singlet-A2    14.8565 eV   83.45 nm  f=0.0000  <S**2>=0.000
       7 -> 21         0.15537
       8 -> 23         0.29210
       9 -> 26        -0.30004
      10 -> 28         0.53513

 Excited State  94:      Singlet-A2    14.9265 eV   83.06 nm  f=0.0000  <S**2>=0.000
       7 -> 21         0.67534
      10 -> 28        -0.14804

 Excited State  95:      Singlet-B1    14.9701 eV   82.82 nm  f=0.3864  <S**2>=0.000
       7 -> 18        -0.12472
       7 -> 20         0.34693
       7 -> 24        -0.11494
       8 -> 19        -0.12922
       9 -> 23         0.19830
      10 -> 25         0.10217
      10 -> 27         0.33679
      12 -> 29         0.12639
      13 -> 31         0.32815

 Excited State  96:      Singlet-A1    15.0071 eV   82.62 nm  f=0.0155  <S**2>=0.000
       9 -> 27        -0.36163
      11 -> 30         0.56114

 Excited State  97:      Singlet-B2    15.0671 eV   82.29 nm  f=0.0385  <S**2>=0.000
      10 -> 26         0.12149
      10 -> 29         0.65000
      11 -> 31        -0.18021

 Excited State  98:      Singlet-A2    15.0887 eV   82.17 nm  f=0.0000  <S**2>=0.000
       8 -> 22        -0.10207
       8 -> 23         0.61848
      10 -> 28        -0.27889

 Excited State  99:      Singlet-A2    15.1677 eV   81.74 nm  f=0.0000  <S**2>=0.000
       8 -> 22        -0.11388
       9 -> 26         0.60973
       9 -> 29        -0.12143
      10 -> 28         0.28954

 Excited State 100:      Singlet-A1    15.1883 eV   81.63 nm  f=0.0347  <S**2>=0.000
       6 -> 14         0.19879
       8 -> 24         0.33789
       9 -> 27         0.42205
      11 -> 30         0.22963
      12 -> 31         0.30489

 Excited State 101:      Singlet-A1    15.2737 eV   81.17 nm  f=0.1379  <S**2>=0.000
       8 -> 24        -0.30730
       9 -> 27        -0.10885
      11 -> 30        -0.11295
      12 -> 31         0.59255

 Excited State 102:      Singlet-B2    15.3315 eV   80.87 nm  f=0.0419  <S**2>=0.000
       7 -> 22         0.30290
       7 -> 23         0.18056
       9 -> 28         0.55134
      11 -> 31        -0.23139

 Excited State 103:      Singlet-B2    15.4019 eV   80.50 nm  f=0.0062  <S**2>=0.000
       7 -> 22         0.48802
       8 -> 25        -0.34293
       9 -> 28        -0.32804
      11 -> 31        -0.12631

 Excited State 104:      Singlet-A1    15.4384 eV   80.31 nm  f=0.1944  <S**2>=0.000
       6 -> 14         0.52465
       8 -> 24        -0.40973
       9 -> 27         0.15164
      12 -> 31        -0.11615

 Excited State 105:      Singlet-A2    15.5225 eV   79.87 nm  f=0.0000  <S**2>=0.000
       9 -> 29         0.67448
      10 -> 28         0.12969

 Excited State 106:      Singlet-B2    15.5457 eV   79.75 nm  f=0.3980  <S**2>=0.000
       7 -> 23         0.10054
       8 -> 25         0.47131
       9 -> 28        -0.25600
      10 -> 29        -0.16527
      11 -> 31        -0.35316
      12 -> 30        -0.12142

 Excited State 107:      Singlet-B2    15.6360 eV   79.29 nm  f=0.0145  <S**2>=0.000
       7 -> 22        -0.30278
       7 -> 23         0.53033
       8 -> 25        -0.25959
      11 -> 31        -0.14471

 Excited State 108:      Singlet-A1    15.7381 eV   78.78 nm  f=0.2556  <S**2>=0.000
       6 -> 14         0.38664
       8 -> 24         0.31245

 The electronic state is 1-A1.
 Alpha  occ. eigenvalues --  -10.18035 -10.17345 -10.17342  -0.77729  -0.67626
 Alpha  occ. eigenvalues --   -0.58085  -0.46041  -0.44006  -0.40159  -0.38306
 Alpha  occ. eigenvalues --   -0.34195  -0.34024  -0.32999
 Alpha virt. eigenvalues --    0.02076   0.04893   0.05640   0.07856   0.09446
 Alpha virt. eigenvalues --    0.11368   0.12187   0.12470   0.14030   0.15142
 Alpha virt. eigenvalues --    0.15993   0.16799   0.18879   0.19433   0.20298

 Mulliken charges:
               1
     1  C    0.626413
     2  C   -0.356788
     3  C    0.626413
     4  H   -0.127226
     5  H   -0.079995
     6  H   -0.079995
     7  H   -0.160802
     8  H   -0.160802
     9  H   -0.079995
    10  H   -0.127226
    11  H   -0.079995
 Sum of Mulliken charges =   0.00000

 Dipole moment (field-independent basis, Debye):
    X=             -0.0000    Y=              0.0000    Z=              0.0918  Tot=              0.0918
 Quadrupole moment (field-independent basis, Debye-Ang):
   XX=            -21.6719   YY=            -22.5771   ZZ=            -22.1836
   XY=             -0.0000   XZ=              0.0000   YZ=             -0.0000

 Normal termination of Gaussian 16 at Mon Mar 21 20:12:08 2022.
