 Gaussian 16, Revision C.01,
 Gaussian 16:  EM64L-G16RevC.01  3-Jul-2019

 ---------------------------------------------------------------------
 #P TD(Nstates=10000) b3lyp/Gen SCF(maxcycles=100) Int(Grid=ultrafine)
 ---------------------------------------------------------------------

 ---------------------
 xGDB7_00001_tier4.com
 ---------------------
 Symbolic Z-matrix:
 Charge =  0 Multiplicity = 1

                         Standard orientation:
 ---------------------------------------------------------------------
 Center     Atomic      Atomic             Coordinates (Angstroms)
 Number     Number       Type             X           Y           Z
 ---------------------------------------------------------------------
      1          8           0        0.000000   -0.000000    0.116015
      2          1           0        0.000000    0.761895   -0.464058
      3          1           0       -0.000000   -0.761895   -0.464058
 ---------------------------------------------------------------------

 SCF Done:  E(RB3LYP) =  -76.3803189964     A.U. after    9 cycles

 Excitation energies and oscillator strengths:

 Excited State   1:      Singlet-B1     7.4048 eV  167.44 nm  f=0.0531  <S**2>=0.000
       5 ->  6         0.70623
 This state for optimization and/or second-order correction.
 Total Energy, E(TD-HF/TD-DFT) =  -76.1081992815
 Copying the excited state density for this state as the 1-particle RhoCI density.

 Excited State   2:      Singlet-A2     9.1785 eV  135.08 nm  f=0.0000  <S**2>=0.000
       5 ->  7         0.70274

 Excited State   3:      Singlet-A1     9.4737 eV  130.87 nm  f=0.0971  <S**2>=0.000
       4 ->  6         0.69619
       5 ->  8         0.11129

 Excited State   4:      Singlet-B1    10.6874 eV  116.01 nm  f=0.0051  <S**2>=0.000
       5 ->  9         0.70522

 Excited State   5:      Singlet-A1    11.0704 eV  112.00 nm  f=0.0010  <S**2>=0.000
       4 ->  9        -0.16403
       5 ->  8         0.67326

 Excited State   6:      Singlet-B2    11.2783 eV  109.93 nm  f=0.0155  <S**2>=0.000
       4 ->  7         0.70484

 Excited State   7:      Singlet-A2    11.7680 eV  105.36 nm  f=0.0000  <S**2>=0.000
       5 -> 10         0.70288

 Excited State   8:      Singlet-B1    12.4918 eV   99.25 nm  f=0.0466  <S**2>=0.000
       4 ->  8         0.32328
       5 -> 11         0.62747

 Excited State   9:      Singlet-B1    12.6156 eV   98.28 nm  f=0.0048  <S**2>=0.000
       4 ->  8         0.62794
       5 -> 11        -0.32346

 Excited State  10:      Singlet-A1    13.0423 eV   95.06 nm  f=0.0334  <S**2>=0.000
       3 ->  7        -0.13515
       4 ->  9         0.66921
       5 ->  8         0.13301

 Excited State  11:      Singlet-B2    13.4243 eV   92.36 nm  f=0.0590  <S**2>=0.000
       3 ->  6         0.67233
       4 -> 10        -0.11453
       5 -> 12        -0.18346

 Excited State  12:      Singlet-B2    13.6214 eV   91.02 nm  f=0.0333  <S**2>=0.000
       3 ->  6         0.10594
       4 -> 10        -0.34465
       5 -> 12         0.60631

 Excited State  13:      Singlet-B1    14.0455 eV   88.27 nm  f=0.0661  <S**2>=0.000
       5 -> 13         0.70311

 Excited State  14:      Singlet-B2    14.2207 eV   87.19 nm  f=0.3366  <S**2>=0.000
       3 ->  6         0.18691
       4 -> 10         0.60207
       5 -> 12         0.30742

 Excited State  15:      Singlet-A1    14.4941 eV   85.54 nm  f=0.0659  <S**2>=0.000
       4 -> 11         0.69456
       5 -> 14         0.10191

 Excited State  16:      Singlet-A1    14.8543 eV   83.47 nm  f=0.0234  <S**2>=0.000
       3 ->  7         0.25314
       4 -> 13         0.10399
       5 -> 14         0.64330

 Excited State  17:      Singlet-A2    15.6302 eV   79.32 nm  f=0.0000  <S**2>=0.000
       4 -> 12         0.70603

 Excited State  18:      Singlet-A1    15.6776 eV   79.08 nm  f=0.0006  <S**2>=0.000
       3 ->  7         0.50536
       4 -> 13        -0.46137
       5 -> 14        -0.11192

 Excited State  19:      Singlet-A2    16.6019 eV   74.68 nm  f=0.0000  <S**2>=0.000
       3 ->  8         0.69893

 Excited State  20:      Singlet-B2    16.7491 eV   74.02 nm  f=0.0327  <S**2>=0.000
       3 ->  9         0.70285

 Excited State  21:      Singlet-B1    16.8068 eV   73.77 nm  f=0.0032  <S**2>=0.000
       4 -> 14         0.55348
       5 -> 15         0.43712

 Excited State  22:      Singlet-A2    16.9560 eV   73.12 nm  f=0.0000  <S**2>=0.000
       5 -> 16         0.68035
       5 -> 17        -0.16039

 Excited State  23:      Singlet-A1    17.0349 eV   72.78 nm  f=0.0453  <S**2>=0.000
       3 ->  7         0.35540
       3 -> 10         0.33774
       4 -> 13         0.45168
       5 -> 14        -0.17230

 Excited State  24:      Singlet-B1    17.0848 eV   72.57 nm  f=0.2054  <S**2>=0.000
       4 -> 14        -0.43331
       5 -> 15         0.55342

 Excited State  25:      Singlet-A2    17.9242 eV   69.17 nm  f=0.0000  <S**2>=0.000
       5 -> 16         0.16526
       5 -> 17         0.68592

 Excited State  26:      Singlet-A1    18.5244 eV   66.93 nm  f=0.2509  <S**2>=0.000
       3 ->  7        -0.11779
       3 -> 10         0.55016
       4 -> 13        -0.21797
       4 -> 15         0.31429
       5 -> 14         0.11914

 Excited State  27:      Singlet-B2    18.7174 eV   66.24 nm  f=0.2104  <S**2>=0.000
       3 -> 11         0.66344
       4 -> 16         0.15932
       4 -> 17        -0.15623

 Excited State  28:      Singlet-A1    18.8866 eV   65.65 nm  f=0.0863  <S**2>=0.000
       3 -> 10        -0.26740
       4 -> 13         0.10446
       4 -> 15         0.63195

 Excited State  29:      Singlet-B2    18.9837 eV   65.31 nm  f=0.0147  <S**2>=0.000
       3 -> 11        -0.16350
       4 -> 16         0.68285

 Excited State  30:      Singlet-B1    19.6836 eV   62.99 nm  f=0.1063  <S**2>=0.000
       3 -> 12         0.69967

 Excited State  31:      Singlet-B2    19.9680 eV   62.09 nm  f=0.0000  <S**2>=0.000
       3 -> 13         0.61425
       4 -> 17        -0.33673

 Excited State  32:      Singlet-B2    20.1991 eV   61.38 nm  f=0.0310  <S**2>=0.000
       3 -> 11         0.13246
       3 -> 13         0.33811
       4 -> 17         0.59445

 Excited State  33:      Singlet-A2    20.7320 eV   59.80 nm  f=0.0000  <S**2>=0.000
       3 -> 14         0.70509

 Excited State  34:      Singlet-A2    21.1842 eV   58.53 nm  f=0.0000  <S**2>=0.000
       5 -> 18         0.70592

 Excited State  35:      Singlet-B1    22.0559 eV   56.21 nm  f=0.2140  <S**2>=0.000
       4 -> 20        -0.13956
       5 -> 19         0.68383

 Excited State  36:      Singlet-A1    22.7799 eV   54.43 nm  f=0.0802  <S**2>=0.000
       3 -> 16        -0.16275
       4 -> 19         0.17886
       4 -> 21         0.10142
       5 -> 20         0.64990

 Excited State  37:      Singlet-B2    22.8722 eV   54.21 nm  f=0.0200  <S**2>=0.000
       3 -> 15         0.69427
       4 -> 18         0.12357

 Excited State  38:      Singlet-B2    23.2951 eV   53.22 nm  f=0.0084  <S**2>=0.000
       4 -> 18         0.56757
       5 -> 22        -0.41013

 Excited State  39:      Singlet-A1    23.3083 eV   53.19 nm  f=0.0024  <S**2>=0.000
       3 -> 16         0.54745
       3 -> 17         0.17891
       4 -> 19         0.39992

 Excited State  40:      Singlet-B1    23.4477 eV   52.88 nm  f=0.0003  <S**2>=0.000
       5 -> 21         0.70390

 Excited State  41:      Singlet-A1    23.6340 eV   52.46 nm  f=0.0399  <S**2>=0.000
       3 -> 16        -0.31094
       3 -> 17        -0.18143
       4 -> 19         0.54715
       4 -> 21        -0.11658
       5 -> 20        -0.21533

 Excited State  42:      Singlet-B2    24.3881 eV   50.84 nm  f=0.3453  <S**2>=0.000
       3 -> 19        -0.13138
       4 -> 18         0.37789
       5 -> 22         0.55525

 Excited State  43:      Singlet-A1    24.6389 eV   50.32 nm  f=0.0349  <S**2>=0.000
       2 ->  6        -0.23074
       3 -> 16        -0.20151
       3 -> 17         0.61388

 Excited State  44:      Singlet-B1    24.8327 eV   49.93 nm  f=0.2721  <S**2>=0.000
       4 -> 20         0.68664
       5 -> 19         0.12976

 Excited State  45:      Singlet-A2    25.5216 eV   48.58 nm  f=0.0000  <S**2>=0.000
       4 -> 22         0.70656

 Excited State  46:      Singlet-A1    25.8631 eV   47.94 nm  f=0.2874  <S**2>=0.000
       2 ->  6        -0.19080
       3 -> 17        -0.11793
       3 -> 18        -0.19259
       4 -> 21         0.63302

 Excited State  47:      Singlet-A1    26.8667 eV   46.15 nm  f=0.0244  <S**2>=0.000
       2 ->  6         0.60212
       3 -> 16        -0.12192
       3 -> 17         0.14661
       3 -> 18        -0.22858
       4 -> 21         0.13842

 Excited State  48:      Singlet-B2    27.8222 eV   44.56 nm  f=0.1377  <S**2>=0.000
       2 ->  7         0.22800
       3 -> 19         0.64928
       3 -> 21         0.12558

 Excited State  49:      Singlet-B2    28.1727 eV   44.01 nm  f=0.0013  <S**2>=0.000
       2 ->  7         0.65739
       3 -> 19        -0.19093
       3 -> 21        -0.15447

 Excited State  50:      Singlet-A1    28.2034 eV   43.96 nm  f=0.3213  <S**2>=0.000
       2 ->  6         0.16581
       2 ->  9         0.11285
       3 -> 18         0.62523
       4 -> 21         0.21516
       5 -> 20        -0.10989

 Excited State  51:      Singlet-A2    28.5379 eV   43.45 nm  f=0.0000  <S**2>=0.000
       3 -> 20         0.70654

 Excited State  52:      Singlet-B1    29.3870 eV   42.19 nm  f=0.0446  <S**2>=0.000
       2 ->  8         0.65910
       3 -> 22         0.24953

 Excited State  53:      Singlet-A1    29.5253 eV   41.99 nm  f=0.0069  <S**2>=0.000
       2 ->  9         0.69345
       3 -> 18        -0.10046

 Excited State  54:      Singlet-B1    30.1714 eV   41.09 nm  f=0.2154  <S**2>=0.000
       2 ->  8        -0.23745
       3 -> 22         0.65059
       5 -> 23         0.10617

 Excited State  55:      Singlet-B2    30.2735 eV   40.95 nm  f=0.3005  <S**2>=0.000
       2 ->  7         0.10252
       3 -> 19        -0.14434
       3 -> 21         0.66780

 Excited State  56:      Singlet-B2    30.6184 eV   40.49 nm  f=0.0036  <S**2>=0.000
       2 -> 10         0.70440

 Excited State  57:      Singlet-A1    31.2935 eV   39.62 nm  f=0.0031  <S**2>=0.000
       2 -> 11         0.70105

 Excited State  58:      Singlet-B1    31.3663 eV   39.53 nm  f=0.0048  <S**2>=0.000
       5 -> 23         0.69539

 Excited State  59:      Singlet-A2    32.3177 eV   38.36 nm  f=0.0000  <S**2>=0.000
       2 -> 12         0.70671

 Excited State  60:      Singlet-A1    32.8813 eV   37.71 nm  f=0.0095  <S**2>=0.000
       2 -> 13         0.68539
       4 -> 23        -0.15081

 Excited State  61:      Singlet-B1    33.4912 eV   37.02 nm  f=0.0107  <S**2>=0.000
       2 -> 14         0.70486

 Excited State  62:      Singlet-A1    33.7333 eV   36.75 nm  f=0.0230  <S**2>=0.000
       2 -> 13         0.13298
       2 -> 15        -0.12466
       4 -> 23         0.66971

 Excited State  63:      Singlet-A2    34.2296 eV   36.22 nm  f=0.0000  <S**2>=0.000
       5 -> 24         0.70638

 Excited State  64:      Singlet-B2    35.8051 eV   34.63 nm  f=0.0130  <S**2>=0.000
       2 -> 16         0.67812
       4 -> 24        -0.18274

 Excited State  65:      Singlet-A1    35.9329 eV   34.50 nm  f=0.0084  <S**2>=0.000
       2 -> 15         0.67280
       5 -> 25         0.16968

 Excited State  66:      Singlet-B2    36.4579 eV   34.01 nm  f=0.0007  <S**2>=0.000
       2 -> 16         0.19339
       2 -> 17         0.11328
       3 -> 23        -0.15245
       4 -> 24         0.65101

 Excited State  67:      Singlet-B2    36.7926 eV   33.70 nm  f=0.0069  <S**2>=0.000
       2 -> 17         0.68461
       3 -> 23        -0.10019
       4 -> 24        -0.13838

 Excited State  68:      Singlet-B2    37.9951 eV   32.63 nm  f=0.0558  <S**2>=0.000
       2 -> 17         0.13108
       3 -> 23         0.66997
       4 -> 24         0.13854

 Excited State  69:      Singlet-B1    39.0832 eV   31.72 nm  f=0.0082  <S**2>=0.000
       5 -> 26         0.70407

 Excited State  70:      Singlet-A1    39.5219 eV   31.37 nm  f=0.0089  <S**2>=0.000
       2 -> 19        -0.11518
       3 -> 24         0.30504
       4 -> 26        -0.30138
       5 -> 25         0.53806

 Excited State  71:      Singlet-B2    40.2182 eV   30.83 nm  f=0.0004  <S**2>=0.000
       2 -> 18         0.70000

 Excited State  72:      Singlet-A1    40.3157 eV   30.75 nm  f=0.0032  <S**2>=0.000
       2 -> 19         0.67487
       3 -> 24         0.20282

 Excited State  73:      Singlet-B1    40.5109 eV   30.61 nm  f=0.0022  <S**2>=0.000
       4 -> 25         0.70439

 Excited State  74:      Singlet-A1    40.8402 eV   30.36 nm  f=0.0264  <S**2>=0.000
       2 -> 19        -0.17021
       3 -> 24         0.52973
       4 -> 26         0.42080

 Excited State  75:      Singlet-B1    41.4154 eV   29.94 nm  f=0.0000  <S**2>=0.000
       2 -> 20         0.70617

 Excited State  76:      Singlet-A2    42.4288 eV   29.22 nm  f=0.0000  <S**2>=0.000
       2 -> 22         0.70599

 Excited State  77:      Singlet-A1    42.4799 eV   29.19 nm  f=0.0049  <S**2>=0.000
       2 -> 21         0.70503

 Excited State  78:      Singlet-A2    44.4580 eV   27.89 nm  f=0.0000  <S**2>=0.000
       3 -> 25         0.70612

 Excited State  79:      Singlet-B2    45.2748 eV   27.38 nm  f=0.0627  <S**2>=0.000
       3 -> 26         0.70304

 Excited State  80:      Singlet-A1    47.1616 eV   26.29 nm  f=0.0089  <S**2>=0.000
       2 -> 15        -0.10292
       2 -> 23        -0.28361
       3 -> 24        -0.24440
       3 -> 27         0.16166
       4 -> 26         0.42627
       5 -> 25         0.32887

 Excited State  81:      Singlet-A2    47.4980 eV   26.10 nm  f=0.0000  <S**2>=0.000
       5 -> 27         0.70661

 Excited State  82:      Singlet-B2    49.7003 eV   24.95 nm  f=0.0396  <S**2>=0.000
       4 -> 27         0.68695
       5 -> 29         0.15886

 Excited State  83:      Singlet-B1    50.6800 eV   24.46 nm  f=0.0923  <S**2>=0.000
       5 -> 28         0.70387

 Excited State  84:      Singlet-A1    51.0053 eV   24.31 nm  f=0.0858  <S**2>=0.000
       2 -> 23         0.62312
       3 -> 27         0.24342
       4 -> 26         0.12210
       5 -> 25         0.12214

 Excited State  85:      Singlet-B2    52.1706 eV   23.77 nm  f=0.1107  <S**2>=0.000
       2 -> 24         0.10747
       4 -> 27        -0.14673
       5 -> 29         0.67304

 Excited State  86:      Singlet-A1    52.5129 eV   23.61 nm  f=0.0227  <S**2>=0.000
       3 -> 27         0.11305
       4 -> 28         0.69562

 Excited State  87:      Singlet-B2    53.2999 eV   23.26 nm  f=0.0675  <S**2>=0.000
       2 -> 24         0.69779
       5 -> 29        -0.10331

 Excited State  88:      Singlet-A2    53.5832 eV   23.14 nm  f=0.0000  <S**2>=0.000
       4 -> 29         0.70677

 Excited State  89:      Singlet-A1    55.6200 eV   22.29 nm  f=0.0075  <S**2>=0.000
       2 -> 23        -0.13957
       2 -> 26         0.17304
       3 -> 27         0.50631
       4 -> 26        -0.11571
       5 -> 25        -0.12139
       5 -> 30         0.36921

 Excited State  90:      Singlet-A1    56.3225 eV   22.01 nm  f=0.0526  <S**2>=0.000
       3 -> 27        -0.33570
       4 -> 32        -0.12465
       5 -> 30         0.59171

 Excited State  91:      Singlet-B2    56.7463 eV   21.85 nm  f=0.0110  <S**2>=0.000
       3 -> 28         0.69853

 Excited State  92:      Singlet-B1    57.5062 eV   21.56 nm  f=0.1300  <S**2>=0.000
       2 -> 25         0.68551
       3 -> 29        -0.12292
       4 -> 30         0.11758

 Excited State  93:      Singlet-B1    57.7465 eV   21.47 nm  f=0.0270  <S**2>=0.000
       2 -> 25        -0.16941
       3 -> 29        -0.47756
       4 -> 30         0.49254

 Excited State  94:      Singlet-B1    58.2253 eV   21.29 nm  f=0.1820  <S**2>=0.000
       3 -> 29         0.42943
       4 -> 30         0.42944
       5 -> 32         0.35503

 Excited State  95:      Singlet-A1    58.3481 eV   21.25 nm  f=0.1031  <S**2>=0.000
       2 -> 26         0.67793
       3 -> 27        -0.13381

 Excited State  96:      Singlet-A2    59.0027 eV   21.01 nm  f=0.0000  <S**2>=0.000
       5 -> 31         0.70418

 Excited State  97:      Singlet-B1    59.3730 eV   20.88 nm  f=0.1804  <S**2>=0.000
       3 -> 29        -0.25828
       4 -> 30        -0.23620
       5 -> 32         0.61063

 Excited State  98:      Singlet-B2    61.1460 eV   20.28 nm  f=0.0167  <S**2>=0.000
       4 -> 31         0.70424

 Excited State  99:      Singlet-A2    61.7248 eV   20.09 nm  f=0.0000  <S**2>=0.000
       3 -> 30         0.70348

 Excited State 100:      Singlet-A1    61.8229 eV   20.05 nm  f=0.2318  <S**2>=0.000
       4 -> 32         0.68528

 Excited State 101:      Singlet-A1    65.2128 eV   19.01 nm  f=0.0002  <S**2>=0.000
       3 -> 31         0.69508

 Excited State 102:      Singlet-B2    65.2762 eV   18.99 nm  f=0.1017  <S**2>=0.000
       3 -> 32         0.69717

 Excited State 103:      Singlet-B2    66.6466 eV   18.60 nm  f=0.0498  <S**2>=0.000
       2 -> 27         0.70023

 Excited State 104:      Singlet-A2    67.0708 eV   18.49 nm  f=0.0000  <S**2>=0.000
       5 -> 33         0.70609

 Excited State 105:      Singlet-B2    69.7606 eV   17.77 nm  f=0.0114  <S**2>=0.000
       4 -> 33         0.69956

 Excited State 106:      Singlet-A2    70.4092 eV   17.61 nm  f=0.0000  <S**2>=0.000
       2 -> 29         0.70669

 Excited State 107:      Singlet-A1    70.8965 eV   17.49 nm  f=0.0031  <S**2>=0.000
       2 -> 28         0.65911
       3 -> 33        -0.16616
       4 -> 34        -0.12508

 Excited State 108:      Singlet-B1    71.8418 eV   17.26 nm  f=0.1445  <S**2>=0.000
       5 -> 34         0.69600

 Excited State 109:      Singlet-A1    72.5414 eV   17.09 nm  f=0.0075  <S**2>=0.000
       3 -> 33        -0.22882
       4 -> 34         0.66526

 Excited State 110:      Singlet-B1    74.4710 eV   16.65 nm  f=0.0323  <S**2>=0.000
       2 -> 30         0.70404

 Excited State 111:      Singlet-A1    74.6923 eV   16.60 nm  f=0.0288  <S**2>=0.000
       2 -> 28         0.18563
       3 -> 33         0.63888
       4 -> 34         0.19777

 Excited State 112:      Singlet-B2    76.7218 eV   16.16 nm  f=0.0115  <S**2>=0.000
       2 -> 31         0.16029
       3 -> 34         0.68320

 Excited State 113:      Singlet-B2    77.5337 eV   15.99 nm  f=0.0001  <S**2>=0.000
       2 -> 31         0.68812
       3 -> 34        -0.15851

 Excited State 114:      Singlet-A1    78.0520 eV   15.88 nm  f=0.0036  <S**2>=0.000
       2 -> 32         0.70537

 Excited State 115:      Singlet-B2    86.2229 eV   14.38 nm  f=0.0179  <S**2>=0.000
       2 -> 33         0.70444

 Excited State 116:      Singlet-A1    88.5444 eV   14.00 nm  f=0.1511  <S**2>=0.000
       4 -> 37        -0.20850
       5 -> 35         0.66886

 Excited State 117:      Singlet-A1    89.9565 eV   13.78 nm  f=0.0222  <S**2>=0.000
       2 -> 34         0.70274

 Excited State 118:      Singlet-B1    90.0770 eV   13.76 nm  f=0.0816  <S**2>=0.000
       3 -> 36        -0.17405
       4 -> 35         0.65259
       5 -> 37         0.19681

 Excited State 119:      Singlet-B2    90.5784 eV   13.69 nm  f=0.2080  <S**2>=0.000
       3 -> 37         0.11820
       5 -> 36         0.68797

 Excited State 120:      Singlet-A2    90.6281 eV   13.68 nm  f=0.0000  <S**2>=0.000
       4 -> 36         0.70512

 Excited State 121:      Singlet-B1    92.6882 eV   13.38 nm  f=0.0202  <S**2>=0.000
       3 -> 36         0.19784
       4 -> 35        -0.14334
       5 -> 37         0.66253

 Excited State 122:      Singlet-A2    92.8066 eV   13.36 nm  f=0.0000  <S**2>=0.000
       3 -> 35         0.70536

 Excited State 123:      Singlet-B1    96.4430 eV   12.86 nm  f=0.1853  <S**2>=0.000
       3 -> 36         0.63656
       4 -> 35         0.19161
       5 -> 37        -0.13808
       5 -> 38         0.18531

 Excited State 124:      Singlet-A1    97.3232 eV   12.74 nm  f=0.2973  <S**2>=0.000
       4 -> 37         0.67131
       5 -> 35         0.20119

 Excited State 125:      Singlet-B2    99.2346 eV   12.49 nm  f=0.0701  <S**2>=0.000
       3 -> 37         0.69356
       5 -> 36        -0.10618

 Excited State 126:      Singlet-B1   106.0458 eV   11.69 nm  f=0.1456  <S**2>=0.000
       2 -> 35        -0.44663
       3 -> 36        -0.10764
       5 -> 38         0.52899

 Excited State 127:      Singlet-A1   106.5336 eV   11.64 nm  f=0.0099  <S**2>=0.000
       4 -> 38         0.70558

 Excited State 128:      Singlet-B1   106.8144 eV   11.61 nm  f=0.1731  <S**2>=0.000
       2 -> 35         0.54770
       3 -> 36        -0.10349
       5 -> 38         0.42581

 Excited State 129:      Singlet-A2   108.0597 eV   11.47 nm  f=0.0000  <S**2>=0.000
       2 -> 36         0.70660

 Excited State 130:      Singlet-B2   110.8807 eV   11.18 nm  f=0.0560  <S**2>=0.000
       3 -> 38         0.69605
       4 -> 39         0.10821

 Excited State 131:      Singlet-A1   111.8921 eV   11.08 nm  f=0.0055  <S**2>=0.000
       2 -> 37         0.70608

 Excited State 132:      Singlet-A2   115.0035 eV   10.78 nm  f=0.0000  <S**2>=0.000
       5 -> 39         0.70688

 Excited State 133:      Singlet-B2   118.5052 eV   10.46 nm  f=0.1651  <S**2>=0.000
       3 -> 38        -0.10142
       4 -> 39         0.69547

 Excited State 134:      Singlet-A1   122.2270 eV   10.14 nm  f=0.0882  <S**2>=0.000
       3 -> 39         0.69794

 Excited State 135:      Singlet-A1   123.3616 eV   10.05 nm  f=0.0182  <S**2>=0.000
       2 -> 38         0.70117

 Excited State 136:      Singlet-B2   134.1424 eV    9.24 nm  f=0.0026  <S**2>=0.000
       2 -> 39         0.70698

 The electronic state is 1-A1.
 Alpha  occ. eigenvalues --  -19.15386  -1.01053  -0.54547  -0.39815  -0.32604
 Alpha virt. eigenvalues --   -0.00230   0.06584   0.11463   0.11633   0.16161
 Alpha virt. eigenvalues --    0.18638   0.22784   0.24561   0.27255   0.34850
 Alpha virt. eigenvalues --    0.35512   0.39012   0.51661   0.52854   0.56809

 Mulliken charges:
               1
     1  O   -0.224817
     2  H    0.112409
     3  H    0.112409
 Sum of Mulliken charges =   0.00000

 Dipole moment (field-independent basis, Debye):
    X=             -0.0000    Y=             -0.0000    Z=             -1.8760  Tot=              1.8760
 Quadrupole moment (field-independent basis, Debye-Ang):
   XX=             -7.8175   YY=             -4.5251   ZZ=             -6.5416
   XY=              0.0000   XZ=              0.0000   YZ=              0.0000

 Normal termination of Gaussian 16 at Mon Mar 21 20:10:39 2022.
