 Gaussian 16, Revision C.01,
 Gaussian 16:  EM64L-G16RevC.01  3-Jul-2019

 ---------------------------------------------------------------------
 #P TD(Nstates=10000) b3lyp/Gen SCF(maxcycles=100) Int(Grid=ultrafine)
 ---------------------------------------------------------------------

 ---------------------
 xGDB7_00001_tier4.com
 ---------------------
 Symbolic Z-matrix:
 Charge =  0 Multiplicity = 1

                         Standard orientation:
 ---------------------------------------------------------------------
 Center     Atomic      Atomic             Coordinates (Angstroms)
 Number     Number       Type             X           Y           Z
 ---------------------------------------------------------------------
      1          8           0       -1.028621   -0.395177   -0.000000
      2          7           0       -0.000000    0.526228   -0.000000
      3          6           0        1.132746   -0.030907    0.000000
      4          1           0       -1.816572    0.151791   -0.000000
      5          1           0        1.994262    0.623439    0.000000
      6          1           0        1.254802   -1.111965    0.000000
 ---------------------------------------------------------------------

 SCF Done:  E(RB3LYP) =  -169.701733423     A.U. after   13 cycles

 Excitation energies and oscillator strengths:

 Excited State   1:      Singlet-A"     5.8155 eV  213.19 nm  f=0.0008  <S**2>=0.000
      11 -> 13         0.70600
 This state for optimization and/or second-order correction.
 Total Energy, E(TD-HF/TD-DFT) =  -169.488016497
 Copying the excited state density for this state as the 1-particle RhoCI density.

 Excited State   2:      Singlet-A'     6.7886 eV  182.64 nm  f=0.1589  <S**2>=0.000
       9 -> 13         0.11311
      12 -> 13         0.67648

 Excited State   3:      Singlet-A"     6.9038 eV  179.59 nm  f=0.0015  <S**2>=0.000
      12 -> 14         0.70326

 Excited State   4:      Singlet-A'     7.2916 eV  170.04 nm  f=0.0264  <S**2>=0.000
      11 -> 14         0.69965

 Excited State   5:      Singlet-A"     7.8047 eV  158.86 nm  f=0.0177  <S**2>=0.000
      12 -> 15         0.70074

 Excited State   6:      Singlet-A'     8.2168 eV  150.89 nm  f=0.0292  <S**2>=0.000
      11 -> 15         0.69518

 Excited State   7:      Singlet-A"     8.7719 eV  141.34 nm  f=0.0025  <S**2>=0.000
      12 -> 16         0.52379
      12 -> 17        -0.45002

 Excited State   8:      Singlet-A"     9.1343 eV  135.73 nm  f=0.0099  <S**2>=0.000
      12 -> 16         0.45984
      12 -> 17         0.52441

 Excited State   9:      Singlet-A'     9.3482 eV  132.63 nm  f=0.0963  <S**2>=0.000
      11 -> 16        -0.27332
      11 -> 17         0.59622
      12 -> 18         0.23551

 Excited State  10:      Singlet-A"     9.4297 eV  131.48 nm  f=0.0001  <S**2>=0.000
      10 -> 13         0.69603

 Excited State  11:      Singlet-A'     9.4992 eV  130.52 nm  f=0.1247  <S**2>=0.000
      11 -> 16         0.60589
      11 -> 17         0.33120
      12 -> 18        -0.13096

 Excited State  12:      Singlet-A'     9.8898 eV  125.37 nm  f=0.0320  <S**2>=0.000
      11 -> 16         0.20104
      11 -> 17        -0.14677
      11 -> 19         0.11437
      12 -> 18         0.62835

 Excited State  13:      Singlet-A"     9.9485 eV  124.63 nm  f=0.0244  <S**2>=0.000
      11 -> 18         0.67860
      12 -> 19        -0.11753
      12 -> 20        -0.14973

 Excited State  14:      Singlet-A"    10.0034 eV  123.94 nm  f=0.0050  <S**2>=0.000
      11 -> 18         0.14272
      12 -> 19         0.67942
      12 -> 20         0.10809

 Excited State  15:      Singlet-A"    10.1630 eV  122.00 nm  f=0.0252  <S**2>=0.000
      11 -> 18         0.13032
      12 -> 19        -0.13664
      12 -> 20         0.66313

 Excited State  16:      Singlet-A'    10.3758 eV  119.49 nm  f=0.0097  <S**2>=0.000
      11 -> 19         0.68470

 Excited State  17:      Singlet-A'    10.4575 eV  118.56 nm  f=0.0655  <S**2>=0.000
       9 -> 13         0.44173
      10 -> 14        -0.10132
      11 -> 20         0.51543

 Excited State  18:      Singlet-A'    10.5956 eV  117.02 nm  f=0.0372  <S**2>=0.000
       9 -> 13         0.47925
      11 -> 19         0.10714
      11 -> 20        -0.46677

 Excited State  19:      Singlet-A"    10.7977 eV  114.82 nm  f=0.0011  <S**2>=0.000
       8 -> 13         0.57758
       9 -> 14         0.17956
      12 -> 21         0.34031

 Excited State  20:      Singlet-A"    10.9048 eV  113.70 nm  f=0.0196  <S**2>=0.000
       8 -> 13        -0.24000
       9 -> 14         0.65018

 Excited State  21:      Singlet-A"    11.0185 eV  112.52 nm  f=0.0111  <S**2>=0.000
       8 -> 13        -0.29993
       9 -> 14        -0.17570
      12 -> 21         0.60195

 Excited State  22:      Singlet-A'    11.1661 eV  111.04 nm  f=0.2085  <S**2>=0.000
       9 -> 13         0.10400
      10 -> 14         0.68284

 Excited State  23:      Singlet-A'    11.4347 eV  108.43 nm  f=0.0344  <S**2>=0.000
      10 -> 15         0.11310
      11 -> 21         0.66953

 Excited State  24:      Singlet-A'    11.8003 eV  105.07 nm  f=0.0835  <S**2>=0.000
      10 -> 15         0.68062
      11 -> 21        -0.10855
      12 -> 22         0.10890

 Excited State  25:      Singlet-A"    11.8896 eV  104.28 nm  f=0.0140  <S**2>=0.000
       9 -> 15         0.69273

 Excited State  26:      Singlet-A'    12.0319 eV  103.05 nm  f=0.0724  <S**2>=0.000
       8 -> 14         0.13532
      12 -> 22         0.66908

 Excited State  27:      Singlet-A"    12.2499 eV  101.21 nm  f=0.0014  <S**2>=0.000
      11 -> 22         0.69837

 Excited State  28:      Singlet-A'    12.3276 eV  100.57 nm  f=0.1036  <S**2>=0.000
       8 -> 14         0.64473
      12 -> 22        -0.10271
      12 -> 23         0.18305

 Excited State  29:      Singlet-A"    12.3965 eV  100.02 nm  f=0.0009  <S**2>=0.000
       7 -> 13        -0.13213
       9 -> 16         0.18263
       9 -> 17        -0.17956
      12 -> 24        -0.42135
      12 -> 25         0.45903

 Excited State  30:      Singlet-A'    12.4740 eV   99.39 nm  f=0.0775  <S**2>=0.000
       8 -> 14        -0.18578
      10 -> 16         0.22962
      12 -> 23         0.61479

 Excited State  31:      Singlet-A"    12.5447 eV   98.83 nm  f=0.0016  <S**2>=0.000
       7 -> 13         0.51220
      11 -> 23         0.38093
      12 -> 24        -0.26032

 Excited State  32:      Singlet-A"    12.5762 eV   98.59 nm  f=0.0027  <S**2>=0.000
       7 -> 13        -0.16554
      11 -> 23         0.53937
      12 -> 24         0.36264
      12 -> 25         0.18957

 Excited State  33:      Singlet-A"    12.7493 eV   97.25 nm  f=0.0871  <S**2>=0.000
       6 -> 13        -0.12241
       7 -> 13         0.38806
      11 -> 23        -0.22647
      12 -> 24         0.29611
      12 -> 25         0.42507

 Excited State  34:      Singlet-A'    12.8672 eV   96.36 nm  f=0.0221  <S**2>=0.000
      10 -> 16         0.11640
      10 -> 17        -0.13552
      11 -> 24         0.66363

 Excited State  35:      Singlet-A"    12.8731 eV   96.31 nm  f=0.0016  <S**2>=0.000
       7 -> 13        -0.11643
       9 -> 16        -0.42591
       9 -> 17         0.45942
      12 -> 24        -0.12620
      12 -> 25         0.21691

 Excited State  36:      Singlet-A'    13.0427 eV   95.06 nm  f=0.0094  <S**2>=0.000
       8 -> 15         0.10853
      10 -> 16         0.10913
      10 -> 17        -0.17614
      11 -> 25         0.64037

 Excited State  37:      Singlet-A'    13.1544 eV   94.25 nm  f=0.0066  <S**2>=0.000
       8 -> 15        -0.18138
       9 -> 18        -0.14638
      10 -> 16         0.51305
      10 -> 17        -0.23788
      11 -> 24        -0.18034
      11 -> 25        -0.16021
      12 -> 23        -0.18741

 Excited State  38:      Singlet-A"    13.1703 eV   94.14 nm  f=0.0081  <S**2>=0.000
       9 -> 16         0.51486
       9 -> 17         0.47196

 Excited State  39:      Singlet-A'    13.2907 eV   93.29 nm  f=0.0241  <S**2>=0.000
       8 -> 15        -0.40580
      10 -> 16         0.19960
      10 -> 17         0.48102
      11 -> 25         0.16849

 Excited State  40:      Singlet-A'    13.4179 eV   92.40 nm  f=0.0062  <S**2>=0.000
       8 -> 15         0.50101
      10 -> 16         0.28081
      10 -> 17         0.32821
      11 -> 26         0.12430

 Excited State  41:      Singlet-A"    13.5600 eV   91.43 nm  f=0.0003  <S**2>=0.000
      12 -> 26         0.69901

 Excited State  42:      Singlet-A'    13.7207 eV   90.36 nm  f=0.0164  <S**2>=0.000
       8 -> 16        -0.11429
       9 -> 18         0.60914
      10 -> 19        -0.18843
      10 -> 20        -0.11622
      11 -> 26         0.17560

 Excited State  43:      Singlet-A"    13.7317 eV   90.29 nm  f=0.0012  <S**2>=0.000
      10 -> 18         0.69783

 Excited State  44:      Singlet-A'    13.9261 eV   89.03 nm  f=0.0108  <S**2>=0.000
       7 -> 14        -0.22616
       8 -> 17         0.10994
       9 -> 18        -0.10611
      10 -> 19         0.24047
      11 -> 26         0.57762

 Excited State  45:      Singlet-A'    14.0822 eV   88.04 nm  f=0.0198  <S**2>=0.000
      10 -> 19        -0.20700
      10 -> 20        -0.11905
      12 -> 27         0.63014

 Excited State  46:      Singlet-A"    14.1124 eV   87.85 nm  f=0.0304  <S**2>=0.000
       9 -> 19         0.62357
       9 -> 20         0.30736

 Excited State  47:      Singlet-A'    14.1940 eV   87.35 nm  f=0.0005  <S**2>=0.000
       7 -> 14         0.37910
       8 -> 16        -0.13766
      10 -> 19         0.39004
      10 -> 20         0.33176
      12 -> 27         0.20201

 Excited State  48:      Singlet-A"    14.2241 eV   87.16 nm  f=0.0440  <S**2>=0.000
       6 -> 13        -0.16717
       9 -> 19        -0.32348
       9 -> 20         0.58788

 Excited State  49:      Singlet-A'    14.3587 eV   86.35 nm  f=0.0999  <S**2>=0.000
       7 -> 14         0.38090
       8 -> 16         0.23372
       8 -> 17         0.10200
       9 -> 18        -0.13347
      10 -> 17         0.10326
      10 -> 19        -0.28955
      10 -> 20         0.17882
      11 -> 26         0.27916
      12 -> 27        -0.16403

 Excited State  50:      Singlet-A"    14.3689 eV   86.29 nm  f=0.0007  <S**2>=0.000
      11 -> 27         0.69733

 Excited State  51:      Singlet-A'    14.4320 eV   85.91 nm  f=0.1483  <S**2>=0.000
       7 -> 14        -0.27719
       8 -> 16        -0.23030
       8 -> 17        -0.10390
      10 -> 19        -0.23835
      10 -> 20         0.51881

 Excited State  52:      Singlet-A'    14.5921 eV   84.97 nm  f=0.0242  <S**2>=0.000
       7 -> 14        -0.14857
       7 -> 15        -0.10169
       8 -> 16         0.53668
       8 -> 17        -0.18882
       9 -> 18         0.15433
      10 -> 17        -0.10083
      10 -> 19         0.12491
      10 -> 20         0.18843
      10 -> 21         0.10667

 Excited State  53:      Singlet-A'    14.7274 eV   84.19 nm  f=0.1841  <S**2>=0.000
       7 -> 14        -0.15172
       7 -> 15        -0.16235
       8 -> 16         0.15184
       8 -> 17         0.60215

 Excited State  54:      Singlet-A"    14.9512 eV   82.93 nm  f=0.0010  <S**2>=0.000
       6 -> 13        -0.13987
       9 -> 21         0.61889
      12 -> 28        -0.27633

 Excited State  55:      Singlet-A"    14.9745 eV   82.80 nm  f=0.0115  <S**2>=0.000
       6 -> 13         0.28734
       8 -> 18        -0.27105
       9 -> 21         0.28453
      12 -> 28         0.47133
      12 -> 29        -0.10900

 Excited State  56:      Singlet-A"    15.0382 eV   82.45 nm  f=0.0013  <S**2>=0.000
       8 -> 18         0.63881
      12 -> 28         0.25173

 Excited State  57:      Singlet-A'    15.0711 eV   82.27 nm  f=0.0190  <S**2>=0.000
       7 -> 15         0.63839
      10 -> 21        -0.14030

 Excited State  58:      Singlet-A"    15.2406 eV   81.35 nm  f=0.0712  <S**2>=0.000
       6 -> 13         0.51520
       9 -> 20         0.14300
      10 -> 22        -0.24460
      12 -> 28        -0.32023

 Excited State  59:      Singlet-A'    15.2482 eV   81.31 nm  f=0.1286  <S**2>=0.000
       7 -> 15         0.13429
       8 -> 17         0.12269
      10 -> 21         0.63079
      11 -> 28         0.16364

 Excited State  60:      Singlet-A'    15.4290 eV   80.36 nm  f=0.0573  <S**2>=0.000
       8 -> 19         0.33213
       8 -> 20         0.14140
      10 -> 21        -0.11975
      11 -> 28         0.57517

 Excited State  61:      Singlet-A"    15.5425 eV   79.77 nm  f=0.0370  <S**2>=0.000
      12 -> 28         0.15659
      12 -> 29         0.67902

 Excited State  62:      Singlet-A'    15.5575 eV   79.69 nm  f=0.0217  <S**2>=0.000
       8 -> 20         0.63699
      11 -> 28        -0.15687
      12 -> 30        -0.18866

 Excited State  63:      Singlet-A'    15.6592 eV   79.18 nm  f=0.1386  <S**2>=0.000
       8 -> 19         0.55064
       8 -> 20        -0.16501
       9 -> 22        -0.10208
      10 -> 21         0.12869
      11 -> 28        -0.20660
      12 -> 30        -0.26038

 Excited State  64:      Singlet-A'    15.8708 eV   78.12 nm  f=0.0749  <S**2>=0.000
       7 -> 16         0.11920
      11 -> 29         0.63830
      12 -> 30         0.21321

 Excited State  65:      Singlet-A'    15.9314 eV   77.82 nm  f=0.0088  <S**2>=0.000
       6 -> 14         0.18351
       7 -> 16        -0.11290
       8 -> 19         0.16493
       9 -> 23        -0.11328
      11 -> 28        -0.20972
      11 -> 29        -0.21170
      12 -> 30         0.53342

 Excited State  66:      Singlet-A"    15.9569 eV   77.70 nm  f=0.0221  <S**2>=0.000
       6 -> 13         0.11451
      10 -> 22         0.45897
      10 -> 23         0.16005
      11 -> 30         0.48049

 Excited State  67:      Singlet-A"    15.9889 eV   77.54 nm  f=0.1070  <S**2>=0.000
       6 -> 13        -0.13454
      10 -> 22        -0.32312
      11 -> 30         0.41957
      12 -> 31        -0.39991

 Excited State  68:      Singlet-A"    16.0679 eV   77.16 nm  f=0.1075  <S**2>=0.000
       6 -> 13        -0.10448
      10 -> 22        -0.23834
      10 -> 23        -0.15584
      11 -> 30         0.27463
      12 -> 31         0.55125

 Excited State  69:      Singlet-A'    16.0742 eV   77.13 nm  f=0.0244  <S**2>=0.000
       6 -> 14         0.35982
       7 -> 16         0.40194
       7 -> 17        -0.20344
       8 -> 21         0.19304
       9 -> 22        -0.12265
       9 -> 23         0.22878
      11 -> 29        -0.11957

 Excited State  70:      Singlet-A'    16.1213 eV   76.91 nm  f=0.0669  <S**2>=0.000
       7 -> 16         0.21504
       9 -> 22         0.63321
      11 -> 31        -0.11794

 Excited State  71:      Singlet-A"    16.1808 eV   76.62 nm  f=0.0044  <S**2>=0.000
       7 -> 18        -0.12295
      10 -> 22        -0.18756
      10 -> 23         0.64729
      12 -> 31         0.11180

 Excited State  72:      Singlet-A'    16.3097 eV   76.02 nm  f=0.0850  <S**2>=0.000
       6 -> 14         0.36362
       7 -> 17         0.30725
       8 -> 21         0.16422
       9 -> 22         0.11998
      11 -> 31         0.40522
      12 -> 30        -0.14693

 Excited State  73:      Singlet-A'    16.3198 eV   75.97 nm  f=0.0558  <S**2>=0.000
       6 -> 14         0.19854
       7 -> 16         0.21294
       7 -> 17         0.39400
       8 -> 21        -0.33252
       9 -> 23        -0.13007
      10 -> 24         0.16036
      11 -> 31        -0.29269

 Excited State  74:      Singlet-A'    16.3913 eV   75.64 nm  f=0.0422  <S**2>=0.000
       6 -> 14        -0.29576
       7 -> 16         0.32741
       7 -> 17         0.21068
       8 -> 21        -0.12178
       9 -> 23         0.27643
      10 -> 25         0.11392
      11 -> 31         0.31309
      11 -> 34        -0.10045
      12 -> 30         0.11019

 Excited State  75:      Singlet-A'    16.4478 eV   75.38 nm  f=0.0166  <S**2>=0.000
       6 -> 15        -0.16599
       7 -> 16        -0.23433
       9 -> 22         0.15275
       9 -> 23         0.50915
      10 -> 25         0.13867
      11 -> 31        -0.23638
      11 -> 32        -0.10996

 Excited State  76:      Singlet-A"    16.4768 eV   75.25 nm  f=0.0018  <S**2>=0.000
       9 -> 24         0.46258
       9 -> 25        -0.44589
      12 -> 31        -0.12325
      12 -> 32        -0.20502

 Excited State  77:      Singlet-A'    16.5560 eV   74.89 nm  f=0.0061  <S**2>=0.000
       6 -> 14         0.10262
       6 -> 15        -0.12170
       7 -> 17        -0.24640
       8 -> 21        -0.26420
       9 -> 23         0.13994
      10 -> 24         0.41263
      10 -> 25        -0.27289
      11 -> 31         0.20469

 Excited State  78:      Singlet-A"    16.5921 eV   74.72 nm  f=0.0018  <S**2>=0.000
       9 -> 24         0.39768
       9 -> 25         0.15830
      12 -> 32         0.55568

 Excited State  79:      Singlet-A'    16.6663 eV   74.39 nm  f=0.0738  <S**2>=0.000
       7 -> 20         0.13881
       8 -> 21         0.39312
      10 -> 24         0.48883
      10 -> 25         0.12879
      11 -> 32        -0.11807

 Excited State  80:      Singlet-A"    16.6736 eV   74.36 nm  f=0.0093  <S**2>=0.000
       9 -> 24         0.29536
       9 -> 25         0.49741
      12 -> 32        -0.34600
      12 -> 33        -0.16298

 Excited State  81:      Singlet-A"    16.8148 eV   73.74 nm  f=0.0000  <S**2>=0.000
       7 -> 18         0.68557
      10 -> 23         0.12499

 Excited State  82:      Singlet-A'    16.9007 eV   73.36 nm  f=0.1126  <S**2>=0.000
       6 -> 15        -0.25850
      10 -> 25         0.22761
      11 -> 32         0.59871

 Excited State  83:      Singlet-A'    17.0433 eV   72.75 nm  f=0.0444  <S**2>=0.000
       6 -> 14         0.11738
       6 -> 15         0.22231
       7 -> 17        -0.14537
       7 -> 20        -0.20447
       8 -> 21        -0.13486
      10 -> 24         0.11952
      10 -> 25         0.51578
      11 -> 32        -0.11956

 Excited State  84:      Singlet-A"    17.1344 eV   72.36 nm  f=0.0771  <S**2>=0.000
       8 -> 22         0.16598
       9 -> 24         0.11226
      10 -> 22        -0.11415
      12 -> 33         0.64018

 Excited State  85:      Singlet-A'    17.2163 eV   72.02 nm  f=0.0113  <S**2>=0.000
       6 -> 15        -0.40955
       9 -> 23        -0.11830
      11 -> 32        -0.19209
      11 -> 33         0.47706

 Excited State  86:      Singlet-A"    17.2449 eV   71.90 nm  f=0.0005  <S**2>=0.000
      12 -> 34         0.69818

 Excited State  87:      Singlet-A'    17.2717 eV   71.78 nm  f=0.0460  <S**2>=0.000
       6 -> 15         0.10479
       7 -> 19         0.62816
       7 -> 20         0.20544
      11 -> 34        -0.11053

 Excited State  88:      Singlet-A'    17.3675 eV   71.39 nm  f=0.0056  <S**2>=0.000
       6 -> 15         0.34268
       7 -> 16        -0.10196
       7 -> 19        -0.14940
       7 -> 20         0.25116
      11 -> 32         0.16564
      11 -> 33         0.43967

 Excited State  89:      Singlet-A"    17.4097 eV   71.22 nm  f=0.0646  <S**2>=0.000
       8 -> 22         0.66071
       9 -> 26         0.13964
      12 -> 33        -0.14737

 Excited State  90:      Singlet-A'    17.4701 eV   70.97 nm  f=0.0349  <S**2>=0.000
       7 -> 19        -0.16724
       7 -> 20         0.47663
      10 -> 26         0.24738
      11 -> 33        -0.21820
      11 -> 34        -0.11707
      12 -> 35        -0.26099

 Excited State  91:      Singlet-A"    17.5834 eV   70.51 nm  f=0.0411  <S**2>=0.000
       8 -> 22        -0.13410
       9 -> 26         0.67918

 Excited State  92:      Singlet-A"    17.6426 eV   70.28 nm  f=0.0001  <S**2>=0.000
       8 -> 23         0.68989

 Excited State  93:      Singlet-A'    17.7388 eV   69.89 nm  f=0.0634  <S**2>=0.000
       7 -> 20        -0.10296
      10 -> 25        -0.10789
      10 -> 26         0.62231
      11 -> 34         0.17829
      12 -> 35         0.16744

 Excited State  94:      Singlet-A'    17.7962 eV   69.67 nm  f=0.0425  <S**2>=0.000
       6 -> 17        -0.12020
       7 -> 20         0.20547
       8 -> 24         0.23188
      10 -> 26        -0.11961
      11 -> 34         0.57805

 Excited State  95:      Singlet-A'    17.9561 eV   69.05 nm  f=0.0635  <S**2>=0.000
       6 -> 16         0.14604
       8 -> 24         0.36561
       8 -> 25        -0.30454
       9 -> 27         0.11686
      11 -> 34        -0.16858
      12 -> 35         0.38449

 Excited State  96:      Singlet-A'    18.0644 eV   68.63 nm  f=0.0085  <S**2>=0.000
       6 -> 16        -0.23568
       6 -> 17         0.11424
       7 -> 21        -0.20662
       8 -> 24         0.42361
       8 -> 25         0.40748

 Excited State  97:      Singlet-A'    18.0809 eV   68.57 nm  f=0.0474  <S**2>=0.000
       6 -> 16         0.27542
       6 -> 17        -0.11379
       7 -> 21         0.12804
       8 -> 24        -0.14755
       8 -> 25         0.38268
       9 -> 27         0.41542
      12 -> 35         0.16500

 Excited State  98:      Singlet-A"    18.1155 eV   68.44 nm  f=0.1031  <S**2>=0.000
      10 -> 27         0.66906
      11 -> 35        -0.13720

 Excited State  99:      Singlet-A'    18.1543 eV   68.29 nm  f=0.0698  <S**2>=0.000
       6 -> 16        -0.13344
       6 -> 17        -0.11500
       7 -> 21        -0.25106
       8 -> 25        -0.27399
       9 -> 27         0.48609
      12 -> 35        -0.25272

 Excited State 100:      Singlet-A'    18.2561 eV   67.91 nm  f=0.0193  <S**2>=0.000
       6 -> 16        -0.30570
       6 -> 17         0.12731
       7 -> 21         0.56156
       8 -> 24         0.11564
       9 -> 27         0.18350

 Excited State 101:      Singlet-A"    18.2922 eV   67.78 nm  f=0.0026  <S**2>=0.000
      10 -> 27         0.13539
      11 -> 35         0.68611

 Excited State 102:      Singlet-A'    18.4446 eV   67.22 nm  f=0.0089  <S**2>=0.000
       6 -> 16         0.39821
       6 -> 17         0.46526
      11 -> 36        -0.16558
      12 -> 35        -0.19822

 Excited State 103:      Singlet-A"    18.4639 eV   67.15 nm  f=0.0006  <S**2>=0.000
      12 -> 36         0.69110

 Excited State 104:      Singlet-A"    18.8408 eV   65.81 nm  f=0.0059  <S**2>=0.000
       6 -> 18         0.66843
       7 -> 23         0.13598
       9 -> 28         0.12518

 Excited State 105:      Singlet-A'    18.8617 eV   65.73 nm  f=0.0302  <S**2>=0.000
       8 -> 26         0.18803
      11 -> 36         0.61880
      12 -> 35        -0.12694

 The electronic state is 1-A'.
 Alpha  occ. eigenvalues --  -19.19353 -14.39315 -10.22607  -1.09641  -0.86677
 Alpha  occ. eigenvalues --   -0.61857  -0.54439  -0.48162  -0.43111  -0.43008
 Alpha  occ. eigenvalues --   -0.29371  -0.28312
 Alpha virt. eigenvalues --   -0.02329   0.01386   0.04128   0.08996   0.09620
 Alpha virt. eigenvalues --    0.11331   0.12684   0.13395   0.16426   0.19822
 Alpha virt. eigenvalues --    0.21152   0.22411   0.22527   0.25883   0.27627

 Mulliken charges:
               1
     1  O   -0.332245
     2  N   -0.013549
     3  C    0.702781
     4  H    0.179415
     5  H   -0.319206
     6  H   -0.217197
 Sum of Mulliken charges =  -0.00000

 Dipole moment (field-independent basis, Debye):
    X=              0.2585    Y=             -0.1361    Z=              0.0000  Tot=              0.2921
 Quadrupole moment (field-independent basis, Debye-Ang):
   XX=            -12.2504   YY=            -19.6747   ZZ=            -19.1826
   XY=             -1.5050   XZ=              0.0000   YZ=              0.0000

 1\1\GINC-HEL24\SP\RB3LYP TD-FC\Gen\C1H3N1O1\SABYASACHI\21-Mar-2022\0\\
 #P TD(Nstates=10000) b3lyp/Gen SCF(maxcycles=100) Int(Grid=ultrafine)\
 \xGDB7_00001_tier4.com\\0,1\O,0,-1.028621,-0.395177,0.\N,0,0.,0.526228
 ,0.\C,0,1.132746,-0.030907,0.\H,0,-1.816572,0.151791,0.\H,0,1.994262,0
 .623439,0.\H,0,1.254802,-1.111965,0.\\Version=EM64L-G16RevC.01\State=1
 -A'\HF=-169.7017334\RMSD=3.577e-09\PG=CS [SG(C1H3N1O1)]\\@
 The archive entry for this job was punched.

 Normal termination of Gaussian 16 at Mon Mar 21 20:08:48 2022.
