 Gaussian 16, Revision C.01,
 Gaussian 16:  EM64L-G16RevC.01  3-Jul-2019

 ---------------------------------------------------------------------
 #P TD(Nstates=10000) b3lyp/Gen SCF(maxcycles=100) Int(Grid=ultrafine)
 ---------------------------------------------------------------------

 ---------------------
 xGDB7_00001_tier4.com
 ---------------------
 Symbolic Z-matrix:
 Charge =  0 Multiplicity = 1

                         Standard orientation:
 ---------------------------------------------------------------------
 Center     Atomic      Atomic             Coordinates (Angstroms)
 Number     Number       Type             X           Y           Z
 ---------------------------------------------------------------------
      1          6           0        0.630149   -0.000001   -0.000003
      2          9           0       -0.748512    0.000002    0.000001
      3          1           0        0.985250    0.897475   -0.509314
      4          1           0        0.985222   -0.889832   -0.522562
      5          1           0        0.985245   -0.007652    1.031883
 ---------------------------------------------------------------------

 SCF Done:  E(RB3LYP) =  -139.648163769     A.U. after   11 cycles

 Excitation energies and oscillator strengths:

 Excited State   1:      Singlet-A      9.0840 eV  136.49 nm  f=0.0245  <S**2>=0.000
       9 -> 10         0.69238
       9 -> 11        -0.13958
 This state for optimization and/or second-order correction.
 Total Energy, E(TD-HF/TD-DFT) =  -139.314334547
 Copying the excited state density for this state as the 1-particle RhoCI density.

 Excited State   2:      Singlet-A      9.0840 eV  136.49 nm  f=0.0245  <S**2>=0.000
       8 -> 10         0.69238
       8 -> 11        -0.13958

 Excited State   3:      Singlet-A      9.7202 eV  127.55 nm  f=0.0171  <S**2>=0.000
       9 -> 10         0.14062
       9 -> 11         0.68953

 Excited State   4:      Singlet-A      9.7203 eV  127.55 nm  f=0.0171  <S**2>=0.000
       8 -> 10         0.14062
       8 -> 11         0.68953

 Excited State   5:      Singlet-A     11.0467 eV  112.24 nm  f=0.0000  <S**2>=0.000
       8 -> 13        -0.48236
       9 -> 12         0.49909

 Excited State   6:      Singlet-A     11.0489 eV  112.21 nm  f=0.0368  <S**2>=0.000
       8 -> 12        -0.46681
       8 -> 13        -0.17628
       9 -> 12        -0.17133
       9 -> 13         0.46773

 Excited State   7:      Singlet-A     11.0489 eV  112.21 nm  f=0.0368  <S**2>=0.000
       8 -> 12        -0.17521
       8 -> 13         0.47506
       9 -> 12         0.45934
       9 -> 13         0.17244

 Excited State   8:      Singlet-A     11.3159 eV  109.57 nm  f=0.1107  <S**2>=0.000
       8 -> 12         0.48366
       9 -> 13         0.48362

 Excited State   9:      Singlet-A     12.1626 eV  101.94 nm  f=0.0000  <S**2>=0.000
       8 -> 15         0.49820
       9 -> 16         0.49826

 Excited State  10:      Singlet-A     12.2570 eV  101.15 nm  f=0.0205  <S**2>=0.000
       8 -> 16        -0.14227
       9 -> 14         0.66843
       9 -> 15        -0.14218

 Excited State  11:      Singlet-A     12.2570 eV  101.15 nm  f=0.0205  <S**2>=0.000
       8 -> 14         0.66834
       8 -> 15         0.14268
       9 -> 16        -0.14222

 Excited State  12:      Singlet-A     12.4514 eV   99.57 nm  f=0.0058  <S**2>=0.000
       8 -> 16        -0.48790
       9 -> 15         0.48825

 Excited State  13:      Singlet-A     12.5277 eV   98.97 nm  f=0.0681  <S**2>=0.000
       6 -> 10         0.11921
       8 -> 14         0.19748
       8 -> 15        -0.40320
       8 -> 16         0.21795
       9 -> 15         0.21782
       9 -> 16         0.40326

 Excited State  14:      Singlet-A     12.5277 eV   98.97 nm  f=0.0681  <S**2>=0.000
       7 -> 10         0.11923
       8 -> 15         0.21785
       8 -> 16         0.40345
       9 -> 14         0.19719
       9 -> 15         0.40314
       9 -> 16        -0.21790

 Excited State  15:      Singlet-A     12.8378 eV   96.58 nm  f=0.1506  <S**2>=0.000
       7 -> 10         0.68855

 Excited State  16:      Singlet-A     12.8378 eV   96.58 nm  f=0.1506  <S**2>=0.000
       6 -> 10         0.68855

 Excited State  17:      Singlet-A     13.1359 eV   94.39 nm  f=0.0015  <S**2>=0.000
       8 -> 17        -0.49264
       9 -> 18         0.49267

 Excited State  18:      Singlet-A     13.1360 eV   94.39 nm  f=0.0015  <S**2>=0.000
       8 -> 18         0.48874
       9 -> 17         0.49653

 Excited State  19:      Singlet-A     13.1422 eV   94.34 nm  f=0.0000  <S**2>=0.000
       8 -> 18         0.50051
       9 -> 17        -0.49271

 Excited State  20:      Singlet-A     13.1543 eV   94.25 nm  f=0.0000  <S**2>=0.000
       5 -> 10         0.67595
       8 -> 17         0.13305
       9 -> 18         0.13308

 Excited State  21:      Singlet-A     13.5015 eV   91.83 nm  f=0.0067  <S**2>=0.000
       5 -> 10        -0.13918
       5 -> 11         0.38424
       8 -> 17         0.38416
       9 -> 18         0.38444

 Excited State  22:      Singlet-A     13.5022 eV   91.83 nm  f=0.0113  <S**2>=0.000
       7 -> 11         0.68806

 Excited State  23:      Singlet-A     13.5023 eV   91.82 nm  f=0.0113  <S**2>=0.000
       6 -> 11         0.68813

 Excited State  24:      Singlet-A     14.3507 eV   86.40 nm  f=0.4510  <S**2>=0.000
       5 -> 11         0.56537
       5 -> 14         0.13394
       8 -> 17        -0.24097
       9 -> 18        -0.24097

 Excited State  25:      Singlet-A     14.7074 eV   84.30 nm  f=0.0000  <S**2>=0.000
       6 -> 12         0.17602
       6 -> 13        -0.46257
       7 -> 12         0.46461
       7 -> 13         0.17637

 Excited State  26:      Singlet-A     14.7255 eV   84.20 nm  f=0.0402  <S**2>=0.000
       6 -> 12         0.45358
       7 -> 13        -0.45346
       9 -> 19        -0.26999

 Excited State  27:      Singlet-A     14.7255 eV   84.20 nm  f=0.0402  <S**2>=0.000
       6 -> 13         0.45456
       7 -> 12         0.45252
       8 -> 19        -0.26992

 Excited State  28:      Singlet-A     14.8440 eV   83.52 nm  f=0.0063  <S**2>=0.000
       5 -> 13        -0.22106
       6 -> 12         0.19456
       7 -> 13        -0.19460
       9 -> 19         0.57674
       9 -> 20        -0.14702

 Excited State  29:      Singlet-A     14.8440 eV   83.52 nm  f=0.0063  <S**2>=0.000
       5 -> 12        -0.22114
       6 -> 13         0.19456
       7 -> 12         0.19447
       8 -> 19         0.57675
       8 -> 20        -0.14702

 Excited State  30:      Singlet-A     14.9828 eV   82.75 nm  f=0.0469  <S**2>=0.000
       5 -> 12         0.65867
       8 -> 19         0.20576

 Excited State  31:      Singlet-A     14.9828 eV   82.75 nm  f=0.0470  <S**2>=0.000
       5 -> 13         0.65870
       9 -> 19         0.20569

 Excited State  32:      Singlet-A     15.4344 eV   80.33 nm  f=0.0036  <S**2>=0.000
       6 -> 12         0.42922
       6 -> 13         0.16314
       7 -> 12        -0.16312
       7 -> 13         0.42919

 Excited State  33:      Singlet-A     15.8459 eV   78.24 nm  f=0.0190  <S**2>=0.000
       6 -> 16        -0.14448
       7 -> 14         0.33984
       7 -> 15        -0.14445
       9 -> 19         0.14388
       9 -> 20         0.54632

 Excited State  34:      Singlet-A     15.8459 eV   78.24 nm  f=0.0190  <S**2>=0.000
       6 -> 14         0.33966
       6 -> 15         0.14448
       7 -> 16        -0.14471
       8 -> 19         0.14388
       8 -> 20         0.54635

 Excited State  35:      Singlet-A     15.8735 eV   78.11 nm  f=0.0000  <S**2>=0.000
       6 -> 15         0.48622
       7 -> 16         0.48611

 Excited State  36:      Singlet-A     16.0318 eV   77.34 nm  f=0.0030  <S**2>=0.000
       5 -> 14         0.28770
       6 -> 16        -0.43743
       7 -> 15         0.43754

 Excited State  37:      Singlet-A     16.0993 eV   77.01 nm  f=0.0075  <S**2>=0.000
       7 -> 14         0.58484
       9 -> 20        -0.37560

 Excited State  38:      Singlet-A     16.0993 eV   77.01 nm  f=0.0075  <S**2>=0.000
       6 -> 14         0.58485
       8 -> 20        -0.37554

 Excited State  39:      Singlet-A     16.2068 eV   76.50 nm  f=0.0387  <S**2>=0.000
       5 -> 15         0.67857
       6 -> 16         0.10685
       7 -> 15         0.10688

 Excited State  40:      Singlet-A     16.2069 eV   76.50 nm  f=0.0387  <S**2>=0.000
       5 -> 16         0.67861
       6 -> 15         0.10677
       7 -> 16        -0.10675

 Excited State  41:      Singlet-A     16.4011 eV   75.60 nm  f=0.2684  <S**2>=0.000
       5 -> 16         0.13924
       6 -> 14         0.14075
       6 -> 15        -0.36723
       6 -> 16         0.19065
       7 -> 15         0.19059
       7 -> 16         0.36727
       8 -> 22        -0.17408
       9 -> 21        -0.17411

 Excited State  42:      Singlet-A     16.4011 eV   75.60 nm  f=0.2684  <S**2>=0.000
       5 -> 15        -0.13941
       6 -> 15         0.19061
       6 -> 16         0.36730
       7 -> 14         0.14046
       7 -> 15         0.36724
       7 -> 16        -0.19063
       8 -> 21        -0.17411
       9 -> 22         0.17411

 Excited State  43:      Singlet-A     16.5179 eV   75.06 nm  f=0.0007  <S**2>=0.000
       5 -> 14         0.57343
       6 -> 16         0.17723
       6 -> 17        -0.15966
       7 -> 15        -0.17725
       7 -> 18        -0.15966

 Excited State  44:      Singlet-A     16.5565 eV   74.89 nm  f=0.0310  <S**2>=0.000
       6 -> 17        -0.19913
       6 -> 18         0.10432
       7 -> 17         0.10436
       7 -> 18         0.19915
       8 -> 21        -0.39868
       8 -> 22        -0.13071
       9 -> 21        -0.13070
       9 -> 22         0.39875

 Excited State  45:      Singlet-A     16.5565 eV   74.89 nm  f=0.0310  <S**2>=0.000
       6 -> 17         0.10436
       6 -> 18         0.19905
       7 -> 17         0.19924
       7 -> 18        -0.10433
       8 -> 21        -0.13059
       8 -> 22         0.39852
       9 -> 21         0.39892
       9 -> 22         0.13082

 Excited State  46:      Singlet-A     16.6206 eV   74.60 nm  f=0.0000  <S**2>=0.000
       6 -> 18         0.15539
       7 -> 17        -0.15520
       8 -> 21        -0.28953
       8 -> 22         0.37255
       9 -> 21        -0.37216
       9 -> 22        -0.28932

 Excited State  47:      Singlet-A     16.7855 eV   73.86 nm  f=0.3900  <S**2>=0.000
       6 -> 17         0.12104
       7 -> 18         0.12097
       8 -> 21         0.36892
       8 -> 22         0.28678
       9 -> 21        -0.28672
       9 -> 22         0.36890

 Excited State  48:      Singlet-A     16.9114 eV   73.31 nm  f=0.0000  <S**2>=0.000
       6 -> 17         0.11126
       6 -> 18        -0.45833
       7 -> 17         0.45924
       7 -> 18         0.11131
       8 -> 22         0.12653
       9 -> 21        -0.12681

 Excited State  49:      Singlet-A     16.9618 eV   73.10 nm  f=0.0720  <S**2>=0.000
       6 -> 17         0.10915
       6 -> 18         0.42485
       7 -> 17         0.42393
       7 -> 18        -0.10942
       8 -> 22        -0.15987
       9 -> 21        -0.15962

 Excited State  50:      Singlet-A     16.9618 eV   73.10 nm  f=0.0720  <S**2>=0.000
       6 -> 17         0.42442
       6 -> 18        -0.10944
       7 -> 17        -0.10913
       7 -> 18        -0.42437
       8 -> 21        -0.15978
       9 -> 22         0.15970

 Excited State  51:      Singlet-A     17.0447 eV   72.74 nm  f=0.0000  <S**2>=0.000
       5 -> 18        -0.46185
       9 -> 23         0.51642

 Excited State  52:      Singlet-A     17.0447 eV   72.74 nm  f=0.0000  <S**2>=0.000
       5 -> 17        -0.46227
       8 -> 23         0.51605

 Excited State  53:      Singlet-A     17.1026 eV   72.49 nm  f=0.0218  <S**2>=0.000
       5 -> 17        -0.16040
       5 -> 18         0.49375
       8 -> 23        -0.12097
       9 -> 23         0.44595

 Excited State  54:      Singlet-A     17.1026 eV   72.49 nm  f=0.0218  <S**2>=0.000
       5 -> 17         0.49337
       5 -> 18         0.16049
       8 -> 23         0.44635
       9 -> 23         0.12085

 Excited State  55:      Singlet-A     17.1893 eV   72.13 nm  f=0.0293  <S**2>=0.000
       5 -> 14         0.20450
       5 -> 19         0.14879
       6 -> 17         0.43027
       6 -> 18         0.10439
       7 -> 17        -0.10434
       7 -> 18         0.43024

 Excited State  56:      Singlet-A     17.7485 eV   69.86 nm  f=0.0056  <S**2>=0.000
       9 -> 24         0.70286

 Excited State  57:      Singlet-A     17.7486 eV   69.86 nm  f=0.0056  <S**2>=0.000
       8 -> 24         0.70286

 Excited State  58:      Singlet-A     17.9491 eV   69.08 nm  f=0.0000  <S**2>=0.000
       8 -> 25         0.48981
       9 -> 26         0.48985

 Excited State  59:      Singlet-A     18.1230 eV   68.41 nm  f=0.0227  <S**2>=0.000
       7 -> 19        -0.15817
       8 -> 25         0.29817
       8 -> 26         0.36625
       9 -> 25         0.36652
       9 -> 26        -0.29822

 Excited State  60:      Singlet-A     18.1230 eV   68.41 nm  f=0.0227  <S**2>=0.000
       6 -> 19         0.15815
       8 -> 25         0.36643
       8 -> 26        -0.29812
       9 -> 25        -0.29828
       9 -> 26        -0.36634

 Excited State  61:      Singlet-A     18.2217 eV   68.04 nm  f=0.0285  <S**2>=0.000
       4 -> 10         0.21181
       8 -> 26         0.44942
       9 -> 25        -0.44908

 Excited State  62:      Singlet-A     18.5477 eV   66.85 nm  f=0.0028  <S**2>=0.000
       7 -> 19         0.66190
       7 -> 20        -0.14752

 Excited State  63:      Singlet-A     18.5477 eV   66.85 nm  f=0.0028  <S**2>=0.000
       6 -> 19         0.66190
       6 -> 20        -0.14752

 Excited State  64:      Singlet-A     18.6532 eV   66.47 nm  f=0.0174  <S**2>=0.000
       4 -> 10         0.62980
       5 -> 19         0.20429
       8 -> 26        -0.12817
       9 -> 25         0.12814

 Excited State  65:      Singlet-A     19.2232 eV   64.50 nm  f=0.0011  <S**2>=0.000
       4 -> 11         0.41167
       5 -> 19        -0.18520
       8 -> 27         0.34204
       8 -> 28         0.15745
       9 -> 27         0.15756
       9 -> 28        -0.34201

 Excited State  66:      Singlet-A     19.2807 eV   64.30 nm  f=0.0000  <S**2>=0.000
       8 -> 27        -0.20856
       8 -> 28         0.45264
       9 -> 27         0.45315
       9 -> 28         0.20857

 Excited State  67:      Singlet-A     19.3618 eV   64.04 nm  f=0.0581  <S**2>=0.000
       6 -> 20         0.18922
       8 -> 27        -0.30967
       8 -> 28         0.36244
       9 -> 27        -0.36206
       9 -> 28        -0.30955

 Excited State  68:      Singlet-A     19.3618 eV   64.04 nm  f=0.0581  <S**2>=0.000
       7 -> 20        -0.18925
       8 -> 27         0.36218
       8 -> 28         0.30976
       9 -> 27        -0.30945
       9 -> 28         0.36231

 Excited State  69:      Singlet-A     19.4488 eV   63.75 nm  f=0.1697  <S**2>=0.000
       4 -> 11         0.51189
       5 -> 19         0.31454
       5 -> 20         0.10614
       8 -> 27        -0.18767
       9 -> 28         0.18767

 Excited State  70:      Singlet-A     19.5912 eV   63.29 nm  f=0.0102  <S**2>=0.000
       7 -> 19         0.11636
       7 -> 20         0.60612
       8 -> 27         0.10343
       9 -> 28         0.10341
       9 -> 29         0.26731

 Excited State  71:      Singlet-A     19.5912 eV   63.29 nm  f=0.0102  <S**2>=0.000
       6 -> 19         0.11636
       6 -> 20         0.60614
       8 -> 28        -0.10343
       8 -> 29         0.26728
       9 -> 27         0.10340

 Excited State  72:      Singlet-A     19.7335 eV   62.83 nm  f=0.0498  <S**2>=0.000
       7 -> 20        -0.24433
       9 -> 29         0.64563

 Excited State  73:      Singlet-A     19.7335 eV   62.83 nm  f=0.0498  <S**2>=0.000
       6 -> 20        -0.24431
       8 -> 29         0.64564

 Excited State  74:      Singlet-A     19.8442 eV   62.48 nm  f=0.0041  <S**2>=0.000
       4 -> 10        -0.10670
       4 -> 11        -0.12468
       5 -> 19         0.26536
       5 -> 20         0.55638
       8 -> 27         0.14450
       9 -> 28        -0.14451

 Excited State  75:      Singlet-A     20.2927 eV   61.10 nm  f=0.0003  <S**2>=0.000
       6 -> 21        -0.49259
       7 -> 22         0.49299

 Excited State  76:      Singlet-A     20.2927 eV   61.10 nm  f=0.0003  <S**2>=0.000
       6 -> 22         0.49241
       7 -> 21         0.49317

 Excited State  77:      Singlet-A     20.3214 eV   61.01 nm  f=0.0165  <S**2>=0.000
       4 -> 10         0.10549
       4 -> 11         0.12315
       5 -> 19        -0.30281
       5 -> 20         0.32867
       6 -> 21        -0.16400
       6 -> 22        -0.18648
       6 -> 26        -0.14658
       7 -> 21         0.18600
       7 -> 22        -0.16385
       7 -> 25         0.14658
       8 -> 27        -0.13105
       9 -> 28         0.13105

 Excited State  78:      Singlet-A     20.3352 eV   60.97 nm  f=0.0000  <S**2>=0.000
       6 -> 21         0.37499
       6 -> 22        -0.33020
       7 -> 21         0.32953
       7 -> 22         0.37457

 Excited State  79:      Singlet-A     20.4527 eV   60.62 nm  f=0.0696  <S**2>=0.000
       5 -> 19        -0.20537
       5 -> 20         0.15165
       5 -> 23         0.10386
       6 -> 21         0.27228
       6 -> 22         0.30939
       7 -> 21        -0.30920
       7 -> 22         0.27218
       8 -> 31         0.11697
       9 -> 32         0.11697

 Excited State  80:      Singlet-A     20.5096 eV   60.45 nm  f=0.0088  <S**2>=0.000
       4 -> 12         0.44887
       4 -> 13        -0.30779
       5 -> 21        -0.33613
       6 -> 23         0.12164
       7 -> 23        -0.17539
       8 -> 30        -0.12885
       9 -> 30         0.12651

 Excited State  81:      Singlet-A     20.5096 eV   60.45 nm  f=0.0088  <S**2>=0.000
       4 -> 12         0.30783
       4 -> 13         0.44887
       5 -> 22        -0.33609
       6 -> 23         0.17536
       7 -> 23         0.12168
       8 -> 30        -0.12644
       9 -> 30        -0.12891

 Excited State  82:      Singlet-A     20.5900 eV   60.22 nm  f=0.0210  <S**2>=0.000
       4 -> 12         0.32583
       5 -> 21         0.57967
       5 -> 22         0.12934

 Excited State  83:      Singlet-A     20.5900 eV   60.22 nm  f=0.0210  <S**2>=0.000
       4 -> 13         0.32581
       5 -> 21        -0.12933
       5 -> 22         0.57969

 Excited State  84:      Singlet-A     20.6558 eV   60.02 nm  f=0.0817  <S**2>=0.000
       4 -> 13         0.20442
       7 -> 23        -0.18410
       9 -> 30         0.63255

 Excited State  85:      Singlet-A     20.6558 eV   60.02 nm  f=0.0817  <S**2>=0.000
       4 -> 12         0.20434
       6 -> 23        -0.18413
       8 -> 30         0.63258

 Excited State  86:      Singlet-A     20.8830 eV   59.37 nm  f=0.0387  <S**2>=0.000
       4 -> 13        -0.16208
       7 -> 23         0.63734
       9 -> 30         0.23927

 Excited State  87:      Singlet-A     20.8830 eV   59.37 nm  f=0.0387  <S**2>=0.000
       4 -> 12        -0.16204
       6 -> 23         0.63735
       8 -> 30         0.23926

 Excited State  88:      Singlet-A     21.1673 eV   58.57 nm  f=0.0101  <S**2>=0.000
       4 -> 14         0.13600
       5 -> 23         0.67134

 Excited State  89:      Singlet-A     21.4371 eV   57.84 nm  f=0.0019  <S**2>=0.000
       7 -> 24         0.69754

 Excited State  90:      Singlet-A     21.4372 eV   57.84 nm  f=0.0019  <S**2>=0.000
       6 -> 24         0.69753

 Excited State  91:      Singlet-A     21.5985 eV   57.40 nm  f=0.0000  <S**2>=0.000
       5 -> 24         0.15658
       6 -> 25         0.48251
       7 -> 26         0.48254

 Excited State  92:      Singlet-A     21.6980 eV   57.14 nm  f=0.0001  <S**2>=0.000
       4 -> 15         0.62325
       5 -> 25        -0.27123

 Excited State  93:      Singlet-A     21.6980 eV   57.14 nm  f=0.0001  <S**2>=0.000
       4 -> 16         0.62326
       5 -> 26        -0.27123

 Excited State  94:      Singlet-A     21.7420 eV   57.03 nm  f=0.0000  <S**2>=0.000
       5 -> 24         0.67748

 Excited State  95:      Singlet-A     21.7911 eV   56.90 nm  f=0.0278  <S**2>=0.000
       4 -> 15        -0.11402
       5 -> 25        -0.15109
       6 -> 25        -0.19777
       6 -> 26        -0.22119
       7 -> 25        -0.22125
       7 -> 26         0.19774
       8 -> 31        -0.35957
       8 -> 32        -0.10029
       9 -> 31        -0.10031
       9 -> 32         0.35958

 Excited State  96:      Singlet-A     21.7911 eV   56.90 nm  f=0.0278  <S**2>=0.000
       4 -> 16        -0.11394
       5 -> 26        -0.15106
       6 -> 25        -0.22127
       6 -> 26         0.19772
       7 -> 25         0.19779
       7 -> 26         0.22114
       8 -> 31        -0.10024
       8 -> 32         0.35949
       9 -> 31         0.35971
       9 -> 32         0.10038

 Excited State  97:      Singlet-A     21.8692 eV   56.69 nm  f=0.0000  <S**2>=0.000
       5 -> 24        -0.12455
       8 -> 31        -0.28942
       8 -> 32         0.38951
       9 -> 31        -0.38937
       9 -> 32        -0.28936

 Excited State  98:      Singlet-A     21.8951 eV   56.63 nm  f=0.0506  <S**2>=0.000
       4 -> 14         0.65055
       6 -> 26        -0.15408
       7 -> 25         0.15402

 Excited State  99:      Singlet-A     21.9640 eV   56.45 nm  f=0.0029  <S**2>=0.000
       4 -> 15         0.28830
       5 -> 25         0.58490
       8 -> 31        -0.16944
       9 -> 32         0.16944

 Excited State 100:      Singlet-A     21.9640 eV   56.45 nm  f=0.0029  <S**2>=0.000
       4 -> 16         0.28830
       5 -> 26         0.58496
       8 -> 32         0.16940
       9 -> 31         0.16932

 Excited State 101:      Singlet-A     22.1442 eV   55.99 nm  f=0.1446  <S**2>=0.000
       5 -> 26        -0.22526
       6 -> 25         0.27532
       6 -> 26        -0.24267
       7 -> 25        -0.24276
       7 -> 26        -0.27531
       8 -> 32         0.25834
       9 -> 31         0.25826

 Excited State 102:      Singlet-A     22.1442 eV   55.99 nm  f=0.1446  <S**2>=0.000
       5 -> 25        -0.22538
       6 -> 25         0.24270
       6 -> 26         0.27521
       7 -> 25         0.27538
       7 -> 26        -0.24270

 The electronic state is 1-A.
 Alpha  occ. eigenvalues --  -24.68549 -10.26663  -1.18293  -0.70020  -0.50043
 Alpha  occ. eigenvalues --   -0.49231  -0.49231  -0.35627  -0.35626
 Alpha virt. eigenvalues --    0.01980   0.05326   0.09418   0.09418   0.13941
 Alpha virt. eigenvalues --    0.14222   0.14222   0.17169   0.17169   0.25128
 Alpha virt. eigenvalues --    0.27247   0.29879   0.29879   0.31550   0.33973

 Mulliken charges:
               1
     1  C    0.947407
     2  F   -0.482692
     3  H   -0.154892
     4  H   -0.154910
     5  H   -0.154913
 Sum of Mulliken charges =   0.00000

 Dipole moment (field-independent basis, Debye):
    X=              1.8683    Y=             -0.0000    Z=              0.0000  Tot=              1.8683
 Quadrupole moment (field-independent basis, Debye-Ang):
   XX=            -12.7984   YY=            -12.0204   ZZ=            -12.0205
   XY=              0.0000   XZ=              0.0000   YZ=              0.0000

 Normal termination of Gaussian 16 at Mon Mar 21 20:10:59 2022.
