 Gaussian 16, Revision C.01,
 Gaussian 16:  EM64L-G16RevC.01  3-Jul-2019

 ----------------------------------------------------------------------
 #P TD(Nstates=10000) wB97XD/Gen SCF(maxcycles=100) Int(Grid=ultrafine)
 ----------------------------------------------------------------------

 ---------------------
 xGDB7_00001_tier4.com
 ---------------------
 Symbolic Z-matrix:
 Charge =  0 Multiplicity = 1

                         Standard orientation:
 ---------------------------------------------------------------------
 Center     Atomic      Atomic             Coordinates (Angstroms)
 Number     Number       Type             X           Y           Z
 ---------------------------------------------------------------------
      1          6           0        0.000000    0.732418   -0.362202
      2          6           0       -0.000000   -0.732418   -0.362202
      3          8           0       -0.000000   -0.000000    0.839289
      4          1           0       -0.925613    1.274996   -0.591974
      5          1           0        0.925613    1.274996   -0.591974
      6          1           0        0.925613   -1.274996   -0.591974
      7          1           0       -0.925613   -1.274996   -0.591974
 ---------------------------------------------------------------------

 SCF Done:  E(RwB97XD) =  -153.635086939     A.U. after   12 cycles

 Excitation energies and oscillator strengths:

 Excited State   1:      Singlet-B1     8.1174 eV  152.74 nm  f=0.0255  <S**2>=0.000
      12 -> 13         0.64741
      12 -> 15         0.24989
      12 -> 18         0.10509
 This state for optimization and/or second-order correction.
 Total Energy, E(TD-HF/TD-DFT) =  -153.336777961
 Copying the excited state density for this state as the 1-particle RhoCI density.

 Excited State   2:      Singlet-B1     8.4477 eV  146.77 nm  f=0.0301  <S**2>=0.000
      12 -> 13        -0.25595
      12 -> 15         0.64176

 Excited State   3:      Singlet-A2     8.4980 eV  145.90 nm  f=0.0000  <S**2>=0.000
      12 -> 14        -0.47985
      12 -> 17         0.50609

 Excited State   4:      Singlet-A2     8.9797 eV  138.07 nm  f=0.0000  <S**2>=0.000
      12 -> 14         0.50023
      12 -> 17         0.44618
      12 -> 20        -0.17341

 Excited State   5:      Singlet-A1     9.0422 eV  137.12 nm  f=0.0079  <S**2>=0.000
      11 -> 13         0.57434
      12 -> 16         0.39641

 Excited State   6:      Singlet-A1     9.1627 eV  135.31 nm  f=0.0437  <S**2>=0.000
      11 -> 13        -0.39163
      12 -> 16         0.57871

 Excited State   7:      Singlet-A1     9.4999 eV  130.51 nm  f=0.0569  <S**2>=0.000
      11 -> 15         0.67723
      11 -> 18         0.13426

 Excited State   8:      Singlet-B2     9.7337 eV  127.38 nm  f=0.1058  <S**2>=0.000
      11 -> 14         0.68900
      11 -> 17        -0.12127

 Excited State   9:      Singlet-B1    10.0694 eV  123.13 nm  f=0.0000  <S**2>=0.000
      11 -> 16         0.59630
      12 -> 18        -0.35595

 Excited State  10:      Singlet-B1    10.1837 eV  121.75 nm  f=0.0254  <S**2>=0.000
      11 -> 16         0.35950
      12 -> 15        -0.10642
      12 -> 18         0.58829

 Excited State  11:      Singlet-B2    10.5767 eV  117.22 nm  f=0.1452  <S**2>=0.000
       9 -> 15        -0.11494
      11 -> 14         0.12806
      11 -> 17         0.65828

 Excited State  12:      Singlet-A2    10.7723 eV  115.10 nm  f=0.0000  <S**2>=0.000
      10 -> 13         0.67032
      12 -> 20        -0.14233

 Excited State  13:      Singlet-B1    11.2028 eV  110.67 nm  f=0.0671  <S**2>=0.000
      10 -> 14         0.49149
      10 -> 17        -0.20248
      12 -> 21        -0.44033

 Excited State  14:      Singlet-A2    11.2212 eV  110.49 nm  f=0.0000  <S**2>=0.000
      10 -> 13         0.14252
      10 -> 15         0.19524
      12 -> 17         0.16545
      12 -> 20         0.62751

 Excited State  15:      Singlet-A1    11.2301 eV  110.40 nm  f=0.0109  <S**2>=0.000
      11 -> 15        -0.14290
      11 -> 18         0.67480

 Excited State  16:      Singlet-B2    11.3525 eV  109.21 nm  f=0.1307  <S**2>=0.000
      10 -> 16        -0.15785
      12 -> 19         0.67593

 Excited State  17:      Singlet-A2    11.5068 eV  107.75 nm  f=0.0000  <S**2>=0.000
      10 -> 15         0.62583
      10 -> 18         0.18405
      12 -> 20        -0.19192

 Excited State  18:      Singlet-B1    11.6347 eV  106.56 nm  f=0.0105  <S**2>=0.000
      10 -> 14         0.26858
      10 -> 17        -0.40076
      12 -> 21         0.49691

 Excited State  19:      Singlet-B2    11.6687 eV  106.25 nm  f=0.0409  <S**2>=0.000
       9 -> 13         0.67998

 Excited State  20:      Singlet-A1    11.8329 eV  104.78 nm  f=0.0002  <S**2>=0.000
       9 -> 17         0.24705
      11 -> 21         0.16049
      12 -> 22         0.62881

 Excited State  21:      Singlet-B1    11.9102 eV  104.10 nm  f=0.0555  <S**2>=0.000
      10 -> 14         0.40748
      10 -> 17         0.50822
      10 -> 20        -0.11115
      12 -> 21         0.20061

 Excited State  22:      Singlet-B2    12.0932 eV  102.52 nm  f=0.0316  <S**2>=0.000
       9 -> 15         0.60736
      10 -> 16        -0.15310
      11 -> 17         0.15702
      11 -> 20         0.22423

 Excited State  23:      Singlet-B2    12.1718 eV  101.86 nm  f=0.1266  <S**2>=0.000
       9 -> 13         0.11223
       9 -> 15         0.19830
      10 -> 16         0.62870
      11 -> 20        -0.10578
      12 -> 19         0.16092

 Excited State  24:      Singlet-A2    12.2008 eV  101.62 nm  f=0.0000  <S**2>=0.000
      11 -> 19         0.69650

 Excited State  25:      Singlet-A1    12.2918 eV  100.87 nm  f=0.0085  <S**2>=0.000
       9 -> 14         0.66984
       9 -> 17        -0.15240

 Excited State  26:      Singlet-A2    12.4097 eV   99.91 nm  f=0.0000  <S**2>=0.000
      12 -> 23         0.67474

 Excited State  27:      Singlet-A1    12.5467 eV   98.82 nm  f=0.0013  <S**2>=0.000
       9 -> 17        -0.10695
      11 -> 21         0.31541
      12 -> 24         0.60505

 Excited State  28:      Singlet-A1    12.5653 eV   98.67 nm  f=0.0289  <S**2>=0.000
       9 -> 14        -0.13338
       9 -> 17        -0.26282
      11 -> 21         0.51640
      12 -> 24        -0.34053

 Excited State  29:      Singlet-B2    12.5995 eV   98.40 nm  f=0.0445  <S**2>=0.000
       9 -> 15        -0.17320
      10 -> 16         0.17954
      11 -> 20         0.62288
      11 -> 23        -0.16909

 Excited State  30:      Singlet-A2    12.6494 eV   98.02 nm  f=0.0000  <S**2>=0.000
       9 -> 16         0.69675

 Excited State  31:      Singlet-B1    12.6807 eV   97.77 nm  f=0.0028  <S**2>=0.000
      11 -> 22         0.69521

 Excited State  32:      Singlet-B1    13.0442 eV   95.05 nm  f=0.0007  <S**2>=0.000
      11 -> 24        -0.18420
      12 -> 25         0.64671
      12 -> 27         0.15305

 Excited State  33:      Singlet-A2    13.2485 eV   93.58 nm  f=0.0000  <S**2>=0.000
      10 -> 15        -0.13493
      10 -> 18         0.62996
      10 -> 21        -0.20283
      12 -> 23        -0.13586

 Excited State  34:      Singlet-B2    13.3024 eV   93.20 nm  f=0.0322  <S**2>=0.000
      11 -> 20         0.15448
      11 -> 23         0.66983

 Excited State  35:      Singlet-B1    13.4505 eV   92.18 nm  f=0.0176  <S**2>=0.000
      11 -> 24         0.66384
      12 -> 25         0.16420

 Excited State  36:      Singlet-A1    13.5390 eV   91.58 nm  f=0.0661  <S**2>=0.000
       8 -> 13         0.20806
       8 -> 15        -0.14630
       9 -> 14         0.14058
       9 -> 17         0.45617
       9 -> 20        -0.13144
      11 -> 21         0.22349
      11 -> 25        -0.14856
      11 -> 27        -0.17952
      12 -> 22        -0.22007

 Excited State  37:      Singlet-B2    13.7608 eV   90.10 nm  f=0.0227  <S**2>=0.000
       9 -> 18         0.68048

 Excited State  38:      Singlet-A1    13.9979 eV   88.57 nm  f=0.0016  <S**2>=0.000
       8 -> 13        -0.44423
       9 -> 17         0.16696
      10 -> 19         0.12183
      11 -> 21         0.11023
      11 -> 25         0.45271
      12 -> 22        -0.11937

 Excited State  39:      Singlet-A1    14.0660 eV   88.14 nm  f=0.0008  <S**2>=0.000
       8 -> 13        -0.34034
       8 -> 15        -0.11428
      10 -> 19         0.40989
      11 -> 25        -0.40788

 Excited State  40:      Singlet-B1    14.1043 eV   87.91 nm  f=0.0199  <S**2>=0.000
       7 -> 15         0.11821
      10 -> 20        -0.34172
      12 -> 25        -0.17433
      12 -> 27         0.54776

 Excited State  41:      Singlet-B2    14.2127 eV   87.23 nm  f=0.0346  <S**2>=0.000
       8 -> 17         0.11124
      10 -> 22         0.22929
      10 -> 24        -0.17377
      12 -> 26         0.61856

 Excited State  42:      Singlet-A2    14.2491 eV   87.01 nm  f=0.0000  <S**2>=0.000
       7 -> 14         0.16767
      10 -> 15        -0.14965
      10 -> 18         0.19307
      10 -> 21         0.59645
      10 -> 25        -0.12111
      12 -> 28         0.14055

 Excited State  43:      Singlet-B2    14.3366 eV   86.48 nm  f=0.1267  <S**2>=0.000
       8 -> 14         0.54445
       8 -> 17        -0.38154
      12 -> 26         0.11247

 Excited State  44:      Singlet-A1    14.4353 eV   85.89 nm  f=0.0814  <S**2>=0.000
       8 -> 13         0.32571
       8 -> 18         0.10036
       9 -> 20         0.22692
      10 -> 19         0.48208
      11 -> 25         0.25523

 Excited State  45:      Singlet-A1    14.4724 eV   85.67 nm  f=0.2391  <S**2>=0.000
       8 -> 13        -0.10239
       8 -> 15         0.62344
       9 -> 17         0.12703
       9 -> 20         0.13091
      11 -> 27        -0.13045

 Excited State  46:      Singlet-B1    14.5177 eV   85.40 nm  f=0.0046  <S**2>=0.000
       7 -> 15        -0.10451
       9 -> 19        -0.14139
      10 -> 17         0.12307
      10 -> 20         0.55906
      12 -> 27         0.33467

 Excited State  47:      Singlet-A2    14.6672 eV   84.53 nm  f=0.0000  <S**2>=0.000
       7 -> 17        -0.16895
      10 -> 21        -0.15470
      12 -> 28         0.62515
      12 -> 37        -0.10721

 Excited State  48:      Singlet-B1    14.7078 eV   84.30 nm  f=0.3020  <S**2>=0.000
       7 -> 13         0.53948
       8 -> 16         0.31531
       9 -> 19        -0.26841
      10 -> 20        -0.10129

 Excited State  49:      Singlet-B1    14.7639 eV   83.98 nm  f=0.0015  <S**2>=0.000
       7 -> 13         0.39156
       8 -> 16        -0.24398
       9 -> 19         0.48414
      12 -> 27         0.15810

 Excited State  50:      Singlet-B2    14.8107 eV   83.71 nm  f=0.0019  <S**2>=0.000
       8 -> 14         0.11571
       8 -> 17         0.21490
       9 -> 21        -0.15324
      10 -> 22         0.56884
      12 -> 26        -0.26389

 Excited State  51:      Singlet-B2    14.8609 eV   83.43 nm  f=0.1261  <S**2>=0.000
       8 -> 14         0.26058
       8 -> 17         0.38469
       9 -> 21        -0.36675
      10 -> 22        -0.31234
      10 -> 24        -0.13292

 Excited State  52:      Singlet-A1    15.0078 eV   82.61 nm  f=0.0017  <S**2>=0.000
       7 -> 16         0.13813
       8 -> 15        -0.12068
       9 -> 17         0.17353
       9 -> 20         0.57475
      10 -> 19        -0.21472
      11 -> 27         0.12832
      12 -> 29         0.12368

 Excited State  53:      Singlet-B1    15.0501 eV   82.38 nm  f=0.0166  <S**2>=0.000
       7 -> 13        -0.10730
       8 -> 16         0.51912
       9 -> 19         0.38800
      10 -> 23         0.22453

 Excited State  54:      Singlet-B2    15.0963 eV   82.13 nm  f=0.0078  <S**2>=0.000
       8 -> 14         0.30159
       8 -> 17         0.28249
       9 -> 15        -0.10249
       9 -> 21         0.52832

 Excited State  55:      Singlet-A2    15.1705 eV   81.73 nm  f=0.0000  <S**2>=0.000
       7 -> 14        -0.10645
       7 -> 17         0.15454
       9 -> 22         0.64732
      12 -> 28         0.12622

 Excited State  56:      Singlet-A2    15.2014 eV   81.56 nm  f=0.0000  <S**2>=0.000
       7 -> 14        -0.39477
       7 -> 17         0.45612
       7 -> 20        -0.11925
       9 -> 22        -0.22388
      10 -> 21         0.12567
      10 -> 25        -0.15669
      12 -> 28         0.10194

 Excited State  57:      Singlet-A1    15.2099 eV   81.52 nm  f=0.0773  <S**2>=0.000
      11 -> 27        -0.32557
      12 -> 29         0.59797

 Excited State  58:      Singlet-A2    15.3037 eV   81.02 nm  f=0.0000  <S**2>=0.000
      11 -> 26         0.68515

 Excited State  59:      Singlet-B1    15.3187 eV   80.94 nm  f=0.0629  <S**2>=0.000
       7 -> 15         0.62564
       7 -> 18         0.13924
      10 -> 20         0.12766
      12 -> 30        -0.18729

 Excited State  60:      Singlet-B1    15.3845 eV   80.59 nm  f=0.3997  <S**2>=0.000
       8 -> 16        -0.19896
      10 -> 23         0.60979
      12 -> 30         0.20234

 Excited State  61:      Singlet-B2    15.4602 eV   80.20 nm  f=0.3113  <S**2>=0.000
       9 -> 21        -0.17899
       9 -> 25         0.12628
      10 -> 24         0.63131
      12 -> 26         0.12766

 Excited State  62:      Singlet-A2    15.6526 eV   79.21 nm  f=0.0000  <S**2>=0.000
       7 -> 14         0.50121
       7 -> 17         0.34858
      10 -> 21        -0.11935
      10 -> 25        -0.17201
      12 -> 28         0.11207
      12 -> 31         0.20225

 Excited State  63:      Singlet-A1    15.7367 eV   78.79 nm  f=0.1567  <S**2>=0.000
       7 -> 16        -0.18559
       8 -> 15         0.13315
       8 -> 18        -0.32216
       9 -> 20        -0.10074
       9 -> 23        -0.32774
      11 -> 27         0.34972
      12 -> 29         0.23874

 Excited State  64:      Singlet-B1    15.7670 eV   78.64 nm  f=0.0794  <S**2>=0.000
       7 -> 15         0.18312
      10 -> 23        -0.18438
      12 -> 30         0.63749

 Excited State  65:      Singlet-B2    15.8462 eV   78.24 nm  f=0.0658  <S**2>=0.000
       8 -> 17         0.10222
      11 -> 28         0.66795

 Excited State  66:      Singlet-A2    15.9401 eV   77.78 nm  f=0.0000  <S**2>=0.000
       7 -> 14        -0.12644
       9 -> 24        -0.27612
      10 -> 21         0.12814
      10 -> 25         0.19888
      10 -> 27         0.17714
      12 -> 31         0.54801

 Excited State  67:      Singlet-A1    15.9438 eV   77.76 nm  f=0.0347  <S**2>=0.000
       7 -> 16        -0.37136
       9 -> 23         0.54231
      11 -> 27         0.12957

 Excited State  68:      Singlet-A2    16.0652 eV   77.18 nm  f=0.0000  <S**2>=0.000
       9 -> 24         0.61328
      10 -> 25         0.24301
      12 -> 31         0.20060

 Excited State  69:      Singlet-A1    16.1017 eV   77.00 nm  f=0.1631  <S**2>=0.000
       7 -> 16         0.40618
       8 -> 18         0.19775
       8 -> 21        -0.18542
       9 -> 20        -0.18100
       9 -> 23         0.16570
      11 -> 27         0.32382
      11 -> 30        -0.18566

 Excited State  70:      Singlet-A2    16.1778 eV   76.64 nm  f=0.0000  <S**2>=0.000
       7 -> 14         0.11368
       7 -> 17         0.23066
       9 -> 24        -0.16417
      10 -> 25         0.54314
      12 -> 31        -0.27628

 Excited State  71:      Singlet-B1    16.2226 eV   76.43 nm  f=0.0235  <S**2>=0.000
      11 -> 29         0.69273

 Excited State  72:      Singlet-A1    16.2350 eV   76.37 nm  f=0.0014  <S**2>=0.000
       7 -> 16        -0.27828
       8 -> 18         0.52523
       9 -> 23        -0.20226
      12 -> 32         0.25716

 Excited State  73:      Singlet-A1    16.4041 eV   75.58 nm  f=0.0232  <S**2>=0.000
       7 -> 16         0.15690
       8 -> 18        -0.14395
      11 -> 30         0.20342
      12 -> 29        -0.10723
      12 -> 32         0.59747

 Excited State  74:      Singlet-B1    16.6289 eV   74.56 nm  f=0.1715  <S**2>=0.000
      12 -> 33         0.68856

 Excited State  75:      Singlet-A1    16.6338 eV   74.54 nm  f=0.1162  <S**2>=0.000
      11 -> 27         0.17743
      11 -> 30         0.62921
      12 -> 32        -0.15400

 Excited State  76:      Singlet-B2    16.6392 eV   74.51 nm  f=0.2589  <S**2>=0.000
       8 -> 20        -0.10142
       9 -> 25         0.57064
       9 -> 27         0.16861
      11 -> 31        -0.28945

 Excited State  77:      Singlet-B2    16.8458 eV   73.60 nm  f=0.0302  <S**2>=0.000
       7 -> 19         0.10964
       8 -> 20         0.41741
       8 -> 23        -0.10884
       9 -> 25         0.27544
      11 -> 31         0.43074

 Excited State  78:      Singlet-A2    17.0004 eV   72.93 nm  f=0.0000  <S**2>=0.000
       6 -> 16         0.11520
       8 -> 19         0.67676

 Excited State  79:      Singlet-B1    17.0299 eV   72.80 nm  f=0.0730  <S**2>=0.000
       7 -> 15        -0.12051
       7 -> 18         0.63893
      12 -> 36        -0.10629

 Excited State  80:      Singlet-A1    17.1199 eV   72.42 nm  f=0.2170  <S**2>=0.000
       7 -> 22        -0.13989
      10 -> 26         0.65951

 Excited State  81:      Singlet-A2    17.2234 eV   71.99 nm  f=0.0000  <S**2>=0.000
       7 -> 20         0.18096
      10 -> 25        -0.13948
      10 -> 27         0.62697
      12 -> 31        -0.14473

 Excited State  82:      Singlet-B2    17.2940 eV   71.69 nm  f=0.0020  <S**2>=0.000
       7 -> 19        -0.15258
       8 -> 17         0.13991
       8 -> 20         0.48444
      11 -> 31        -0.38553
      12 -> 34         0.18748

 Excited State  83:      Singlet-B1    17.2977 eV   71.68 nm  f=0.0057  <S**2>=0.000
       8 -> 22         0.18667
      11 -> 32         0.65930

 Excited State  84:      Singlet-A1    17.4118 eV   71.21 nm  f=0.0023  <S**2>=0.000
       8 -> 21         0.59691
       9 -> 28         0.11921
      10 -> 26         0.10221
      11 -> 33         0.23823

 Excited State  85:      Singlet-B2    17.4619 eV   71.00 nm  f=0.1098  <S**2>=0.000
       8 -> 20        -0.13097
      11 -> 31         0.13164
      12 -> 34         0.66371

 Excited State  86:      Singlet-B1    17.5212 eV   70.76 nm  f=0.0631  <S**2>=0.000
       8 -> 22         0.63627
      11 -> 32        -0.15976
      12 -> 36         0.14653

 Excited State  87:      Singlet-A2    17.6002 eV   70.44 nm  f=0.0000  <S**2>=0.000
      10 -> 30        -0.19834
      12 -> 28         0.12297
      12 -> 35         0.52931
      12 -> 37         0.36156

 Excited State  88:      Singlet-B1    17.6853 eV   70.11 nm  f=0.0000  <S**2>=0.000
       7 -> 21        -0.29184
       8 -> 24         0.16304
       9 -> 26        -0.16212
      10 -> 28         0.55304
      10 -> 31        -0.13839

 Excited State  89:      Singlet-B2    17.6953 eV   70.07 nm  f=0.0076  <S**2>=0.000
       6 -> 13        -0.12018
       7 -> 19         0.19951
       8 -> 20         0.11047
       8 -> 23        -0.11038
       9 -> 25        -0.20027
       9 -> 27         0.56193
      10 -> 29        -0.15201

 Excited State  90:      Singlet-A1    17.7218 eV   69.96 nm  f=0.1146  <S**2>=0.000
       8 -> 21        -0.20775
      11 -> 33         0.64213

 Excited State  91:      Singlet-B1    17.7896 eV   69.69 nm  f=0.0019  <S**2>=0.000
       8 -> 22        -0.16596
       8 -> 24        -0.11355
       9 -> 26         0.38682
      10 -> 28         0.14242
      10 -> 31         0.13828
      12 -> 36         0.49271

 Excited State  92:      Singlet-B1    17.9010 eV   69.26 nm  f=0.0771  <S**2>=0.000
       8 -> 24         0.19714
       9 -> 26        -0.42685
      10 -> 28        -0.23232
      12 -> 36         0.43121
      12 -> 39         0.11126

 Excited State  93:      Singlet-B2    18.0051 eV   68.86 nm  f=0.0031  <S**2>=0.000
       6 -> 13        -0.42365
       7 -> 19         0.45728
       9 -> 27        -0.21551
      11 -> 35        -0.10442

 Excited State  94:      Singlet-B2    18.0726 eV   68.60 nm  f=0.0070  <S**2>=0.000
       6 -> 13        -0.32307
       7 -> 19        -0.24192
       8 -> 23        -0.11070
      10 -> 29         0.42501
      11 -> 31         0.10911
      11 -> 35         0.22225
      11 -> 37         0.12888

 Excited State  95:      Singlet-A2    18.0901 eV   68.54 nm  f=0.0000  <S**2>=0.000
       7 -> 20        -0.10087
      10 -> 30         0.14279
      12 -> 35        -0.35405
      12 -> 37         0.56381

 Excited State  96:      Singlet-B1    18.1075 eV   68.47 nm  f=0.0029  <S**2>=0.000
       7 -> 18         0.12300
       7 -> 21         0.49823
       9 -> 26        -0.25877
      10 -> 28         0.26791
      10 -> 31         0.22363

 Excited State  97:      Singlet-B2    18.1602 eV   68.27 nm  f=0.0607  <S**2>=0.000
       6 -> 13         0.20934
       7 -> 19         0.26605
       8 -> 23         0.44365
       9 -> 27         0.14423
      10 -> 29         0.33080

 Excited State  98:      Singlet-A2    18.2407 eV   67.97 nm  f=0.0000  <S**2>=0.000
       7 -> 17         0.16445
       7 -> 20         0.60583
      10 -> 27        -0.19393
      10 -> 30         0.12814
      11 -> 34         0.16725

 Excited State  99:      Singlet-B2    18.2626 eV   67.89 nm  f=0.0154  <S**2>=0.000
       6 -> 13        -0.27305
       8 -> 23         0.42028
      10 -> 29        -0.35532
      11 -> 35         0.23556
      11 -> 37         0.13476

 Excited State 100:      Singlet-A2    18.3016 eV   67.74 nm  f=0.0000  <S**2>=0.000
       7 -> 20        -0.13872
      11 -> 34         0.65983
      11 -> 38         0.12552

 Excited State 101:      Singlet-A1    18.4441 eV   67.22 nm  f=0.0634  <S**2>=0.000
       6 -> 14         0.22960
       7 -> 22         0.51265
       9 -> 28        -0.35623

 Excited State 102:      Singlet-B2    18.4597 eV   67.16 nm  f=0.0614  <S**2>=0.000
      10 -> 32        -0.10488
      11 -> 35        -0.12251
      11 -> 37        -0.15882
      12 -> 38         0.64358

 Excited State 103:      Singlet-B1    18.4671 eV   67.14 nm  f=0.1290  <S**2>=0.000
       7 -> 21         0.20622
       8 -> 24         0.61169
       9 -> 26         0.19400

 Excited State 104:      Singlet-A2    18.4679 eV   67.13 nm  f=0.0000  <S**2>=0.000
       7 -> 20        -0.10898
       9 -> 29         0.10257
      10 -> 30         0.60610
      12 -> 35         0.25374

 Excited State 105:      Singlet-B2    18.5847 eV   66.71 nm  f=0.0004  <S**2>=0.000
       6 -> 13         0.13430
       6 -> 15         0.58587
       6 -> 18         0.14751
       9 -> 27        -0.13119
       9 -> 30        -0.21827

 Excited State 106:      Singlet-A1    18.6021 eV   66.65 nm  f=0.0014  <S**2>=0.000
       5 -> 13        -0.22190

 The electronic state is 1-A1.
 Alpha  occ. eigenvalues --  -19.28261 -10.35710 -10.35682  -1.18806  -0.76470
 Alpha  occ. eigenvalues --   -0.72894  -0.60985  -0.57906  -0.49757  -0.46967
 Alpha  occ. eigenvalues --   -0.40397  -0.36583
 Alpha virt. eigenvalues --    0.09436   0.11294   0.13252   0.14061   0.16315
 Alpha virt. eigenvalues --    0.17875   0.21215   0.22096   0.22523   0.23587
 Alpha virt. eigenvalues --    0.26072   0.26893   0.29522   0.33099   0.35762

 Mulliken charges:
               1
     1  C    0.475877
     2  C    0.475877
     3  O   -0.632021
     4  H   -0.079933
     5  H   -0.079933
     6  H   -0.079933
     7  H   -0.079933
 Sum of Mulliken charges =   0.00000

 Dipole moment (field-independent basis, Debye):
    X=             -0.0000    Y=             -0.0000    Z=             -1.9108  Tot=              1.9108
 Quadrupole moment (field-independent basis, Debye-Ang):
   XX=            -17.4555   YY=            -16.4035   ZZ=            -20.8957
   XY=              0.0000   XZ=              0.0000   YZ=              0.0000

 Normal termination of Gaussian 16 at Sat Feb 12 21:40:58 2022.
