 Gaussian 16, Revision C.01,
 Gaussian 16:  EM64L-G16RevC.01  3-Jul-2019

 ----------------------------------------------------------------------
 #P TD(Nstates=10000) wB97XD/Gen SCF(maxcycles=100) Int(Grid=ultrafine)
 ----------------------------------------------------------------------

 ---------------------
 xGDB7_00001_tier4.com
 ---------------------
 Symbolic Z-matrix:
 Charge =  0 Multiplicity = 1

                         Standard orientation:
 ---------------------------------------------------------------------
 Center     Atomic      Atomic             Coordinates (Angstroms)
 Number     Number       Type             X           Y           Z
 ---------------------------------------------------------------------
      1          6           0       -1.138620   -0.501990    0.000000
      2          6           0        0.000000    0.471603    0.000000
      3          6           0        1.292906    0.148161    0.000000
      4          1           0       -1.780817   -0.357312    0.883924
      5          1           0       -0.783052   -1.542798    0.000000
      6          1           0       -1.780817   -0.357312   -0.883924
      7          1           0       -0.274976    1.533816    0.000000
      8          1           0        1.620949   -0.896549    0.000000
      9          1           0        2.072996    0.913508    0.000000
 ---------------------------------------------------------------------

 SCF Done:  E(RwB97XD) =  -117.786683889     A.U. after   13 cycles

 Excitation energies and oscillator strengths:

 Excited State   1:      Singlet-A"     7.4528 eV  166.36 nm  f=0.0325  <S**2>=0.000
      12 -> 14         0.66170
      12 -> 15        -0.13193
      12 -> 16        -0.18776
 This state for optimization and/or second-order correction.
 Total Energy, E(TD-HF/TD-DFT) =  -117.512797803
 Copying the excited state density for this state as the 1-particle RhoCI density.

 Excited State   2:      Singlet-A'     7.5441 eV  164.35 nm  f=0.4239  <S**2>=0.000
      12 -> 13         0.69807

 Excited State   3:      Singlet-A"     8.2080 eV  151.05 nm  f=0.0008  <S**2>=0.000
      11 -> 13         0.44275
      12 -> 15        -0.27496
      12 -> 16         0.44682

 Excited State   4:      Singlet-A"     8.3136 eV  149.13 nm  f=0.0003  <S**2>=0.000
      11 -> 13         0.54174
      12 -> 15         0.21150
      12 -> 16        -0.38567

 Excited State   5:      Singlet-A"     8.4406 eV  146.89 nm  f=0.0299  <S**2>=0.000
      12 -> 14         0.19759
      12 -> 15         0.59057
      12 -> 16         0.29468

 Excited State   6:      Singlet-A"     9.1673 eV  135.25 nm  f=0.0008  <S**2>=0.000
       7 -> 13         0.11083
       8 -> 13        -0.17256
      10 -> 13         0.66466

 Excited State   7:      Singlet-A"     9.5334 eV  130.05 nm  f=0.0015  <S**2>=0.000
      12 -> 16        -0.11379
      12 -> 17         0.66777
      12 -> 22        -0.12723

 Excited State   8:      Singlet-A"     9.8413 eV  125.98 nm  f=0.0572  <S**2>=0.000
      12 -> 19         0.68741

 Excited State   9:      Singlet-A'     9.9068 eV  125.15 nm  f=0.0113  <S**2>=0.000
      11 -> 14         0.53246
      11 -> 16        -0.11115
      12 -> 18         0.41438

 Excited State  10:      Singlet-A'     9.9769 eV  124.27 nm  f=0.0897  <S**2>=0.000
      11 -> 14        -0.40009
      11 -> 16         0.13428
      12 -> 18         0.53556
      12 -> 21         0.10242

 Excited State  11:      Singlet-A"    10.4348 eV  118.82 nm  f=0.0000  <S**2>=0.000
       8 -> 13         0.66759
      10 -> 13         0.16490

 Excited State  12:      Singlet-A'    10.4464 eV  118.69 nm  f=0.0433  <S**2>=0.000
      10 -> 14         0.60200
      10 -> 15         0.11049
      11 -> 15         0.31049

 Excited State  13:      Singlet-A"    10.5980 eV  116.99 nm  f=0.0056  <S**2>=0.000
      12 -> 20         0.65817
      12 -> 22         0.18721

 Excited State  14:      Singlet-A'    10.7250 eV  115.60 nm  f=0.2811  <S**2>=0.000
      11 -> 14         0.13003
      11 -> 15        -0.16049
      11 -> 16         0.63609
      12 -> 21         0.14620

 Excited State  15:      Singlet-A'    10.7612 eV  115.21 nm  f=0.0309  <S**2>=0.000
       9 -> 13         0.10626
      10 -> 14        -0.19812
      11 -> 15         0.45781
      12 -> 21         0.42689

 Excited State  16:      Singlet-A"    10.8776 eV  113.98 nm  f=0.0854  <S**2>=0.000
      12 -> 17         0.12467
      12 -> 20        -0.15186
      12 -> 22         0.64619
      12 -> 23        -0.10375

 Excited State  17:      Singlet-A'    10.9169 eV  113.57 nm  f=0.0821  <S**2>=0.000
       8 -> 14        -0.12347
       9 -> 13         0.10252
      10 -> 14         0.22232
      11 -> 14        -0.10954
      11 -> 15        -0.33403
      11 -> 16        -0.20805
      12 -> 21         0.47592

 Excited State  18:      Singlet-A'    11.1916 eV  110.78 nm  f=0.0349  <S**2>=0.000
       9 -> 13         0.67598
      12 -> 21        -0.14674

 Excited State  19:      Singlet-A"    11.3542 eV  109.20 nm  f=0.0002  <S**2>=0.000
       7 -> 13        -0.10106
      12 -> 23         0.66507

 Excited State  20:      Singlet-A'    11.4759 eV  108.04 nm  f=0.0304  <S**2>=0.000
       8 -> 14         0.13739
      10 -> 15         0.18037
      10 -> 16         0.54450
      11 -> 17        -0.10113
      12 -> 24         0.30655

 Excited State  21:      Singlet-A"    11.5751 eV  107.11 nm  f=0.1284  <S**2>=0.000
       9 -> 14         0.62946
       9 -> 15         0.26358

 Excited State  22:      Singlet-A'    11.6105 eV  106.79 nm  f=0.0466  <S**2>=0.000
      10 -> 15         0.37176
      10 -> 16        -0.39018
      10 -> 17        -0.10101
      12 -> 24         0.39197

 Excited State  23:      Singlet-A'    11.7100 eV  105.88 nm  f=0.0197  <S**2>=0.000
      10 -> 14        -0.11233
      10 -> 15         0.48141
      10 -> 17        -0.10227
      10 -> 19        -0.11322
      11 -> 17         0.10590
      12 -> 24        -0.40024

 Excited State  24:      Singlet-A"    11.7656 eV  105.38 nm  f=0.0033  <S**2>=0.000
       7 -> 13         0.66947
      10 -> 13        -0.11773
      12 -> 23         0.10225

 Excited State  25:      Singlet-A'    11.9807 eV  103.49 nm  f=0.0519  <S**2>=0.000
       8 -> 14        -0.10398
       8 -> 15        -0.14551
      11 -> 17         0.62036
      11 -> 19        -0.14035
      12 -> 24         0.13491

 Excited State  26:      Singlet-A"    12.1087 eV  102.39 nm  f=0.0000  <S**2>=0.000
       8 -> 18         0.11019
      10 -> 18         0.13465
      11 -> 18         0.65381
      11 -> 21         0.12102

 Excited State  27:      Singlet-A"    12.2450 eV  101.25 nm  f=0.0650  <S**2>=0.000
       9 -> 14         0.12937
      10 -> 18         0.12776
      12 -> 25         0.62944

 Excited State  28:      Singlet-A'    12.2530 eV  101.19 nm  f=0.0067  <S**2>=0.000
       8 -> 14         0.61409
      10 -> 16        -0.11133
      10 -> 17         0.15880
      11 -> 15        -0.15012
      11 -> 19        -0.12132

 Excited State  29:      Singlet-A'    12.3283 eV  100.57 nm  f=0.1430  <S**2>=0.000
       8 -> 15        -0.12190
       8 -> 16        -0.12495
      11 -> 17         0.13839
      11 -> 19         0.63872

 Excited State  30:      Singlet-A'    12.5505 eV   98.79 nm  f=0.1331  <S**2>=0.000
       7 -> 15         0.12499
       8 -> 14        -0.16990
       8 -> 16        -0.10334
      10 -> 17         0.56931
      11 -> 20         0.21580

 Excited State  31:      Singlet-A"    12.6234 eV   98.22 nm  f=0.0460  <S**2>=0.000
       7 -> 18        -0.10285
       9 -> 16        -0.15448
      10 -> 18         0.61341
      11 -> 18        -0.11065
      12 -> 25        -0.14116
      12 -> 27        -0.14649

 Excited State  32:      Singlet-A'    12.6795 eV   97.78 nm  f=0.0520  <S**2>=0.000
       8 -> 15        -0.26846
       8 -> 16         0.40019
      10 -> 17         0.16463
      10 -> 19        -0.22032
      11 -> 20        -0.38947

 Excited State  33:      Singlet-A"    12.7266 eV   97.42 nm  f=0.0045  <S**2>=0.000
       9 -> 16         0.63151
       9 -> 20        -0.12696
      10 -> 18         0.15974
      11 -> 21        -0.12393

 Excited State  34:      Singlet-A"    12.8094 eV   96.79 nm  f=0.0038  <S**2>=0.000
       9 -> 16        -0.13286
      10 -> 18         0.12335
      12 -> 27         0.64039
      12 -> 28        -0.17318

 Excited State  35:      Singlet-A'    12.9634 eV   95.64 nm  f=0.0368  <S**2>=0.000
      11 -> 20         0.16543
      11 -> 22         0.16712
      12 -> 26         0.61394

 Excited State  36:      Singlet-A'    13.0559 eV   94.96 nm  f=0.1051  <S**2>=0.000
       8 -> 15        -0.25292
       8 -> 16        -0.14892
      10 -> 19         0.49478
      11 -> 20        -0.24847
      11 -> 22        -0.16061

 Excited State  37:      Singlet-A"    13.0722 eV   94.85 nm  f=0.0752  <S**2>=0.000
       9 -> 16         0.11833
      10 -> 21         0.15361
      11 -> 18        -0.11833
      11 -> 21         0.62510
      11 -> 24        -0.11576

 Excited State  38:      Singlet-A"    13.1132 eV   94.55 nm  f=0.0009  <S**2>=0.000
       9 -> 14        -0.21489
       9 -> 15         0.54554
       9 -> 17        -0.33472

 Excited State  39:      Singlet-A'    13.1666 eV   94.17 nm  f=0.0380  <S**2>=0.000
       7 -> 15         0.10403
       8 -> 16         0.35980
       8 -> 17         0.11677
      10 -> 19         0.32820
      10 -> 20        -0.23825
      11 -> 19         0.11210
      11 -> 20         0.16653
      11 -> 22         0.25757
      12 -> 26        -0.16789

 Excited State  40:      Singlet-A'    13.2297 eV   93.72 nm  f=0.2750  <S**2>=0.000
       7 -> 14        -0.19060
       8 -> 15         0.47598
       8 -> 16         0.12834
      10 -> 17         0.18917
      11 -> 17         0.15587
      11 -> 20        -0.17185
      11 -> 22        -0.20216
      12 -> 26         0.16769

 Excited State  41:      Singlet-A"    13.2858 eV   93.32 nm  f=0.0007  <S**2>=0.000
       9 -> 15        -0.10800
       9 -> 17        -0.12168
      12 -> 27         0.18936
      12 -> 28         0.62439

 Excited State  42:      Singlet-A'    13.3072 eV   93.17 nm  f=0.0328  <S**2>=0.000
       8 -> 15         0.14924
       8 -> 16        -0.26413
       8 -> 17         0.10226
       9 -> 18         0.12040
      11 -> 20        -0.31424
      11 -> 22         0.49121

 Excited State  43:      Singlet-A'    13.5133 eV   91.75 nm  f=0.0054  <S**2>=0.000
       7 -> 14        -0.18153
       7 -> 16         0.20184
       8 -> 16         0.19351
       9 -> 18         0.34328
      10 -> 19         0.11920
      10 -> 20         0.42763
      10 -> 22        -0.10211
      11 -> 20         0.10317

 Excited State  44:      Singlet-A"    13.5173 eV   91.72 nm  f=0.0166  <S**2>=0.000
       9 -> 15        -0.10825
       9 -> 17        -0.21722
       9 -> 19         0.20607
      10 -> 21         0.54778
      11 -> 21        -0.17617
      12 -> 28        -0.10209

 Excited State  45:      Singlet-A'    13.6122 eV   91.08 nm  f=0.0011  <S**2>=0.000
       7 -> 14         0.57517
       8 -> 15         0.15069
      10 -> 15         0.13208
      10 -> 20         0.13052
      11 -> 23        -0.21137

 Excited State  46:      Singlet-A"    13.7608 eV   90.10 nm  f=0.0130  <S**2>=0.000
       8 -> 18        -0.21920
       9 -> 15         0.11802
       9 -> 17         0.18982
      10 -> 21         0.13314
      11 -> 24         0.57679

 Excited State  47:      Singlet-A'    13.8008 eV   89.84 nm  f=0.0630  <S**2>=0.000
       7 -> 14         0.15618
       8 -> 19        -0.18628
       9 -> 18        -0.15983
      10 -> 20         0.21517
      10 -> 22        -0.13228
      11 -> 23         0.50210
      12 -> 29         0.15958

 Excited State  48:      Singlet-A"    13.8587 eV   89.46 nm  f=0.0225  <S**2>=0.000
       6 -> 13        -0.11770
       9 -> 15         0.19025
       9 -> 17         0.40320
       9 -> 19        -0.14389
       9 -> 23        -0.11139
      10 -> 21         0.31880
      11 -> 24        -0.28645
      12 -> 28         0.14496

 Excited State  49:      Singlet-A'    13.8788 eV   89.33 nm  f=0.1919  <S**2>=0.000
       7 -> 16         0.19834
       8 -> 17         0.29899
       8 -> 22        -0.10378
       9 -> 18        -0.33526
      10 -> 20         0.19506
      10 -> 22         0.37708
      10 -> 23        -0.12565

 Excited State  50:      Singlet-A'    14.1460 eV   87.65 nm  f=0.1437  <S**2>=0.000
       7 -> 16        -0.19845
       8 -> 17         0.27474
      10 -> 22        -0.21372
      11 -> 22        -0.11418
      12 -> 29         0.50729

 Excited State  51:      Singlet-A'    14.2003 eV   87.31 nm  f=0.1330  <S**2>=0.000
       7 -> 15         0.11563
       7 -> 19         0.10749
       8 -> 17        -0.12408
       8 -> 19        -0.14091
       9 -> 18         0.27177
      10 -> 22         0.42276
      10 -> 23         0.15102
      10 -> 25         0.10187
      11 -> 25         0.10843
      12 -> 29         0.28918

 Excited State  52:      Singlet-A'    14.2825 eV   86.81 nm  f=0.0483  <S**2>=0.000
       7 -> 15        -0.26742
       8 -> 17         0.27821
       8 -> 19        -0.27379
       8 -> 20         0.14337
       9 -> 18         0.18604
       9 -> 21         0.16055
      10 -> 20        -0.19276
      10 -> 23        -0.21220
      11 -> 22        -0.11327
      11 -> 23         0.16644
      11 -> 25         0.10838
      12 -> 29        -0.11369

 Excited State  53:      Singlet-A"    14.3056 eV   86.67 nm  f=0.0051  <S**2>=0.000
       6 -> 13         0.24315
       8 -> 18         0.17466
       9 -> 15         0.14785
       9 -> 17         0.20083
       9 -> 19         0.46723
       9 -> 20        -0.11915
       9 -> 23        -0.17021
      10 -> 21        -0.10969
      12 -> 30         0.12504

 Excited State  54:      Singlet-A"    14.3775 eV   86.24 nm  f=0.0085  <S**2>=0.000
       6 -> 13        -0.20109
       7 -> 18        -0.10525
       8 -> 18         0.51691
       8 -> 21         0.18815
       9 -> 19        -0.10786
      10 -> 24        -0.20745
      11 -> 18        -0.10908
      11 -> 24         0.14650
      12 -> 30        -0.14595

 Excited State  55:      Singlet-A'    14.3813 eV   86.21 nm  f=0.0346  <S**2>=0.000
       7 -> 16         0.13256
       8 -> 19         0.42467
       9 -> 18         0.18754
      10 -> 20        -0.14510
      10 -> 23        -0.13770
      11 -> 23         0.27822
      11 -> 25        -0.30138

 Excited State  56:      Singlet-A'    14.4477 eV   85.82 nm  f=0.0093  <S**2>=0.000
       7 -> 14         0.11167
       7 -> 15         0.12555
       7 -> 16         0.34987
       7 -> 19        -0.10296
       8 -> 17        -0.12642
      10 -> 19        -0.12845
      10 -> 20        -0.14634
      10 -> 22        -0.14055
      10 -> 23        -0.26789
      10 -> 25        -0.16405
      11 -> 25         0.26209
      12 -> 29         0.18900

 Excited State  57:      Singlet-A"    14.4959 eV   85.53 nm  f=0.0158  <S**2>=0.000
       9 -> 19        -0.16958
       9 -> 20        -0.14214
       9 -> 23         0.12805
      12 -> 30         0.60401

 Excited State  58:      Singlet-A'    14.5323 eV   85.32 nm  f=0.0024  <S**2>=0.000
       7 -> 15         0.44974
       7 -> 16        -0.27470
       7 -> 17        -0.11310
      10 -> 20         0.14657
      10 -> 23        -0.24138
      11 -> 23         0.13505
      11 -> 25         0.13576
      12 -> 29        -0.11159

 Excited State  59:      Singlet-A'    14.6246 eV   84.78 nm  f=0.0058  <S**2>=0.000
       7 -> 15         0.31977
       7 -> 16         0.28402
       8 -> 17         0.23386
       8 -> 19        -0.14299
       8 -> 20        -0.12650
       9 -> 21         0.14425
      10 -> 22        -0.11966
      10 -> 23         0.28034
      11 -> 22        -0.13500
      12 -> 29        -0.15354

 Excited State  60:      Singlet-A"    14.6550 eV   84.60 nm  f=0.0308  <S**2>=0.000
       6 -> 13         0.38706
       7 -> 18         0.13430
       8 -> 18         0.13881
       8 -> 21         0.27140
       9 -> 19        -0.19137
      10 -> 24         0.31723
      11 -> 26         0.20511

 Excited State  61:      Singlet-A"    14.7831 eV   83.87 nm  f=0.0346  <S**2>=0.000
       6 -> 13        -0.14296
       9 -> 16         0.13187
       9 -> 19         0.14185
       9 -> 20         0.50858
       9 -> 22        -0.20531
       9 -> 23        -0.17636
      12 -> 30         0.24395
      12 -> 33        -0.12274

 Excited State  62:      Singlet-A'    14.8270 eV   83.62 nm  f=0.0528  <S**2>=0.000
       7 -> 15        -0.11664
       8 -> 19         0.27352
       9 -> 21         0.29941
      10 -> 23         0.17365
      10 -> 25        -0.13801
      11 -> 25         0.31072
      12 -> 31         0.33003

 Excited State  63:      Singlet-A'    14.8539 eV   83.47 nm  f=0.0004  <S**2>=0.000
       8 -> 17        -0.20886
       8 -> 19        -0.17204
       8 -> 20        -0.14767
       9 -> 21         0.41751
      10 -> 23        -0.20186
      11 -> 23        -0.11001
      11 -> 25        -0.28125
      12 -> 31         0.19557

 Excited State  64:      Singlet-A'    14.9586 eV   82.88 nm  f=0.0460  <S**2>=0.000
       9 -> 21        -0.33732
      12 -> 31         0.55176

 Excited State  65:      Singlet-A"    14.9844 eV   82.74 nm  f=0.3492  <S**2>=0.000
       6 -> 13        -0.37897
       8 -> 21         0.16297
       9 -> 19         0.15988
       9 -> 20        -0.18566
      10 -> 24         0.42076
      10 -> 26         0.10475
      11 -> 26         0.14197

 Excited State  66:      Singlet-A"    15.0188 eV   82.55 nm  f=0.0044  <S**2>=0.000
       8 -> 18        -0.28266
       8 -> 21         0.41954
      10 -> 24        -0.30729
      11 -> 24        -0.11073
      11 -> 26         0.26987

 Excited State  67:      Singlet-A"    15.1523 eV   81.83 nm  f=0.0019  <S**2>=0.000
      12 -> 32         0.64551
      12 -> 34         0.17381

 Excited State  68:      Singlet-A'    15.3048 eV   81.01 nm  f=0.1153  <S**2>=0.000
       7 -> 17        -0.17226
       8 -> 20         0.38917
      10 -> 23         0.13837
      10 -> 25        -0.35186
      11 -> 25        -0.26294
      11 -> 27         0.18946

 Excited State  69:      Singlet-A"    15.4052 eV   80.48 nm  f=0.0323  <S**2>=0.000
      12 -> 33         0.64505
      12 -> 34         0.16108

 Excited State  70:      Singlet-A"    15.4612 eV   80.19 nm  f=0.0299  <S**2>=0.000
       7 -> 18         0.12750
       8 -> 21        -0.29034
       8 -> 24         0.14620
       9 -> 22         0.18639
      10 -> 26        -0.11723
      11 -> 26         0.49757

 Excited State  71:      Singlet-A'    15.4693 eV   80.15 nm  f=0.0338  <S**2>=0.000
       7 -> 16         0.15797
       7 -> 19         0.12375
       8 -> 19         0.13415
       8 -> 20         0.27772
       9 -> 18        -0.10991
       9 -> 21         0.12406
      10 -> 22        -0.12966
      10 -> 23         0.10468
      10 -> 25         0.45437
      11 -> 27         0.16574

 Excited State  72:      Singlet-A"    15.5111 eV   79.93 nm  f=0.0001  <S**2>=0.000
       8 -> 21         0.12313
       9 -> 17        -0.15073
       9 -> 20         0.11230
       9 -> 22         0.53998
       9 -> 23        -0.15861
      11 -> 26        -0.20699
      12 -> 32        -0.10457

 Excited State  73:      Singlet-A'    15.5595 eV   79.68 nm  f=0.1745  <S**2>=0.000
       7 -> 17         0.45196
       7 -> 19        -0.24573
       8 -> 20         0.19878
      10 -> 27        -0.13010
      11 -> 28         0.29972

 Excited State  74:      Singlet-A'    15.5863 eV   79.55 nm  f=0.0427  <S**2>=0.000
       8 -> 22         0.55545
      10 -> 27        -0.11218
      11 -> 27         0.31754

 Excited State  75:      Singlet-A'    15.6273 eV   79.34 nm  f=0.2167  <S**2>=0.000
       8 -> 20        -0.27736
       8 -> 22        -0.25764
       8 -> 23        -0.15343
      10 -> 28         0.13541
      11 -> 27         0.49093

 Excited State  76:      Singlet-A"    15.7672 eV   78.63 nm  f=0.0050  <S**2>=0.000
       9 -> 23         0.14246
      12 -> 32        -0.14646
      12 -> 33        -0.13592
      12 -> 34         0.60121

 Excited State  77:      Singlet-A"    15.8595 eV   78.18 nm  f=0.1220  <S**2>=0.000
       7 -> 18        -0.34865
       7 -> 21        -0.16180
       8 -> 24         0.22812
       9 -> 22         0.10045
      10 -> 26         0.39563
      11 -> 29        -0.20791
      12 -> 34         0.16681

 Excited State  78:      Singlet-A'    15.9232 eV   77.86 nm  f=0.2267  <S**2>=0.000
       7 -> 17         0.19804
       7 -> 19         0.12187
       8 -> 23         0.53544
      11 -> 27         0.11920
      11 -> 28        -0.24898

 Excited State  79:      Singlet-A"    15.9444 eV   77.76 nm  f=0.0313  <S**2>=0.000
       7 -> 18        -0.26424
       7 -> 24        -0.14256
       8 -> 21        -0.19447
       8 -> 24        -0.35619
      10 -> 26         0.11368
      11 -> 26         0.15500
      11 -> 29         0.39602

 Excited State  80:      Singlet-A'    15.9596 eV   77.69 nm  f=0.0121  <S**2>=0.000
       6 -> 14         0.54098
       7 -> 17        -0.23441
       8 -> 23         0.14432
      10 -> 27        -0.20692
      11 -> 28         0.10498
      12 -> 35        -0.13670

 Excited State  81:      Singlet-A"    16.0263 eV   77.36 nm  f=0.0232  <S**2>=0.000
       9 -> 17         0.16123
       9 -> 19         0.18520
       9 -> 20         0.22881
       9 -> 22         0.14879
       9 -> 23         0.52581
      10 -> 26         0.18432

 Excited State  82:      Singlet-A'    16.0326 eV   77.33 nm  f=0.0398  <S**2>=0.000
       6 -> 14        -0.30676
       6 -> 16         0.14368
       7 -> 17        -0.21727
       8 -> 20        -0.13688
       8 -> 23         0.22795
      10 -> 27        -0.19310
      10 -> 28         0.15956
      11 -> 28         0.38493

 Excited State  83:      Singlet-A"    16.0898 eV   77.06 nm  f=0.0004  <S**2>=0.000

 The electronic state is 1-A'.
 Alpha  occ. eigenvalues --  -10.30517 -10.29755 -10.29079  -0.87965  -0.77543
 Alpha  occ. eigenvalues --   -0.63993  -0.55481  -0.50801  -0.49867  -0.45484
 Alpha  occ. eigenvalues --   -0.42741  -0.33999
 Alpha virt. eigenvalues --    0.08205   0.09709   0.12161   0.12675   0.17574
 Alpha virt. eigenvalues --    0.18588   0.19600   0.21170   0.22350   0.23111
 Alpha virt. eigenvalues --    0.24128   0.25710   0.27382   0.30242   0.30567

 Mulliken charges:
               1
     1  C    0.431420
     2  C   -0.392824
     3  C   -0.045682
     4  H    0.050053
     5  H    0.065815
     6  H    0.050053
     7  H   -0.160152
     8  H   -0.028277
     9  H    0.029595
 Sum of Mulliken charges =  -0.00000

 Dipole moment (field-independent basis, Debye):
    X=             -0.4068    Y=             -0.0523    Z=              0.0000  Tot=              0.4101
 Quadrupole moment (field-independent basis, Debye-Ang):
   XX=            -19.1083   YY=            -19.0968   ZZ=            -21.7914
   XY=             -0.2060   XZ=             -0.0000   YZ=              0.0000

 Normal termination of Gaussian 16 at Sat Feb 12 22:19:30 2022.
