 Gaussian 16, Revision C.01,
 Gaussian 16:  EM64L-G16RevC.01  3-Jul-2019

 ----------------------------------------------------------------------
 #P TD(Nstates=10000) wB97XD/Gen SCF(maxcycles=100) Int(Grid=ultrafine)
 ----------------------------------------------------------------------

 ---------------------
 xGDB7_00001_tier4.com
 ---------------------
 Symbolic Z-matrix:
 Charge =  0 Multiplicity = 1

                         Standard orientation:
 ---------------------------------------------------------------------
 Center     Atomic      Atomic             Coordinates (Angstroms)
 Number     Number       Type             X           Y           Z
 ---------------------------------------------------------------------
      1          7           0        1.112891   -0.176405   -0.045235
      2          6           0       -0.122478    0.417990    0.001125
      3          7           0       -1.274011   -0.120898    0.007267
      4          1           0        1.935384    0.373535    0.156455
      5          1           0        1.193153   -1.174898    0.097903
      6          1           0       -0.062395    1.518676    0.003527
      7          1           0       -1.203435   -1.144133    0.001137
 ---------------------------------------------------------------------

 SCF Done:  E(RwB97XD) =  -149.857276907     A.U. after   15 cycles

 Excitation energies and oscillator strengths:

 Excited State   1:      Singlet-A      6.4068 eV  193.52 nm  f=0.0072  <S**2>=0.000
      11 -> 13        -0.17193
      11 -> 14         0.65934
      12 -> 13         0.11104
      12 -> 14        -0.12744
 This state for optimization and/or second-order correction.
 Total Energy, E(TD-HF/TD-DFT) =  -149.621832163
 Copying the excited state density for this state as the 1-particle RhoCI density.

 Excited State   2:      Singlet-A      6.7180 eV  184.56 nm  f=0.0027  <S**2>=0.000
      12 -> 13         0.67817

 Excited State   3:      Singlet-A      7.2409 eV  171.23 nm  f=0.1814  <S**2>=0.000
      11 -> 13         0.17996
      11 -> 14         0.18214
      12 -> 14         0.64068

 Excited State   4:      Singlet-A      7.5950 eV  163.24 nm  f=0.0020  <S**2>=0.000
      12 -> 15         0.67394
      12 -> 16        -0.13589

 Excited State   5:      Singlet-A      7.7238 eV  160.52 nm  f=0.1350  <S**2>=0.000
      11 -> 13         0.56944
      11 -> 14         0.10993
      11 -> 15         0.14294
      11 -> 16        -0.30295
      12 -> 14        -0.18161

 Excited State   6:      Singlet-A      8.2347 eV  150.56 nm  f=0.0391  <S**2>=0.000
      10 -> 13         0.10862
      12 -> 15         0.14159
      12 -> 16         0.66710

 Excited State   7:      Singlet-A      8.3891 eV  147.79 nm  f=0.0927  <S**2>=0.000
      11 -> 13        -0.16733
      11 -> 15         0.65979
      11 -> 17         0.12014

 Excited State   8:      Singlet-A      9.0733 eV  136.65 nm  f=0.0362  <S**2>=0.000
      11 -> 13         0.26501
      11 -> 15         0.13283
      11 -> 16         0.59531
      11 -> 17        -0.15276

 Excited State   9:      Singlet-A      9.3528 eV  132.56 nm  f=0.0058  <S**2>=0.000
      10 -> 15        -0.13895
      12 -> 17         0.66257

 Excited State  10:      Singlet-A      9.6036 eV  129.10 nm  f=0.0030  <S**2>=0.000
      12 -> 18         0.68629

 Excited State  11:      Singlet-A     10.2077 eV  121.46 nm  f=0.0006  <S**2>=0.000
       9 -> 13        -0.17373
       9 -> 14         0.67076

 Excited State  12:      Singlet-A     10.4162 eV  119.03 nm  f=0.0184  <S**2>=0.000
      10 -> 13         0.18102
      10 -> 14        -0.20942
      11 -> 16         0.12814
      11 -> 17         0.58631
      11 -> 18        -0.13090

 Excited State  13:      Singlet-A     10.4846 eV  118.25 nm  f=0.0537  <S**2>=0.000
      10 -> 13         0.64595
      11 -> 17        -0.15923
      12 -> 19        -0.10131

 Excited State  14:      Singlet-A     10.5622 eV  117.38 nm  f=0.0156  <S**2>=0.000
      10 -> 13         0.13309
      10 -> 14         0.16884
      10 -> 15         0.10536
      12 -> 19         0.60636
      12 -> 20         0.18582

 Excited State  15:      Singlet-A     10.5657 eV  117.35 nm  f=0.0330  <S**2>=0.000
      10 -> 14        -0.10809
      11 -> 18         0.55923
      11 -> 20        -0.11344
      12 -> 20         0.33271

 Excited State  16:      Singlet-A     10.5955 eV  117.02 nm  f=0.0279  <S**2>=0.000
      10 -> 14        -0.31867
      11 -> 17        -0.20613
      11 -> 18        -0.30568
      12 -> 20         0.45731

 Excited State  17:      Singlet-A     10.8302 eV  114.48 nm  f=0.0624  <S**2>=0.000
       9 -> 13        -0.14063
      10 -> 14         0.48960
      12 -> 19        -0.28536
      12 -> 20         0.30948
      12 -> 21         0.13799

 Excited State  18:      Singlet-A     11.2187 eV  110.52 nm  f=0.1239  <S**2>=0.000
      10 -> 15        -0.28212
      11 -> 20        -0.22471
      12 -> 21         0.54683

 Excited State  19:      Singlet-A     11.3018 eV  109.70 nm  f=0.0212  <S**2>=0.000
      11 -> 19         0.59702
      11 -> 21        -0.27840
      11 -> 24         0.16948

 Excited State  20:      Singlet-A     11.3756 eV  108.99 nm  f=0.0295  <S**2>=0.000
      10 -> 15         0.57641
      11 -> 20        -0.17251
      12 -> 17         0.12806
      12 -> 20        -0.12169
      12 -> 21         0.25422
      12 -> 22        -0.11547

 Excited State  21:      Singlet-A     11.4557 eV  108.23 nm  f=0.0208  <S**2>=0.000
       9 -> 13         0.55835
       9 -> 14         0.14852
      10 -> 14         0.12817
      11 -> 20         0.32418

 Excited State  22:      Singlet-A     11.5356 eV  107.48 nm  f=0.0471  <S**2>=0.000
       9 -> 13        -0.30218
      10 -> 14        -0.14220
      11 -> 18         0.13853
      11 -> 19         0.15859
      11 -> 20         0.46866
      12 -> 21         0.24696

 Excited State  23:      Singlet-A     11.7286 eV  105.71 nm  f=0.0104  <S**2>=0.000
      10 -> 15         0.10231
      12 -> 22         0.66694

 Excited State  24:      Singlet-A     11.8684 eV  104.47 nm  f=0.0156  <S**2>=0.000
      11 -> 19         0.23047
      11 -> 20        -0.16067
      11 -> 21         0.58388
      11 -> 22         0.20504
      11 -> 26         0.12619

 Excited State  25:      Singlet-A     11.9693 eV  103.58 nm  f=0.0538  <S**2>=0.000
      10 -> 15         0.10831
      10 -> 16         0.27007
      12 -> 23         0.60016

 Excited State  26:      Singlet-A     12.0902 eV  102.55 nm  f=0.0664  <S**2>=0.000
      10 -> 16         0.60602
      12 -> 23        -0.29186

 Excited State  27:      Singlet-A     12.1237 eV  102.27 nm  f=0.0483  <S**2>=0.000
       9 -> 15        -0.19676
      11 -> 21        -0.17211
      11 -> 22         0.60569

 Excited State  28:      Singlet-A     12.2227 eV  101.44 nm  f=0.2479  <S**2>=0.000
       9 -> 15         0.64146
      11 -> 22         0.18631
      12 -> 24         0.10535

 Excited State  29:      Singlet-A     12.5693 eV   98.64 nm  f=0.0702  <S**2>=0.000
      11 -> 18         0.11054
      11 -> 22         0.11407
      11 -> 23         0.56993
      11 -> 25        -0.10952
      12 -> 24        -0.30996

 Excited State  30:      Singlet-A     12.7647 eV   97.13 nm  f=0.0359  <S**2>=0.000
       9 -> 15         0.11078
       9 -> 16         0.56219
      11 -> 23        -0.17293
      12 -> 24        -0.31353

 Excited State  31:      Singlet-A     13.0177 eV   95.24 nm  f=0.0795  <S**2>=0.000
       8 -> 13        -0.17034
       8 -> 14         0.27121
       9 -> 16         0.31007
      11 -> 23         0.24845
      12 -> 24         0.42408

 Excited State  32:      Singlet-A     13.0428 eV   95.06 nm  f=0.0373  <S**2>=0.000
       7 -> 14         0.10400
       8 -> 14         0.46120
       9 -> 16        -0.16807
      10 -> 18        -0.20980
      11 -> 23        -0.11166
      12 -> 24        -0.22754
      12 -> 25        -0.29404
      12 -> 27         0.10656

 Excited State  33:      Singlet-A     13.0889 eV   94.72 nm  f=0.0395  <S**2>=0.000
       8 -> 14         0.34178
      10 -> 16         0.10385
      10 -> 18         0.16430
      12 -> 25         0.52254
      12 -> 27        -0.11261

 Excited State  34:      Singlet-A     13.1896 eV   94.00 nm  f=0.0093  <S**2>=0.000
       8 -> 14        -0.12344
      10 -> 17         0.65507

 Excited State  35:      Singlet-A     13.3903 eV   92.59 nm  f=0.0045  <S**2>=0.000
      10 -> 18        -0.11630
      11 -> 19        -0.16269
      11 -> 24         0.64536
      11 -> 32         0.11490

 Excited State  36:      Singlet-A     13.4177 eV   92.40 nm  f=0.0286  <S**2>=0.000
       8 -> 14         0.10875
      10 -> 18         0.55132
      12 -> 23        -0.10941
      12 -> 25        -0.30433
      12 -> 26        -0.13219
      12 -> 27        -0.16012

 Excited State  37:      Singlet-A     13.6239 eV   91.00 nm  f=0.1432  <S**2>=0.000
      10 -> 18         0.14489
      10 -> 21        -0.17330
      12 -> 26         0.63336

 Excited State  38:      Singlet-A     13.9557 eV   88.84 nm  f=0.1102  <S**2>=0.000
       7 -> 14         0.11327
      10 -> 18         0.13253
      10 -> 19        -0.15408
      10 -> 20        -0.31494
      11 -> 24         0.10411
      12 -> 27         0.51903

 Excited State  39:      Singlet-A     14.0053 eV   88.53 nm  f=0.1108  <S**2>=0.000
       8 -> 13         0.20400
       8 -> 15         0.13650
       9 -> 17         0.38337
       9 -> 18        -0.17823
      11 -> 25         0.45058

 Excited State  40:      Singlet-A     14.0850 eV   88.03 nm  f=0.0191  <S**2>=0.000
       9 -> 17         0.45200
      10 -> 19         0.23073
      11 -> 25        -0.41023
      12 -> 24         0.11512

 Excited State  41:      Singlet-A     14.1462 eV   87.64 nm  f=0.0009  <S**2>=0.000
       8 -> 13         0.13162
       9 -> 18         0.53795
      10 -> 19         0.26441
      10 -> 20        -0.12774
      11 -> 25         0.17891
      12 -> 24         0.11458

 Excited State  42:      Singlet-A     14.2565 eV   86.97 nm  f=0.1032  <S**2>=0.000
       7 -> 14        -0.16309
       8 -> 13         0.47939
       8 -> 14         0.16375
       9 -> 17        -0.22266
       9 -> 18        -0.15353
      10 -> 19         0.15790
      11 -> 25        -0.14660
      11 -> 26        -0.20531
      11 -> 27        -0.11651

 Excited State  43:      Singlet-A     14.2726 eV   86.87 nm  f=0.0537  <S**2>=0.000
       7 -> 13        -0.21049
       7 -> 14         0.50358
       8 -> 13         0.17571
      11 -> 25        -0.15442
      11 -> 26         0.29797

 Excited State  44:      Singlet-A     14.3820 eV   86.21 nm  f=0.0096  <S**2>=0.000
       7 -> 13         0.15961
       8 -> 13        -0.15847
       9 -> 18        -0.21683
      10 -> 18         0.11111
      10 -> 19         0.46008
      10 -> 20         0.18625
      11 -> 26         0.11038
      12 -> 27         0.22819

 Excited State  45:      Singlet-A     14.4326 eV   85.91 nm  f=0.0064  <S**2>=0.000
       7 -> 14        -0.28644
       8 -> 13         0.13567
       9 -> 18         0.14015
      10 -> 19        -0.16584
      10 -> 20         0.34319
      11 -> 26         0.35314
      12 -> 27         0.17960

 Excited State  46:      Singlet-A     14.4359 eV   85.89 nm  f=0.0183  <S**2>=0.000
       7 -> 13         0.12903
       7 -> 14        -0.19835
       9 -> 18        -0.13592
      10 -> 20        -0.41038
      11 -> 26         0.42471
      12 -> 27        -0.12858

 Excited State  47:      Singlet-A     14.7309 eV   84.17 nm  f=0.1130  <S**2>=0.000
       7 -> 13         0.55953
       7 -> 14         0.18902
       8 -> 13         0.15890
       8 -> 16        -0.10219
       9 -> 19         0.17358
       9 -> 20         0.18738

 Excited State  48:      Singlet-A     14.8735 eV   83.36 nm  f=0.0639  <S**2>=0.000
       8 -> 13         0.11836
       8 -> 15        -0.15724
       9 -> 19        -0.12429
      10 -> 21         0.50462
      11 -> 27         0.30594
      12 -> 26         0.17561
      12 -> 28        -0.13453

 Excited State  49:      Singlet-A     14.9411 eV   82.98 nm  f=0.0618  <S**2>=0.000
       9 -> 19         0.57311
       9 -> 20        -0.25985
      11 -> 27         0.15680
      12 -> 29         0.12239

 Excited State  50:      Singlet-A     14.9997 eV   82.66 nm  f=0.0200  <S**2>=0.000
       8 -> 15        -0.23477
       8 -> 16         0.14199
       9 -> 20         0.22155
      10 -> 21        -0.35981
      11 -> 27         0.36952
      12 -> 28         0.12733

 Excited State  51:      Singlet-A     15.0897 eV   82.16 nm  f=0.0146  <S**2>=0.000
       8 -> 15        -0.12101
       9 -> 19        -0.10021
      10 -> 21         0.12170
      10 -> 23         0.14363
      12 -> 27        -0.11175
      12 -> 28         0.39248
      12 -> 29         0.44991
      12 -> 30         0.10258
      12 -> 31        -0.15119

 Excited State  52:      Singlet-A     15.1394 eV   81.90 nm  f=0.0357  <S**2>=0.000
       8 -> 15         0.49134
       9 -> 17        -0.13337
       9 -> 20         0.25598
      11 -> 27         0.14628
      12 -> 29         0.24278
      12 -> 32         0.13650

 Excited State  53:      Singlet-A     15.2069 eV   81.53 nm  f=0.0282  <S**2>=0.000
       7 -> 13        -0.18342
       7 -> 15        -0.13027
       8 -> 15        -0.16204
       8 -> 16        -0.16192
       9 -> 19         0.23120
       9 -> 20         0.43329
      10 -> 19         0.11658
      10 -> 21         0.12948
      11 -> 27        -0.19240
      12 -> 28         0.12200
      12 -> 29        -0.10850

 Excited State  54:      Singlet-A     15.2297 eV   81.41 nm  f=0.0249  <S**2>=0.000
       8 -> 15         0.21865
      10 -> 21         0.10034
      10 -> 22        -0.10581
      10 -> 23        -0.16151
      11 -> 27         0.10508
      12 -> 28         0.48979
      12 -> 29        -0.29194
      12 -> 31         0.11238

 Excited State  55:      Singlet-A     15.3680 eV   80.68 nm  f=0.0007  <S**2>=0.000
      10 -> 22         0.40601
      12 -> 29        -0.10990
      12 -> 30         0.52466

 Excited State  56:      Singlet-A     15.5536 eV   79.71 nm  f=0.0362  <S**2>=0.000
       7 -> 15        -0.15860
       8 -> 16        -0.16601
       9 -> 21         0.61184

 Excited State  57:      Singlet-A     15.6480 eV   79.23 nm  f=0.1668  <S**2>=0.000
       7 -> 15        -0.14190
       8 -> 16        -0.25580
       9 -> 20        -0.12238
       9 -> 21        -0.22905
       9 -> 22         0.13047
      10 -> 22         0.29199
      10 -> 23        -0.15091
      10 -> 24        -0.11860
      12 -> 30        -0.25257
      12 -> 32         0.27013

 Excited State  58:      Singlet-A     15.7352 eV   78.79 nm  f=0.0516  <S**2>=0.000
       7 -> 15        -0.20727
       8 -> 16        -0.18279
       9 -> 21        -0.13718
      10 -> 22        -0.25591
      10 -> 23        -0.10053
      11 -> 29        -0.12983
      12 -> 29         0.18098
      12 -> 30         0.27896
      12 -> 31         0.34397
      12 -> 34         0.10770

 Excited State  59:      Singlet-A     15.7530 eV   78.71 nm  f=0.0813  <S**2>=0.000
       7 -> 15         0.19042
       8 -> 16         0.13775
       9 -> 22        -0.10016
      10 -> 22         0.13239
      10 -> 23        -0.12488
      11 -> 27        -0.10505
      11 -> 29         0.31887
      12 -> 29         0.15261
      12 -> 31         0.44160

 Excited State  60:      Singlet-A     15.8012 eV   78.47 nm  f=0.0075  <S**2>=0.000
       7 -> 15        -0.13540
      10 -> 22        -0.14796
      10 -> 23         0.12183
      11 -> 28        -0.30275
      11 -> 29         0.37511
      11 -> 31        -0.31232
      11 -> 33        -0.10590
      12 -> 30         0.10635
      12 -> 31        -0.15188
      12 -> 32         0.10928

 Excited State  61:      Singlet-A     15.8618 eV   78.17 nm  f=0.0393  <S**2>=0.000
       7 -> 15         0.19263
       8 -> 16        -0.12926
      10 -> 22        -0.18257
      10 -> 23        -0.17082
      11 -> 28         0.35363
      11 -> 29         0.27133
      11 -> 31         0.12615
      12 -> 30         0.13429
      12 -> 31        -0.12464
      12 -> 32         0.25467

 Excited State  62:      Singlet-A     15.9125 eV   77.92 nm  f=0.0299  <S**2>=0.000
       7 -> 15         0.18379
       8 -> 16        -0.17528
      10 -> 23         0.53659
      12 -> 29        -0.12347
      12 -> 31         0.24821

 Excited State  63:      Singlet-A     15.9522 eV   77.72 nm  f=0.0523  <S**2>=0.000
       7 -> 15         0.43636
       8 -> 16        -0.28644
      10 -> 23        -0.14285
      11 -> 28        -0.26127
      11 -> 29        -0.21127
      11 -> 31        -0.12103

 Excited State  64:      Singlet-A     16.0447 eV   77.27 nm  f=0.0188  <S**2>=0.000
       8 -> 16         0.25272
       9 -> 22         0.22611
      10 -> 22        -0.10976
      10 -> 24        -0.12595
      11 -> 27        -0.14104
      11 -> 28        -0.17413
      11 -> 29        -0.17610
      11 -> 30         0.16523
      11 -> 31        -0.11856
      11 -> 32        -0.26293
      12 -> 32         0.28989

 Excited State  65:      Singlet-A     16.1487 eV   76.78 nm  f=0.0217  <S**2>=0.000
       7 -> 15        -0.11050
       8 -> 16        -0.12210
       9 -> 22        -0.31845
      10 -> 24         0.11363
      11 -> 30         0.35460
      11 -> 31        -0.10972
      11 -> 32        -0.34405
      11 -> 34        -0.11520
      12 -> 32        -0.11376

 Excited State  66:      Singlet-A     16.2209 eV   76.43 nm  f=0.0181  <S**2>=0.000
       8 -> 18        -0.13208
       9 -> 22        -0.19765
       9 -> 23         0.21804
      11 -> 29        -0.13013
      11 -> 30         0.28012
      11 -> 32         0.43850
      12 -> 32         0.19490

 Excited State  67:      Singlet-A     16.3140 eV   76.00 nm  f=0.0054  <S**2>=0.000
       8 -> 18         0.13631
       9 -> 22         0.38035
      11 -> 30         0.37047
      11 -> 31        -0.12054
      11 -> 32         0.12385
      12 -> 32        -0.24529
      12 -> 34         0.12938

 Excited State  68:      Singlet-A     16.4474 eV   75.38 nm  f=0.0055  <S**2>=0.000
       7 -> 16         0.41788
       7 -> 18         0.12017
       8 -> 17         0.12821
       8 -> 18        -0.11405
       9 -> 23         0.34930
      11 -> 30        -0.19758
      11 -> 31        -0.11959
      12 -> 34         0.10281

 Excited State  69:      Singlet-A     16.4866 eV   75.20 nm  f=0.0372  <S**2>=0.000
       6 -> 14        -0.20881
       7 -> 16         0.10211
      10 -> 25        -0.28974
      10 -> 27         0.10722
      12 -> 33         0.52252

 Excited State  70:      Singlet-A     16.5470 eV   74.93 nm  f=0.0595  <S**2>=0.000
       7 -> 16         0.22119
       8 -> 18         0.14099
       9 -> 23        -0.15459
      10 -> 24         0.36316
      11 -> 28         0.19514
      11 -> 31        -0.25590
      12 -> 34        -0.28251

 Excited State  71:      Singlet-A     16.6038 eV   74.67 nm  f=0.0114  <S**2>=0.000
       9 -> 23        -0.21059
      10 -> 22         0.10827
      10 -> 25         0.10279
      11 -> 27        -0.10755
      11 -> 28         0.14307
      11 -> 31        -0.21301
      12 -> 34         0.49211
      12 -> 36         0.12225

 Excited State  72:      Singlet-A     16.6473 eV   74.48 nm  f=0.0069  <S**2>=0.000
       7 -> 16        -0.38315
       9 -> 22         0.12152
       9 -> 23         0.40282
      10 -> 24         0.22163
      11 -> 30        -0.16602
      11 -> 31        -0.19072

 Excited State  73:      Singlet-A     16.7189 eV   74.16 nm  f=0.0142  <S**2>=0.000
       7 -> 16         0.11123
      10 -> 24         0.43813
      11 -> 28        -0.22880
      11 -> 31         0.31443
      12 -> 32         0.17028
      12 -> 34         0.18041

 Excited State  74:      Singlet-A     16.8386 eV   73.63 nm  f=0.0975  <S**2>=0.000
       6 -> 13        -0.17626
       6 -> 14         0.49101
       9 -> 24         0.29393
      10 -> 25        -0.15946
      11 -> 32        -0.12351
      12 -> 33         0.13599

 Excited State  75:      Singlet-A     16.8673 eV   73.51 nm  f=0.0039  <S**2>=0.000
      10 -> 25         0.54712
      12 -> 33         0.35993
      12 -> 34        -0.13116

 Excited State  76:      Singlet-A     16.9963 eV   72.95 nm  f=0.1051  <S**2>=0.000
       6 -> 13         0.14780
       6 -> 14        -0.17745
       8 -> 17         0.30026
       8 -> 19         0.17526
       8 -> 21        -0.11481
       9 -> 23        -0.11242
       9 -> 24         0.45233
      10 -> 25         0.10269
      12 -> 35        -0.10975

 Excited State  77:      Singlet-A     17.0437 eV   72.74 nm  f=0.1328  <S**2>=0.000
       6 -> 14         0.17553
       7 -> 16        -0.11728
       8 -> 17         0.45868
       8 -> 18        -0.15421
       9 -> 23        -0.15202
       9 -> 24        -0.29492
      11 -> 34         0.10930

 Excited State  78:      Singlet-A     17.1581 eV   72.26 nm  f=0.0559  <S**2>=0.000
       6 -> 13        -0.14476
       6 -> 14        -0.13556
       8 -> 18         0.29059
       9 -> 22        -0.10255
      10 -> 26         0.18430
      11 -> 33         0.36492
      11 -> 34         0.22021
      11 -> 36         0.14331
      12 -> 35         0.24535

 Excited State  79:      Singlet-A     17.1912 eV   72.12 nm  f=0.0709  <S**2>=0.000
       6 -> 13         0.17967
       7 -> 16        -0.10162
       8 -> 17         0.20250
       8 -> 18         0.30992
      10 -> 26         0.16451
      11 -> 33        -0.29898
      11 -> 34        -0.16888
      11 -> 36        -0.11193
      12 -> 35         0.28622

 Excited State  80:      Singlet-A     17.3029 eV   71.66 nm  f=0.0419  <S**2>=0.000
       6 -> 13        -0.19079
       8 -> 18        -0.34689

 The electronic state is 1-A.
 Alpha  occ. eigenvalues --  -14.47472 -14.41092 -10.37287  -1.04179  -0.94370
 Alpha  occ. eigenvalues --   -0.71342  -0.63401  -0.60218  -0.49688  -0.46980
 Alpha  occ. eigenvalues --   -0.35204  -0.33254
 Alpha virt. eigenvalues --    0.08594   0.09641   0.11848   0.13810   0.18591
 Alpha virt. eigenvalues --    0.20211   0.22929   0.23365   0.25407   0.27367
 Alpha virt. eigenvalues --    0.28217   0.30826   0.32736   0.34178   0.36592

 Mulliken charges:
               1
     1  N    0.024749
     2  C    0.563678
     3  N   -0.196213
     4  H   -0.051439
     5  H   -0.081682
     6  H   -0.247125
     7  H   -0.011967
 Sum of Mulliken charges =  -0.00000

 Dipole moment (field-independent basis, Debye):
    X=              3.5651    Y=             -0.7488    Z=              0.4941  Tot=              3.6763
 Quadrupole moment (field-independent basis, Debye-Ang):
   XX=            -20.5680   YY=            -14.5901   ZZ=            -20.7204
   XY=              1.2877   XZ=              1.0101   YZ=             -0.1323

 Normal termination of Gaussian 16 at Sat Feb 12 22:19:31 2022.
