 Gaussian 16, Revision C.01,
 Gaussian 16:  EM64L-G16RevC.01  3-Jul-2019

 ----------------------------------------------------------------------
 #P TD(Nstates=10000) wB97XD/Gen SCF(maxcycles=100) Int(Grid=ultrafine)
 ----------------------------------------------------------------------

 ---------------------
 xGDB7_00001_tier4.com
 ---------------------
 Symbolic Z-matrix:
 Charge =  0 Multiplicity = 1

                         Standard orientation:
 ---------------------------------------------------------------------
 Center     Atomic      Atomic             Coordinates (Angstroms)
 Number     Number       Type             X           Y           Z
 ---------------------------------------------------------------------
      1          6           0        0.000000    0.000000    0.603394
      2          6           0        0.000000    0.000000   -0.603394
      3          1           0        0.000000    0.000000    1.677978
      4          1           0        0.000000    0.000000   -1.677978
 ---------------------------------------------------------------------

 SCF Done:  E(RwB97XD) =  -77.2419461740     A.U. after   12 cycles

 Excitation energies and oscillator strengths:

 Excited state symmetry could not be determined.
 Excited State   1:      Singlet-?Sym    6.7085 eV  184.82 nm  f=0.0000  <S**2>=0.000
       6 ->  9        -0.49687
       7 ->  8         0.49687
 This state for optimization and/or second-order correction.
 Total Energy, E(TD-HF/TD-DFT) =  -76.9954148903
 Copying the excited state density for this state as the 1-particle RhoCI density.

 Excited state symmetry could not be determined.
 Excited State   2:      Singlet-?Sym    6.9610 eV  178.11 nm  f=0.0000  <S**2>=0.000
       6 ->  9         0.49795
       7 ->  8         0.49795

 Excited state symmetry could not be determined.
 Excited State   3:      Singlet-?Sym    6.9610 eV  178.11 nm  f=0.0000  <S**2>=0.000
       6 ->  8        -0.49795
       7 ->  9         0.49795

 Excited state symmetry could not be determined.
 Excited State   4:      Singlet-?Sym    8.4767 eV  146.26 nm  f=0.1217  <S**2>=0.000
       6 -> 10        -0.35676
       7 -> 10         0.60406

 Excited state symmetry could not be determined.
 Excited State   5:      Singlet-?Sym    8.4767 eV  146.26 nm  f=0.1217  <S**2>=0.000
       6 -> 10         0.60406
       7 -> 10         0.35676

 Excited state symmetry could not be determined.
 Excited State   6:      Singlet-?Sym    8.9723 eV  138.19 nm  f=0.0000  <S**2>=0.000
       6 -> 11         0.63886
       7 -> 11         0.28284

 Excited state symmetry could not be determined.
 Excited State   7:      Singlet-?Sym    8.9723 eV  138.19 nm  f=0.0000  <S**2>=0.000
       6 -> 11        -0.28284
       7 -> 11         0.63886

 Excited state symmetry could not be determined.
 Excited State   8:      Singlet-?Sym   10.2051 eV  121.49 nm  f=0.0306  <S**2>=0.000
       6 -> 12         0.23940
       7 -> 12         0.65428

 Excited state symmetry could not be determined.
 Excited State   9:      Singlet-?Sym   10.2051 eV  121.49 nm  f=0.0306  <S**2>=0.000
       6 -> 12         0.65428
       7 -> 12        -0.23940

 Excited state symmetry could not be determined.
 Excited State  10:      Singlet-?Sym   10.3526 eV  119.76 nm  f=0.8761  <S**2>=0.000
       6 ->  8         0.48171
       6 -> 19         0.11925
       7 ->  9         0.48171
       7 -> 18         0.11925

 Excited state symmetry could not be determined.
 Excited State  11:      Singlet-?Sym   11.6751 eV  106.20 nm  f=0.0000  <S**2>=0.000
       5 ->  8        -0.10929
       6 -> 13         0.64088
       7 -> 13        -0.25104

 Excited state symmetry could not be determined.
 Excited State  12:      Singlet-?Sym   11.6751 eV  106.20 nm  f=0.0000  <S**2>=0.000
       5 ->  9        -0.10929
       6 -> 13         0.25104
       7 -> 13         0.64088

 Excited state symmetry could not be determined.
 Excited State  13:      Singlet-?Sym   12.1206 eV  102.29 nm  f=0.0000  <S**2>=0.000
       6 -> 14         0.49885
       7 -> 15        -0.49885

 Excited state symmetry could not be determined.
 Excited State  14:      Singlet-?Sym   12.1206 eV  102.29 nm  f=0.0000  <S**2>=0.000
       6 -> 15         0.49885
       7 -> 14         0.49885

 Excited state symmetry could not be determined.
 Excited State  15:      Singlet-?Sym   12.2630 eV  101.10 nm  f=0.0000  <S**2>=0.000
       6 -> 15        -0.49923
       7 -> 14         0.49923

 Excited state symmetry could not be determined.
 Excited State  16:      Singlet-?Sym   12.7281 eV   97.41 nm  f=0.0000  <S**2>=0.000
       5 ->  8        -0.20744
       5 ->  9         0.65672
       7 -> 13         0.11396

 Excited state symmetry could not be determined.
 Excited State  17:      Singlet-?Sym   12.7281 eV   97.41 nm  f=0.0000  <S**2>=0.000
       5 ->  8         0.65672
       5 ->  9         0.20744
       6 -> 13         0.11396

 Excited state symmetry could not be determined.
 Excited State  18:      Singlet-?Sym   12.8544 eV   96.45 nm  f=0.0000  <S**2>=0.000
       5 -> 12        -0.16485
       6 -> 14         0.47778
       7 -> 15         0.47778

 Excited state symmetry could not be determined.
 Excited State  19:      Singlet-?Sym   13.1218 eV   94.49 nm  f=0.0000  <S**2>=0.000
       6 -> 16         0.49556
       7 -> 17         0.49556

 Excited state symmetry could not be determined.
 Excited State  20:      Singlet-?Sym   13.1218 eV   94.49 nm  f=0.0000  <S**2>=0.000
       6 -> 17        -0.49556
       7 -> 16         0.49556

 Excited state symmetry could not be determined.
 Excited State  21:      Singlet-?Sym   13.7500 eV   90.17 nm  f=0.2660  <S**2>=0.000
       4 ->  9        -0.25506
       6 -> 17         0.45744
       7 -> 16         0.45743

 Excited state symmetry could not be determined.
 Excited State  22:      Singlet-?Sym   13.7500 eV   90.17 nm  f=0.2660  <S**2>=0.000
       4 ->  8        -0.25506
       6 -> 16        -0.45743
       7 -> 17         0.45744

 Excited State  23:      Singlet-SGG   14.2255 eV   87.16 nm  f=0.0000  <S**2>=0.000
       5 -> 10         0.69151

 Excited State  24:      Singlet-SGU   14.3600 eV   86.34 nm  f=0.4346  <S**2>=0.000
       4 -> 10        -0.17734
       5 -> 11         0.66154

 Excited state symmetry could not be determined.
 Excited State  25:      Singlet-?Sym   14.5357 eV   85.30 nm  f=0.0000  <S**2>=0.000
       6 -> 18         0.49327
       7 -> 19         0.49327

 Excited state symmetry could not be determined.
 Excited State  26:      Singlet-?Sym   14.5357 eV   85.30 nm  f=0.0000  <S**2>=0.000
       6 -> 19        -0.49327
       7 -> 18         0.49327

 Excited state symmetry could not be determined.
 Excited State  27:      Singlet-?Sym   14.6065 eV   84.88 nm  f=0.0000  <S**2>=0.000
       6 -> 18         0.49326
       7 -> 19        -0.49326

 Excited state symmetry could not be determined.
 Excited State  28:      Singlet-?Sym   15.7886 eV   78.53 nm  f=0.3336  <S**2>=0.000
       4 ->  8         0.14430
       4 ->  9         0.55859
       6 -> 17         0.14445
       7 -> 16         0.14445
       7 -> 20        -0.30111
       7 -> 22         0.12507

 Excited state symmetry could not be determined.
 Excited State  29:      Singlet-?Sym   15.7886 eV   78.53 nm  f=0.3336  <S**2>=0.000
       4 ->  8         0.55859
       4 ->  9        -0.14430
       6 -> 16        -0.14445
       6 -> 20        -0.30111
       6 -> 22         0.12507
       7 -> 17         0.14445

 Excited state symmetry could not be determined.
 Excited State  30:      Singlet-?Sym   15.8541 eV   78.20 nm  f=0.0019  <S**2>=0.000
       4 -> 10         0.32045
       5 -> 11         0.17963
       5 -> 13        -0.10561
       6 -> 19         0.40788
       7 -> 18         0.40788

 Excited state symmetry could not be determined.
 Excited State  31:      Singlet-?Sym   16.1600 eV   76.72 nm  f=0.4725  <S**2>=0.000
       4 ->  8         0.25847
       6 -> 20         0.61755
       6 -> 22         0.14113
       7 -> 20        -0.10765

 Excited state symmetry could not be determined.
 Excited State  32:      Singlet-?Sym   16.1600 eV   76.72 nm  f=0.4725  <S**2>=0.000
       4 ->  9         0.25847
       6 -> 20         0.10765
       7 -> 20         0.61755
       7 -> 22         0.14113

 Excited State  33:      Singlet-SGG   16.3956 eV   75.62 nm  f=0.0000  <S**2>=0.000
       4 -> 11         0.28815
       5 -> 12         0.59651
       6 -> 14         0.12561
       7 -> 15         0.12561

 Excited state symmetry could not be determined.
 Excited State  34:      Singlet-?Sym   16.4288 eV   75.47 nm  f=0.0000  <S**2>=0.000
       6 -> 21         0.64990
       6 -> 24        -0.11994
       7 -> 21         0.17557
       7 -> 23         0.11995

 Excited state symmetry could not be determined.
 Excited State  35:      Singlet-?Sym   16.4288 eV   75.47 nm  f=0.0000  <S**2>=0.000
       6 -> 21        -0.17557
       6 -> 23         0.11995
       7 -> 21         0.64990
       7 -> 24         0.11994

 Excited State  36:      Singlet-SGU   16.5738 eV   74.81 nm  f=0.0541  <S**2>=0.000
       4 -> 10         0.58556
       4 -> 12         0.18703
       6 -> 19        -0.21287
       7 -> 18        -0.21287

 Excited State  37:      Singlet-SGG   16.9113 eV   73.31 nm  f=0.0000  <S**2>=0.000
       4 -> 11         0.61128
       5 -> 10         0.11743
       5 -> 12        -0.31541

 Excited state symmetry could not be determined.
 Excited State  38:      Singlet-?Sym   17.2473 eV   71.89 nm  f=0.0000  <S**2>=0.000
       6 -> 23        -0.11191
       6 -> 24         0.48733
       7 -> 23         0.48734
       7 -> 24         0.11190

 Excited state symmetry could not be determined.
 Excited State  39:      Singlet-?Sym   17.2473 eV   71.89 nm  f=0.0000  <S**2>=0.000
       6 -> 23         0.48734
       6 -> 24         0.11190
       7 -> 23         0.11191
       7 -> 24        -0.48733

 Excited state symmetry could not be determined.
 Excited State  40:      Singlet-?Sym   17.4040 eV   71.24 nm  f=0.0081  <S**2>=0.000
       4 ->  8        -0.13865
       5 -> 14         0.29785
       5 -> 15         0.14718
       6 -> 22         0.52878
       7 -> 22         0.26129

 Excited state symmetry could not be determined.
 Excited State  41:      Singlet-?Sym   17.4040 eV   71.24 nm  f=0.0081  <S**2>=0.000
       4 ->  9        -0.13865
       5 -> 14        -0.14718
       5 -> 15         0.29785
       6 -> 22        -0.26129
       7 -> 22         0.52878

 Excited state symmetry could not be determined.
 Excited State  42:      Singlet-?Sym   17.5515 eV   70.64 nm  f=0.0000  <S**2>=0.000
       6 -> 21         0.16902
       6 -> 23         0.15101
       6 -> 24         0.45594
       7 -> 23        -0.45592
       7 -> 24         0.15102

 Excited state symmetry could not be determined.
 Excited State  43:      Singlet-?Sym   17.5515 eV   70.64 nm  f=0.0000  <S**2>=0.000
       6 -> 23         0.45592
       6 -> 24        -0.15102
       7 -> 21        -0.16902
       7 -> 23         0.15101
       7 -> 24         0.45594

 Excited State  44:      Singlet-SGU   17.6299 eV   70.33 nm  f=0.6241  <S**2>=0.000
       4 -> 12        -0.43045
       5 -> 11         0.13468
       5 -> 13         0.53253

 Excited state symmetry could not be determined.
 Excited State  45:      Singlet-?Sym   17.6518 eV   70.24 nm  f=0.2326  <S**2>=0.000
       4 -> 19         0.12071
       5 -> 14         0.52476
       5 -> 15        -0.29758
       6 -> 22        -0.28374
       7 -> 22         0.16090

 Excited state symmetry could not be determined.
 Excited State  46:      Singlet-?Sym   17.6518 eV   70.24 nm  f=0.2326  <S**2>=0.000
       4 -> 18         0.12071
       5 -> 14         0.29758
       5 -> 15         0.52476
       6 -> 22        -0.16090
       7 -> 22        -0.28374

 Excited state symmetry could not be determined.
 Excited State  47:      Singlet-?Sym   17.6615 eV   70.20 nm  f=0.0000  <S**2>=0.000
       6 -> 25         0.49912
       7 -> 26        -0.49912

 Excited state symmetry could not be determined.
 Excited State  48:      Singlet-?Sym   17.6615 eV   70.20 nm  f=0.0000  <S**2>=0.000
       6 -> 26         0.49912
       7 -> 25         0.49912

 Excited state symmetry could not be determined.
 Excited State  49:      Singlet-?Sym   17.9476 eV   69.08 nm  f=0.0000  <S**2>=0.000
       6 -> 26        -0.49953
       7 -> 25         0.49953

 Excited state symmetry could not be determined.
 Excited State  50:      Singlet-?Sym   18.1631 eV   68.26 nm  f=0.0000  <S**2>=0.000
       4 -> 11        -0.12950
       6 -> 25         0.47571
       7 -> 26         0.47571

 Excited State  51:      Singlet-SGU   18.1953 eV   68.14 nm  f=0.0403  <S**2>=0.000
       4 -> 12         0.46744
       5 -> 13         0.42082
       6 -> 29        -0.18079
       7 -> 28        -0.18079

 Excited state symmetry could not be determined.
 Excited State  52:      Singlet-?Sym   18.6505 eV   66.48 nm  f=0.0000  <S**2>=0.000
       4 -> 14        -0.14062
       5 -> 19        -0.10561
       6 -> 27         0.67447

 Excited state symmetry could not be determined.
 Excited State  53:      Singlet-?Sym   18.6505 eV   66.48 nm  f=0.0000  <S**2>=0.000
       4 -> 15        -0.14062
       5 -> 18        -0.10561
       7 -> 27         0.67447

 Excited state symmetry could not be determined.
 Excited State  54:      Singlet-?Sym   18.8673 eV   65.71 nm  f=0.0000  <S**2>=0.000
       3 ->  8         0.16250
       4 -> 14         0.46519
       4 -> 15         0.18175
       5 -> 18         0.15707
       5 -> 19         0.40201
       6 -> 27         0.15673

 Excited state symmetry could not be determined.
 Excited State  55:      Singlet-?Sym   18.8673 eV   65.71 nm  f=0.0000  <S**2>=0.000
       3 ->  9         0.16250
       4 -> 14        -0.18175
       4 -> 15         0.46519
       5 -> 18         0.40201
       5 -> 19        -0.15707
       7 -> 27         0.15673

 Excited state symmetry could not be determined.
 Excited State  56:      Singlet-?Sym   19.0935 eV   64.94 nm  f=0.0000  <S**2>=0.000
       5 -> 16         0.70380

 Excited state symmetry could not be determined.
 Excited State  57:      Singlet-?Sym   19.0935 eV   64.94 nm  f=0.0000  <S**2>=0.000
       5 -> 17         0.70380

 Excited state symmetry could not be determined.
 Excited State  58:      Singlet-?Sym   19.1167 eV   64.86 nm  f=0.0000  <S**2>=0.000
       6 -> 28         0.49360
       7 -> 29         0.49360

 Excited state symmetry could not be determined.
 Excited State  59:      Singlet-?Sym   19.1167 eV   64.86 nm  f=0.0000  <S**2>=0.000
       6 -> 29        -0.49360
       7 -> 28         0.49360

 Excited state symmetry could not be determined.
 Excited State  60:      Singlet-?Sym   19.3802 eV   63.97 nm  f=0.0000  <S**2>=0.000
       6 -> 28         0.49645
       7 -> 29        -0.49645

 Excited state symmetry could not be determined.
 Excited State  61:      Singlet-?Sym   19.4451 eV   63.76 nm  f=0.0162  <S**2>=0.000
       4 -> 12         0.20523
       5 -> 13         0.11204
       6 -> 29         0.45123
       7 -> 28         0.45123

 Excited State  62:      Singlet-SGG   19.6893 eV   62.97 nm  f=0.0000  <S**2>=0.000
       4 -> 13         0.68212
       5 -> 20        -0.10379

 Excited state symmetry could not be determined.
 Excited State  63:      Singlet-?Sym   20.1365 eV   61.57 nm  f=0.0000  <S**2>=0.000
       3 ->  8         0.54798
       3 ->  9         0.38790
       4 -> 14        -0.11905

 Excited state symmetry could not be determined.
 Excited State  64:      Singlet-?Sym   20.1365 eV   61.57 nm  f=0.0000  <S**2>=0.000
       3 ->  8        -0.38790
       3 ->  9         0.54798
       4 -> 15        -0.11905

 Excited state symmetry could not be determined.
 Excited State  65:      Singlet-?Sym   20.7641 eV   59.71 nm  f=0.0000  <S**2>=0.000
       4 -> 15        -0.44233
       5 -> 18         0.52292
       5 -> 19        -0.10847

 Excited state symmetry could not be determined.
 Excited State  66:      Singlet-?Sym   20.7641 eV   59.71 nm  f=0.0000  <S**2>=0.000
       4 -> 14        -0.44233
       5 -> 18         0.10847
       5 -> 19         0.52292

 Excited state symmetry could not be determined.
 Excited State  67:      Singlet-?Sym   21.0061 eV   59.02 nm  f=0.0000  <S**2>=0.000
       4 -> 16         0.68481
       5 -> 24         0.16509

 Excited state symmetry could not be determined.
 Excited State  68:      Singlet-?Sym   21.0061 eV   59.02 nm  f=0.0000  <S**2>=0.000
       4 -> 17         0.68481
       5 -> 23         0.16509

 Excited State  69:      Singlet-SGG   21.1914 eV   58.51 nm  f=0.0000  <S**2>=0.000
       3 -> 10         0.68873

 Excited State  70:      Singlet-SGU   21.7133 eV   57.10 nm  f=0.0889  <S**2>=0.000
       3 -> 11         0.61528
       4 -> 22        -0.10094
       5 -> 21        -0.29218

 Excited State  71:      Singlet-SGG   21.9957 eV   56.37 nm  f=0.0000  <S**2>=0.000
       5 -> 20         0.68624

 Excited State  72:      Singlet-SGU   22.0451 eV   56.24 nm  f=0.2134  <S**2>=0.000
       3 -> 11         0.31364
       4 -> 22         0.13518
       5 -> 21         0.61322

 Excited state symmetry could not be determined.
 Excited State  73:      Singlet-?Sym   22.2314 eV   55.77 nm  f=0.0058  <S**2>=0.000
       4 -> 18         0.64307
       4 -> 19         0.16763
       5 -> 15        -0.14362
       5 -> 26         0.15385

 Excited state symmetry could not be determined.
 Excited State  74:      Singlet-?Sym   22.2314 eV   55.77 nm  f=0.0058  <S**2>=0.000
       4 -> 18        -0.16763
       4 -> 19         0.64307
       5 -> 14        -0.14362
       5 -> 25         0.15385

 Excited State  75:      Singlet-SGG   23.0894 eV   53.70 nm  f=0.0000  <S**2>=0.000
       3 -> 12         0.61542
       5 -> 22         0.31203

 Excited State  76:      Singlet-SGG   23.1318 eV   53.60 nm  f=0.0000  <S**2>=0.000
       3 -> 12        -0.31442
       4 -> 21         0.24565
       5 -> 22         0.53458
       6 -> 32        -0.13605
       7 -> 33        -0.13605

 Excited state symmetry could not be determined.
 Excited State  77:      Singlet-?Sym   23.2961 eV   53.22 nm  f=0.0000  <S**2>=0.000
       4 -> 17        -0.16617
       5 -> 23         0.68700

 Excited state symmetry could not be determined.
 Excited State  78:      Singlet-?Sym   23.2961 eV   53.22 nm  f=0.0000  <S**2>=0.000
       4 -> 16        -0.16617
       5 -> 24         0.68700

 Excited state symmetry could not be determined.
 Excited State  79:      Singlet-?Sym   23.8952 eV   51.89 nm  f=0.1306  <S**2>=0.000
       4 -> 19        -0.12015
       5 -> 25         0.53186
       5 -> 26         0.42955

 Excited state symmetry could not be determined.
 Excited State  80:      Singlet-?Sym   23.8952 eV   51.89 nm  f=0.1306  <S**2>=0.000
       4 -> 18        -0.12015
       5 -> 25        -0.42955
       5 -> 26         0.53186

 Excited State  81:      Singlet-SGU   24.0254 eV   51.61 nm  f=0.0131  <S**2>=0.000
       3 -> 13         0.11711
       4 -> 20         0.67966

 Excited State  82:      Singlet-SGG   24.4957 eV   50.61 nm  f=0.0000  <S**2>=0.000
       4 -> 21         0.63958
       5 -> 22        -0.28217

 Excited State  83:      Singlet-SGU   24.5119 eV   50.58 nm  f=0.0122  <S**2>=0.000
       3 -> 13         0.64933
       4 -> 20        -0.10017
       4 -> 22         0.16920
       5 -> 27        -0.13069

 Excited state symmetry could not be determined.
 Excited State  84:      Singlet-?Sym   24.7699 eV   50.05 nm  f=0.0000  <S**2>=0.000
       5 -> 28        -0.27174
       7 -> 30         0.64602

 Excited state symmetry could not be determined.
 Excited State  85:      Singlet-?Sym   24.7699 eV   50.05 nm  f=0.0000  <S**2>=0.000
       5 -> 29        -0.27174
       6 -> 30         0.64602

 Excited state symmetry could not be determined.
 Excited State  86:      Singlet-?Sym   24.8562 eV   49.88 nm  f=0.0000  <S**2>=0.000
       5 -> 28         0.64505
       7 -> 30         0.27308

 Excited state symmetry could not be determined.
 Excited State  87:      Singlet-?Sym   24.8562 eV   49.88 nm  f=0.0000  <S**2>=0.000
       5 -> 29         0.64505
       6 -> 30         0.27308

 Excited State  88:      Singlet-SGU   25.0064 eV   49.58 nm  f=0.1800  <S**2>=0.000
       4 -> 22         0.39098
       5 -> 27         0.57009

 Excited state symmetry could not be determined.
 Excited State  89:      Singlet-?Sym   25.0929 eV   49.41 nm  f=0.0000  <S**2>=0.000
       3 -> 17         0.18768
       4 -> 23         0.67762

 Excited state symmetry could not be determined.
 Excited State  90:      Singlet-?Sym   25.0929 eV   49.41 nm  f=0.0000  <S**2>=0.000
       3 -> 16         0.18768
       4 -> 24         0.67762

 Excited state symmetry could not be determined.
 Excited State  91:      Singlet-?Sym   25.1050 eV   49.39 nm  f=0.0001  <S**2>=0.000
       3 -> 14         0.68968

 Excited state symmetry could not be determined.
 Excited State  92:      Singlet-?Sym   25.1050 eV   49.39 nm  f=0.0001  <S**2>=0.000
       3 -> 15         0.68968

 Excited State  93:      Singlet-SGU   25.4981 eV   48.62 nm  f=0.0048  <S**2>=0.000
       3 -> 13        -0.20448
       4 -> 22         0.52438
       5 -> 21        -0.13278
       5 -> 27        -0.36737

 Excited state symmetry could not be determined.
 Excited State  94:      Singlet-?Sym   25.8315 eV   48.00 nm  f=0.0000  <S**2>=0.000
       3 -> 19         0.12125
       4 -> 25         0.65553
       4 -> 26         0.21997

 Excited state symmetry could not be determined.
 Excited State  95:      Singlet-?Sym   25.8315 eV   48.00 nm  f=0.0000  <S**2>=0.000
       3 -> 18         0.12125
       4 -> 25        -0.21997
       4 -> 26         0.65553

 Excited state symmetry could not be determined.
 Excited State  96:      Singlet-?Sym   26.0604 eV   47.58 nm  f=0.0203  <S**2>=0.000
       6 -> 31        -0.13058
       7 -> 31         0.68023

 Excited state symmetry could not be determined.
 Excited State  97:      Singlet-?Sym   26.0604 eV   47.58 nm  f=0.0203  <S**2>=0.000
       6 -> 31         0.68023
       7 -> 31         0.13058

 Excited state symmetry could not be determined.
 Excited State  98:      Singlet-?Sym   26.1254 eV   47.46 nm  f=0.0000  <S**2>=0.000
       3 -> 16         0.66868
       4 -> 24        -0.19111

 Excited state symmetry could not be determined.
 Excited State  99:      Singlet-?Sym   26.1254 eV   47.46 nm  f=0.0000  <S**2>=0.000
       3 -> 17         0.66869
       4 -> 23        -0.19111

 Excited state symmetry could not be determined.
 Excited State 100:      Singlet-?Sym   26.7383 eV   46.37 nm  f=0.0000  <S**2>=0.000
       3 -> 16         0.12992
       6 -> 32         0.49072
       7 -> 33        -0.49072

 Excited state symmetry could not be determined.
 Excited State 101:      Singlet-?Sym   26.7383 eV   46.37 nm  f=0.0000  <S**2>=0.000
       3 -> 17        -0.12992
       6 -> 33         0.49072
       7 -> 32         0.49072

 Excited State 102:      Singlet-SGG   26.7702 eV   46.31 nm  f=0.0000  <S**2>=0.000
       4 -> 27         0.69964

 Excited state symmetry could not be determined.
 Excited State 103:      Singlet-?Sym   26.8003 eV   46.26 nm  f=0.0004  <S**2>=0.000
       4 -> 28         0.69739

 Excited state symmetry could not be determined.
 Excited State 104:      Singlet-?Sym   26.8003 eV   46.26 nm  f=0.0004  <S**2>=0.000
       4 -> 29         0.69739

 Excited state symmetry could not be determined.
 Excited State 105:      Singlet-?Sym   26.9533 eV   46.00 nm  f=0.0000  <S**2>=0.000
       6 -> 33        -0.49907
       7 -> 32         0.49907

 Excited state symmetry could not be determined.
 Excited State 106:      Singlet-?Sym   27.4498 eV   45.17 nm  f=0.0000  <S**2>=0.000
       3 -> 18        -0.32331
       3 -> 19         0.60477
       4 -> 25        -0.11413

 The electronic state is 1-SGG.
 Alpha  occ. eigenvalues --  -10.31395 -10.31145  -0.84435  -0.65453  -0.58405
 Alpha  occ. eigenvalues --   -0.37920  -0.37920
 Alpha virt. eigenvalues --    0.09852   0.09852   0.09964   0.11376   0.17999
 Alpha virt. eigenvalues --    0.23158   0.25032   0.25032   0.31316   0.31316
 Alpha virt. eigenvalues --    0.34365   0.34365   0.39269   0.39894   0.43257

 Mulliken charges:
               1
     1  C    0.118672
     2  C    0.118672
     3  H   -0.118672
     4  H   -0.118672
 Sum of Mulliken charges =  -0.00000

 Dipole moment (field-independent basis, Debye):
    X=             -0.0000    Y=             -0.0000    Z=             -0.0000  Tot=              0.0000
 Quadrupole moment (field-independent basis, Debye-Ang):
   XX=            -13.5406   YY=            -13.5406   ZZ=             -6.9488
   XY=             -0.0000   XZ=              0.0000   YZ=              0.0000

 Normal termination of Gaussian 16 at Sat Feb 12 22:22:48 2022.
