 Gaussian 16, Revision C.01,
 Gaussian 16:  EM64L-G16RevC.01  3-Jul-2019

 ----------------------------------------------------------------------
 #P TD(Nstates=10000) wB97XD/Gen SCF(maxcycles=100) Int(Grid=ultrafine)
 ----------------------------------------------------------------------

 ---------------------
 xGDB7_00001_tier4.com
 ---------------------
 Symbolic Z-matrix:
 Charge =  0 Multiplicity = 1

                         Standard orientation:
 ---------------------------------------------------------------------
 Center     Atomic      Atomic             Coordinates (Angstroms)
 Number     Number       Type             X           Y           Z
 ---------------------------------------------------------------------
      1          6           0       -1.209078   -0.236217   -0.021416
      2          6           0        0.091406    0.549498    0.046283
      3          8           0        1.229954   -0.258809   -0.108036
      4          1           0       -2.080825    0.432379    0.045432
      5          1           0       -1.279382   -0.958023    0.809192
      6          1           0       -1.270180   -0.797646   -0.965421
      7          1           0        0.130326    1.129547    0.990213
      8          1           0        0.126056    1.284806   -0.772304
      9          1           0        1.240401   -0.900271    0.607980
 ---------------------------------------------------------------------

 SCF Done:  E(RwB97XD) =  -154.891836928     A.U. after   13 cycles

 Excitation energies and oscillator strengths:

 Excited State   1:      Singlet-A      7.3251 eV  169.26 nm  f=0.0095  <S**2>=0.000
      13 -> 14         0.64631
      13 -> 15        -0.25236
 This state for optimization and/or second-order correction.
 Total Energy, E(TD-HF/TD-DFT) =  -154.622643597
 Copying the excited state density for this state as the 1-particle RhoCI density.

 Excited State   2:      Singlet-A      8.6220 eV  143.80 nm  f=0.0252  <S**2>=0.000
      12 -> 14         0.14587
      13 -> 14         0.20416
      13 -> 15         0.56396
      13 -> 16         0.31086

 Excited State   3:      Singlet-A      8.8603 eV  139.93 nm  f=0.0167  <S**2>=0.000
      12 -> 14         0.65339
      12 -> 15        -0.12575
      13 -> 16        -0.12210

 Excited State   4:      Singlet-A      9.0672 eV  136.74 nm  f=0.0302  <S**2>=0.000
      13 -> 14        -0.14567
      13 -> 15        -0.27703
      13 -> 16         0.59116
      13 -> 18        -0.10365
      13 -> 19        -0.14089

 Excited State   5:      Singlet-A      9.3139 eV  133.12 nm  f=0.0613  <S**2>=0.000
      13 -> 17         0.68872

 Excited State   6:      Singlet-A      9.7831 eV  126.73 nm  f=0.0161  <S**2>=0.000
      10 -> 14        -0.13671
      11 -> 14         0.24087
      12 -> 14         0.12135
      12 -> 15         0.59685
      12 -> 16         0.13972

 Excited State   7:      Singlet-A     10.1567 eV  122.07 nm  f=0.0313  <S**2>=0.000
      10 -> 14        -0.13559
      11 -> 14         0.22353
      12 -> 16        -0.29888
      13 -> 18         0.40674
      13 -> 19        -0.33105
      13 -> 21        -0.12722

 Excited State   8:      Singlet-A     10.1824 eV  121.76 nm  f=0.0973  <S**2>=0.000
      10 -> 14         0.14171
      11 -> 14        -0.22315
      12 -> 16         0.46153
      13 -> 18         0.38099
      13 -> 19        -0.10854
      13 -> 20         0.11238

 Excited State   9:      Singlet-A     10.2862 eV  120.53 nm  f=0.0906  <S**2>=0.000
      11 -> 14        -0.24347
      12 -> 15         0.16498
      12 -> 16        -0.27745
      13 -> 16         0.11274
      13 -> 18         0.26019
      13 -> 19         0.43203
      13 -> 20         0.14838

 Excited State  10:      Singlet-A     10.3330 eV  119.99 nm  f=0.0428  <S**2>=0.000
      10 -> 14         0.16733
      11 -> 14         0.49038
      12 -> 15        -0.17449
      12 -> 16         0.15017
      13 -> 18         0.11679
      13 -> 19         0.31276
      13 -> 20         0.12828

 Excited State  11:      Singlet-A     10.5366 eV  117.67 nm  f=0.0026  <S**2>=0.000
      10 -> 14        -0.30533
      13 -> 18        -0.17804
      13 -> 20         0.56858

 Excited State  12:      Singlet-A     10.5878 eV  117.10 nm  f=0.0155  <S**2>=0.000
      10 -> 14         0.41818
      11 -> 15         0.15439
      12 -> 15         0.15817
      12 -> 16        -0.18569
      12 -> 17         0.37563
      13 -> 19        -0.11458
      13 -> 20         0.20976

 Excited State  13:      Singlet-A     10.6860 eV  116.03 nm  f=0.0676  <S**2>=0.000
      10 -> 14        -0.27830
      11 -> 15        -0.10096
      12 -> 17         0.55531
      13 -> 20        -0.18319

 Excited State  14:      Singlet-A     11.0089 eV  112.62 nm  f=0.0048  <S**2>=0.000
      11 -> 15        -0.13054
      13 -> 19        -0.11899
      13 -> 21         0.59718
      13 -> 22        -0.13451
      13 -> 23        -0.18014

 Excited State  15:      Singlet-A     11.1766 eV  110.93 nm  f=0.0304  <S**2>=0.000
       8 -> 14        -0.12449
      10 -> 14        -0.16527
      11 -> 15         0.57197
      12 -> 18        -0.21671
      13 -> 21         0.12667
      13 -> 23        -0.11046

 Excited State  16:      Singlet-A     11.2188 eV  110.51 nm  f=0.0447  <S**2>=0.000
      10 -> 15         0.28484
      12 -> 18         0.10340
      12 -> 19         0.11605
      13 -> 21         0.21760
      13 -> 22         0.26768
      13 -> 23         0.43698
      13 -> 24        -0.16215

 Excited State  17:      Singlet-A     11.3346 eV  109.39 nm  f=0.0449  <S**2>=0.000
      10 -> 16         0.13680
      11 -> 16        -0.20199
      12 -> 18        -0.17320
      12 -> 19        -0.12299
      13 -> 22        -0.40896
      13 -> 23         0.41083

 Excited State  18:      Singlet-A     11.3902 eV  108.85 nm  f=0.0225  <S**2>=0.000
      10 -> 15         0.24350
      11 -> 15         0.14800
      11 -> 16        -0.28319
      12 -> 18         0.44832
      12 -> 19        -0.22230
      13 -> 22        -0.14342

 Excited State  19:      Singlet-A     11.4542 eV  108.24 nm  f=0.0498  <S**2>=0.000
      10 -> 15        -0.31191
      11 -> 16        -0.24427
      12 -> 19        -0.36824
      13 -> 22         0.37744

 Excited State  20:      Singlet-A     11.5748 eV  107.12 nm  f=0.0951  <S**2>=0.000
      10 -> 15        -0.13040
      10 -> 16         0.22033
      11 -> 15         0.19727
      11 -> 16         0.48512
      12 -> 18         0.25741
      12 -> 19        -0.18352
      13 -> 23         0.11611

 Excited State  21:      Singlet-A     11.6639 eV  106.30 nm  f=0.0458  <S**2>=0.000
      10 -> 15         0.40976
      10 -> 16         0.23107
      12 -> 18        -0.28623
      12 -> 19        -0.31753

 Excited State  22:      Singlet-A     11.8256 eV  104.84 nm  f=0.0721  <S**2>=0.000
       9 -> 14        -0.12301
      10 -> 16         0.49470
      11 -> 16        -0.13054
      12 -> 18         0.10901
      12 -> 19         0.27851
      12 -> 21         0.17854
      13 -> 22         0.11542

 Excited State  23:      Singlet-A     11.9101 eV  104.10 nm  f=0.0210  <S**2>=0.000
      11 -> 17         0.20479
      12 -> 20         0.55654
      13 -> 24        -0.23475
      13 -> 25         0.16180

 Excited State  24:      Singlet-A     11.9889 eV  103.42 nm  f=0.0157  <S**2>=0.000
       9 -> 14        -0.17159
      10 -> 16        -0.15714
      12 -> 20         0.26120
      13 -> 19        -0.10742
      13 -> 22         0.10098
      13 -> 23         0.11005
      13 -> 24         0.45488
      13 -> 25        -0.12241
      13 -> 26        -0.24884

 Excited State  25:      Singlet-A     12.0609 eV  102.80 nm  f=0.1242  <S**2>=0.000
       8 -> 14         0.10150
      10 -> 16         0.10455
      11 -> 17         0.58067
      11 -> 18         0.11305
      12 -> 20        -0.14160
      12 -> 21        -0.15472
      12 -> 22        -0.10347

 Excited State  26:      Singlet-A     12.1194 eV  102.30 nm  f=0.0116  <S**2>=0.000
       9 -> 14         0.57116
      12 -> 20         0.14513
      12 -> 21         0.13788
      12 -> 22        -0.10556
      13 -> 24         0.20450

 Excited State  27:      Singlet-A     12.2540 eV  101.18 nm  f=0.0269  <S**2>=0.000
      10 -> 17         0.50938
      10 -> 21        -0.12003
      11 -> 17         0.10838
      12 -> 21         0.34828
      13 -> 25        -0.11790

 Excited State  28:      Singlet-A     12.3395 eV  100.48 nm  f=0.0243  <S**2>=0.000
       9 -> 14        -0.19241
      10 -> 16        -0.11751
      11 -> 18         0.15045
      12 -> 21         0.25665
      12 -> 22        -0.22893
      13 -> 24         0.13203
      13 -> 25         0.40649

 Excited State  29:      Singlet-A     12.3764 eV  100.18 nm  f=0.0244  <S**2>=0.000
       8 -> 14         0.11320
      10 -> 17         0.25725
      10 -> 18         0.10668
      11 -> 18        -0.17054
      12 -> 21        -0.22137
      12 -> 22         0.22079
      12 -> 23         0.13949
      13 -> 25         0.40539

 Excited State  30:      Singlet-A     12.5225 eV   99.01 nm  f=0.0480  <S**2>=0.000
       8 -> 14         0.12096
      10 -> 17        -0.13229
      11 -> 18        -0.34200
      12 -> 21         0.19398
      12 -> 22        -0.12398
      12 -> 23         0.43826

 Excited State  31:      Singlet-A     12.6256 eV   98.20 nm  f=0.0084  <S**2>=0.000
       8 -> 14         0.48710
      10 -> 17        -0.11963
      11 -> 19        -0.15260
      12 -> 22         0.14021
      12 -> 23        -0.24112
      13 -> 24        -0.12499
      13 -> 26        -0.14871
      13 -> 27        -0.10072

 Excited State  32:      Singlet-A     12.6733 eV   97.83 nm  f=0.0089  <S**2>=0.000
      10 -> 17        -0.18167
      10 -> 18        -0.18129
      11 -> 17         0.13515
      12 -> 21         0.18521
      12 -> 22         0.34448
      13 -> 24         0.16543
      13 -> 26         0.34705
      13 -> 28         0.17359

 Excited State  33:      Singlet-A     12.7404 eV   97.32 nm  f=0.0281  <S**2>=0.000
       8 -> 14        -0.16724
       9 -> 15         0.16063
      10 -> 17        -0.15936
      10 -> 18         0.19184
      11 -> 18         0.14328
      11 -> 20         0.12752
      12 -> 21         0.17168
      12 -> 22         0.30503
      13 -> 24        -0.13702
      13 -> 25         0.14150
      13 -> 26        -0.28358
      13 -> 28        -0.13171

 Excited State  34:      Singlet-A     12.7858 eV   96.97 nm  f=0.0435  <S**2>=0.000
      11 -> 18        -0.32227
      11 -> 19         0.36577
      11 -> 20         0.25276
      12 -> 23        -0.26902
      13 -> 27        -0.17523

 Excited State  35:      Singlet-A     12.8207 eV   96.71 nm  f=0.0903  <S**2>=0.000
       8 -> 14         0.28658
      11 -> 18         0.20594
      11 -> 19         0.43268
      11 -> 20        -0.11784
      11 -> 25        -0.11127
      12 -> 23         0.20047
      12 -> 25        -0.13212

 Excited State  36:      Singlet-A     12.8845 eV   96.23 nm  f=0.0196  <S**2>=0.000
       9 -> 15        -0.12121
      10 -> 18         0.42309
      10 -> 19        -0.14972
      10 -> 23        -0.14586
      11 -> 19        -0.15341
      11 -> 20         0.17807
      13 -> 26         0.22065
      13 -> 27        -0.18915
      13 -> 28         0.13908

 Excited State  37:      Singlet-A     12.9799 eV   95.52 nm  f=0.0109  <S**2>=0.000
       8 -> 14         0.14576
       8 -> 15         0.10697
       9 -> 15         0.30261
      11 -> 18         0.12942
      11 -> 20         0.37605
      11 -> 21         0.18049
      12 -> 21        -0.16132
      12 -> 22        -0.10107
      12 -> 24        -0.11343
      13 -> 27         0.21625

 Excited State  38:      Singlet-A     13.0126 eV   95.28 nm  f=0.0140  <S**2>=0.000
      10 -> 18         0.23682
      10 -> 19         0.40396
      10 -> 21         0.15729
      10 -> 25        -0.11625
      11 -> 18        -0.11586
      11 -> 19         0.12304
      12 -> 23        -0.10464
      12 -> 24         0.14833
      13 -> 27         0.33154

 Excited State  39:      Singlet-A     13.0701 eV   94.86 nm  f=0.0124  <S**2>=0.000
       9 -> 15        -0.25428
      10 -> 18        -0.17568
      10 -> 19         0.28146
      10 -> 20         0.26232
      11 -> 18         0.12883
      11 -> 20         0.16870
      11 -> 21         0.12992
      12 -> 22         0.11994
      12 -> 25         0.14863
      13 -> 27        -0.24488
      13 -> 28         0.12953

 Excited State  40:      Singlet-A     13.1379 eV   94.37 nm  f=0.0315  <S**2>=0.000
       9 -> 15         0.34276
      10 -> 19         0.29326
      10 -> 20        -0.21599
      11 -> 20        -0.12028
      12 -> 24        -0.13830
      12 -> 25         0.13652
      13 -> 26         0.10523
      13 -> 27        -0.31397

 Excited State  41:      Singlet-A     13.2315 eV   93.70 nm  f=0.0325  <S**2>=0.000
       9 -> 15         0.23245
       9 -> 16         0.20813
      10 -> 20         0.29247
      11 -> 19        -0.11935
      11 -> 22         0.12523
      12 -> 24         0.41497
      12 -> 26        -0.10723
      13 -> 27        -0.13066

 Excited State  42:      Singlet-A     13.3142 eV   93.12 nm  f=0.0619  <S**2>=0.000
       8 -> 16         0.13156
       9 -> 16         0.16453
      10 -> 19        -0.16811
      10 -> 22         0.13339
      11 -> 20        -0.16925
      11 -> 22        -0.17469
      12 -> 25         0.19094
      13 -> 26        -0.18495
      13 -> 28         0.39700

 Excited State  43:      Singlet-A     13.4080 eV   92.47 nm  f=0.0670  <S**2>=0.000
       8 -> 15        -0.11233
       9 -> 15        -0.17051
       9 -> 16         0.51557
      10 -> 20        -0.10819
      10 -> 21        -0.19252
      11 -> 22         0.13844
      12 -> 26         0.10313
      13 -> 28        -0.12874

 Excited State  44:      Singlet-A     13.4277 eV   92.33 nm  f=0.0634  <S**2>=0.000
       7 -> 14         0.11293
       8 -> 15        -0.20035
       8 -> 16        -0.17145
      10 -> 18        -0.12702
      10 -> 20        -0.17016
      11 -> 20         0.23384
      11 -> 21        -0.17019
      11 -> 23        -0.15877
      12 -> 24         0.16632
      13 -> 26        -0.18102
      13 -> 28         0.34793

 Excited State  45:      Singlet-A     13.5387 eV   91.58 nm  f=0.0278  <S**2>=0.000
       8 -> 16         0.10750
       9 -> 15        -0.12396
       9 -> 17         0.10288
      10 -> 20        -0.27289
      10 -> 21        -0.18712
      11 -> 22        -0.20309
      12 -> 24         0.34840
      12 -> 25         0.18411
      12 -> 26        -0.13463
      13 -> 28        -0.16611

 Excited State  46:      Singlet-A     13.5849 eV   91.27 nm  f=0.0137  <S**2>=0.000
       8 -> 15         0.45764
       9 -> 17        -0.11091
      10 -> 20        -0.22315
      11 -> 22         0.21956
      12 -> 25        -0.23070
      13 -> 28         0.10264

 Excited State  47:      Singlet-A     13.6665 eV   90.72 nm  f=0.0391  <S**2>=0.000
       8 -> 16        -0.11192
       8 -> 17         0.14486
       9 -> 16        -0.25560
      10 -> 21        -0.20379
      10 -> 22         0.17814
      11 -> 22         0.36023
      12 -> 25         0.30704

 Excited State  48:      Singlet-A     13.6742 eV   90.67 nm  f=0.0173  <S**2>=0.000
       8 -> 15        -0.32570
       8 -> 17         0.13116
       9 -> 17        -0.24987
      10 -> 20        -0.11821
      10 -> 22         0.10175
      11 -> 21         0.39364
      12 -> 24         0.12971
      12 -> 25        -0.15682

 Excited State  49:      Singlet-A     13.8825 eV   89.31 nm  f=0.0127  <S**2>=0.000
       9 -> 17         0.35279
      10 -> 19         0.11211
      10 -> 21        -0.33639
      10 -> 23        -0.11750
      11 -> 21         0.13576
      12 -> 25        -0.28196
      12 -> 26         0.12379

 Excited State  50:      Singlet-A     13.9454 eV   88.91 nm  f=0.0254  <S**2>=0.000
       8 -> 16         0.30823
       9 -> 17        -0.10774
       9 -> 18        -0.13782
      10 -> 23        -0.16054
      11 -> 21        -0.15165
      11 -> 23         0.27920
      12 -> 24         0.11731
      12 -> 26         0.25160
      12 -> 27         0.19075
      12 -> 28         0.10802
      13 -> 29         0.12577

 Excited State  51:      Singlet-A     14.0160 eV   88.46 nm  f=0.0305  <S**2>=0.000
       7 -> 14        -0.28804
       9 -> 17         0.33809
      10 -> 17         0.11507
      10 -> 21         0.28143
      10 -> 22        -0.13157
      11 -> 22         0.12934
      11 -> 23         0.13392

 Excited State  52:      Singlet-A     14.0523 eV   88.23 nm  f=0.0124  <S**2>=0.000
       7 -> 14         0.52284
       7 -> 15        -0.10642
       9 -> 17         0.15886
       9 -> 19        -0.14538
      10 -> 21         0.10279
      11 -> 21         0.15286
      11 -> 23         0.12657
      12 -> 25         0.10352
      13 -> 29        -0.11980

 Excited State  53:      Singlet-A     14.1482 eV   87.63 nm  f=0.0902  <S**2>=0.000
       8 -> 16         0.15983
       9 -> 17         0.19148
       9 -> 19         0.14590
      10 -> 21         0.17892
      10 -> 22         0.34645
      10 -> 23         0.15449
      11 -> 21        -0.11878
      11 -> 24         0.26146
      12 -> 26        -0.12847
      12 -> 27         0.18258

 Excited State  54:      Singlet-A     14.1574 eV   87.58 nm  f=0.0223  <S**2>=0.000
       8 -> 16        -0.28151
       9 -> 18        -0.17728
      10 -> 22        -0.12432
      11 -> 21         0.19024
      11 -> 22        -0.14737
      11 -> 23        -0.13978
      12 -> 25         0.11162
      12 -> 26         0.18741
      12 -> 27         0.34647

 Excited State  55:      Singlet-A     14.1677 eV   87.51 nm  f=0.0525  <S**2>=0.000
       7 -> 14         0.11357
       8 -> 16        -0.16829
       9 -> 18        -0.11698
      11 -> 22        -0.13236
      12 -> 27        -0.15077
      13 -> 27         0.13775
      13 -> 29         0.56184
      13 -> 30         0.10809

 Excited State  56:      Singlet-A     14.3330 eV   86.50 nm  f=0.0057  <S**2>=0.000
       8 -> 16         0.30323
       9 -> 18        -0.14010
       9 -> 19        -0.13392
      10 -> 22        -0.24755
      10 -> 23         0.21843
      11 -> 22         0.15794
      11 -> 23        -0.30022
      11 -> 24         0.10277
      12 -> 25         0.10475
      13 -> 30         0.15365

 Excited State  57:      Singlet-A     14.4112 eV   86.03 nm  f=0.0559  <S**2>=0.000
       8 -> 16         0.11987
       9 -> 18         0.13910
      10 -> 21         0.14587
      10 -> 22         0.15099
      11 -> 23        -0.30668
      11 -> 24        -0.15264
      12 -> 26         0.39419
      12 -> 27        -0.10188
      13 -> 30        -0.15731

 Excited State  58:      Singlet-A     14.4825 eV   85.61 nm  f=0.0325  <S**2>=0.000
      10 -> 18         0.13612
      10 -> 23         0.44336
      11 -> 23         0.21766
      12 -> 24         0.10183
      12 -> 26         0.27002
      12 -> 27        -0.10501
      12 -> 28        -0.11211

 Excited State  59:      Singlet-A     14.5227 eV   85.37 nm  f=0.0825  <S**2>=0.000
       8 -> 17         0.18024
       9 -> 17        -0.11609
       9 -> 19        -0.16973
       9 -> 21        -0.11227
      10 -> 22         0.22411
      11 -> 21        -0.15704
      11 -> 22        -0.14407
      13 -> 29        -0.16055
      13 -> 30         0.43906

 Excited State  60:      Singlet-A     14.5316 eV   85.32 nm  f=0.1038  <S**2>=0.000
       8 -> 17        -0.28056
       8 -> 20        -0.10640
       9 -> 18         0.14829
      11 -> 22         0.12173
      11 -> 24        -0.29429
      11 -> 26         0.10114
      12 -> 26        -0.13042
      12 -> 27         0.34552
      13 -> 29         0.12935
      13 -> 30         0.17705

 Excited State  61:      Singlet-A     14.6262 eV   84.77 nm  f=0.0752  <S**2>=0.000
       9 -> 18         0.40110
       9 -> 19        -0.22113
       9 -> 20        -0.16363
      10 -> 24         0.12351
      11 -> 24         0.27923
      11 -> 25        -0.14593
      12 -> 27         0.10612
      12 -> 28        -0.16114
      13 -> 29         0.10957

 Excited State  62:      Singlet-A     14.6751 eV   84.49 nm  f=0.0091  <S**2>=0.000
       8 -> 17         0.36439
       8 -> 18         0.26917
       9 -> 18         0.16237
       9 -> 20         0.16534
       9 -> 21         0.10510
      10 -> 22        -0.10623
      10 -> 23         0.10838
      10 -> 24        -0.12093
      11 -> 24        -0.12369
      11 -> 27        -0.10424
      12 -> 27         0.18674
      12 -> 28        -0.16048

 Excited State  63:      Singlet-A     14.7612 eV   83.99 nm  f=0.0172  <S**2>=0.000
       8 -> 17         0.22925
      10 -> 23         0.16167
      11 -> 24        -0.13330
      11 -> 25        -0.17903
      12 -> 28         0.47866

 Excited State  64:      Singlet-A     14.8031 eV   83.76 nm  f=0.0307  <S**2>=0.000
       8 -> 19         0.23480
       9 -> 19        -0.24781
       9 -> 20        -0.16319
      10 -> 22         0.10386
      10 -> 24         0.21213
      10 -> 25         0.11822
      11 -> 19         0.11301
      11 -> 21        -0.11878
      11 -> 24        -0.13161
      11 -> 25         0.34424
      13 -> 30        -0.20082

 Excited State  65:      Singlet-A     14.8918 eV   83.26 nm  f=0.0652  <S**2>=0.000
       8 -> 17        -0.11838
       9 -> 19        -0.23380
       9 -> 20         0.50941
       9 -> 22         0.11286
      11 -> 24         0.13068
      13 -> 30        -0.15998

 The electronic state is 1-A.
 Alpha  occ. eigenvalues --  -19.26523 -10.34602 -10.29497  -1.11903  -0.84056
 Alpha  occ. eigenvalues --   -0.71683  -0.59785  -0.54568  -0.52487  -0.46889
 Alpha  occ. eigenvalues --   -0.45883  -0.41147  -0.36393
 Alpha virt. eigenvalues --    0.08353   0.11409   0.12305   0.14770   0.17350
 Alpha virt. eigenvalues --    0.18271   0.19095   0.20348   0.21237   0.22404
 Alpha virt. eigenvalues --    0.24864   0.25598   0.28005   0.28543   0.29943

 Mulliken charges:
               1
     1  C    0.161744
     2  C    0.177669
     3  O   -0.443908
     4  H    0.053761
     5  H   -0.002365
     6  H    0.026488
     7  H   -0.050733
     8  H   -0.115114
     9  H    0.192460
 Sum of Mulliken charges =  -0.00000

 Dipole moment (field-independent basis, Debye):
    X=             -1.2702    Y=             -0.1528    Z=              1.1785  Tot=              1.7395
 Quadrupole moment (field-independent basis, Debye-Ang):
   XX=            -22.4468   YY=            -18.7770   ZZ=            -19.3154
   XY=             -0.9599   XZ=              1.7922   YZ=             -1.4946

 Normal termination of Gaussian 16 at Sat Feb 12 22:26:30 2022.
