 Gaussian 16, Revision C.01,
 Gaussian 16:  EM64L-G16RevC.01  3-Jul-2019

 ----------------------------------------------------------------------
 #P TD(Nstates=10000) wB97XD/Gen SCF(maxcycles=100) Int(Grid=ultrafine)
 ----------------------------------------------------------------------

 ---------------------
 xGDB7_00001_tier4.com
 ---------------------
 Symbolic Z-matrix:
 Charge =  0 Multiplicity = 1

                         Standard orientation:
 ---------------------------------------------------------------------
 Center     Atomic      Atomic             Coordinates (Angstroms)
 Number     Number       Type             X           Y           Z
 ---------------------------------------------------------------------
      1          6           0        0.000000    0.000000    0.664999
      2          6           0        0.000000    0.000000   -0.664999
      3          1           0        0.000000    0.931103    1.239041
      4          1           0       -0.000000   -0.931103    1.239041
      5          1           0        0.000000    0.931103   -1.239041
      6          1           0       -0.000000   -0.931103   -1.239041
 ---------------------------------------------------------------------

 SCF Done:  E(RwB97XD) =  -78.5047297359     A.U. after   11 cycles

 Excitation energies and oscillator strengths:

 Excited State   1:      Singlet-B1U    7.8283 eV  158.38 nm  f=0.3765  <S**2>=0.000
       8 ->  9         0.70010
 This state for optimization and/or second-order correction.
 Total Energy, E(TD-HF/TD-DFT) =  -78.2170453826
 Copying the excited state density for this state as the 1-particle RhoCI density.

 Excited State   2:      Singlet-B3U    7.8681 eV  157.58 nm  f=0.0865  <S**2>=0.000
       8 -> 10         0.69974

 Excited State   3:      Singlet-B1G    8.1332 eV  152.44 nm  f=0.0000  <S**2>=0.000
       7 ->  9         0.70176

 Excited State   4:      Singlet-B2G    8.7274 eV  142.06 nm  f=0.0000  <S**2>=0.000
       8 -> 11         0.70065

 Excited State   5:      Singlet-B1G    9.3132 eV  133.13 nm  f=0.0000  <S**2>=0.000
       8 -> 12         0.69763

 Excited State   6:      Singlet-B2G    9.6735 eV  128.17 nm  f=0.0000  <S**2>=0.000
       6 ->  9         0.69926

 Excited State   7:      Singlet-B3G   10.0412 eV  123.48 nm  f=0.0000  <S**2>=0.000
       7 -> 10         0.69660

 Excited State   8:      Singlet-B3U   10.3849 eV  119.39 nm  f=0.1103  <S**2>=0.000
       8 -> 13         0.69603

 Excited State   9:      Singlet-B2U   10.8048 eV  114.75 nm  f=0.1586  <S**2>=0.000
       5 -> 10         0.10620
       7 -> 11         0.69313

 Excited State  10:      Singlet-AU    11.1593 eV  111.10 nm  f=0.0000  <S**2>=0.000
       5 ->  9        -0.49484
       8 -> 14         0.49845

 Excited State  11:      Singlet-AU    11.3124 eV  109.60 nm  f=0.0000  <S**2>=0.000
       5 ->  9         0.50067
       8 -> 14         0.49444

 Excited State  12:      Singlet-B3U   11.3469 eV  109.27 nm  f=0.1315  <S**2>=0.000
       8 -> 15         0.69379

 Excited State  13:      Singlet-B2U   11.6981 eV  105.99 nm  f=0.1169  <S**2>=0.000
       8 -> 17         0.69283

 Excited State  14:      Singlet-AG    11.7295 eV  105.70 nm  f=0.0000  <S**2>=0.000
       6 -> 10         0.24924
       7 -> 14        -0.11481
       8 -> 16         0.63947

 Excited State  15:      Singlet-B1U   11.7556 eV  105.47 nm  f=0.2435  <S**2>=0.000
       7 -> 12         0.69573

 Excited State  16:      Singlet-AG    12.1752 eV  101.83 nm  f=0.0000  <S**2>=0.000
       6 -> 10         0.65043
       7 -> 14         0.12166
       8 -> 16        -0.22318

 Excited State  17:      Singlet-B2G   12.2573 eV  101.15 nm  f=0.0000  <S**2>=0.000
       8 -> 18         0.69856

 Excited State  18:      Singlet-B1G   12.4243 eV   99.79 nm  f=0.0000  <S**2>=0.000
       8 -> 19         0.70152

 Excited State  19:      Singlet-B3G   12.5957 eV   98.43 nm  f=0.0000  <S**2>=0.000
       5 -> 11        -0.12350
       7 -> 13         0.68498

 Excited State  20:      Singlet-B1U   12.6854 eV   97.74 nm  f=0.2607  <S**2>=0.000
       6 -> 11         0.69654

 Excited State  21:      Singlet-B3G   13.2580 eV   93.52 nm  f=0.0000  <S**2>=0.000
       5 -> 11         0.23478
       7 -> 15         0.65272

 Excited State  22:      Singlet-B2U   13.4048 eV   92.49 nm  f=0.2661  <S**2>=0.000
       5 -> 10         0.67520
       6 -> 12         0.14735
       7 -> 11        -0.10178

 Excited State  23:      Singlet-B2U   13.4521 eV   92.17 nm  f=0.0611  <S**2>=0.000
       5 -> 10        -0.14555
       6 -> 12         0.66533
       7 -> 18         0.11776

 Excited State  24:      Singlet-AU    13.6622 eV   90.75 nm  f=0.0000  <S**2>=0.000
       7 -> 16         0.69903

 Excited State  25:      Singlet-AG    13.7617 eV   90.09 nm  f=0.0000  <S**2>=0.000
       6 -> 15         0.12602
       7 -> 14         0.66661
       8 -> 16         0.14032

 Excited State  26:      Singlet-B2G   13.8121 eV   89.77 nm  f=0.0000  <S**2>=0.000
       7 -> 17         0.60204
       8 -> 20        -0.35835

 Excited State  27:      Singlet-B2G   14.0173 eV   88.45 nm  f=0.0000  <S**2>=0.000
       7 -> 17         0.35435
       8 -> 20         0.59988

 Excited State  28:      Singlet-B1U   14.2577 eV   86.96 nm  f=0.0538  <S**2>=0.000
       7 -> 19        -0.13093
       8 -> 21         0.67336

 Excited State  29:      Singlet-B3G   14.3146 eV   86.61 nm  f=0.0000  <S**2>=0.000
       5 -> 11         0.48978
       7 -> 13         0.10428
       7 -> 15        -0.16110
       8 -> 22         0.45732

 Excited State  30:      Singlet-AG    14.3366 eV   86.48 nm  f=0.0000  <S**2>=0.000
       6 -> 13         0.68369

 Excited State  31:      Singlet-B3G   14.4367 eV   85.88 nm  f=0.0000  <S**2>=0.000
       5 -> 11        -0.41410
       7 -> 15         0.19655
       8 -> 22         0.53042

 Excited State  32:      Singlet-B2U   14.7635 eV   83.98 nm  f=0.6175  <S**2>=0.000
       6 -> 12        -0.11873
       6 -> 19         0.13619
       7 -> 18         0.66603

 Excited State  33:      Singlet-AG    14.9853 eV   82.74 nm  f=0.0000  <S**2>=0.000
       5 -> 12         0.51829
       6 -> 15        -0.44642
       7 -> 14         0.10795

 Excited State  34:      Singlet-B1U   15.0553 eV   82.35 nm  f=0.3783  <S**2>=0.000
       5 -> 14        -0.11403
       7 -> 19         0.67363
       8 -> 21         0.11468

 Excited State  35:      Singlet-B3U   15.0629 eV   82.31 nm  f=0.1091  <S**2>=0.000
       4 ->  9         0.62568
       5 -> 17        -0.14554
       6 -> 16         0.15990
       7 -> 22        -0.11524
       8 -> 23        -0.18390

 Excited State  36:      Singlet-B3G   15.1208 eV   82.00 nm  f=0.0000  <S**2>=0.000
       4 -> 12        -0.12787
       6 -> 14         0.68400

 Excited State  37:      Singlet-B3U   15.4136 eV   80.44 nm  f=0.0821  <S**2>=0.000
       4 ->  9         0.12504
       6 -> 16         0.18252
       8 -> 23         0.66286

 Excited State  38:      Singlet-B1G   15.4879 eV   80.05 nm  f=0.0000  <S**2>=0.000
       5 -> 16        -0.24342
       6 -> 17         0.51344
       7 -> 21        -0.41329

 Excited State  39:      Singlet-B3U   15.6859 eV   79.04 nm  f=0.1836  <S**2>=0.000
       4 ->  9        -0.20216
       6 -> 16         0.64932
       8 -> 23        -0.14301

 Excited State  40:      Singlet-B2U   15.8845 eV   78.05 nm  f=0.0328  <S**2>=0.000
       5 -> 13         0.45490
       5 -> 15        -0.17419
       6 -> 19        -0.21398
       7 -> 18         0.13516
       7 -> 20         0.42571

 Excited State  41:      Singlet-B1G   15.9104 eV   77.93 nm  f=0.0000  <S**2>=0.000
       5 -> 16         0.19860
       6 -> 17         0.47902
       7 -> 21         0.47516

 Excited State  42:      Singlet-B2U   15.9472 eV   77.75 nm  f=0.0651  <S**2>=0.000
       5 -> 13         0.43450
       5 -> 15         0.30699
       6 -> 19        -0.14136
       7 -> 20        -0.43041

 Excited State  43:      Singlet-AG    16.0025 eV   77.48 nm  f=0.0000  <S**2>=0.000
       5 -> 12         0.41505
       6 -> 13        -0.10761
       6 -> 15         0.49148
       8 -> 16        -0.10793
       8 -> 27        -0.19459

 Excited State  44:      Singlet-B1G   16.1593 eV   76.73 nm  f=0.0000  <S**2>=0.000
       8 -> 24         0.69802

 Excited State  45:      Singlet-AG    16.2839 eV   76.14 nm  f=0.0000  <S**2>=0.000
       5 -> 12         0.14215
       6 -> 15         0.12287
       8 -> 27         0.66870

 Excited State  46:      Singlet-B1U   16.3073 eV   76.03 nm  f=0.0112  <S**2>=0.000
       4 -> 10         0.22726
       5 -> 14         0.10054
       6 -> 18         0.64778

 Excited State  47:      Singlet-B2G   16.3738 eV   75.72 nm  f=0.0000  <S**2>=0.000
       8 -> 25         0.69467

 Excited State  48:      Singlet-B3U   16.4415 eV   75.41 nm  f=0.3850  <S**2>=0.000
       4 ->  9         0.13402
       5 -> 17         0.24010
       6 -> 16         0.10575
       7 -> 22         0.62898

 Excited State  49:      Singlet-B1U   16.6289 eV   74.56 nm  f=0.0011  <S**2>=0.000
       4 -> 10         0.57575
       5 -> 14         0.30514
       6 -> 18        -0.24096

 Excited State  50:      Singlet-B2U   16.8239 eV   73.70 nm  f=0.0595  <S**2>=0.000
       5 -> 15         0.50610
       6 -> 19         0.34557
       7 -> 20         0.31823

 Excited State  51:      Singlet-B1U   16.9807 eV   73.01 nm  f=0.0198  <S**2>=0.000
       4 -> 10        -0.29839
       5 -> 14         0.58456
       6 -> 20         0.16319
       7 -> 24         0.10496

 Excited State  52:      Singlet-B2U   16.9848 eV   73.00 nm  f=0.1813  <S**2>=0.000
       5 -> 13         0.26440
       5 -> 15        -0.32867
       6 -> 19         0.52862
       7 -> 20        -0.13877

 Excited State  53:      Singlet-AU    17.0773 eV   72.60 nm  f=0.0000  <S**2>=0.000
       8 -> 26         0.70244

 Excited State  54:      Singlet-B1G   17.2819 eV   71.74 nm  f=0.0000  <S**2>=0.000
       5 -> 16         0.62903
       7 -> 21        -0.30891

 Excited State  55:      Singlet-AG    17.3550 eV   71.44 nm  f=0.0000  <S**2>=0.000
       4 -> 11         0.68246

 Excited State  56:      Singlet-B3U   17.3794 eV   71.34 nm  f=0.0521  <S**2>=0.000
       5 -> 17         0.60642
       7 -> 22        -0.28173
       8 -> 28        -0.19360

 Excited State  57:      Singlet-B3G   17.6010 eV   70.44 nm  f=0.0000  <S**2>=0.000
       4 -> 12         0.24384
       5 -> 18        -0.16803
       7 -> 23         0.62859

 Excited State  58:      Singlet-B2G   17.6273 eV   70.34 nm  f=0.0000  <S**2>=0.000
       4 -> 16         0.16833
       6 -> 21         0.66977

 Excited State  59:      Singlet-B3G   17.7847 eV   69.71 nm  f=0.0000  <S**2>=0.000
       4 -> 12         0.21060
       5 -> 18         0.65106

 Excited State  60:      Singlet-AG    17.8830 eV   69.33 nm  f=0.0000  <S**2>=0.000
       5 -> 19         0.66834
       7 -> 26         0.17191

 Excited State  61:      Singlet-B3G   17.9851 eV   68.94 nm  f=0.0000  <S**2>=0.000
       4 -> 12         0.60630
       5 -> 18        -0.15126
       6 -> 14         0.11171
       7 -> 23        -0.29070

 Excited State  62:      Singlet-B1U   17.9928 eV   68.91 nm  f=0.3420  <S**2>=0.000
       4 -> 15        -0.19878
       5 -> 14        -0.14095
       6 -> 20         0.59522
       7 -> 24         0.22782

 Excited State  63:      Singlet-AU    18.2323 eV   68.00 nm  f=0.0000  <S**2>=0.000
       4 -> 17         0.15319
       5 -> 21        -0.14863
       6 -> 22         0.63769
       7 -> 27         0.12390
       8 -> 30         0.15828

 Excited State  64:      Singlet-B3U   18.2976 eV   67.76 nm  f=0.2681  <S**2>=0.000
       4 ->  9         0.11557
       5 -> 17         0.19291
       8 -> 28         0.66086

 Excited State  65:      Singlet-B1G   18.3853 eV   67.44 nm  f=0.0000  <S**2>=0.000
       8 -> 29         0.70025

 Excited State  66:      Singlet-AU    18.5139 eV   66.97 nm  f=0.0000  <S**2>=0.000
       5 -> 21        -0.15011
       7 -> 27         0.62357
       8 -> 30        -0.27166

 Excited State  67:      Singlet-AU    18.5786 eV   66.73 nm  f=0.0000  <S**2>=0.000
       6 -> 22        -0.21107
       7 -> 27         0.23317
       8 -> 30         0.62226

 Excited State  68:      Singlet-B2G   18.6505 eV   66.48 nm  f=0.0000  <S**2>=0.000
       8 -> 33         0.69079

 Excited State  69:      Singlet-B2U   18.7103 eV   66.27 nm  f=0.0397  <S**2>=0.000
       5 -> 23         0.11485
       7 -> 25         0.61720
       8 -> 32        -0.29346

 Excited State  70:      Singlet-B1U   18.7385 eV   66.17 nm  f=0.3222  <S**2>=0.000
       4 -> 13        -0.23588
       4 -> 15        -0.11715
       6 -> 20        -0.23263
       7 -> 24         0.59105
       7 -> 29         0.10268

 Excited State  71:      Singlet-B3U   18.8854 eV   65.65 nm  f=0.0734  <S**2>=0.000
       8 -> 31         0.69719

 Excited State  72:      Singlet-B2U   18.9101 eV   65.57 nm  f=0.1464  <S**2>=0.000
       7 -> 25         0.29933
       8 -> 32         0.61763

 Excited State  73:      Singlet-B1U   18.9248 eV   65.51 nm  f=0.0195  <S**2>=0.000
       4 -> 13         0.63468
       6 -> 20        -0.13137
       7 -> 24         0.21197

 Excited State  74:      Singlet-AG    19.2086 eV   64.55 nm  f=0.0000  <S**2>=0.000
       5 -> 19        -0.17268
       7 -> 26         0.67192

 Excited State  75:      Singlet-B3G   19.3761 eV   63.99 nm  f=0.0000  <S**2>=0.000
       5 -> 20         0.67544
       7 -> 28         0.15244

 Excited State  76:      Singlet-AU    19.4882 eV   63.62 nm  f=0.0000  <S**2>=0.000
       5 -> 21         0.65927
       6 -> 22         0.13056
       7 -> 27         0.17988

 Excited State  77:      Singlet-B2G   19.5658 eV   63.37 nm  f=0.0000  <S**2>=0.000
       3 ->  9         0.63750
       4 -> 16        -0.10548
       6 -> 21         0.10638
       8 -> 35         0.20683

 Excited State  78:      Singlet-AG    19.6457 eV   63.11 nm  f=0.0000  <S**2>=0.000
       4 -> 18        -0.10412
       6 -> 23         0.67597

 Excited State  79:      Singlet-B1U   19.6546 eV   63.08 nm  f=0.0019  <S**2>=0.000
       4 -> 15        -0.24889
       8 -> 34         0.64032

 Excited State  80:      Singlet-B2G   19.7145 eV   62.89 nm  f=0.0000  <S**2>=0.000
       3 ->  9        -0.13463
       5 -> 22         0.64694
       7 -> 32         0.19743

 Excited State  81:      Singlet-B1U   19.8389 eV   62.50 nm  f=0.0487  <S**2>=0.000
       4 -> 15         0.58688
       6 -> 20         0.12362
       6 -> 25         0.11877
       7 -> 24         0.16903
       8 -> 34         0.27635

 Excited State  82:      Singlet-B2U   19.8508 eV   62.46 nm  f=0.0105  <S**2>=0.000
       4 -> 14         0.68208

 Excited State  83:      Singlet-B3G   20.0678 eV   61.78 nm  f=0.0000  <S**2>=0.000
       4 -> 19         0.15299
       5 -> 20        -0.14552
       7 -> 28         0.65578

 Excited State  84:      Singlet-B2G   20.1960 eV   61.39 nm  f=0.0000  <S**2>=0.000
       4 -> 16         0.63977
       5 -> 22         0.13835
       6 -> 21        -0.14495
       8 -> 35         0.20233

 Excited State  85:      Singlet-AU    20.3025 eV   61.07 nm  f=0.0000  <S**2>=0.000
       4 -> 17         0.67890
       6 -> 22        -0.15182

 Excited State  86:      Singlet-B2U   20.3429 eV   60.95 nm  f=0.0147  <S**2>=0.000
       5 -> 23         0.12148
       6 -> 24         0.62825
       7 -> 33         0.26019

 Excited State  87:      Singlet-B3U   20.4044 eV   60.76 nm  f=0.1876  <S**2>=0.000
       4 -> 21        -0.15599
       6 -> 27         0.68003

 Excited State  88:      Singlet-B1U   20.6508 eV   60.04 nm  f=0.0996  <S**2>=0.000
       4 -> 15        -0.14476
       6 -> 25         0.67764

 Excited State  89:      Singlet-AG    20.7813 eV   59.66 nm  f=0.0000  <S**2>=0.000
       4 -> 18         0.63390
       5 -> 24         0.10418
       6 -> 28        -0.18139
       7 -> 30         0.18740

 Excited State  90:      Singlet-B3G   20.7915 eV   59.63 nm  f=0.0000  <S**2>=0.000
       4 -> 19         0.39315
       6 -> 26         0.54043
       7 -> 28        -0.12848
       7 -> 31        -0.10702

 Excited State  91:      Singlet-B2G   20.8398 eV   59.49 nm  f=0.0000  <S**2>=0.000
       3 ->  9        -0.19933
       4 -> 16        -0.18672
       7 -> 32        -0.31101
       8 -> 35         0.55425

 Excited State  92:      Singlet-B1U   20.9467 eV   59.19 nm  f=0.0784  <S**2>=0.000
       5 -> 26         0.14036
       6 -> 20         0.11135
       7 -> 29         0.66552

 Excited State  93:      Singlet-B3G   21.0009 eV   59.04 nm  f=0.0000  <S**2>=0.000
       5 -> 25         0.19749
       6 -> 26         0.15697
       7 -> 31         0.64426

 Excited State  94:      Singlet-B2U   21.0282 eV   58.96 nm  f=0.1391  <S**2>=0.000
       5 -> 23         0.66474
       6 -> 24        -0.10762
       7 -> 25        -0.12448

 Excited State  95:      Singlet-AG    21.2023 eV   58.48 nm  f=0.0000  <S**2>=0.000
       3 -> 10        -0.42789
       4 -> 18        -0.13439
       4 -> 20         0.10396
       7 -> 30         0.49787

 Excited State  96:      Singlet-B2G   21.2135 eV   58.45 nm  f=0.0000  <S**2>=0.000
       3 ->  9        -0.13614
       5 -> 22        -0.20177
       7 -> 32         0.59348
       8 -> 35         0.28126

 Excited State  97:      Singlet-B3G   21.4446 eV   57.82 nm  f=0.0000  <S**2>=0.000
       4 -> 19         0.54451
       6 -> 26        -0.40197

 Excited State  98:      Singlet-B1G   21.4883 eV   57.70 nm  f=0.0000  <S**2>=0.000
       5 -> 27         0.52548
       7 -> 34         0.46552

 Excited State  99:      Singlet-B2U   21.5777 eV   57.46 nm  f=0.2865  <S**2>=0.000
       3 -> 12        -0.13323
       6 -> 24        -0.23733
       6 -> 29        -0.24391
       7 -> 33         0.55389
       7 -> 35         0.16359

 Excited State 100:      Singlet-AG    21.6035 eV   57.39 nm  f=0.0000  <S**2>=0.000
       3 -> 10         0.53228
       4 -> 20         0.16020
       6 -> 23        -0.12736
       6 -> 28         0.16266
       7 -> 30         0.34767

 Excited State 101:      Singlet-AG    21.9312 eV   56.53 nm  f=0.0000  <S**2>=0.000
       4 -> 20         0.24816
       5 -> 24         0.49888
       6 -> 28         0.34077
       7 -> 30        -0.22179

 Excited State 102:      Singlet-AG    22.0288 eV   56.28 nm  f=0.0000  <S**2>=0.000
       4 -> 18         0.20884
       5 -> 24        -0.33278
       6 -> 28         0.52309
       6 -> 31        -0.22134

 Excited State 103:      Singlet-B1G   22.1307 eV   56.02 nm  f=0.0000  <S**2>=0.000
       4 -> 22        -0.27663
       5 -> 27        -0.42265
       6 -> 32        -0.20853
       7 -> 34         0.44545

 Excited State 104:      Singlet-B3G   22.2030 eV   55.84 nm  f=0.0000  <S**2>=0.000
       5 -> 25         0.64581
       6 -> 30        -0.10491
       7 -> 31        -0.21863

 Excited State 105:      Singlet-B1U   22.2343 eV   55.76 nm  f=0.0048  <S**2>=0.000
       3 -> 11         0.65449
       5 -> 26        -0.15976
       6 -> 33         0.15254

 Excited State 106:      Singlet-B2U   22.5484 eV   54.99 nm  f=0.0071  <S**2>=0.000
       3 -> 12        -0.16457
       5 -> 28        -0.23064
       6 -> 29         0.46717
       7 -> 35         0.42862

 Excited State 107:      Singlet-B3U   22.5681 eV   54.94 nm  f=0.0005  <S**2>=0.000
       4 -> 21         0.67389
       6 -> 27         0.14795

 Excited State 108:      Singlet-B3G   22.5785 eV   54.91 nm  f=0.0000  <S**2>=0.000
       4 -> 24         0.11273
       6 -> 30         0.58734
       8 -> 37        -0.35179

 Excited State 109:      Singlet-B1U   22.5810 eV   54.91 nm  f=0.0479  <S**2>=0.000
       3 -> 11         0.17647
       5 -> 26         0.66506
       7 -> 29        -0.12937

 Excited State 110:      Singlet-B1G   22.5939 eV   54.87 nm  f=0.0000  <S**2>=0.000
       4 -> 22         0.42073
       5 -> 27        -0.20332
       6 -> 32         0.44290
       7 -> 34         0.27970

 Excited State 111:      Singlet-AG    22.6420 eV   54.76 nm  f=0.0000  <S**2>=0.000
       4 -> 20         0.60480
       5 -> 24        -0.22065
       6 -> 28        -0.15970
       6 -> 31        -0.14005

 Excited State 112:      Singlet-B3G   22.7036 eV   54.61 nm  f=0.0000  <S**2>=0.000
       5 -> 25         0.13931
       6 -> 30         0.31874
       8 -> 37         0.58845

 Excited State 113:      Singlet-B2G   22.7816 eV   54.42 nm  f=0.0000  <S**2>=0.000
       8 -> 35         0.13123
       8 -> 36         0.68573

 Excited State 114:      Singlet-B2U   22.8212 eV   54.33 nm  f=0.2480  <S**2>=0.000
       3 -> 12         0.21408
       5 -> 23        -0.13119
       5 -> 28        -0.20620
       5 -> 31        -0.11141
       6 -> 29        -0.38070
       7 -> 33        -0.22643
       7 -> 35         0.41142

 Excited State 115:      Singlet-B1U   23.1139 eV   53.64 nm  f=0.1553  <S**2>=0.000
       3 -> 11        -0.13140
       4 -> 23        -0.10534
       5 -> 30         0.10166
       6 -> 33         0.65469

 Excited State 116:      Singlet-AG    23.1174 eV   53.63 nm  f=0.0000  <S**2>=0.000
       5 -> 24        -0.21025
       6 -> 31         0.62203
       8 -> 40         0.13797

 Excited State 117:      Singlet-B2U   23.1832 eV   53.48 nm  f=0.0420  <S**2>=0.000
       3 -> 12         0.55406
       5 -> 28        -0.27487
       5 -> 31         0.13023
       6 -> 29         0.15286
       7 -> 33         0.19884
       7 -> 35        -0.11367

 Excited State 118:      Singlet-B1G   23.2155 eV   53.41 nm  f=0.0000  <S**2>=0.000
       4 -> 22        -0.47820
       6 -> 32         0.50631

 Excited State 119:      Singlet-B2U   23.5381 eV   52.67 nm  f=0.0039  <S**2>=0.000
       3 -> 12         0.29260
       5 -> 28         0.54619
       7 -> 35         0.25992
       7 -> 36        -0.16274

 Excited State 120:      Singlet-B2G   23.6491 eV   52.43 nm  f=0.0000  <S**2>=0.000
       4 -> 27         0.20607
       6 -> 34         0.67108

 Excited State 121:      Singlet-AU    23.7213 eV   52.27 nm  f=0.0000  <S**2>=0.000
       8 -> 38         0.70459

 Excited State 122:      Singlet-AG    23.8337 eV   52.02 nm  f=0.0000  <S**2>=0.000
       3 -> 13         0.67154
       3 -> 15         0.15470

 Excited State 123:      Singlet-AG    24.0318 eV   51.59 nm  f=0.0000  <S**2>=0.000
       3 -> 13         0.10219
       5 -> 29         0.67906

 Excited State 124:      Singlet-B1U   24.1039 eV   51.44 nm  f=0.0168  <S**2>=0.000
       4 -> 23         0.46545
       5 -> 30         0.51481

 Excited State 125:      Singlet-B3U   24.3224 eV   50.98 nm  f=0.1024  <S**2>=0.000
       5 -> 32         0.65143
       7 -> 37        -0.17270
       8 -> 39         0.17937

 Excited State 126:      Singlet-B1U   24.3268 eV   50.97 nm  f=0.0994  <S**2>=0.000
       4 -> 23         0.46222
       5 -> 30        -0.35661
       6 -> 35        -0.35680

 The electronic state is 1-AG.
 Alpha  occ. eigenvalues --  -10.30302 -10.30216  -0.85406  -0.66654  -0.55766
 Alpha  occ. eigenvalues --   -0.50785  -0.43718  -0.36008
 Alpha virt. eigenvalues --    0.07212   0.10172   0.11966   0.16846   0.20205
 Alpha virt. eigenvalues --    0.21868   0.23746   0.25187   0.25741   0.26723
 Alpha virt. eigenvalues --    0.28724   0.33212   0.33763   0.34037   0.38646

 Mulliken charges:
               1
     1  C    0.080152
     2  C    0.080152
     3  H   -0.040076
     4  H   -0.040076
     5  H   -0.040076
     6  H   -0.040076
 Sum of Mulliken charges =  -0.00000

 Dipole moment (field-independent basis, Debye):
    X=              0.0000    Y=              0.0000    Z=              0.0000  Tot=              0.0000
 Quadrupole moment (field-independent basis, Debye-Ang):
   XX=            -15.4519   YY=            -12.3607   ZZ=            -12.2226
   XY=              0.0000   XZ=             -0.0000   YZ=             -0.0000

 Normal termination of Gaussian 16 at Sat Feb 12 22:22:51 2022.
