 Gaussian 16, Revision C.01,
 Gaussian 16:  EM64L-G16RevC.01  3-Jul-2019

 ----------------------------------------------------------------------
 #P TD(Nstates=10000) wB97XD/Gen SCF(maxcycles=100) Int(Grid=ultrafine)
 ----------------------------------------------------------------------

 ---------------------
 xGDB7_00001_tier4.com
 ---------------------
 Symbolic Z-matrix:
 Charge =  0 Multiplicity = 1

                         Standard orientation:
 ---------------------------------------------------------------------
 Center     Atomic      Atomic             Coordinates (Angstroms)
 Number     Number       Type             X           Y           Z
 ---------------------------------------------------------------------
      1          6           0        0.926669   -0.722797    0.000000
      2          6           0        0.000000    0.460274    0.000000
      3          8           0       -1.198832    0.391877    0.000000
      4          1           0        1.582040   -0.679438    0.884475
      5          1           0        1.582040   -0.679438   -0.884475
      6          1           0        0.354084   -1.659182    0.000000
      7          1           0        0.512478    1.458180    0.000000
 ---------------------------------------------------------------------

 SCF Done:  E(RwB97XD) =  -153.676409527     A.U. after   14 cycles

 Excitation energies and oscillator strengths:

 Excited State   1:      Singlet-A"     4.3704 eV  283.69 nm  f=0.0001  <S**2>=0.000
      12 -> 13         0.70390
 This state for optimization and/or second-order correction.
 Total Energy, E(TD-HF/TD-DFT) =  -153.515800147
 Copying the excited state density for this state as the 1-particle RhoCI density.

 Excited State   2:      Singlet-A'     7.6121 eV  162.88 nm  f=0.0193  <S**2>=0.000
      12 -> 14         0.64822
      12 -> 15         0.24392

 Excited State   3:      Singlet-A'     8.4382 eV  146.93 nm  f=0.0820  <S**2>=0.000
      11 -> 13        -0.10217
      12 -> 14        -0.21909
      12 -> 15         0.63772
      12 -> 17        -0.10864

 Excited State   4:      Singlet-A"     8.8331 eV  140.36 nm  f=0.0005  <S**2>=0.000
       7 -> 13         0.13580
       9 -> 13        -0.12334
      10 -> 13         0.67933

 Excited State   5:      Singlet-A'     9.0674 eV  136.74 nm  f=0.1391  <S**2>=0.000
      11 -> 13         0.47241
      12 -> 17        -0.43958
      12 -> 18         0.25210

 Excited State   6:      Singlet-A"     9.3236 eV  132.98 nm  f=0.0152  <S**2>=0.000
      12 -> 16         0.68236
      12 -> 19        -0.13453

 Excited State   7:      Singlet-A'     9.4001 eV  131.90 nm  f=0.2411  <S**2>=0.000
      11 -> 13         0.44756
      12 -> 14        -0.13747
      12 -> 17         0.47594

 Excited State   8:      Singlet-A"     9.5924 eV  129.25 nm  f=0.0007  <S**2>=0.000
       9 -> 13         0.68350
      10 -> 13         0.11454

 Excited State   9:      Singlet-A'     9.7272 eV  127.46 nm  f=0.0001  <S**2>=0.000
      11 -> 13        -0.14203
      12 -> 17         0.20842
      12 -> 18         0.62134
      12 -> 20         0.13489

 Excited State  10:      Singlet-A"    10.0538 eV  123.32 nm  f=0.0025  <S**2>=0.000
      12 -> 16         0.12432
      12 -> 19         0.67982

 Excited State  11:      Singlet-A'    10.2352 eV  121.13 nm  f=0.0843  <S**2>=0.000
      12 -> 18        -0.11791
      12 -> 20         0.67227

 Excited State  12:      Singlet-A"    10.4617 eV  118.51 nm  f=0.0100  <S**2>=0.000
      11 -> 14         0.68688

 Excited State  13:      Singlet-A'    10.7511 eV  115.32 nm  f=0.0079  <S**2>=0.000
       8 -> 13         0.20311
      12 -> 21         0.65105

 Excited State  14:      Singlet-A"    10.9241 eV  113.50 nm  f=0.0050  <S**2>=0.000
       7 -> 13         0.67801
      10 -> 13        -0.14573

 Excited State  15:      Singlet-A'    11.0217 eV  112.49 nm  f=0.0316  <S**2>=0.000
       8 -> 13         0.39942
      10 -> 14         0.52792
      10 -> 15        -0.10104
      12 -> 21        -0.13605

 Excited State  16:      Singlet-A'    11.1854 eV  110.84 nm  f=0.1333  <S**2>=0.000
       8 -> 13         0.48377
      10 -> 14        -0.41821
      10 -> 15         0.10465
      12 -> 21        -0.13896
      12 -> 23        -0.14115

 Excited State  17:      Singlet-A"    11.2838 eV  109.88 nm  f=0.0534  <S**2>=0.000
       8 -> 14         0.16179
      11 -> 15         0.67167

 Excited State  18:      Singlet-A"    11.6229 eV  106.67 nm  f=0.0060  <S**2>=0.000
      12 -> 22         0.68287

 Excited State  19:      Singlet-A'    11.7408 eV  105.60 nm  f=0.0496  <S**2>=0.000
       8 -> 13         0.13337
      12 -> 23         0.47953
      12 -> 24         0.43865
      12 -> 25         0.12715

 Excited State  20:      Singlet-A'    12.0618 eV  102.79 nm  f=0.1134  <S**2>=0.000
      10 -> 14         0.13950
      10 -> 15         0.63404
      11 -> 16         0.13255
      12 -> 24        -0.12566

 Excited State  21:      Singlet-A'    12.0891 eV  102.56 nm  f=0.0364  <S**2>=0.000
       9 -> 14        -0.10145
      10 -> 15         0.12480
      11 -> 16        -0.21971
      12 -> 23        -0.42891
      12 -> 24         0.44815

 Excited State  22:      Singlet-A"    12.1072 eV  102.41 nm  f=0.1364  <S**2>=0.000
       8 -> 14         0.32510
      11 -> 17         0.58422
      11 -> 18        -0.13911

 Excited State  23:      Singlet-A'    12.3555 eV  100.35 nm  f=0.0773  <S**2>=0.000
      11 -> 16         0.61220
      12 -> 23        -0.13466
      12 -> 24         0.21254
      12 -> 25        -0.15887

 Excited State  24:      Singlet-A"    12.4655 eV   99.46 nm  f=0.0220  <S**2>=0.000
       8 -> 14         0.18788
       8 -> 15        -0.10652
      11 -> 18         0.64369

 Excited State  25:      Singlet-A'    12.5829 eV   98.53 nm  f=0.0121  <S**2>=0.000
       9 -> 14        -0.32192
      11 -> 16         0.16223
      12 -> 25         0.56793

 Excited State  26:      Singlet-A'    12.6863 eV   97.73 nm  f=0.0022  <S**2>=0.000
       9 -> 14         0.57328
      10 -> 17        -0.14189
      12 -> 25         0.29319

 Excited State  27:      Singlet-A"    12.7403 eV   97.32 nm  f=0.0423  <S**2>=0.000
       8 -> 14         0.53541
      10 -> 16         0.10820
      11 -> 15        -0.14444
      11 -> 17        -0.33311
      11 -> 18        -0.10259

 Excited State  28:      Singlet-A"    12.8296 eV   96.64 nm  f=0.0019  <S**2>=0.000
       8 -> 15        -0.12015
      10 -> 16         0.59933
      10 -> 19         0.24034
      11 -> 20        -0.16773

 Excited State  29:      Singlet-A"    12.9890 eV   95.45 nm  f=0.0029  <S**2>=0.000
       8 -> 14        -0.10795
       8 -> 15         0.32041
      10 -> 16         0.20997
      11 -> 17         0.11613
      11 -> 20         0.54486

 Excited State  30:      Singlet-A'    13.0905 eV   94.71 nm  f=0.0257  <S**2>=0.000
       7 -> 14        -0.12917
       8 -> 16        -0.12167
       9 -> 15         0.16677
      10 -> 17        -0.13221
      11 -> 19         0.59967
      12 -> 25        -0.11680

 Excited State  31:      Singlet-A'    13.1603 eV   94.21 nm  f=0.0089  <S**2>=0.000
       9 -> 15         0.20025
      10 -> 17         0.55873
      10 -> 20        -0.28483

 Excited State  32:      Singlet-A'    13.2470 eV   93.59 nm  f=0.0697  <S**2>=0.000
       7 -> 14        -0.12678
       9 -> 15         0.24854
      10 -> 18         0.58459
      10 -> 20         0.15248

 Excited State  33:      Singlet-A"    13.4011 eV   92.52 nm  f=0.0230  <S**2>=0.000
      10 -> 19        -0.15431
      12 -> 26         0.65699

 Excited State  34:      Singlet-A"    13.4328 eV   92.30 nm  f=0.0041  <S**2>=0.000
       8 -> 15        -0.34199
       8 -> 17         0.23066
      11 -> 18        -0.11047
      11 -> 20         0.26318
      11 -> 21         0.43945
      12 -> 26        -0.12636

 Excited State  35:      Singlet-A'    13.4398 eV   92.25 nm  f=0.0998  <S**2>=0.000
       9 -> 15         0.54901
       9 -> 17        -0.18434
      10 -> 17        -0.12286
      10 -> 18        -0.23995
      11 -> 19        -0.18997

 Excited State  36:      Singlet-A"    13.7215 eV   90.36 nm  f=0.0307  <S**2>=0.000
       6 -> 13        -0.13885
       8 -> 15        -0.11612
      10 -> 16        -0.21566
      10 -> 19         0.53961
      10 -> 22        -0.17503
      11 -> 20         0.17964
      12 -> 26         0.11783
      12 -> 27        -0.10543

 Excited State  37:      Singlet-A'    13.7251 eV   90.33 nm  f=0.0288  <S**2>=0.000
       7 -> 14         0.47104
       7 -> 15         0.18666
       8 -> 16         0.12403
       9 -> 17        -0.15549
      10 -> 20         0.33773
      11 -> 19         0.12374
      11 -> 22        -0.15642

 Excited State  38:      Singlet-A"    13.8237 eV   89.69 nm  f=0.0000  <S**2>=0.000
       6 -> 13         0.28565
       8 -> 15         0.32676
       8 -> 18         0.21342
      10 -> 19         0.12788
      11 -> 21         0.41995
      11 -> 23        -0.13277

 Excited State  39:      Singlet-A'    13.9629 eV   88.80 nm  f=0.0501  <S**2>=0.000
       7 -> 14         0.43226
       7 -> 15        -0.16348
       8 -> 16        -0.14389
       9 -> 18        -0.12229
      10 -> 15        -0.14079
      10 -> 17        -0.14785
      10 -> 18         0.17159
      10 -> 20        -0.29096
      10 -> 21         0.20536
      11 -> 22         0.12868

 Excited State  40:      Singlet-A"    13.9953 eV   88.59 nm  f=0.0007  <S**2>=0.000
       6 -> 13         0.37329
       8 -> 15        -0.27437
       8 -> 17        -0.10809
       8 -> 18         0.13776
       8 -> 20         0.14838
      11 -> 20         0.15602
      11 -> 21        -0.18786
      12 -> 27         0.35787

 Excited State  41:      Singlet-A"    14.0971 eV   87.95 nm  f=0.0001  <S**2>=0.000
       6 -> 13        -0.26274
       8 -> 15         0.14161
       8 -> 18        -0.12262
       9 -> 16         0.16515
      11 -> 23         0.10177
      12 -> 27         0.55424

 Excited State  42:      Singlet-A'    14.1324 eV   87.73 nm  f=0.0881  <S**2>=0.000
       7 -> 14         0.11576
       7 -> 15         0.16735
       9 -> 17         0.46533
       9 -> 18        -0.18215
      10 -> 20        -0.12822
      10 -> 21        -0.26979
      12 -> 28        -0.20416

 Excited State  43:      Singlet-A'    14.2248 eV   87.16 nm  f=0.0936  <S**2>=0.000
       7 -> 15         0.10389
       7 -> 17        -0.11046
       8 -> 16         0.11653
       9 -> 18         0.20801
      10 -> 17        -0.11003
      10 -> 20        -0.15023
      10 -> 21        -0.15392
      12 -> 28         0.55776

 Excited State  44:      Singlet-A"    14.2892 eV   86.77 nm  f=0.0004  <S**2>=0.000
       6 -> 13         0.11504
       9 -> 16         0.63312
      10 -> 22         0.19585
      12 -> 27        -0.11663

 Excited State  45:      Singlet-A'    14.3116 eV   86.63 nm  f=0.0194  <S**2>=0.000
       8 -> 16        -0.28887
       9 -> 17         0.28876
      10 -> 17         0.19955
      10 -> 20         0.23953
      10 -> 25         0.12850
      11 -> 22         0.32849
      12 -> 28         0.21649

 Excited State  46:      Singlet-A"    14.4533 eV   85.78 nm  f=0.0222  <S**2>=0.000
       6 -> 13         0.21003
       8 -> 17        -0.17273
       8 -> 18        -0.39584
       8 -> 20         0.13051
      10 -> 19         0.10295
      11 -> 18        -0.10875
      11 -> 21         0.11334
      11 -> 23         0.40435
      11 -> 25        -0.13325

 Excited State  47:      Singlet-A'    14.5666 eV   85.12 nm  f=0.1104  <S**2>=0.000
       7 -> 15         0.45713
       8 -> 16        -0.21628
       8 -> 19        -0.11558
       9 -> 18         0.30131
       9 -> 20        -0.11877
      10 -> 20        -0.16678
      10 -> 21         0.11098
      12 -> 28        -0.14887

 Excited State  48:      Singlet-A"    14.6322 eV   84.73 nm  f=0.0787  <S**2>=0.000
       6 -> 13        -0.17886
       8 -> 17        -0.30468
       8 -> 18         0.21720
       8 -> 20         0.12855
       8 -> 21         0.18551
      11 -> 21         0.12603
      11 -> 24         0.45847
      11 -> 25         0.11066

 Excited State  49:      Singlet-A'    14.6932 eV   84.38 nm  f=0.0079  <S**2>=0.000
       7 -> 15        -0.32801
       8 -> 16        -0.15756
       9 -> 17         0.11544
       9 -> 18         0.39004
       9 -> 20         0.16536
      10 -> 21        -0.13876
      12 -> 28        -0.14883
      12 -> 29         0.21898

 Excited State  50:      Singlet-A"    14.7084 eV   84.29 nm  f=0.0096  <S**2>=0.000
       7 -> 16         0.28724
       9 -> 16         0.13368
       9 -> 19         0.44570
      10 -> 22        -0.35254
      11 -> 23         0.12586

 Excited State  51:      Singlet-A'    14.7196 eV   84.23 nm  f=0.0685  <S**2>=0.000
       8 -> 16         0.14667
       8 -> 19         0.18189
       9 -> 17        -0.16792
       9 -> 18         0.14119
      10 -> 18         0.12465
      10 -> 21        -0.24783
      11 -> 22         0.49507
      12 -> 28        -0.12667

 Excited State  52:      Singlet-A"    14.8311 eV   83.60 nm  f=0.0378  <S**2>=0.000
       6 -> 13         0.11946
       8 -> 17         0.34389
       8 -> 18         0.28182
       8 -> 21        -0.13746
      10 -> 19         0.10030
      10 -> 22         0.16226
      11 -> 21        -0.12023
      11 -> 23         0.37664
      11 -> 24         0.14203
      11 -> 25         0.11517

 Excited State  53:      Singlet-A'    14.8730 eV   83.36 nm  f=0.1546  <S**2>=0.000
       8 -> 16         0.38362
       8 -> 19         0.13200
       9 -> 17         0.20871
       9 -> 18         0.19357
      10 -> 21         0.41611
      12 -> 29         0.10762

 Excited State  54:      Singlet-A"    15.0096 eV   82.60 nm  f=0.0616  <S**2>=0.000
       6 -> 13         0.13484
       8 -> 17         0.15280
       8 -> 18        -0.20587
       8 -> 20        -0.25039
       8 -> 21         0.11915
       9 -> 19         0.22579
      10 -> 19         0.13858
      10 -> 22         0.22892
      11 -> 23        -0.25318
      11 -> 24         0.33383

 Excited State  55:      Singlet-A"    15.0800 eV   82.22 nm  f=0.0042  <S**2>=0.000
       7 -> 16        -0.10020
       8 -> 17        -0.23935
       8 -> 18         0.11781
       9 -> 19         0.40685
      10 -> 22         0.33013
      11 -> 24        -0.27194
      11 -> 25         0.14083

 Excited State  56:      Singlet-A'    15.1044 eV   82.08 nm  f=0.1309  <S**2>=0.000
       7 -> 18        -0.13269
       8 -> 19        -0.11661
       9 -> 18        -0.17452
       9 -> 21         0.11567
      10 -> 24        -0.17665
      12 -> 29         0.56074

 Excited State  57:      Singlet-A'    15.1905 eV   81.62 nm  f=0.0011  <S**2>=0.000
       7 -> 15         0.12724
       7 -> 17        -0.11784
       7 -> 18         0.22366
       8 -> 16        -0.12386
       8 -> 19         0.14697
       9 -> 20         0.53333
      10 -> 23        -0.14596

 Excited State  58:      Singlet-A'    15.3149 eV   80.96 nm  f=0.0296  <S**2>=0.000
       8 -> 16        -0.20683
       8 -> 19         0.53648
       8 -> 22        -0.12664
       9 -> 20        -0.19829
      11 -> 22        -0.18133
      12 -> 29         0.15816

 Excited State  59:      Singlet-A"    15.3488 eV   80.78 nm  f=0.1707  <S**2>=0.000
       6 -> 13         0.13130
       7 -> 16         0.21353
       7 -> 19         0.12784
       8 -> 17        -0.19884
       8 -> 20        -0.26993
       9 -> 19        -0.18795
      10 -> 19         0.11126
      10 -> 22        -0.10784
      11 -> 25         0.43724

 Excited State  60:      Singlet-A'    15.4967 eV   80.01 nm  f=0.1326  <S**2>=0.000
       7 -> 17        -0.26457
       7 -> 18         0.41679
       7 -> 20         0.14632
       7 -> 21         0.10822
       8 -> 19        -0.15890
       9 -> 20        -0.22668
       9 -> 21        -0.11167
       9 -> 23         0.10809
      10 -> 23        -0.22243
      12 -> 29         0.10995

 Excited State  61:      Singlet-A'    15.5603 eV   79.68 nm  f=0.0014  <S**2>=0.000
       7 -> 15        -0.15197
       7 -> 17        -0.35582
       7 -> 18        -0.10059
       9 -> 18         0.10610
       9 -> 21         0.42278
      10 -> 24        -0.10442
      12 -> 29        -0.11272
      12 -> 30         0.23073

 Excited State  62:      Singlet-A'    15.6094 eV   79.43 nm  f=0.0580  <S**2>=0.000
       7 -> 17         0.19446
       9 -> 21        -0.11891
      10 -> 23        -0.32422
      10 -> 24        -0.31265
      10 -> 25        -0.19316
      12 -> 30         0.39904

 Excited State  63:      Singlet-A"    15.6453 eV   79.25 nm  f=0.0406  <S**2>=0.000
       7 -> 16         0.25268
       8 -> 18        -0.11640
       8 -> 20         0.43762
       8 -> 21        -0.25017
       8 -> 23        -0.15514
      10 -> 22         0.10976
      11 -> 23        -0.18435
      11 -> 25         0.22640

 Excited State  64:      Singlet-A"    15.6932 eV   79.00 nm  f=0.1462  <S**2>=0.000
       7 -> 16         0.50047
       8 -> 18         0.10181
       8 -> 21         0.13376
       9 -> 22         0.17826
      10 -> 22         0.23057
      11 -> 25        -0.26403

 Excited State  65:      Singlet-A'    15.7355 eV   78.79 nm  f=0.1731  <S**2>=0.000
       7 -> 20        -0.12904
       9 -> 21        -0.11370
      10 -> 24         0.38749
      10 -> 25         0.20159
      12 -> 30         0.44278
      12 -> 32         0.10989

 Excited State  66:      Singlet-A'    16.0206 eV   77.39 nm  f=0.0534  <S**2>=0.000
       7 -> 17        -0.17379
       7 -> 20         0.24256
       9 -> 21        -0.33109
       9 -> 23        -0.14682
      10 -> 20         0.10765
      10 -> 23         0.35349
      10 -> 25        -0.23880

 Excited State  67:      Singlet-A'    16.0864 eV   77.07 nm  f=0.0059  <S**2>=0.000
       7 -> 17         0.27904
       7 -> 18         0.33974
       7 -> 20         0.13451
       9 -> 21         0.25634
      10 -> 23         0.24775
      12 -> 32         0.26207
      12 -> 34         0.15580

 Excited State  68:      Singlet-A"    16.1308 eV   76.86 nm  f=0.1294  <S**2>=0.000
       7 -> 19        -0.34197
      11 -> 25         0.15580
      12 -> 31         0.55559

 Excited State  69:      Singlet-A'    16.1499 eV   76.77 nm  f=0.0882  <S**2>=0.000
       6 -> 14         0.12686
       7 -> 17        -0.11511
       7 -> 18         0.15909
       7 -> 20        -0.10045
       7 -> 21        -0.14209
       9 -> 20        -0.12966
       9 -> 21        -0.17005
      10 -> 21        -0.10645
      10 -> 23         0.15137
      10 -> 24        -0.31252
      10 -> 25         0.40818
      12 -> 32        -0.13269

 Excited State  70:      Singlet-A'    16.1837 eV   76.61 nm  f=0.0162  <S**2>=0.000
       7 -> 17        -0.16623
       7 -> 20        -0.15229
      12 -> 29        -0.16602
      12 -> 30        -0.15469
      12 -> 32         0.56125

 Excited State  71:      Singlet-A"    16.2364 eV   76.36 nm  f=0.0000  <S**2>=0.000
       8 -> 17         0.15422
       8 -> 20         0.17730
       8 -> 21         0.49943
       8 -> 24        -0.16144
      11 -> 17        -0.10133
      11 -> 24        -0.16682
      11 -> 25         0.20608
      12 -> 31        -0.23712

 Excited State  72:      Singlet-A"    16.2868 eV   76.13 nm  f=0.0433  <S**2>=0.000
       7 -> 19         0.52172
       8 -> 20         0.10465
       8 -> 21         0.17168
       8 -> 24        -0.10344
       9 -> 22        -0.13776
      12 -> 31         0.33515

 Excited State  73:      Singlet-A'    16.3724 eV   75.73 nm  f=0.1074  <S**2>=0.000
       6 -> 14         0.40205
       7 -> 20        -0.11926
       8 -> 22         0.39535
      10 -> 25        -0.11371
      11 -> 26        -0.14288
      11 -> 27        -0.22221

 Excited State  74:      Singlet-A'    16.4385 eV   75.42 nm  f=0.0261  <S**2>=0.000
       6 -> 14         0.47127
       8 -> 22        -0.36714
       9 -> 23        -0.14591
       9 -> 24        -0.13262
      11 -> 27         0.18498

 Excited State  75:      Singlet-A"    16.5052 eV   75.12 nm  f=0.0138  <S**2>=0.000
       6 -> 16        -0.10650
       7 -> 16        -0.13685
       7 -> 19         0.17713
       7 -> 22         0.10110
       9 -> 22         0.62565
      10 -> 22        -0.10643

 Excited State  76:      Singlet-A'    16.5710 eV   74.82 nm  f=0.0362  <S**2>=0.000
       7 -> 18        -0.12646
       7 -> 20         0.27893
       7 -> 21        -0.18232
       9 -> 23        -0.12537
      10 -> 23        -0.15658
      10 -> 25         0.20317
      11 -> 26        -0.32461
      12 -> 34         0.33819
      12 -> 37        -0.10372

 Excited State  77:      Singlet-A'    16.7326 eV   74.10 nm  f=0.0249  <S**2>=0.000
       6 -> 14         0.13043
       7 -> 18        -0.11755
       7 -> 20         0.17671
       8 -> 19         0.10050
       9 -> 23         0.21559
       9 -> 25         0.12412
      11 -> 26         0.47127
      12 -> 34         0.21211
      12 -> 35         0.17715

 Excited State  78:      Singlet-A"    16.7746 eV   73.91 nm  f=0.0038  <S**2>=0.000
       8 -> 23         0.38410
       8 -> 24         0.40077
       8 -> 25         0.20091
      12 -> 33        -0.31995

 Excited State  79:      Singlet-A'    16.8244 eV   73.69 nm  f=0.1775  <S**2>=0.000
       7 -> 21         0.15076
       8 -> 22        -0.13193
       9 -> 23         0.49776
      10 -> 23         0.14856
      11 -> 26        -0.25125
      11 -> 27         0.17954
      12 -> 34         0.14471

 Excited State  80:      Singlet-A'    16.8541 eV   73.56 nm  f=0.0102  <S**2>=0.000
       7 -> 17         0.10980
       7 -> 20         0.39708
       7 -> 21         0.10517
       9 -> 23         0.14192
       9 -> 24        -0.10515
      10 -> 25         0.15346

 The electronic state is 1-A'.
 Alpha  occ. eigenvalues --  -19.27079 -10.40096 -10.31609  -1.15137  -0.85158
 Alpha  occ. eigenvalues --   -0.67252  -0.57600  -0.54004  -0.53361  -0.48825
 Alpha  occ. eigenvalues --   -0.45995  -0.34985
 Alpha virt. eigenvalues --    0.04111   0.08852   0.11482   0.15670   0.15922
 Alpha virt. eigenvalues --    0.17443   0.18888   0.18937   0.20257   0.23502
 Alpha virt. eigenvalues --    0.24996   0.26177   0.27446   0.31666   0.33634

 Mulliken charges:
               1
     1  C    0.135389
     2  C    0.045145
     3  O   -0.327237
     4  H    0.107704
     5  H    0.107704
     6  H    0.023134
     7  H   -0.091840
 Sum of Mulliken charges =  -0.00000

 Dipole moment (field-independent basis, Debye):
    X=              2.9325    Y=             -0.3451    Z=              0.0000  Tot=              2.9528
 Quadrupole moment (field-independent basis, Debye-Ang):
   XX=            -21.2375   YY=            -17.8927   ZZ=            -17.9262
   XY=              0.8397   XZ=              0.0000   YZ=              0.0000

 Normal termination of Gaussian 16 at Sat Feb 12 22:18:52 2022.
