 Gaussian 16, Revision C.01,
 Gaussian 16:  EM64L-G16RevC.01  3-Jul-2019

 ----------------------------------------------------------------------
 #P TD(Nstates=10000) wB97XD/Gen SCF(maxcycles=100) Int(Grid=ultrafine)
 ----------------------------------------------------------------------

 ---------------------
 xGDB7_00001_tier4.com
 ---------------------
 Symbolic Z-matrix:
 Charge =  0 Multiplicity = 1

                         Standard orientation:
 ---------------------------------------------------------------------
 Center     Atomic      Atomic             Coordinates (Angstroms)
 Number     Number       Type             X           Y           Z
 ---------------------------------------------------------------------
      1          9           0        0.000000    0.000000    0.688459
      2          9           0        0.000000    0.000000   -0.688459
 ---------------------------------------------------------------------

 SCF Done:  E(RwB97XD) =  -199.301726226     A.U. after   10 cycles

 Excitation energies and oscillator strengths:

 Excited state symmetry could not be determined.
 Excited State   1:      Singlet-?Sym    4.8849 eV  253.81 nm  f=0.0001  <S**2>=0.000
       8 -> 10         0.68900
       9 -> 10         0.15825
 This state for optimization and/or second-order correction.
 Total Energy, E(TD-HF/TD-DFT) =  -199.122208415
 Copying the excited state density for this state as the 1-particle RhoCI density.

 Excited state symmetry could not be determined.
 Excited State   2:      Singlet-?Sym    4.8849 eV  253.81 nm  f=0.0001  <S**2>=0.000
       8 -> 10        -0.15825
       9 -> 10         0.68900

 Excited state symmetry could not be determined.
 Excited State   3:      Singlet-?Sym    8.7860 eV  141.12 nm  f=0.0000  <S**2>=0.000
       6 -> 10         0.18500
       7 -> 10         0.68054

 Excited state symmetry could not be determined.
 Excited State   4:      Singlet-?Sym    8.7860 eV  141.12 nm  f=0.0000  <S**2>=0.000
       6 -> 10         0.68054
       7 -> 10        -0.18500

 Excited state symmetry could not be determined.
 Excited State   5:      Singlet-?Sym   13.3631 eV   92.78 nm  f=0.0000  <S**2>=0.000
       8 -> 12        -0.42395
       9 -> 12         0.54354

 Excited state symmetry could not be determined.
 Excited State   6:      Singlet-?Sym   13.3631 eV   92.78 nm  f=0.0000  <S**2>=0.000
       8 -> 12         0.54354
       9 -> 12         0.42395

 Excited state symmetry could not be determined.
 Excited State   7:      Singlet-?Sym   13.4995 eV   91.84 nm  f=0.0328  <S**2>=0.000
       8 -> 11        -0.25932
       9 -> 11         0.64525

 Excited state symmetry could not be determined.
 Excited State   8:      Singlet-?Sym   13.4995 eV   91.84 nm  f=0.0328  <S**2>=0.000
       8 -> 11         0.64525
       9 -> 11         0.25932

 Excited State   9:      Singlet-SGU   13.5385 eV   91.58 nm  f=0.4444  <S**2>=0.000
       5 -> 10         0.49533
       8 -> 14        -0.35140
       9 -> 13        -0.35140

 Excited state symmetry could not be determined.
 Excited State  10:      Singlet-?Sym   14.4501 eV   85.80 nm  f=0.0000  <S**2>=0.000
       8 -> 13         0.49816
       9 -> 14         0.49816

 Excited state symmetry could not be determined.
 Excited State  11:      Singlet-?Sym   14.4502 eV   85.80 nm  f=0.0000  <S**2>=0.000
       8 -> 14        -0.49816
       9 -> 13         0.49816

 Excited state symmetry could not be determined.
 Excited State  12:      Singlet-?Sym   14.5139 eV   85.42 nm  f=0.0000  <S**2>=0.000
       8 -> 13        -0.49841
       9 -> 14         0.49841

 Excited state symmetry could not be determined.
 Excited State  13:      Singlet-?Sym   16.1270 eV   76.88 nm  f=0.0000  <S**2>=0.000
       7 -> 11        -0.18628
       9 -> 17         0.67076

 Excited state symmetry could not be determined.
 Excited State  14:      Singlet-?Sym   16.1270 eV   76.88 nm  f=0.0000  <S**2>=0.000
       6 -> 11        -0.18628
       8 -> 17         0.67076

 Excited state symmetry could not be determined.
 Excited State  15:      Singlet-?Sym   16.2607 eV   76.25 nm  f=0.0000  <S**2>=0.000
       6 -> 14         0.10622
       7 -> 13        -0.10622
       8 -> 15         0.48804
       9 -> 16        -0.48804

 Excited state symmetry could not be determined.
 Excited State  16:      Singlet-?Sym   16.2607 eV   76.25 nm  f=0.0000  <S**2>=0.000
       6 -> 13         0.10622
       7 -> 14         0.10622
       8 -> 16         0.48804
       9 -> 15         0.48804

 Excited State  17:      Singlet-SGU   16.3235 eV   75.95 nm  f=0.2587  <S**2>=0.000
       5 -> 10         0.46312
       5 -> 11         0.18641
       8 -> 14         0.34491
       9 -> 13         0.34491

 Excited state symmetry could not be determined.
 Excited State  18:      Singlet-?Sym   16.3245 eV   75.95 nm  f=0.0000  <S**2>=0.000
       8 -> 16        -0.48947
       9 -> 15         0.48947

 Excited state symmetry could not be determined.
 Excited State  19:      Singlet-?Sym   16.8371 eV   73.64 nm  f=0.0000  <S**2>=0.000
       8 -> 15         0.49519
       9 -> 16         0.49519

 Excited state symmetry could not be determined.
 Excited State  20:      Singlet-?Sym   17.4357 eV   71.11 nm  f=0.1262  <S**2>=0.000
       6 -> 12         0.68053
       6 -> 17        -0.14568

 Excited state symmetry could not be determined.
 Excited State  21:      Singlet-?Sym   17.4357 eV   71.11 nm  f=0.1262  <S**2>=0.000
       7 -> 12         0.68053
       7 -> 17        -0.14568

 Excited state symmetry could not be determined.
 Excited State  22:      Singlet-?Sym   17.6622 eV   70.20 nm  f=0.0000  <S**2>=0.000
       6 -> 11         0.65494
       7 -> 11        -0.14757
       8 -> 12         0.11633
       8 -> 17         0.16596

 Excited state symmetry could not be determined.
 Excited State  23:      Singlet-?Sym   17.6622 eV   70.20 nm  f=0.0000  <S**2>=0.000
       6 -> 11         0.14757
       7 -> 11         0.65494
       9 -> 12         0.11633
       9 -> 17         0.16596

 Excited state symmetry could not be determined.
 Excited State  24:      Singlet-?Sym   18.4260 eV   67.29 nm  f=0.0000  <S**2>=0.000
       6 -> 13         0.48828
       7 -> 14         0.48828
       8 -> 16        -0.10642
       9 -> 15        -0.10642

 Excited state symmetry could not be determined.
 Excited State  25:      Singlet-?Sym   18.4260 eV   67.29 nm  f=0.0000  <S**2>=0.000
       6 -> 14        -0.48828
       7 -> 13         0.48828
       8 -> 15         0.10642
       9 -> 16        -0.10642

 Excited state symmetry could not be determined.
 Excited State  26:      Singlet-?Sym   18.5157 eV   66.96 nm  f=0.0000  <S**2>=0.000
       6 -> 13         0.48964
       7 -> 14        -0.48964
       8 -> 16        -0.10015
       9 -> 15         0.10015

 Excited State  27:      Singlet-SGG   18.7614 eV   66.08 nm  f=0.0000  <S**2>=0.000
       5 -> 12         0.48527
       6 -> 14        -0.35903
       7 -> 13        -0.35903

 Excited State  28:      Singlet-SGG   19.4698 eV   63.68 nm  f=0.0000  <S**2>=0.000
       5 -> 12         0.48673
       5 -> 17        -0.15701
       6 -> 14         0.33881
       7 -> 13         0.33881

 Excited State  29:      Singlet-SGU   19.4933 eV   63.60 nm  f=0.0075  <S**2>=0.000
       5 -> 10        -0.10044
       5 -> 11         0.64404
       6 -> 15         0.17141
       7 -> 16         0.17141

 Excited state symmetry could not be determined.
 Excited State  30:      Singlet-?Sym   19.9958 eV   62.01 nm  f=0.0091  <S**2>=0.000
       5 -> 13         0.69448
       7 -> 17         0.11676

 Excited state symmetry could not be determined.
 Excited State  31:      Singlet-?Sym   19.9958 eV   62.01 nm  f=0.0091  <S**2>=0.000
       5 -> 14         0.69448
       6 -> 17         0.11676

 Excited state symmetry could not be determined.
 Excited State  32:      Singlet-?Sym   20.1769 eV   61.45 nm  f=0.0752  <S**2>=0.000
       5 -> 13        -0.11629
       6 -> 17        -0.13570
       7 -> 12         0.13966
       7 -> 17         0.66484

 Excited state symmetry could not be determined.
 Excited State  33:      Singlet-?Sym   20.1769 eV   61.45 nm  f=0.0752  <S**2>=0.000
       5 -> 14        -0.11629
       6 -> 12         0.13966
       6 -> 17         0.66484
       7 -> 17         0.13570

 Excited state symmetry could not be determined.
 Excited State  34:      Singlet-?Sym   20.2791 eV   61.14 nm  f=0.0000  <S**2>=0.000
       6 -> 16         0.49768
       7 -> 15         0.49768

 Excited state symmetry could not be determined.
 Excited State  35:      Singlet-?Sym   20.2791 eV   61.14 nm  f=0.0000  <S**2>=0.000
       6 -> 15         0.49768
       7 -> 16        -0.49768

 Excited state symmetry could not be determined.
 Excited State  36:      Singlet-?Sym   20.3331 eV   60.98 nm  f=0.0000  <S**2>=0.000
       6 -> 16        -0.49812
       7 -> 15         0.49812

 Excited state symmetry could not be determined.
 Excited State  37:      Singlet-?Sym   20.6934 eV   59.91 nm  f=0.0091  <S**2>=0.000
       5 -> 10         0.13175
       5 -> 11        -0.20841
       6 -> 15         0.46075
       7 -> 16         0.46075

 Excited state symmetry could not be determined.
 Excited State  38:      Singlet-?Sym   21.6781 eV   57.19 nm  f=0.0636  <S**2>=0.000
       9 -> 18         0.69866

 Excited state symmetry could not be determined.
 Excited State  39:      Singlet-?Sym   21.6781 eV   57.19 nm  f=0.0636  <S**2>=0.000
       8 -> 18         0.69866

 Excited state symmetry could not be determined.
 Excited State  40:      Singlet-?Sym   21.8207 eV   56.82 nm  f=0.0000  <S**2>=0.000
       5 -> 15         0.68691
       5 -> 16         0.16154

 Excited state symmetry could not be determined.
 Excited State  41:      Singlet-?Sym   21.8207 eV   56.82 nm  f=0.0000  <S**2>=0.000
       5 -> 15        -0.16154
       5 -> 16         0.68691

 Excited State  42:      Singlet-SGG   21.8376 eV   56.78 nm  f=0.0000  <S**2>=0.000
       5 -> 12         0.14618
       5 -> 17         0.68245

 Excited state symmetry could not be determined.
 Excited State  43:      Singlet-?Sym   22.9944 eV   53.92 nm  f=0.0000  <S**2>=0.000
       8 -> 19        -0.15370
       8 -> 20         0.47423
       9 -> 19        -0.47422
       9 -> 20        -0.15370

 Excited state symmetry could not be determined.
 Excited State  44:      Singlet-?Sym   22.9944 eV   53.92 nm  f=0.0000  <S**2>=0.000
       8 -> 19         0.47422
       8 -> 20         0.15370
       9 -> 19        -0.15370
       9 -> 20         0.47423

 Excited state symmetry could not be determined.
 Excited State  45:      Singlet-?Sym   23.4206 eV   52.94 nm  f=0.0000  <S**2>=0.000
       8 -> 19         0.47624
       8 -> 20        -0.14499
       9 -> 19        -0.14499
       9 -> 20        -0.47623

 Excited state symmetry could not be determined.
 Excited State  46:      Singlet-?Sym   23.4206 eV   52.94 nm  f=0.0000  <S**2>=0.000
       8 -> 19         0.14499
       8 -> 20         0.47623
       9 -> 19         0.47624
       9 -> 20        -0.14499

 Excited State  47:      Singlet-SGG   25.3451 eV   48.92 nm  f=0.0000  <S**2>=0.000
       4 -> 10         0.68272

 Excited state symmetry could not be determined.
 Excited State  48:      Singlet-?Sym   25.5191 eV   48.58 nm  f=0.0000  <S**2>=0.000
       6 -> 18         0.64198
       7 -> 18        -0.28294

 Excited state symmetry could not be determined.
 Excited State  49:      Singlet-?Sym   25.5191 eV   48.58 nm  f=0.0000  <S**2>=0.000
       6 -> 18         0.28294
       7 -> 18         0.64198

 Excited state symmetry could not be determined.
 Excited State  50:      Singlet-?Sym   26.6022 eV   46.61 nm  f=0.0000  <S**2>=0.000
       6 -> 20         0.47652
       7 -> 19        -0.47650
       8 -> 24         0.13085
       9 -> 23        -0.13086

 Excited state symmetry could not be determined.
 Excited State  51:      Singlet-?Sym   26.6022 eV   46.61 nm  f=0.0000  <S**2>=0.000
       6 -> 19         0.47650
       7 -> 20         0.47652
       8 -> 23         0.13086
       9 -> 24         0.13085

 Excited State  52:      Singlet-SGU   27.0139 eV   45.90 nm  f=0.2988  <S**2>=0.000
       5 -> 18         0.62626
       8 -> 21         0.22624
       9 -> 22         0.22624

 Excited state symmetry could not be determined.
 Excited State  53:      Singlet-?Sym   27.1002 eV   45.75 nm  f=0.0000  <S**2>=0.000
       8 -> 22         0.49795
       9 -> 21         0.49795

 Excited state symmetry could not be determined.
 Excited State  54:      Singlet-?Sym   27.1003 eV   45.75 nm  f=0.0000  <S**2>=0.000
       8 -> 21         0.49795
       9 -> 22        -0.49795

 Excited state symmetry could not be determined.
 Excited State  55:      Singlet-?Sym   27.3335 eV   45.36 nm  f=0.0000  <S**2>=0.000
       8 -> 22        -0.49886
       9 -> 21         0.49886

 Excited state symmetry could not be determined.
 Excited State  56:      Singlet-?Sym   27.7400 eV   44.70 nm  f=0.4780  <S**2>=0.000
       6 -> 19         0.18128
       6 -> 20         0.46156
       7 -> 19         0.46158
       7 -> 20        -0.18127

 Excited state symmetry could not be determined.
 Excited State  57:      Singlet-?Sym   27.7400 eV   44.70 nm  f=0.4780  <S**2>=0.000
       6 -> 19         0.46158
       6 -> 20        -0.18127
       7 -> 19        -0.18128
       7 -> 20        -0.46156

 Excited state symmetry could not be determined.
 Excited State  58:      Singlet-?Sym   28.6929 eV   43.21 nm  f=0.0000  <S**2>=0.000
       5 -> 19         0.70403

 Excited state symmetry could not be determined.
 Excited State  59:      Singlet-?Sym   28.6929 eV   43.21 nm  f=0.0000  <S**2>=0.000
       5 -> 20         0.70403

 Excited state symmetry could not be determined.
 Excited State  60:      Singlet-?Sym   28.8008 eV   43.05 nm  f=0.9392  <S**2>=0.000
       4 -> 12        -0.11757
       5 -> 10        -0.11978
       5 -> 18        -0.31701
       8 -> 21         0.42120
       9 -> 22         0.42120

 Excited state symmetry could not be determined.
 Excited State  61:      Singlet-?Sym   29.4196 eV   42.14 nm  f=0.0000  <S**2>=0.000
       6 -> 20         0.10803
       7 -> 19        -0.10797
       8 -> 23         0.27890
       8 -> 24        -0.39328
       9 -> 23         0.39341
       9 -> 24         0.27881

 Excited state symmetry could not be determined.
 Excited State  62:      Singlet-?Sym   29.4196 eV   42.14 nm  f=0.0000  <S**2>=0.000
       6 -> 19        -0.10797
       7 -> 20        -0.10803
       8 -> 23         0.39341
       8 -> 24         0.27881
       9 -> 23        -0.27890
       9 -> 24         0.39328

 Excited state symmetry could not be determined.
 Excited State  63:      Singlet-?Sym   29.4662 eV   42.08 nm  f=0.0235  <S**2>=0.000
       8 -> 25         0.27329
       9 -> 25         0.63124

 Excited state symmetry could not be determined.
 Excited State  64:      Singlet-?Sym   29.4662 eV   42.08 nm  f=0.0235  <S**2>=0.000
       8 -> 25         0.63124
       9 -> 25        -0.27329

 Excited state symmetry could not be determined.
 Excited State  65:      Singlet-?Sym   29.8449 eV   41.54 nm  f=0.3833  <S**2>=0.000
       8 -> 23        -0.48744
       9 -> 24         0.48776

 Excited state symmetry could not be determined.
 Excited State  66:      Singlet-?Sym   29.8449 eV   41.54 nm  f=0.3833  <S**2>=0.000
       8 -> 24         0.48776
       9 -> 23         0.48744

 Excited state symmetry could not be determined.
 Excited State  67:      Singlet-?Sym   30.5360 eV   40.60 nm  f=0.0000  <S**2>=0.000
       6 -> 22         0.39749
       7 -> 21         0.39749
       8 -> 26         0.29943
       9 -> 27         0.29943

 Excited state symmetry could not be determined.
 Excited State  68:      Singlet-?Sym   30.5361 eV   40.60 nm  f=0.0000  <S**2>=0.000
       6 -> 21         0.39748
       7 -> 22        -0.39748
       8 -> 27         0.29944
       9 -> 26        -0.29944

 Excited state symmetry could not be determined.
 Excited State  69:      Singlet-?Sym   30.9233 eV   40.09 nm  f=0.0000  <S**2>=0.000
       6 -> 22        -0.40690
       7 -> 21         0.40690
       8 -> 26        -0.29010
       9 -> 27         0.29010

 Excited state symmetry could not be determined.
 Excited State  70:      Singlet-?Sym   31.2276 eV   39.70 nm  f=0.0000  <S**2>=0.000
       7 -> 25         0.25050
       9 -> 28         0.65672

 Excited state symmetry could not be determined.
 Excited State  71:      Singlet-?Sym   31.2276 eV   39.70 nm  f=0.0000  <S**2>=0.000
       6 -> 25         0.25050
       8 -> 28         0.65672

 Excited state symmetry could not be determined.
 Excited State  72:      Singlet-?Sym   31.5498 eV   39.30 nm  f=0.0000  <S**2>=0.000
       4 -> 10         0.13487
       4 -> 11         0.31717
       6 -> 21         0.40236
       7 -> 22         0.40236
       8 -> 27         0.15718
       9 -> 26         0.15718

 Excited state symmetry could not be determined.
 Excited State  73:      Singlet-?Sym   31.8088 eV   38.98 nm  f=0.0000  <S**2>=0.000
       6 -> 21         0.30122
       7 -> 22        -0.30122
       8 -> 27        -0.39786
       9 -> 26         0.39786

 Excited state symmetry could not be determined.
 Excited State  74:      Singlet-?Sym   31.8088 eV   38.98 nm  f=0.0000  <S**2>=0.000
       6 -> 22        -0.30121
       7 -> 21        -0.30121
       8 -> 26         0.39787
       9 -> 27         0.39787

 Excited state symmetry could not be determined.
 Excited State  75:      Singlet-?Sym   31.8590 eV   38.92 nm  f=0.0000  <S**2>=0.000
       6 -> 22        -0.28998
       7 -> 21         0.28998
       8 -> 26         0.40603
       9 -> 27        -0.40603

 Excited State  76:      Singlet-SGU   32.3246 eV   38.36 nm  f=0.0176  <S**2>=0.000
       3 -> 10         0.24342
       4 -> 12         0.64099
       4 -> 17        -0.12711

 Excited State  77:      Singlet-SGG   32.3780 eV   38.29 nm  f=0.0000  <S**2>=0.000
       4 -> 11         0.58057
       6 -> 21        -0.11918
       7 -> 22        -0.11918
       8 -> 27        -0.24569
       9 -> 26        -0.24569

 Excited State  78:      Singlet-SGU   32.7401 eV   37.87 nm  f=0.0625  <S**2>=0.000
       3 -> 10         0.61652
       4 -> 12        -0.22637
       5 -> 25        -0.12307
       6 -> 27        -0.14311
       7 -> 26        -0.14311

 Excited state symmetry could not be determined.
 Excited State  79:      Singlet-?Sym   32.7837 eV   37.82 nm  f=0.0000  <S**2>=0.000
       4 -> 11         0.23941
       6 -> 21        -0.25467
       7 -> 22        -0.25467
       8 -> 27         0.38900
       9 -> 26         0.38900

 Excited state symmetry could not be determined.
 Excited State  80:      Singlet-?Sym   33.0609 eV   37.50 nm  f=0.0000  <S**2>=0.000
       4 -> 14         0.62558
       6 -> 23         0.22483
       7 -> 24        -0.22458

 Excited state symmetry could not be determined.
 Excited State  81:      Singlet-?Sym   33.0609 eV   37.50 nm  f=0.0000  <S**2>=0.000
       4 -> 13         0.62558
       6 -> 24        -0.22458
       7 -> 23        -0.22483

 Excited state symmetry could not be determined.
 Excited State  82:      Singlet-?Sym   33.0642 eV   37.50 nm  f=0.3981  <S**2>=0.000
       4 -> 15        -0.13095
       5 -> 21         0.67646

 Excited state symmetry could not be determined.
 Excited State  83:      Singlet-?Sym   33.0642 eV   37.50 nm  f=0.3981  <S**2>=0.000
       4 -> 16        -0.13095
       5 -> 22         0.67646

 Excited state symmetry could not be determined.
 Excited State  84:      Singlet-?Sym   33.1425 eV   37.41 nm  f=0.0000  <S**2>=0.000
       6 -> 24         0.49760
       7 -> 23        -0.49759

 Excited state symmetry could not be determined.
 Excited State  85:      Singlet-?Sym   33.1425 eV   37.41 nm  f=0.0000  <S**2>=0.000
       6 -> 23         0.49759
       7 -> 24         0.49760

 Excited state symmetry could not be determined.
 Excited State  86:      Singlet-?Sym   33.6478 eV   36.85 nm  f=0.0000  <S**2>=0.000
       4 -> 14         0.30956
       6 -> 23        -0.40661
       6 -> 25        -0.23435
       7 -> 24         0.40670

 Excited state symmetry could not be determined.
 Excited State  87:      Singlet-?Sym   33.6478 eV   36.85 nm  f=0.0000  <S**2>=0.000
       4 -> 13         0.30956
       6 -> 24         0.40670
       7 -> 23         0.40661
       7 -> 25        -0.23435

 Excited state symmetry could not be determined.
 Excited State  88:      Singlet-?Sym   33.8373 eV   36.64 nm  f=0.0000  <S**2>=0.000
       6 -> 24         0.15243
       6 -> 25         0.27292
       7 -> 23         0.15238
       7 -> 25         0.54919
       8 -> 28        -0.10929
       9 -> 28        -0.21991

 Excited state symmetry could not be determined.
 Excited State  89:      Singlet-?Sym   33.8373 eV   36.64 nm  f=0.0000  <S**2>=0.000
       6 -> 23        -0.15238
       6 -> 25         0.54919
       7 -> 24         0.15243
       7 -> 25        -0.27292
       8 -> 28        -0.21991
       9 -> 28         0.10929

 Excited State  90:      Singlet-SGU   34.4354 eV   36.00 nm  f=0.0498  <S**2>=0.000
       4 -> 17        -0.45486
       5 -> 25         0.51607

 Excited state symmetry could not be determined.
 Excited State  91:      Singlet-?Sym   34.7866 eV   35.64 nm  f=0.0000  <S**2>=0.000
       5 -> 23         0.66849
       6 -> 27        -0.15737
       7 -> 26         0.15737

 Excited state symmetry could not be determined.
 Excited State  92:      Singlet-?Sym   34.7867 eV   35.64 nm  f=0.0000  <S**2>=0.000
       5 -> 24         0.66847
       6 -> 26         0.15741
       7 -> 27         0.15741

 Excited state symmetry could not be determined.
 Excited State  93:      Singlet-?Sym   35.0367 eV   35.39 nm  f=0.0008  <S**2>=0.000
       4 -> 15         0.68077
       5 -> 21         0.10737
       6 -> 28         0.13321

 Excited state symmetry could not be determined.
 Excited State  94:      Singlet-?Sym   35.0367 eV   35.39 nm  f=0.0008  <S**2>=0.000
       4 -> 16         0.68077
       5 -> 22         0.10737
       7 -> 28         0.13321

 Excited State  95:      Singlet-SGU   35.0821 eV   35.34 nm  f=0.0000  <S**2>=0.000
       4 -> 17         0.50933
       5 -> 25         0.40724
       6 -> 27        -0.17480
       7 -> 26        -0.17480

 Excited state symmetry could not be determined.
 Excited State  96:      Singlet-?Sym   35.4019 eV   35.02 nm  f=0.0000  <S**2>=0.000
       5 -> 23        -0.22640
       6 -> 27        -0.47063
       7 -> 26         0.47063

 Excited state symmetry could not be determined.
 Excited State  97:      Singlet-?Sym   35.4019 eV   35.02 nm  f=0.0000  <S**2>=0.000
       5 -> 24        -0.22646
       6 -> 26         0.47062
       7 -> 27         0.47062

 Excited state symmetry could not be determined.
 Excited State  98:      Singlet-?Sym   35.4557 eV   34.97 nm  f=0.0000  <S**2>=0.000
       6 -> 26         0.49703
       7 -> 27        -0.49703

 Excited state symmetry could not be determined.
 Excited State  99:      Singlet-?Sym   35.7260 eV   34.70 nm  f=0.0624  <S**2>=0.000
       4 -> 15        -0.11911
       6 -> 28         0.67764

 Excited state symmetry could not be determined.
 Excited State 100:      Singlet-?Sym   35.7260 eV   34.70 nm  f=0.0624  <S**2>=0.000
       4 -> 16        -0.11911
       7 -> 28         0.67764

 Excited state symmetry could not be determined.
 Excited State 101:      Singlet-?Sym   36.6887 eV   33.79 nm  f=0.0472  <S**2>=0.000
       3 -> 10         0.19897
       4 -> 17         0.11905
       5 -> 25         0.20825
       6 -> 27         0.42841
       7 -> 26         0.42841
       8 -> 29        -0.10759
       9 -> 30        -0.10759

 The electronic state is 1-SGG.
 Alpha  occ. eigenvalues --  -24.94107 -24.94091  -1.46813  -1.19146  -0.71114
 Alpha  occ. eigenvalues --   -0.65382  -0.65382  -0.51101  -0.51101
 Alpha virt. eigenvalues --   -0.06168   0.16127   0.18512   0.22031   0.22031
 Alpha virt. eigenvalues --    0.27237   0.27237   0.28323   0.48210   0.57217
 Alpha virt. eigenvalues --    0.57217   0.72454   0.72454   0.79313   0.79313

 Mulliken charges:
               1
     1  F   -0.000000
     2  F   -0.000000
 Sum of Mulliken charges =  -0.00000

 Dipole moment (field-independent basis, Debye):
    X=             -0.0000    Y=             -0.0000    Z=              0.0000  Tot=              0.0000
 Quadrupole moment (field-independent basis, Debye-Ang):
   XX=             -9.7325   YY=             -9.7325   ZZ=             -8.8938
   XY=              0.0000   XZ=              0.0000   YZ=              0.0000

 Normal termination of Gaussian 16 at Sat Feb 12 22:25:07 2022.
