 Gaussian 16, Revision C.01,
 Gaussian 16:  EM64L-G16RevC.01  3-Jul-2019

 ----------------------------------------------------------------------
 #P TD(Nstates=10000) wB97XD/Gen SCF(maxcycles=100) Int(Grid=ultrafine)
 ----------------------------------------------------------------------

 ---------------------
 xGDB7_00001_tier4.com
 ---------------------
 Symbolic Z-matrix:
 Charge =  0 Multiplicity = 1

                         Standard orientation:
 ---------------------------------------------------------------------
 Center     Atomic      Atomic             Coordinates (Angstroms)
 Number     Number       Type             X           Y           Z
 ---------------------------------------------------------------------
      1          6           0        0.000000   -0.000000   -0.523169
      2          8           0        0.000000    0.000000    0.673082
      3          1           0        0.000000    0.943747   -1.122820
      4          1           0       -0.000000   -0.943747   -1.122820
 ---------------------------------------------------------------------

 SCF Done:  E(RwB97XD) =  -114.385406254     A.U. after   12 cycles

 Excitation energies and oscillator strengths:

 Excited State   1:      Singlet-A2     4.0700 eV  304.63 nm  f=0.0000  <S**2>=0.000
       8 ->  9         0.70495
 This state for optimization and/or second-order correction.
 Total Energy, E(TD-HF/TD-DFT) =  -114.235836590
 Copying the excited state density for this state as the 1-particle RhoCI density.

 Excited State   2:      Singlet-B2     7.6997 eV  161.03 nm  f=0.0333  <S**2>=0.000
       8 -> 10         0.69759

 Excited State   3:      Singlet-B2     9.1927 eV  134.87 nm  f=0.0700  <S**2>=0.000
       8 -> 12         0.67649
       8 -> 14         0.17790

 Excited State   4:      Singlet-A1     9.2559 eV  133.95 nm  f=0.1141  <S**2>=0.000
       8 -> 11         0.70307

 Excited State   5:      Singlet-B1     9.3061 eV  133.23 nm  f=0.0002  <S**2>=0.000
       6 ->  9         0.70300

 Excited State   6:      Singlet-A1     9.7777 eV  126.80 nm  f=0.1079  <S**2>=0.000
       7 ->  9         0.64930
       8 -> 16        -0.24556

 Excited State   7:      Singlet-A2     9.8128 eV  126.35 nm  f=0.0000  <S**2>=0.000
       8 -> 13         0.70369

 Excited State   8:      Singlet-A2    10.2827 eV  120.58 nm  f=0.0000  <S**2>=0.000
       5 ->  9         0.70313

 Excited State   9:      Singlet-B2    10.4896 eV  118.20 nm  f=0.0354  <S**2>=0.000
       8 -> 12        -0.18175
       8 -> 14         0.67380

 Excited State  10:      Singlet-B2    11.1271 eV  111.43 nm  f=0.0292  <S**2>=0.000
       8 -> 15         0.69929

 Excited State  11:      Singlet-B1    11.4386 eV  108.39 nm  f=0.0520  <S**2>=0.000
       7 -> 10         0.69365

 Excited State  12:      Singlet-A1    11.9831 eV  103.47 nm  f=0.2325  <S**2>=0.000
       6 -> 10        -0.13238
       7 ->  9         0.22160
       7 -> 13        -0.12169
       8 -> 16         0.63582

 Excited State  13:      Singlet-B1    12.2390 eV  101.30 nm  f=0.0152  <S**2>=0.000
       8 -> 17         0.69515

 Excited State  14:      Singlet-A2    12.9269 eV   95.91 nm  f=0.0000  <S**2>=0.000
       7 -> 11         0.69382
       8 -> 18         0.10013

 Excited State  15:      Singlet-B1    12.9592 eV   95.67 nm  f=0.0759  <S**2>=0.000
       7 -> 12         0.67534

 Excited State  16:      Singlet-A1    13.0959 eV   94.67 nm  f=0.0323  <S**2>=0.000
       6 -> 10         0.66309
       7 -> 13        -0.19007

 Excited State  17:      Singlet-A2    13.1332 eV   94.41 nm  f=0.0000  <S**2>=0.000
       7 -> 11        -0.10363
       8 -> 18         0.68940

 Excited State  18:      Singlet-A1    13.6945 eV   90.54 nm  f=0.0001  <S**2>=0.000
       6 -> 10         0.16065
       7 -> 13         0.65610
       8 -> 16         0.13624

 Excited State  19:      Singlet-B2    13.7860 eV   89.94 nm  f=0.1813  <S**2>=0.000
       5 -> 10         0.69325

 Excited State  20:      Singlet-B1    14.1906 eV   87.37 nm  f=0.0024  <S**2>=0.000
       4 ->  9         0.10499
       7 -> 14         0.64254
       7 -> 15         0.24064

 Excited State  21:      Singlet-A1    14.2029 eV   87.29 nm  f=0.2156  <S**2>=0.000
       6 -> 12         0.69491

 Excited State  22:      Singlet-B2    14.3582 eV   86.35 nm  f=0.0441  <S**2>=0.000
       6 -> 11         0.69792

 Excited State  23:      Singlet-B1    14.4857 eV   85.59 nm  f=0.0067  <S**2>=0.000
       4 ->  9         0.31761
       7 -> 12         0.14863
       7 -> 14        -0.24840
       7 -> 15         0.55589

 Excited State  24:      Singlet-B2    14.6856 eV   84.43 nm  f=0.0041  <S**2>=0.000
       5 -> 12        -0.13770
       8 -> 19         0.67324

 Excited State  25:      Singlet-B1    14.8285 eV   83.61 nm  f=0.0142  <S**2>=0.000
       4 ->  9        -0.10208
       6 -> 13         0.69153

 Excited State  26:      Singlet-A2    14.8884 eV   83.28 nm  f=0.0000  <S**2>=0.000
       7 -> 16         0.69876

 Excited State  27:      Singlet-A1    15.1955 eV   81.59 nm  f=0.2123  <S**2>=0.000
       8 -> 20         0.68490

 Excited State  28:      Singlet-B1    15.4578 eV   80.21 nm  f=0.2775  <S**2>=0.000
       4 ->  9         0.58612
       5 -> 17        -0.11056
       6 -> 13         0.12810
       7 -> 15        -0.33195

 Excited State  29:      Singlet-B2    15.4855 eV   80.06 nm  f=0.0608  <S**2>=0.000
       5 -> 12         0.51468
       5 -> 14         0.15093
       5 -> 15        -0.15113
       8 -> 19         0.17829
       8 -> 21        -0.37866

 Excited State  30:      Singlet-A1    15.6292 eV   79.33 nm  f=0.0277  <S**2>=0.000
       5 -> 11        -0.33512
       6 -> 14         0.59350

 Excited State  31:      Singlet-B2    15.6502 eV   79.22 nm  f=0.0298  <S**2>=0.000
       5 -> 12         0.36754
       5 -> 14         0.10808
       7 -> 17         0.13518
       8 -> 21         0.54119
       8 -> 23         0.15679

 Excited State  32:      Singlet-A1    15.8883 eV   78.04 nm  f=0.0028  <S**2>=0.000
       5 -> 11         0.55339
       6 -> 14         0.31411
       6 -> 15         0.25492

 Excited State  33:      Singlet-B2    15.9723 eV   77.62 nm  f=0.0423  <S**2>=0.000
       5 -> 14        -0.15337
       5 -> 15        -0.13211
       6 -> 16         0.10159
       7 -> 17         0.64338
       8 -> 21        -0.12834

 Excited State  34:      Singlet-A1    16.0932 eV   77.04 nm  f=0.0093  <S**2>=0.000
       5 -> 11        -0.18067
       6 -> 14        -0.10712
       6 -> 15         0.63220
       8 -> 22         0.17291

 Excited State  35:      Singlet-A2    16.1945 eV   76.56 nm  f=0.0000  <S**2>=0.000
       5 -> 13         0.69225

 Excited State  36:      Singlet-B2    16.3053 eV   76.04 nm  f=0.0016  <S**2>=0.000
       6 -> 16         0.67140

 Excited State  37:      Singlet-B2    16.6176 eV   74.61 nm  f=0.1825  <S**2>=0.000
       5 -> 14        -0.18417
       7 -> 17        -0.16818
       8 -> 23         0.62643

 Excited State  38:      Singlet-A1    16.7495 eV   74.02 nm  f=0.0825  <S**2>=0.000
       5 -> 11         0.12394
       6 -> 15        -0.12060
       7 -> 18        -0.13486
       8 -> 22         0.63628

 Excited State  39:      Singlet-B2    16.9627 eV   73.09 nm  f=0.2261  <S**2>=0.000
       5 -> 12        -0.17947
       5 -> 14         0.56288
       5 -> 15         0.13583
       7 -> 17         0.11673
       8 -> 21        -0.10865
       8 -> 23         0.24103
       8 -> 26         0.16498

 Excited State  40:      Singlet-B1    17.1190 eV   72.42 nm  f=0.1857  <S**2>=0.000
       8 -> 24         0.68661

 Excited State  41:      Singlet-A1    17.1195 eV   72.42 nm  f=0.0211  <S**2>=0.000
       5 -> 16         0.29243
       7 -> 18         0.59686
       8 -> 22         0.16877

 Excited State  42:      Singlet-B2    17.4999 eV   70.85 nm  f=0.0670  <S**2>=0.000
       5 -> 12         0.13434
       5 -> 15         0.49496
       8 -> 26        -0.45171

 Excited State  43:      Singlet-A2    17.5329 eV   70.72 nm  f=0.0000  <S**2>=0.000
       6 -> 17         0.69685

 Excited State  44:      Singlet-A1    17.5770 eV   70.54 nm  f=0.0001  <S**2>=0.000
       4 -> 10         0.53863
       5 -> 16         0.41403
       7 -> 18        -0.14118

 Excited State  45:      Singlet-B2    17.6432 eV   70.27 nm  f=0.0163  <S**2>=0.000
       5 -> 12         0.13256
       5 -> 14        -0.24167
       5 -> 15         0.40232
       8 -> 21        -0.10191
       8 -> 26         0.48647

 Excited State  46:      Singlet-A2    17.7468 eV   69.86 nm  f=0.0000  <S**2>=0.000
       8 -> 25         0.70305

 Excited State  47:      Singlet-A1    18.1608 eV   68.27 nm  f=0.0362  <S**2>=0.000
       4 -> 10        -0.41523
       5 -> 16         0.45950
       7 -> 18        -0.26928

 Excited State  48:      Singlet-B1    18.3186 eV   67.68 nm  f=0.1228  <S**2>=0.000
       4 -> 13         0.17254
       5 -> 17         0.34918
       6 -> 18         0.56399

 Excited State  49:      Singlet-B1    18.4271 eV   67.28 nm  f=0.0755  <S**2>=0.000
       5 -> 17        -0.22843
       6 -> 18         0.22580
       7 -> 19         0.61746

 Excited State  50:      Singlet-B1    18.5637 eV   66.79 nm  f=0.0486  <S**2>=0.000
       5 -> 17         0.52655
       6 -> 18        -0.31106
       7 -> 19         0.31501

 Excited State  51:      Singlet-A2    18.9104 eV   65.56 nm  f=0.0000  <S**2>=0.000
       7 -> 20         0.70019

 Excited State  52:      Singlet-B1    19.1420 eV   64.77 nm  f=0.0674  <S**2>=0.000
       7 -> 21         0.67466
       7 -> 23         0.10624

 Excited State  53:      Singlet-A1    19.2002 eV   64.57 nm  f=0.0764  <S**2>=0.000
       4 -> 12         0.55089
       4 -> 14         0.24674
       4 -> 15        -0.10451
       6 -> 19         0.16706
       8 -> 27         0.26891

 Excited State  54:      Singlet-B2    19.2678 eV   64.35 nm  f=0.0056  <S**2>=0.000
       4 -> 11         0.67480
       4 -> 16         0.13924

 Excited State  55:      Singlet-A2    19.2802 eV   64.31 nm  f=0.0000  <S**2>=0.000
       5 -> 18         0.68965

 Excited State  56:      Singlet-A1    19.7756 eV   62.70 nm  f=0.0168  <S**2>=0.000
       4 -> 12        -0.29094
       4 -> 14        -0.11309
       6 -> 19         0.42264
       6 -> 26         0.10650
       8 -> 27         0.42697

 Excited State  57:      Singlet-B1    20.0566 eV   61.82 nm  f=0.0009  <S**2>=0.000
       4 -> 13         0.66173
       5 -> 17        -0.10242
       6 -> 18        -0.13762
       7 -> 21        -0.11434
       7 -> 23         0.10305

 Excited State  58:      Singlet-A1    20.1975 eV   61.39 nm  f=0.0465  <S**2>=0.000
       4 -> 12        -0.12204
       4 -> 14         0.46646
       4 -> 15         0.32880
       6 -> 19         0.27170
       8 -> 27        -0.20390

 Excited State  59:      Singlet-A2    20.2320 eV   61.28 nm  f=0.0000  <S**2>=0.000
       7 -> 22         0.69637

 Excited State  60:      Singlet-B2    20.3191 eV   61.02 nm  f=0.0264  <S**2>=0.000
       4 -> 16        -0.17349
       6 -> 20         0.67238

 Excited State  61:      Singlet-A1    20.5832 eV   60.24 nm  f=0.0279  <S**2>=0.000
       4 -> 12         0.10320
       4 -> 14        -0.26563
       4 -> 15        -0.20760
       6 -> 19         0.41324
       6 -> 21        -0.22652
       6 -> 23        -0.10584
       7 -> 25         0.20294
       8 -> 27        -0.27621

 Excited State  62:      Singlet-B1    20.6169 eV   60.14 nm  f=0.1125  <S**2>=0.000
       7 -> 23         0.66784
       7 -> 26        -0.10229

 Excited State  63:      Singlet-B2    20.7585 eV   59.73 nm  f=0.0024  <S**2>=0.000
       5 -> 19         0.32838
       5 -> 21        -0.10023
       7 -> 24        -0.19967
       8 -> 28         0.54226
       8 -> 29         0.15859

 Excited State  64:      Singlet-B2    20.8352 eV   59.51 nm  f=0.0849  <S**2>=0.000
       7 -> 24         0.63268
       8 -> 28         0.21576
       8 -> 29         0.14845

 Excited State  65:      Singlet-B2    20.9534 eV   59.17 nm  f=0.0374  <S**2>=0.000
       4 -> 16        -0.20619
       5 -> 19         0.58968
       7 -> 24         0.10670
       8 -> 28        -0.26540

 Excited State  66:      Singlet-A1    20.9580 eV   59.16 nm  f=0.0372  <S**2>=0.000
       4 -> 15        -0.24087
       6 -> 21         0.56664
       6 -> 23         0.11855
       7 -> 25         0.18249
       8 -> 27        -0.15738

 Excited State  67:      Singlet-A1    21.2292 eV   58.40 nm  f=0.0021  <S**2>=0.000
       4 -> 15         0.32353
       5 -> 20         0.54132
       6 -> 23         0.11592
       7 -> 25         0.13919
       8 -> 30         0.14944

 Excited State  68:      Singlet-B2    21.2945 eV   58.22 nm  f=0.0220  <S**2>=0.000
       4 -> 11        -0.11717
       4 -> 16         0.61369
       5 -> 19         0.16438
       6 -> 20         0.16866
       7 -> 24         0.11083
       8 -> 28        -0.14671

 Excited State  69:      Singlet-A1    21.3016 eV   58.20 nm  f=0.0016  <S**2>=0.000
       4 -> 12        -0.17487
       4 -> 14         0.28404
       4 -> 15        -0.34553
       5 -> 20         0.35047
       6 -> 21        -0.12545
       7 -> 25        -0.27650
       8 -> 30         0.18060

 Excited State  70:      Singlet-B1    21.3305 eV   58.13 nm  f=0.0033  <S**2>=0.000
       7 -> 26         0.67885

 Excited State  71:      Singlet-A1    21.6387 eV   57.30 nm  f=0.0007  <S**2>=0.000
       4 -> 12        -0.12472
       4 -> 14         0.17103
       4 -> 15        -0.17714
       6 -> 19        -0.15698
       6 -> 21        -0.20911
       6 -> 26         0.18839
       7 -> 25         0.51595
       8 -> 27         0.16996
       8 -> 30        -0.10353

 Excited State  72:      Singlet-B2    21.6828 eV   57.18 nm  f=0.0060  <S**2>=0.000
       5 -> 21         0.45117
       6 -> 22         0.36087
       8 -> 29         0.36842

 Excited State  73:      Singlet-B2    21.7692 eV   56.95 nm  f=0.0004  <S**2>=0.000
       5 -> 21         0.48339
       5 -> 23         0.18748
       6 -> 22        -0.32572
       8 -> 28         0.14387
       8 -> 29        -0.29621

 Excited State  74:      Singlet-A2    21.8926 eV   56.63 nm  f=0.0000  <S**2>=0.000
       4 -> 17         0.61558
       6 -> 24        -0.32093

 Excited State  75:      Singlet-A1    21.9270 eV   56.54 nm  f=0.0211  <S**2>=0.000
       6 -> 21        -0.15871
       6 -> 23         0.64459
       7 -> 25        -0.12677
       8 -> 30        -0.11422

 Excited State  76:      Singlet-A2    21.9855 eV   56.39 nm  f=0.0000  <S**2>=0.000
       8 -> 31         0.69278

 Excited State  77:      Singlet-B2    22.0430 eV   56.25 nm  f=0.1000  <S**2>=0.000
       5 -> 23         0.12830
       6 -> 22         0.47520
       8 -> 28         0.14220
       8 -> 29        -0.42478
       8 -> 32         0.15603

 Excited State  78:      Singlet-A1    22.3130 eV   55.57 nm  f=0.1099  <S**2>=0.000
       5 -> 20        -0.22165
       6 -> 23         0.13790
       7 -> 25         0.12486
       8 -> 30         0.63419

 Excited State  79:      Singlet-A2    22.4394 eV   55.25 nm  f=0.0000  <S**2>=0.000
       4 -> 17         0.31212
       6 -> 24         0.61204

 Excited State  80:      Singlet-B1    22.8481 eV   54.26 nm  f=0.0054  <S**2>=0.000
       4 -> 18        -0.44801
       5 -> 24         0.16554
       6 -> 25         0.50746

 Excited State  81:      Singlet-B2    22.8857 eV   54.18 nm  f=0.1651  <S**2>=0.000
       5 -> 21        -0.20088
       5 -> 23         0.62382
       5 -> 26         0.11301
       8 -> 29         0.12178
       8 -> 32         0.11349

 Excited State  82:      Singlet-A2    22.9931 eV   53.92 nm  f=0.0000  <S**2>=0.000
       7 -> 27         0.69296

 Excited State  83:      Singlet-B1    23.0944 eV   53.69 nm  f=0.0045  <S**2>=0.000
       4 -> 18         0.51208
       6 -> 25         0.46771

 Excited State  84:      Singlet-A1    23.1909 eV   53.46 nm  f=0.0924  <S**2>=0.000
       5 -> 22         0.65765

 Excited State  85:      Singlet-B1    23.4044 eV   52.97 nm  f=0.1112  <S**2>=0.000
       4 -> 18         0.11149
       5 -> 24         0.67102
       6 -> 25        -0.12428

 Excited State  86:      Singlet-B2    23.4125 eV   52.96 nm  f=0.1298  <S**2>=0.000
       5 -> 23        -0.17874
       5 -> 26         0.13365
       8 -> 32         0.64554

 Excited State  87:      Singlet-A1    23.8754 eV   51.93 nm  f=0.4605  <S**2>=0.000
       4 -> 19         0.19441
       6 -> 26         0.59007
       7 -> 25        -0.10860
       8 -> 27        -0.16809

 Excited State  88:      Singlet-A2    23.9299 eV   51.81 nm  f=0.0000  <S**2>=0.000
       5 -> 25         0.69575

 Excited State  89:      Singlet-B2    24.0907 eV   51.47 nm  f=0.1258  <S**2>=0.000
       5 -> 26         0.61169
       6 -> 27         0.28069

 Excited State  90:      Singlet-B1    24.4704 eV   50.67 nm  f=0.0072  <S**2>=0.000
       3 ->  9        -0.11903
       7 -> 28         0.61325
       7 -> 29         0.20424
       8 -> 33        -0.22555

 Excited State  91:      Singlet-B2    24.5806 eV   50.44 nm  f=0.0849  <S**2>=0.000
       4 -> 20         0.14209
       5 -> 26        -0.23943
       6 -> 27         0.60439
       6 -> 30         0.11350
       8 -> 32         0.11797

 Excited State  92:      Singlet-B1    24.7951 eV   50.00 nm  f=0.0587  <S**2>=0.000
       3 ->  9        -0.13594
       7 -> 28         0.24165
       7 -> 29        -0.11230
       8 -> 33         0.62292

 Excited State  93:      Singlet-A1    24.8320 eV   49.93 nm  f=0.0116  <S**2>=0.000
       4 -> 19         0.61043
       4 -> 21         0.13827
       5 -> 27        -0.22939
       6 -> 26        -0.11977
       6 -> 29         0.10367

 Excited State  94:      Singlet-B2    25.0772 eV   49.44 nm  f=0.0063  <S**2>=0.000
       4 -> 20         0.67286
       6 -> 27        -0.13951
       6 -> 30        -0.12031

 Excited State  95:      Singlet-B1    25.4154 eV   48.78 nm  f=0.0982  <S**2>=0.000
       3 ->  9        -0.11592
       6 -> 31         0.12904
       7 -> 28        -0.18504
       7 -> 29         0.62843
       7 -> 32         0.11827
       8 -> 33         0.13859

 Excited State  96:      Singlet-A1    25.4700 eV   48.68 nm  f=0.0899  <S**2>=0.000
       4 -> 21        -0.29076
       4 -> 23        -0.14299
       5 -> 27         0.10922
       6 -> 28         0.41976
       6 -> 29         0.22795
       7 -> 31        -0.37309

 Excited State  97:      Singlet-A2    25.5730 eV   48.48 nm  f=0.0000  <S**2>=0.000
       7 -> 30        -0.21607
       8 -> 34         0.66158

 Excited State  98:      Singlet-A2    25.6514 eV   48.33 nm  f=0.0000  <S**2>=0.000
       7 -> 30         0.66868
       8 -> 34         0.21482

 Excited State  99:      Singlet-A1    25.7493 eV   48.15 nm  f=0.0005  <S**2>=0.000
       4 -> 19        -0.15902
       4 -> 21         0.48782
       4 -> 23         0.10563
       5 -> 27        -0.22057
       6 -> 26         0.10966
       6 -> 28         0.20996
       7 -> 31        -0.29047

 Excited State 100:      Singlet-A1    26.0219 eV   47.65 nm  f=0.0059  <S**2>=0.000
       4 -> 19         0.14130
       4 -> 21         0.26815
       4 -> 23         0.13503
       5 -> 27         0.58631
       6 -> 28        -0.10095
       7 -> 31        -0.12007

 Excited State 101:      Singlet-B1    26.2635 eV   47.21 nm  f=0.0114  <S**2>=0.000
       3 ->  9         0.61919
       6 -> 31         0.16887
       7 -> 28         0.13062
       7 -> 32         0.23539

 Excited State 102:      Singlet-A1    26.3183 eV   47.11 nm  f=0.0383  <S**2>=0.000
       5 -> 27         0.14834
       6 -> 26        -0.10331
       6 -> 28         0.47640
       6 -> 29        -0.12467
       7 -> 31         0.41439

 Excited State 103:      Singlet-B2    26.4076 eV   46.95 nm  f=0.0167  <S**2>=0.000
       4 -> 22         0.68890

 Excited State 104:      Singlet-A1    26.4371 eV   46.90 nm  f=0.0117  <S**2>=0.000
       4 -> 21        -0.20945
       4 -> 23         0.64562
       6 -> 29         0.10304
       6 -> 32        -0.10378

 Excited State 105:      Singlet-B1    26.6539 eV   46.52 nm  f=0.0066  <S**2>=0.000
       6 -> 31        -0.44922
       7 -> 32         0.52979

 Excited State 106:      Singlet-B2    26.9128 eV   46.07 nm  f=0.1315  <S**2>=0.000
       5 -> 28         0.29140
       6 -> 30         0.61476

 Excited State 107:      Singlet-A2    26.9750 eV   45.96 nm  f=0.0000  <S**2>=0.000
       4 -> 24         0.69665

 Excited State 108:      Singlet-B1    27.1505 eV   45.67 nm  f=0.4545  <S**2>=0.000
       3 ->  9        -0.20980
       4 -> 25        -0.21445
       6 -> 31         0.46013
       7 -> 29        -0.18356
       7 -> 32         0.35910
       8 -> 33        -0.12416

 Excited State 109:      Singlet-A1    27.1847 eV   45.61 nm  f=0.2931  <S**2>=0.000
       4 -> 26         0.19911
       5 -> 30        -0.12088
       6 -> 29         0.57907
       7 -> 31         0.17188
       7 -> 34        -0.13745

 Excited State 110:      Singlet-B2    27.3926 eV   45.26 nm  f=0.1056  <S**2>=0.000
       5 -> 26        -0.10046
       5 -> 28         0.62506
       6 -> 30        -0.26718

 Excited State 111:      Singlet-B1    27.7235 eV   44.72 nm  f=0.0180  <S**2>=0.000
       4 -> 25         0.66716
       6 -> 31         0.14365

 Excited State 112:      Singlet-A1    27.9272 eV   44.40 nm  f=0.0423  <S**2>=0.000
       4 -> 26         0.60436
       5 -> 30         0.26595
       6 -> 29        -0.12430
       6 -> 32         0.11905
       7 -> 31        -0.10443

 Excited State 113:      Singlet-A1    28.0838 eV   44.15 nm  f=0.0019  <S**2>=0.000
       4 -> 23         0.13232
       4 -> 26        -0.11537
       6 -> 32         0.66804

 Excited State 114:      Singlet-B2    28.2453 eV   43.90 nm  f=0.0215  <S**2>=0.000
       5 -> 29         0.59729
       7 -> 33        -0.35353

 Excited State 115:      Singlet-B2    28.3707 eV   43.70 nm  f=0.0930  <S**2>=0.000
       5 -> 29         0.35836
       7 -> 33         0.58426

 Excited State 116:      Singlet-A2    28.7426 eV   43.14 nm  f=0.0000  <S**2>=0.000
       5 -> 31         0.69385

 Excited State 117:      Singlet-A1    28.9344 eV   42.85 nm  f=0.0005  <S**2>=0.000
       4 -> 26        -0.22639
       5 -> 30         0.57632
       6 -> 29         0.11051
       7 -> 34        -0.27220

 Excited State 118:      Singlet-A1    29.4697 eV   42.07 nm  f=0.0000  <S**2>=0.000
       3 -> 10         0.60557
       7 -> 34        -0.31012

 Excited State 119:      Singlet-B2    29.5702 eV   41.93 nm  f=0.0123  <S**2>=0.000
       4 -> 27         0.57268

 The electronic state is 1-A1.
 Alpha  occ. eigenvalues --  -19.28815 -10.40822  -1.16459  -0.72625  -0.59229
 Alpha  occ. eigenvalues --   -0.54974  -0.50035  -0.36165
 Alpha virt. eigenvalues --    0.02210   0.08884   0.15148   0.15894   0.17498
 Alpha virt. eigenvalues --    0.19965   0.22251   0.22609   0.27687   0.30805
 Alpha virt. eigenvalues --    0.35602   0.37643   0.39587   0.43064   0.43153

 Mulliken charges:
               1
     1  C    0.401221
     2  O   -0.327813
     3  H   -0.036704
     4  H   -0.036704
 Sum of Mulliken charges =  -0.00000

 Dipole moment (field-independent basis, Debye):
    X=              0.0000    Y=              0.0000    Z=             -2.4635  Tot=              2.4635
 Quadrupole moment (field-independent basis, Debye-Ang):
   XX=            -11.6478   YY=            -11.6201   ZZ=            -12.2359
   XY=              0.0000   XZ=              0.0000   YZ=             -0.0000

 Normal termination of Gaussian 16 at Sat Feb 12 22:22:49 2022.
