 Gaussian 16, Revision C.01,
 Gaussian 16:  EM64L-G16RevC.01  3-Jul-2019

 ----------------------------------------------------------------------
 #P TD(Nstates=10000) wB97XD/Gen SCF(maxcycles=100) Int(Grid=ultrafine)
 ----------------------------------------------------------------------

 ---------------------
 xGDB7_00001_tier4.com
 ---------------------
 Symbolic Z-matrix:
 Charge =  0 Multiplicity = 1

                         Standard orientation:
 ---------------------------------------------------------------------
 Center     Atomic      Atomic             Coordinates (Angstroms)
 Number     Number       Type             X           Y           Z
 ---------------------------------------------------------------------
      1          7           0        0.000001   -0.000001    0.119780
      2          1           0       -0.521368   -0.779766   -0.279488
      3          1           0       -0.414630    0.841395   -0.279489
      4          1           0        0.935994   -0.061622   -0.279481
 ---------------------------------------------------------------------

 SCF Done:  E(RwB97XD) =  -56.5039744050     A.U. after   13 cycles

 Excitation energies and oscillator strengths:

 Excited State   1:      Singlet-A      7.2460 eV  171.11 nm  f=0.0921  <S**2>=0.000
       5 ->  6         0.70373
 This state for optimization and/or second-order correction.
 Total Energy, E(TD-HF/TD-DFT) =  -56.2376879116
 Copying the excited state density for this state as the 1-particle RhoCI density.

 Excited State   2:      Singlet-A      9.4960 eV  130.56 nm  f=0.0218  <S**2>=0.000
       5 ->  7         0.69273

 Excited State   3:      Singlet-A      9.4961 eV  130.56 nm  f=0.0218  <S**2>=0.000
       5 ->  8         0.69273

 Excited State   4:      Singlet-A     11.1155 eV  111.54 nm  f=0.0007  <S**2>=0.000
       5 ->  9         0.70025

 Excited State   5:      Singlet-A     11.1156 eV  111.54 nm  f=0.0007  <S**2>=0.000
       5 -> 10         0.70025

 Excited State   6:      Singlet-A     11.7736 eV  105.31 nm  f=0.0144  <S**2>=0.000
       3 ->  7        -0.11722
       4 ->  8         0.11722
       5 -> 11         0.68208

 Excited State   7:      Singlet-A     12.3773 eV  100.17 nm  f=0.1404  <S**2>=0.000
       4 ->  6         0.69916

 Excited State   8:      Singlet-A     12.3774 eV  100.17 nm  f=0.1404  <S**2>=0.000
       3 ->  6         0.69915

 Excited State   9:      Singlet-A     12.7095 eV   97.55 nm  f=0.2141  <S**2>=0.000
       5 -> 14         0.68891

 Excited State  10:      Singlet-A     12.7680 eV   97.11 nm  f=0.1493  <S**2>=0.000
       5 -> 12         0.69083

 Excited State  11:      Singlet-A     12.7681 eV   97.11 nm  f=0.1493  <S**2>=0.000
       5 -> 13         0.69084

 Excited State  12:      Singlet-A     14.5163 eV   85.41 nm  f=0.0000  <S**2>=0.000
       3 ->  7         0.14478
       3 ->  8         0.47003
       4 ->  7         0.47242
       4 ->  8        -0.14508

 Excited State  13:      Singlet-A     14.5460 eV   85.24 nm  f=0.0769  <S**2>=0.000
       3 ->  7         0.49289
       4 ->  8         0.49280

 Excited State  14:      Singlet-A     14.5460 eV   85.24 nm  f=0.0769  <S**2>=0.000
       3 ->  8         0.49398
       4 ->  7        -0.49171

 Excited State  15:      Singlet-A     15.8837 eV   78.06 nm  f=0.0063  <S**2>=0.000
       3 ->  7         0.32762
       3 ->  8        -0.10077
       3 -> 10        -0.15806
       4 ->  7        -0.10076
       4 ->  8        -0.32760
       4 ->  9        -0.15809
       5 -> 11         0.12915
       5 -> 14        -0.11691
       5 -> 15         0.41388

 Excited State  16:      Singlet-A     15.9324 eV   77.82 nm  f=0.0000  <S**2>=0.000
       3 ->  9        -0.49131
       4 -> 10         0.49137

 Excited State  17:      Singlet-A     16.2649 eV   76.23 nm  f=0.0655  <S**2>=0.000
       3 ->  7        -0.16036
       3 -> 10         0.27118
       4 ->  8         0.16035
       4 ->  9         0.27138
       5 -> 15         0.52972

 Excited State  18:      Singlet-A     16.3131 eV   76.00 nm  f=0.0040  <S**2>=0.000
       4 -> 11         0.67152

 Excited State  19:      Singlet-A     16.3132 eV   76.00 nm  f=0.0040  <S**2>=0.000
       3 -> 11         0.67154

 Excited State  20:      Singlet-A     16.4231 eV   75.49 nm  f=0.0295  <S**2>=0.000
       3 ->  7         0.25819
       3 -> 10         0.38079
       4 ->  8        -0.25817
       4 ->  9         0.38096
       5 -> 15        -0.20633

 Excited State  21:      Singlet-A     16.5621 eV   74.86 nm  f=0.2290  <S**2>=0.000
       3 ->  9        -0.21869
       3 -> 10        -0.29661
       4 ->  9         0.29636
       4 -> 10        -0.21862
       4 -> 11        -0.13702
       5 -> 17         0.42494
       5 -> 18        -0.12283

 Excited State  22:      Singlet-A     16.5621 eV   74.86 nm  f=0.2291  <S**2>=0.000
       3 ->  9         0.29650
       3 -> 10        -0.21875
       3 -> 11         0.13697
       4 ->  9         0.21858
       4 -> 10         0.29647
       5 -> 17         0.12284
       5 -> 18         0.42494

 Excited State  23:      Singlet-A     16.6701 eV   74.37 nm  f=0.0000  <S**2>=0.000
       5 -> 16         0.70602

 Excited State  24:      Singlet-A     17.0638 eV   72.66 nm  f=0.1721  <S**2>=0.000
       3 ->  9         0.21332
       3 -> 10         0.19416
       4 ->  9        -0.19412
       4 -> 10         0.21330
       4 -> 14        -0.14323
       5 -> 17         0.47348
       5 -> 18        -0.24552

 Excited State  25:      Singlet-A     17.0638 eV   72.66 nm  f=0.1721  <S**2>=0.000
       3 ->  9        -0.19415
       3 -> 10         0.21335
       3 -> 14         0.14321
       4 ->  9        -0.21330
       4 -> 10        -0.19413
       5 -> 17         0.24551
       5 -> 18         0.47349

 Excited State  26:      Singlet-A     17.7929 eV   69.68 nm  f=0.0088  <S**2>=0.000
       3 -> 12         0.17241
       3 -> 13         0.42979
       4 -> 12         0.43012
       4 -> 13        -0.17247
       4 -> 14         0.23791

 Excited State  27:      Singlet-A     17.7930 eV   69.68 nm  f=0.0088  <S**2>=0.000
       3 -> 12        -0.42985
       3 -> 13         0.17240
       3 -> 14         0.23787
       4 -> 12         0.17251
       4 -> 13         0.43005

 Excited State  28:      Singlet-A     17.9939 eV   68.90 nm  f=0.2786  <S**2>=0.000
       3 -> 12         0.47849
       3 -> 13         0.10811
       4 -> 12        -0.10813
       4 -> 13         0.47840
       5 -> 21         0.10758

 Excited State  29:      Singlet-A     18.0176 eV   68.81 nm  f=0.0000  <S**2>=0.000
       3 -> 12         0.10950
       3 -> 13        -0.48439
       4 -> 12         0.48546
       4 -> 13         0.10967

 Excited State  30:      Singlet-A     18.0233 eV   68.79 nm  f=0.0851  <S**2>=0.000
       3 -> 13        -0.13326
       4 -> 11         0.11462
       4 -> 12        -0.13020
       4 -> 14         0.62962
       5 -> 20         0.11493

 Excited State  31:      Singlet-A     18.0234 eV   68.79 nm  f=0.0851  <S**2>=0.000
       3 -> 11         0.11460
       3 -> 12         0.13209
       3 -> 14         0.62965
       4 -> 13        -0.13133
       5 -> 19         0.11495

 Excited State  32:      Singlet-A     19.3295 eV   64.14 nm  f=0.1012  <S**2>=0.000
       5 -> 19         0.47444
       5 -> 20         0.49683

 Excited State  33:      Singlet-A     19.3295 eV   64.14 nm  f=0.1012  <S**2>=0.000
       5 -> 19         0.49683
       5 -> 20        -0.47444

 Excited State  34:      Singlet-A     21.2075 eV   58.46 nm  f=0.0437  <S**2>=0.000
       4 -> 15         0.69229
       5 -> 23        -0.11087

 Excited State  35:      Singlet-A     21.2076 eV   58.46 nm  f=0.0437  <S**2>=0.000
       3 -> 15         0.69228
       5 -> 22        -0.11094

 Excited State  36:      Singlet-A     21.5114 eV   57.64 nm  f=0.0614  <S**2>=0.000
       3 -> 15         0.11704
       3 -> 17        -0.13482
       4 -> 18         0.13490
       5 -> 22         0.65981

 Excited State  37:      Singlet-A     21.5114 eV   57.64 nm  f=0.0614  <S**2>=0.000
       3 -> 18         0.13483
       4 -> 15         0.11697
       4 -> 17         0.13492
       5 -> 23         0.65982

 Excited State  38:      Singlet-A     21.5835 eV   57.44 nm  f=0.2141  <S**2>=0.000
       3 -> 18         0.15105
       4 -> 17        -0.15097
       5 -> 21         0.63721

 Excited State  39:      Singlet-A     21.6357 eV   57.31 nm  f=0.0012  <S**2>=0.000
       4 -> 16         0.70303

 Excited State  40:      Singlet-A     21.6359 eV   57.30 nm  f=0.0012  <S**2>=0.000
       3 -> 16         0.70303

 Excited State  41:      Singlet-A     21.9655 eV   56.44 nm  f=0.0000  <S**2>=0.000
       3 -> 17         0.43080
       3 -> 18        -0.23991
       4 -> 17         0.24001
       4 -> 18         0.43090

 Excited State  42:      Singlet-A     22.3219 eV   55.54 nm  f=0.1512  <S**2>=0.000
       3 -> 17         0.43589
       3 -> 18         0.16244
       4 -> 17         0.16250
       4 -> 18        -0.43584
       5 -> 22         0.18436

 Excited State  43:      Singlet-A     22.3219 eV   55.54 nm  f=0.1512  <S**2>=0.000
       3 -> 17        -0.16254
       3 -> 18         0.43588
       4 -> 17         0.43584
       4 -> 18         0.16240
       5 -> 23        -0.18437

 Excited State  44:      Singlet-A     22.9082 eV   54.12 nm  f=0.0657  <S**2>=0.000
       2 ->  6         0.50976
       3 -> 17        -0.14271
       3 -> 18        -0.25625
       4 -> 17         0.25619
       4 -> 18        -0.14269
       5 -> 21         0.20941

 Excited State  45:      Singlet-A     24.4073 eV   50.80 nm  f=0.1220  <S**2>=0.000
       2 ->  6         0.44490
       3 -> 17         0.15638
       3 -> 18         0.28079
       3 -> 22         0.12581
       4 -> 17        -0.28078
       4 -> 18         0.15638
       4 -> 23         0.12581
       5 -> 21        -0.11813
       5 -> 27        -0.10635

 Excited State  46:      Singlet-A     24.5192 eV   50.57 nm  f=0.0000  <S**2>=0.000
       3 -> 20        -0.49337
       4 -> 19         0.49399

 Excited State  47:      Singlet-A     24.6185 eV   50.36 nm  f=0.0298  <S**2>=0.000
       3 -> 19        -0.46811
       3 -> 20         0.13810
       4 -> 19         0.13784
       4 -> 20         0.46820

 Excited State  48:      Singlet-A     24.6185 eV   50.36 nm  f=0.0298  <S**2>=0.000
       3 -> 19         0.13791
       3 -> 20         0.46844
       4 -> 19         0.46787
       4 -> 20        -0.13803

 Excited State  49:      Singlet-A     24.9412 eV   49.71 nm  f=0.0670  <S**2>=0.000
       2 ->  6        -0.13787
       3 -> 19         0.47310
       4 -> 20         0.47295

 Excited State  50:      Singlet-A     25.5135 eV   48.60 nm  f=0.0299  <S**2>=0.000
       2 ->  7         0.68248

 Excited State  51:      Singlet-A     25.5135 eV   48.60 nm  f=0.0299  <S**2>=0.000
       2 ->  8         0.68248

 Excited State  52:      Singlet-A     26.2228 eV   47.28 nm  f=0.0014  <S**2>=0.000
       3 -> 23        -0.10366
       4 -> 21         0.66837
       4 -> 22        -0.10370

 Excited State  53:      Singlet-A     26.2229 eV   47.28 nm  f=0.0014  <S**2>=0.000
       3 -> 21         0.66838
       3 -> 22         0.10365
       4 -> 23        -0.10368

 Excited State  54:      Singlet-A     26.5094 eV   46.77 nm  f=0.0000  <S**2>=0.000
       3 -> 23        -0.49554
       4 -> 22         0.49559

 Excited State  55:      Singlet-A     27.0366 eV   45.86 nm  f=0.2862  <S**2>=0.000
       2 -> 11         0.39483
       3 -> 22        -0.39356
       4 -> 23        -0.39370

 Excited State  56:      Singlet-A     27.1304 eV   45.70 nm  f=0.0421  <S**2>=0.000
       2 ->  9         0.67468
       3 -> 23         0.10458
       4 -> 22         0.10455

 Excited State  57:      Singlet-A     27.1304 eV   45.70 nm  f=0.0421  <S**2>=0.000
       2 -> 10         0.67468
       3 -> 22        -0.10464
       4 -> 23         0.10446

 Excited State  58:      Singlet-A     27.3324 eV   45.36 nm  f=0.0813  <S**2>=0.000
       2 -> 11         0.48675
       3 -> 22         0.23065
       4 -> 23         0.23077
       5 -> 24        -0.34902

 Excited State  59:      Singlet-A     27.5084 eV   45.07 nm  f=0.3412  <S**2>=0.000
       2 ->  8         0.13009
       2 ->  9        -0.17114
       2 -> 13        -0.10158
       3 -> 22         0.22973
       3 -> 23         0.36637
       4 -> 21         0.18423
       4 -> 22         0.36630
       4 -> 23        -0.22967

 Excited State  60:      Singlet-A     27.5085 eV   45.07 nm  f=0.3412  <S**2>=0.000
       2 ->  7         0.13008
       2 -> 10         0.17112
       2 -> 12         0.10159
       3 -> 21        -0.18422
       3 -> 22         0.36640
       3 -> 23        -0.22971
       4 -> 22        -0.22969
       4 -> 23        -0.36629

 Excited State  61:      Singlet-A     27.7606 eV   44.66 nm  f=0.0153  <S**2>=0.000
       2 -> 11         0.31141
       2 -> 14         0.15270
       5 -> 24         0.59489

 Excited State  62:      Singlet-A     28.7647 eV   43.10 nm  f=0.0149  <S**2>=0.000
       2 -> 12         0.69463

 Excited State  63:      Singlet-A     28.7647 eV   43.10 nm  f=0.0149  <S**2>=0.000
       2 -> 13         0.69463

 Excited State  64:      Singlet-A     29.0775 eV   42.64 nm  f=0.0170  <S**2>=0.000
       2 -> 14         0.67843
       5 -> 24        -0.11881

 Excited State  65:      Singlet-A     31.6959 eV   39.12 nm  f=0.0036  <S**2>=0.000
       5 -> 25         0.69745

 Excited State  66:      Singlet-A     31.6959 eV   39.12 nm  f=0.0036  <S**2>=0.000
       5 -> 26         0.69745

 Excited State  67:      Singlet-A     32.3688 eV   38.30 nm  f=0.0257  <S**2>=0.000
       2 -> 15         0.68112
       5 -> 27         0.16023

 Excited State  68:      Singlet-A     32.4952 eV   38.15 nm  f=0.0000  <S**2>=0.000
       2 -> 16         0.70576

 Excited State  69:      Singlet-A     32.8545 eV   37.74 nm  f=0.0101  <S**2>=0.000
       2 -> 17         0.51526
       2 -> 18        -0.25008
       4 -> 24         0.38664

 Excited State  70:      Singlet-A     32.8545 eV   37.74 nm  f=0.0101  <S**2>=0.000
       2 -> 17         0.25010
       2 -> 18         0.51527
       3 -> 24        -0.38662

 Excited State  71:      Singlet-A     33.5255 eV   36.98 nm  f=0.1213  <S**2>=0.000
       2 -> 17        -0.35074
       2 -> 18         0.19595
       4 -> 24         0.57582

 Excited State  72:      Singlet-A     33.5256 eV   36.98 nm  f=0.1213  <S**2>=0.000
       2 -> 17         0.19593
       2 -> 18         0.35072
       3 -> 24         0.57584

 Excited State  73:      Singlet-A     35.4514 eV   34.97 nm  f=0.0000  <S**2>=0.000
       2 -> 19         0.70148

 Excited State  74:      Singlet-A     35.4514 eV   34.97 nm  f=0.0000  <S**2>=0.000
       2 -> 20         0.70148

 Excited State  75:      Singlet-A     35.4812 eV   34.94 nm  f=0.0146  <S**2>=0.000
       3 -> 26        -0.27482
       4 -> 25        -0.27484
       5 -> 27         0.56777

 Excited State  76:      Singlet-A     36.8942 eV   33.61 nm  f=0.0000  <S**2>=0.000
       3 -> 25        -0.49341
       4 -> 26         0.49345

 Excited State  77:      Singlet-A     37.1935 eV   33.33 nm  f=0.0311  <S**2>=0.000
       2 -> 21         0.70096

 Excited State  78:      Singlet-A     37.2681 eV   33.27 nm  f=0.0169  <S**2>=0.000
       2 -> 22        -0.27880
       3 -> 25        -0.31569
       3 -> 26         0.32000
       4 -> 25        -0.32000
       4 -> 26        -0.31571

 Excited State  79:      Singlet-A     37.2681 eV   33.27 nm  f=0.0169  <S**2>=0.000
       2 -> 23         0.27881
       3 -> 25         0.32003
       3 -> 26         0.31570
       4 -> 25        -0.31569
       4 -> 26         0.31996

 Excited State  80:      Singlet-A     37.6396 eV   32.94 nm  f=0.0361  <S**2>=0.000
       2 -> 22         0.63196
       2 -> 23        -0.13467
       3 -> 25        -0.12091
       3 -> 26         0.15317
       4 -> 25        -0.15317
       4 -> 26        -0.12092

 Excited State  81:      Singlet-A     37.6396 eV   32.94 nm  f=0.0361  <S**2>=0.000
       2 -> 22         0.13467
       2 -> 23         0.63196
       3 -> 25        -0.15318
       3 -> 26        -0.12092
       4 -> 25         0.12093
       4 -> 26        -0.15316

 Excited State  82:      Singlet-A     39.2274 eV   31.61 nm  f=0.0587  <S**2>=0.000
       4 -> 27         0.52324
       5 -> 28         0.46331

 Excited State  83:      Singlet-A     39.2275 eV   31.61 nm  f=0.0587  <S**2>=0.000
       3 -> 27         0.52320
       5 -> 29         0.46335

 Excited State  84:      Singlet-A     39.4702 eV   31.41 nm  f=0.0220  <S**2>=0.000
       4 -> 27        -0.46488
       5 -> 28         0.51669

 Excited State  85:      Singlet-A     39.4703 eV   31.41 nm  f=0.0220  <S**2>=0.000
       3 -> 27        -0.46492
       5 -> 29         0.51667

 Excited State  86:      Singlet-A     39.6533 eV   31.27 nm  f=0.0256  <S**2>=0.000
       2 -> 15        -0.11096
       2 -> 24        -0.18047
       3 -> 26         0.38253
       3 -> 29        -0.14320
       4 -> 25         0.38250
       4 -> 28        -0.14322
       5 -> 27         0.29823

 Excited State  87:      Singlet-A     43.6806 eV   28.38 nm  f=0.0270  <S**2>=0.000
       2 -> 24        -0.13278
       5 -> 30         0.68827

 Excited State  88:      Singlet-A     43.9964 eV   28.18 nm  f=0.0686  <S**2>=0.000
       2 -> 24         0.60868
       3 -> 29        -0.21962
       4 -> 28        -0.21970
       5 -> 30         0.14960

 Excited State  89:      Singlet-A     44.5042 eV   27.86 nm  f=0.0000  <S**2>=0.000
       3 -> 28        -0.49498
       4 -> 29         0.49500

 Excited State  90:      Singlet-A     44.8040 eV   27.67 nm  f=0.0259  <S**2>=0.000
       3 -> 28        -0.30204
       3 -> 29         0.39341
       4 -> 28        -0.39339
       4 -> 29        -0.30198

 Excited State  91:      Singlet-A     44.8040 eV   27.67 nm  f=0.0259  <S**2>=0.000
       3 -> 28         0.39339
       3 -> 29         0.30202
       4 -> 28        -0.30200
       4 -> 29         0.39341

 Excited State  92:      Singlet-A     47.9394 eV   25.86 nm  f=0.0273  <S**2>=0.000
       2 -> 25         0.69651
       4 -> 30         0.10125

 Excited State  93:      Singlet-A     47.9395 eV   25.86 nm  f=0.0273  <S**2>=0.000
       2 -> 26         0.69651
       3 -> 30         0.10125

 Excited State  94:      Singlet-A     48.1972 eV   25.72 nm  f=0.0438  <S**2>=0.000
       2 -> 24         0.26853
       3 -> 26         0.11076
       3 -> 29         0.40764
       4 -> 25         0.11075
       4 -> 28         0.40762
       5 -> 27         0.18188

 Excited State  95:      Singlet-A     48.9121 eV   25.35 nm  f=0.0005  <S**2>=0.000
       3 -> 30         0.13205
       4 -> 30         0.68174

 Excited State  96:      Singlet-A     48.9122 eV   25.35 nm  f=0.0005  <S**2>=0.000
       3 -> 30         0.68174
       4 -> 30        -0.13206

 Excited State  97:      Singlet-A     50.2615 eV   24.67 nm  f=0.0889  <S**2>=0.000
       2 -> 27         0.70436

 Excited State  98:      Singlet-A     52.3054 eV   23.70 nm  f=0.0436  <S**2>=0.000
       5 -> 31         0.69685

 Excited State  99:      Singlet-A     52.3056 eV   23.70 nm  f=0.0436  <S**2>=0.000
       5 -> 32         0.69685

 Excited State 100:      Singlet-A     52.4207 eV   23.65 nm  f=0.0000  <S**2>=0.000
       5 -> 33         0.70698

 Excited State 101:      Singlet-A     55.5067 eV   22.34 nm  f=0.0701  <S**2>=0.000
       2 -> 28         0.69856

 Excited State 102:      Singlet-A     55.5067 eV   22.34 nm  f=0.0701  <S**2>=0.000
       2 -> 29         0.69856

 Excited State 103:      Singlet-A     57.1810 eV   21.68 nm  f=0.0000  <S**2>=0.000
       3 -> 32        -0.49028
       4 -> 31         0.49067

 Excited State 104:      Singlet-A     57.4367 eV   21.59 nm  f=0.0993  <S**2>=0.000
       3 -> 31        -0.23244
       3 -> 32         0.43059
       4 -> 31         0.43048
       4 -> 32         0.23234

 Excited State 105:      Singlet-A     57.4369 eV   21.59 nm  f=0.0992  <S**2>=0.000
       3 -> 31        -0.43049
       3 -> 32        -0.23265
       4 -> 31        -0.23214
       4 -> 32         0.43059

 Excited State 106:      Singlet-A     57.5739 eV   21.53 nm  f=0.0314  <S**2>=0.000
       3 -> 31         0.36953
       4 -> 32         0.36956
       5 -> 34         0.45693

 Excited State 107:      Singlet-A     57.7461 eV   21.47 nm  f=0.0259  <S**2>=0.000
       3 -> 33         0.47520
       4 -> 33         0.51206

 Excited State 108:      Singlet-A     57.7462 eV   21.47 nm  f=0.0259  <S**2>=0.000
       3 -> 33         0.51206
       4 -> 33        -0.47520

 Excited State 109:      Singlet-A     58.3361 eV   21.25 nm  f=0.3272  <S**2>=0.000
       3 -> 31        -0.31138
       4 -> 32        -0.31140
       5 -> 34         0.53074

 Excited State 110:      Singlet-A     60.2182 eV   20.59 nm  f=0.0355  <S**2>=0.000
       3 -> 34         0.10302
       5 -> 35         0.69080

 Excited State 111:      Singlet-A     60.2184 eV   20.59 nm  f=0.0355  <S**2>=0.000
       4 -> 34         0.10303
       5 -> 36         0.69080

 Excited State 112:      Singlet-A     60.6379 eV   20.45 nm  f=0.0445  <S**2>=0.000
       2 -> 30         0.69139

 Excited State 113:      Singlet-A     62.6395 eV   19.79 nm  f=0.0188  <S**2>=0.000
       3 -> 34         0.33661
       4 -> 34         0.60605

 Excited State 114:      Singlet-A     62.6396 eV   19.79 nm  f=0.0188  <S**2>=0.000
       3 -> 34         0.60605
       4 -> 34        -0.33661

 Excited State 115:      Singlet-A     63.3489 eV   19.57 nm  f=0.0109  <S**2>=0.000
       5 -> 37         0.68080

 Excited State 116:      Singlet-A     63.3491 eV   19.57 nm  f=0.0109  <S**2>=0.000
       5 -> 38         0.68080

 Excited State 117:      Singlet-A     65.1871 eV   19.02 nm  f=0.0520  <S**2>=0.000
       3 -> 35         0.38302
       3 -> 36         0.29715
       4 -> 35         0.30080
       4 -> 36        -0.38195
       5 -> 37        -0.12414

 Excited State 118:      Singlet-A     65.1874 eV   19.02 nm  f=0.0520  <S**2>=0.000
       3 -> 35        -0.29878
       3 -> 36         0.38157
       4 -> 35         0.38341
       4 -> 36         0.29918
       5 -> 38         0.12414

 Excited State 119:      Singlet-A     65.2172 eV   19.01 nm  f=0.0000  <S**2>=0.000
       3 -> 35        -0.11130
       3 -> 36         0.48272
       4 -> 35        -0.47897
       4 -> 36        -0.11311

 Excited State 120:      Singlet-A     65.4266 eV   18.95 nm  f=0.0023  <S**2>=0.000
       3 -> 35         0.48182
       3 -> 36         0.11240

 The electronic state is 1-A.
 Alpha  occ. eigenvalues --  -14.43040  -0.94311  -0.54686  -0.54685  -0.35866
 Alpha virt. eigenvalues --    0.10110   0.18379   0.18379   0.24925   0.24925
 Alpha virt. eigenvalues --    0.25872   0.30657   0.30657   0.30964   0.42739
 Alpha virt. eigenvalues --    0.44113   0.46477   0.46477   0.55641   0.55641

 Mulliken charges:
               1
     1  N   -0.013736
     2  H    0.004575
     3  H    0.004577
     4  H    0.004584
 Sum of Mulliken charges =  -0.00000

 Dipole moment (field-independent basis, Debye):
    X=              0.0000    Y=              0.0000    Z=             -1.6370  Tot=              1.6370
 Quadrupole moment (field-independent basis, Debye-Ang):
   XX=             -6.3462   YY=             -6.3463   ZZ=             -9.1337
   XY=              0.0000   XZ=              0.0000   YZ=             -0.0000

 Normal termination of Gaussian 16 at Sat Feb 12 22:25:09 2022.
