 Gaussian 16, Revision C.01,
 Gaussian 16:  EM64L-G16RevC.01  3-Jul-2019

 ----------------------------------------------------------------------
 #P TD(Nstates=10000) wB97XD/Gen SCF(maxcycles=100) Int(Grid=ultrafine)
 ----------------------------------------------------------------------

 ---------------------
 xGDB7_00001_tier4.com
 ---------------------
 Symbolic Z-matrix:
 Charge =  0 Multiplicity = 1

                         Standard orientation:
 ---------------------------------------------------------------------
 Center     Atomic      Atomic             Coordinates (Angstroms)
 Number     Number       Type             X           Y           Z
 ---------------------------------------------------------------------
      1          6           0        0.046399    0.649661    0.000000
      2          8           0        0.046399   -0.749705    0.000000
      3          1           0       -0.439261    1.084276    0.894962
      4          1           0       -0.439261    1.084276   -0.894962
      5          1           0        1.093835    0.983607    0.000000
      6          1           0       -0.864903   -1.052487    0.000000
 ---------------------------------------------------------------------

 SCF Done:  E(RwB97XD) =  -115.610505698     A.U. after   13 cycles

 Excitation energies and oscillator strengths:

 Excited State   1:      Singlet-A"     7.2242 eV  171.62 nm  f=0.0018  <S**2>=0.000
       9 -> 10         0.67363
       9 -> 11        -0.17873
 This state for optimization and/or second-order correction.
 Total Energy, E(TD-HF/TD-DFT) =  -115.345021564
 Copying the excited state density for this state as the 1-particle RhoCI density.

 Excited State   2:      Singlet-A"     8.5533 eV  144.95 nm  f=0.0453  <S**2>=0.000
       9 -> 10         0.18163
       9 -> 11         0.67478

 Excited State   3:      Singlet-A'     8.9706 eV  138.21 nm  f=0.0010  <S**2>=0.000
       8 -> 10         0.67972
       8 -> 11        -0.12060

 Excited State   4:      Singlet-A"     9.5238 eV  130.18 nm  f=0.0164  <S**2>=0.000
       9 -> 13         0.68175
       9 -> 14        -0.11315

 Excited State   5:      Singlet-A'     9.5538 eV  129.78 nm  f=0.0734  <S**2>=0.000
       9 -> 12         0.69274

 Excited State   6:      Singlet-A'    10.0666 eV  123.16 nm  f=0.0761  <S**2>=0.000
       8 -> 10         0.12349
       8 -> 11         0.67507

 Excited State   7:      Singlet-A"    10.2563 eV  120.89 nm  f=0.0035  <S**2>=0.000
       9 -> 13         0.12506
       9 -> 14         0.67464

 Excited State   8:      Singlet-A"    10.6136 eV  116.82 nm  f=0.0141  <S**2>=0.000
       9 -> 15         0.67467
       9 -> 17        -0.11121

 Excited State   9:      Singlet-A'    11.0864 eV  111.83 nm  f=0.0849  <S**2>=0.000
       8 -> 13         0.66049
       8 -> 14        -0.16962
       9 -> 16        -0.10563

 Excited State  10:      Singlet-A'    11.1200 eV  111.50 nm  f=0.0202  <S**2>=0.000
       8 -> 13         0.11485
       9 -> 16         0.66069
       9 -> 18         0.18450

 Excited State  11:      Singlet-A"    11.1639 eV  111.06 nm  f=0.0422  <S**2>=0.000
       8 -> 12         0.69483

 Excited State  12:      Singlet-A'    11.6126 eV  106.77 nm  f=0.0502  <S**2>=0.000
       7 -> 10         0.61293
       7 -> 11        -0.15901
       8 -> 14         0.21428
       8 -> 15         0.15156

 Excited State  13:      Singlet-A"    11.6997 eV  105.97 nm  f=0.0128  <S**2>=0.000
       6 -> 10        -0.32630
       9 -> 17         0.58260
       9 -> 19         0.12495

 Excited State  14:      Singlet-A'    11.8947 eV  104.24 nm  f=0.0410  <S**2>=0.000
       8 -> 14        -0.27224
       8 -> 15         0.17872
       9 -> 16        -0.13053
       9 -> 18         0.58948

 Excited State  15:      Singlet-A"    11.9296 eV  103.93 nm  f=0.0491  <S**2>=0.000
       6 -> 10         0.54882
       6 -> 14         0.10542
       9 -> 15         0.11577
       9 -> 17         0.34875
       9 -> 19        -0.18815

 Excited State  16:      Singlet-A'    12.0244 eV  103.11 nm  f=0.0015  <S**2>=0.000
       7 -> 10        -0.29482
       7 -> 11        -0.17554
       8 -> 13         0.14737
       8 -> 14         0.50800
       8 -> 15         0.21340
       9 -> 18         0.17427

 Excited State  17:      Singlet-A"    12.3348 eV  100.52 nm  f=0.0051  <S**2>=0.000
       6 -> 10         0.22683
       8 -> 16         0.24764
       9 -> 19         0.59329

 Excited State  18:      Singlet-A'    12.5142 eV   99.07 nm  f=0.0093  <S**2>=0.000
       7 -> 11         0.20571
       8 -> 14        -0.12097
       8 -> 15         0.58073
       8 -> 17        -0.22839
       9 -> 18        -0.18431

 Excited State  19:      Singlet-A"    12.5252 eV   98.99 nm  f=0.0382  <S**2>=0.000
       6 -> 10        -0.10794
       8 -> 16         0.63120
       9 -> 19        -0.22177

 Excited State  20:      Singlet-A'    12.7647 eV   97.13 nm  f=0.1624  <S**2>=0.000
       7 -> 11         0.61276
       8 -> 14         0.21091
       9 -> 18         0.14252

 Excited State  21:      Singlet-A"    12.8149 eV   96.75 nm  f=0.0445  <S**2>=0.000
       6 -> 11         0.64434
       9 -> 20         0.20470

 Excited State  22:      Singlet-A"    13.2063 eV   93.88 nm  f=0.0019  <S**2>=0.000
       7 -> 12        -0.30317
       8 -> 18         0.62312

 Excited State  23:      Singlet-A'    13.3833 eV   92.64 nm  f=0.0239  <S**2>=0.000
       6 -> 12         0.21370
       7 -> 13         0.23285
       8 -> 15         0.15542
       8 -> 17         0.57234
       9 -> 18        -0.12336

 Excited State  24:      Singlet-A"    13.4167 eV   92.41 nm  f=0.0275  <S**2>=0.000
       6 -> 11        -0.21370
       9 -> 19         0.11476
       9 -> 20         0.63177
       9 -> 21         0.11845

 Excited State  25:      Singlet-A'    13.8737 eV   89.37 nm  f=0.1219  <S**2>=0.000
       6 -> 12         0.12395
       7 -> 13         0.58826
       7 -> 14        -0.12794
       8 -> 17        -0.28421

 Excited State  26:      Singlet-A"    13.8776 eV   89.34 nm  f=0.0035  <S**2>=0.000
       7 -> 12         0.61428
       7 -> 16         0.11271
       8 -> 18         0.28516

 Excited State  27:      Singlet-A'    13.9717 eV   88.74 nm  f=0.0705  <S**2>=0.000
       5 -> 10         0.58320
       5 -> 11        -0.12101
       6 -> 12        -0.30016

 Excited State  28:      Singlet-A"    14.0226 eV   88.42 nm  f=0.0002  <S**2>=0.000
       6 -> 13         0.62234
       6 -> 14        -0.24587

 Excited State  29:      Singlet-A'    14.2133 eV   87.23 nm  f=0.0608  <S**2>=0.000
       5 -> 10         0.15888
       5 -> 11        -0.13722
       6 -> 12         0.13807
       7 -> 14         0.16384
       8 -> 19         0.57708
       8 -> 20        -0.13878

 Excited State  30:      Singlet-A'    14.4981 eV   85.52 nm  f=0.1023  <S**2>=0.000
       5 -> 10         0.22099
       6 -> 12         0.49632
       7 -> 13        -0.15862
       7 -> 15         0.21538
       8 -> 17        -0.10051
       8 -> 19        -0.23887
       9 -> 22         0.16521

 Excited State  31:      Singlet-A"    14.5152 eV   85.42 nm  f=0.0009  <S**2>=0.000
       6 -> 17        -0.10797
       9 -> 20        -0.14333
       9 -> 21         0.66342

 Excited State  32:      Singlet-A'    14.6795 eV   84.46 nm  f=0.0337  <S**2>=0.000
       6 -> 12        -0.11583
       6 -> 16        -0.10066
       7 -> 14        -0.37356
       7 -> 15         0.29661
       7 -> 17        -0.10066
       8 -> 19         0.15453
       9 -> 22         0.40720

 Excited State  33:      Singlet-A'    14.7175 eV   84.24 nm  f=0.0033  <S**2>=0.000
       6 -> 12        -0.16294
       7 -> 13         0.18181
       7 -> 14         0.28456
       7 -> 15         0.50969
       9 -> 22        -0.15219
       9 -> 24        -0.14742

 Excited State  34:      Singlet-A"    14.7982 eV   83.78 nm  f=0.0727  <S**2>=0.000
       6 -> 13         0.11243
       6 -> 14         0.22548
       6 -> 15         0.24749
       7 -> 16         0.28343
       9 -> 23         0.47982

 Excited State  35:      Singlet-A"    14.9106 eV   83.15 nm  f=0.0298  <S**2>=0.000
       6 -> 13        -0.12307
       6 -> 14        -0.12483
       6 -> 15         0.27709
       7 -> 16         0.46568
       9 -> 23        -0.35864

 Excited State  36:      Singlet-A'    14.9197 eV   83.10 nm  f=0.1022  <S**2>=0.000
       5 -> 10         0.14174
       5 -> 11         0.46491
       7 -> 14        -0.10812
       7 -> 15         0.12976
       8 -> 19         0.14597
       8 -> 20         0.38514
       9 -> 22        -0.14559

 Excited State  37:      Singlet-A'    15.0146 eV   82.58 nm  f=0.2252  <S**2>=0.000
       5 -> 11         0.17150
       7 -> 14         0.40654
       7 -> 15        -0.15078
       8 -> 20         0.15026
       9 -> 22         0.46168

 Excited State  38:      Singlet-A"    15.1374 eV   81.91 nm  f=0.0183  <S**2>=0.000
       6 -> 13         0.17716
       6 -> 14         0.48064
       6 -> 15         0.22759
       6 -> 19         0.10787
       7 -> 16        -0.16046
       9 -> 21         0.11007
       9 -> 23        -0.31906

 Excited State  39:      Singlet-A'    15.1543 eV   81.81 nm  f=0.0023  <S**2>=0.000
       5 -> 10        -0.12865
       5 -> 11        -0.41247
       6 -> 16        -0.17219
       8 -> 20         0.45794
       9 -> 24        -0.15546

 Excited State  40:      Singlet-A"    15.2966 eV   81.05 nm  f=0.2631  <S**2>=0.000
       6 -> 13        -0.10254
       6 -> 14        -0.24323
       6 -> 15         0.48892
       6 -> 17        -0.10354
       7 -> 16        -0.36908

 Excited State  41:      Singlet-A'    15.3225 eV   80.92 nm  f=0.3515  <S**2>=0.000
       5 -> 11        -0.13733
       6 -> 16        -0.10309
       6 -> 18         0.14128
       7 -> 15         0.12576
       8 -> 19        -0.10842
       9 -> 24         0.61934

 Excited State  42:      Singlet-A'    15.5700 eV   79.63 nm  f=0.1417  <S**2>=0.000
       5 -> 11        -0.10043
       5 -> 13         0.10028
       6 -> 16         0.57433
       7 -> 15         0.12443
       7 -> 17         0.19453
       8 -> 20         0.18270
       9 -> 22         0.13939

 Excited State  43:      Singlet-A"    15.8540 eV   78.20 nm  f=0.0078  <S**2>=0.000
       6 -> 15        -0.15790
       7 -> 18         0.53376
       8 -> 24        -0.10554
       9 -> 25        -0.35570

 Excited State  44:      Singlet-A'    15.8794 eV   78.08 nm  f=0.1548  <S**2>=0.000
       5 -> 13         0.15292
       6 -> 16        -0.20915
       7 -> 17         0.48036
       7 -> 19        -0.14328
       8 -> 21         0.36891

 Excited State  45:      Singlet-A"    15.9176 eV   77.89 nm  f=0.0976  <S**2>=0.000
       7 -> 18         0.38438
       8 -> 24        -0.11426
       9 -> 25         0.53887

 Excited State  46:      Singlet-A"    16.0400 eV   77.30 nm  f=0.0159  <S**2>=0.000
       5 -> 12         0.66187
       5 -> 16         0.11111
       6 -> 17         0.11886

 Excited State  47:      Singlet-A"    16.1523 eV   76.76 nm  f=0.0168  <S**2>=0.000
       5 -> 12        -0.12303
       6 -> 14        -0.11962
       6 -> 17         0.58922
       8 -> 22        -0.17412
       9 -> 25        -0.18451

 Excited State  48:      Singlet-A'    16.1529 eV   76.76 nm  f=0.0158  <S**2>=0.000
       5 -> 13         0.16515
       6 -> 18         0.32690
       7 -> 17        -0.34045
       8 -> 21         0.41979
       8 -> 23        -0.17447

 Excited State  49:      Singlet-A'    16.2604 eV   76.25 nm  f=0.0484  <S**2>=0.000
       5 -> 13         0.57167
       6 -> 18        -0.24252
       7 -> 17        -0.15500
       7 -> 19        -0.10934
       8 -> 21        -0.10476
       8 -> 23         0.12859
       9 -> 28        -0.12342

 Excited State  50:      Singlet-A'    16.2933 eV   76.10 nm  f=0.0117  <S**2>=0.000
       5 -> 13         0.22421
       6 -> 16        -0.15355
       6 -> 18         0.46894
       7 -> 17         0.18927
       7 -> 19         0.17676
       8 -> 21        -0.25920
       9 -> 24        -0.14565

 Excited State  51:      Singlet-A'    16.5446 eV   74.94 nm  f=0.0306  <S**2>=0.000
       5 -> 13        -0.10001
       5 -> 14         0.11230
       7 -> 17        -0.14399
       8 -> 21         0.14596
       8 -> 23         0.63129

 Excited State  52:      Singlet-A"    16.5649 eV   74.85 nm  f=0.1121  <S**2>=0.000
       6 -> 17         0.18479
       8 -> 22         0.64792

 Excited State  53:      Singlet-A"    16.6679 eV   74.39 nm  f=0.0262  <S**2>=0.000
       6 -> 17        -0.12661
       8 -> 24         0.14389
       9 -> 26         0.59343
       9 -> 29        -0.19992
       9 -> 30         0.13527

 Excited State  54:      Singlet-A'    16.8860 eV   73.42 nm  f=0.0249  <S**2>=0.000
       7 -> 19         0.31137
       9 -> 27         0.57018
       9 -> 28         0.15897

 Excited State  55:      Singlet-A"    16.9429 eV   73.18 nm  f=0.0048  <S**2>=0.000
       6 -> 19        -0.25642
       7 -> 18         0.12247
       8 -> 24         0.58479
       9 -> 29         0.18577

 Excited State  56:      Singlet-A'    16.9533 eV   73.13 nm  f=0.0076  <S**2>=0.000
       5 -> 13         0.12561
       5 -> 14         0.53256
       5 -> 15        -0.20034
       7 -> 19         0.22832
       8 -> 21         0.10740
       8 -> 23        -0.12206
       9 -> 27        -0.19043

 Excited State  57:      Singlet-A"    16.9901 eV   72.97 nm  f=0.0304  <S**2>=0.000
       6 -> 14        -0.12701
       6 -> 19         0.51217
       6 -> 20        -0.13151
       8 -> 24         0.28171
       9 -> 26        -0.23024
       9 -> 29        -0.16784

 Excited State  58:      Singlet-A'    16.9920 eV   72.97 nm  f=0.0275  <S**2>=0.000
       5 -> 14        -0.36695
       5 -> 15        -0.20988
       6 -> 18        -0.15005
       7 -> 19         0.38750
       8 -> 25         0.11722
       9 -> 27        -0.29623

 Excited State  59:      Singlet-A"    17.1914 eV   72.12 nm  f=0.0230  <S**2>=0.000
       5 -> 16        -0.25474
       6 -> 19         0.28701
       9 -> 26         0.18633
       9 -> 29         0.49662
       9 -> 30        -0.16024

 Excited State  60:      Singlet-A'    17.2288 eV   71.96 nm  f=0.0369  <S**2>=0.000
       5 -> 15         0.25101
       8 -> 25        -0.13049
       9 -> 27        -0.15084
       9 -> 28         0.59453

 Excited State  61:      Singlet-A'    17.3433 eV   71.49 nm  f=0.1602  <S**2>=0.000
       5 -> 15         0.46224
       7 -> 19         0.29397
       7 -> 20         0.25906
       7 -> 21         0.12654
       8 -> 21         0.11869
       9 -> 28        -0.23128

 Excited State  62:      Singlet-A"    17.4805 eV   70.93 nm  f=0.1208  <S**2>=0.000
       5 -> 16         0.61524
       9 -> 29         0.18804
       9 -> 30        -0.17949

 Excited State  63:      Singlet-A'    17.4902 eV   70.89 nm  f=0.0600  <S**2>=0.000
       7 -> 20         0.17093
       8 -> 21        -0.10455
       8 -> 25         0.62573
       9 -> 28         0.11209

 Excited State  64:      Singlet-A"    17.7679 eV   69.78 nm  f=0.0022  <S**2>=0.000
       5 -> 16         0.10187
       6 -> 20         0.23577
       9 -> 26        -0.10127
       9 -> 29         0.26895
       9 -> 30         0.55515

 Excited State  65:      Singlet-A"    17.8831 eV   69.33 nm  f=0.0023  <S**2>=0.000
       5 -> 18         0.11083
       6 -> 19         0.13678
       6 -> 20         0.57339
       6 -> 21         0.10794
       9 -> 30        -0.25655
       9 -> 31         0.10823

 Excited State  66:      Singlet-A'    17.9002 eV   69.26 nm  f=0.1573  <S**2>=0.000
       4 -> 10        -0.15433
       5 -> 14        -0.10627
       5 -> 15        -0.21176
       5 -> 17         0.18397
       7 -> 20         0.53596
       8 -> 25        -0.19073
       8 -> 29         0.10472

 Excited State  67:      Singlet-A'    18.2578 eV   67.91 nm  f=0.0134  <S**2>=0.000
       5 -> 15         0.15071
       5 -> 17         0.51493
       7 -> 20        -0.10546
       8 -> 26         0.36191

 Excited State  68:      Singlet-A"    18.3317 eV   67.63 nm  f=0.0006  <S**2>=0.000
       5 -> 18         0.63065
       6 -> 20        -0.10909
       8 -> 27        -0.24737

 Excited State  69:      Singlet-A"    18.4266 eV   67.29 nm  f=0.0112  <S**2>=0.000
       5 -> 18         0.23892
       8 -> 27         0.63464

 Excited State  70:      Singlet-A'    18.4591 eV   67.17 nm  f=0.0550  <S**2>=0.000
       4 -> 10         0.11493
       5 -> 17        -0.30370
       7 -> 20         0.14379
       7 -> 21        -0.22245
       8 -> 26         0.52613

 Excited State  71:      Singlet-A'    18.5979 eV   66.67 nm  f=0.0038  <S**2>=0.000
       4 -> 10        -0.18441
       5 -> 17        -0.21594
       7 -> 20        -0.10546
       7 -> 21         0.54277
       8 -> 26         0.18944

 Excited State  72:      Singlet-A"    18.6617 eV   66.44 nm  f=0.0043  <S**2>=0.000
       6 -> 21        -0.26503
       9 -> 31         0.61735

 Excited State  73:      Singlet-A"    18.6702 eV   66.41 nm  f=0.0351  <S**2>=0.000
       6 -> 21        -0.14857
       7 -> 22         0.19388
       8 -> 28         0.62126

 Excited State  74:      Singlet-A'    18.8078 eV   65.92 nm  f=0.0267  <S**2>=0.000
       4 -> 10         0.52751
       8 -> 29         0.36846
       8 -> 30        -0.15044
       9 -> 32         0.12281

 Excited State  75:      Singlet-A'    18.8577 eV   65.75 nm  f=0.0064  <S**2>=0.000
       4 -> 10        -0.29619
       4 -> 11         0.11924
       5 -> 19        -0.17059
       7 -> 21        -0.19489
       8 -> 29         0.50794
       9 -> 32        -0.12763

 Excited State  76:      Singlet-A'    18.9299 eV   65.50 nm  f=0.0852  <S**2>=0.000
       5 -> 19         0.30794
       6 -> 22        -0.15115
       7 -> 23         0.46637
       8 -> 30        -0.10154
       9 -> 32        -0.33737

 Excited State  77:      Singlet-A"    19.0135 eV   65.21 nm  f=0.0150  <S**2>=0.000
       6 -> 21        -0.28323
       7 -> 22         0.54895
       7 -> 24         0.17286
       8 -> 28        -0.21753

 Excited State  78:      Singlet-A"    19.0601 eV   65.05 nm  f=0.0282  <S**2>=0.000
       6 -> 20        -0.16119
       6 -> 21         0.48604
       6 -> 23        -0.23655
       7 -> 22         0.33868
       9 -> 31         0.19904

 Excited State  79:      Singlet-A'    19.0747 eV   65.00 nm  f=0.0662  <S**2>=0.000
       5 -> 19        -0.40233
       5 -> 20         0.10750
       6 -> 22         0.11576
       7 -> 23         0.43982
       8 -> 29        -0.12559
       8 -> 30        -0.11763
       9 -> 32         0.22218

 Excited State  80:      Singlet-A"    19.3085 eV   64.21 nm  f=0.0426  <S**2>=0.000
       6 -> 21         0.17359
       6 -> 23         0.63520
       7 -> 22         0.10017
       9 -> 31         0.10283
       9 -> 33        -0.10545

 Excited State  81:      Singlet-A'    19.3381 eV   64.11 nm  f=0.0321  <S**2>=0.000
       4 -> 10        -0.10438
       4 -> 11         0.15111
       5 -> 19         0.20547
       6 -> 22         0.43037
       6 -> 24         0.22258
       7 -> 21        -0.16743
       8 -> 30        -0.34983

 Excited State  82:      Singlet-A'    19.4247 eV   63.83 nm  f=0.0005  <S**2>=0.000
       5 -> 19         0.27520
       6 -> 22        -0.10685
       6 -> 24        -0.16882
       7 -> 21        -0.13525
       7 -> 23         0.10548
       8 -> 30         0.14835
       8 -> 31         0.11839
       9 -> 32         0.48696
       9 -> 35         0.19378

 Excited State  83:      Singlet-A"    19.4507 eV   63.74 nm  f=0.0438  <S**2>=0.000
       7 -> 24         0.64176
       8 -> 28         0.11790
       9 -> 33         0.12066

 Excited State  84:      Singlet-A'    19.4993 eV   63.58 nm  f=0.0246  <S**2>=0.000
       4 -> 11        -0.22288
       5 -> 20        -0.11773
       6 -> 22         0.39158
       6 -> 24         0.14935
       7 -> 23         0.18356
       8 -> 29         0.12661
       8 -> 30         0.41647

 Excited State  85:      Singlet-A'    19.6490 eV   63.10 nm  f=0.0064  <S**2>=0.000
       4 -> 11         0.36283
       6 -> 22        -0.20068
       6 -> 24         0.48951
       8 -> 30         0.17375
       9 -> 32         0.11397

 Excited State  86:      Singlet-A"    19.7188 eV   62.88 nm  f=0.0062  <S**2>=0.000
       6 -> 25        -0.12870
       7 -> 24        -0.16184
       9 -> 31         0.14162
       9 -> 33         0.59515
       9 -> 34        -0.25256

 Excited State  87:      Singlet-A'    19.7440 eV   62.80 nm  f=0.0158  <S**2>=0.000
       4 -> 11         0.46679
       5 -> 20        -0.15031
       6 -> 22         0.20532
       6 -> 24        -0.36361
       8 -> 30         0.15537

 Excited State  88:      Singlet-A'    19.9245 eV   62.23 nm  f=0.0963  <S**2>=0.000
       5 -> 20         0.54071
       7 -> 25        -0.28555
       8 -> 31         0.17821
       9 -> 35        -0.11185

 Excited State  89:      Singlet-A"    20.0177 eV   61.94 nm  f=0.0041  <S**2>=0.000
       6 -> 21         0.12190
       9 -> 33         0.24984
       9 -> 34         0.63157

 Excited State  90:      Singlet-A'    20.1965 eV   61.39 nm  f=0.0035  <S**2>=0.000
       5 -> 20         0.11738
       6 -> 28        -0.10338
       7 -> 25         0.53487
       8 -> 29        -0.11607
       8 -> 31         0.27517
       9 -> 35        -0.17141

 Excited State  91:      Singlet-A"    20.2756 eV   61.15 nm  f=0.0388  <S**2>=0.000
       6 -> 25         0.63570
       8 -> 32        -0.11829
       9 -> 33         0.11832
       9 -> 36         0.16425

 Excited State  92:      Singlet-A'    20.3978 eV   60.78 nm  f=0.0566  <S**2>=0.000
       4 -> 13        -0.11062
       5 -> 19        -0.11819
       5 -> 20        -0.20785
       6 -> 28         0.13096
       7 -> 25        -0.17572
       8 -> 31         0.54645
       8 -> 33        -0.18355

 Excited State  93:      Singlet-A'    20.5533 eV   60.32 nm  f=0.1179  <S**2>=0.000
       4 -> 14         0.11402
       5 -> 19        -0.14012
       5 -> 20         0.13116
       5 -> 21        -0.11439

 The electronic state is 1-A'.
 Alpha  occ. eigenvalues --  -19.26844 -10.34401  -1.12061  -0.77390  -0.60578
 Alpha  occ. eigenvalues --   -0.53057  -0.51949  -0.42452  -0.36661
 Alpha virt. eigenvalues --    0.08387   0.11410   0.15751   0.15868   0.18683
 Alpha virt. eigenvalues --    0.21165   0.21711   0.23818   0.24000   0.27721
 Alpha virt. eigenvalues --    0.31901   0.34756   0.35710   0.35723   0.37543

 Mulliken charges:
               1
     1  C    0.425044
     2  O   -0.459887
     3  H   -0.025479
     4  H   -0.025479
     5  H   -0.089230
     6  H    0.175030
 Sum of Mulliken charges =  -0.00000

 Dipole moment (field-independent basis, Debye):
    X=             -1.4021    Y=              0.9388    Z=             -0.0000  Tot=              1.6873
 Quadrupole moment (field-independent basis, Debye-Ang):
   XX=            -11.8216   YY=            -13.4347   ZZ=            -13.8982
   XY=              2.1315   XZ=             -0.0000   YZ=              0.0000

 Normal termination of Gaussian 16 at Sat Feb 12 22:25:24 2022.
