 Gaussian 16, Revision C.01,
 Gaussian 16:  EM64L-G16RevC.01  3-Jul-2019

 ----------------------------------------------------------------------
 #P TD(Nstates=10000) wB97XD/Gen SCF(maxcycles=100) Int(Grid=ultrafine)
 ----------------------------------------------------------------------

 ---------------------
 xGDB7_00001_tier4.com
 ---------------------
 Symbolic Z-matrix:
 Charge =  0 Multiplicity = 1

                         Standard orientation:
 ---------------------------------------------------------------------
 Center     Atomic      Atomic             Coordinates (Angstroms)
 Number     Number       Type             X           Y           Z
 ---------------------------------------------------------------------
      1          7           0        1.081654   -0.156603   -0.000004
      2          6           0       -0.163795    0.383354   -0.000002
      3          8           0       -1.192878   -0.245228    0.000001
      4          1           0        1.909188    0.421737    0.000012
      5          1           0        1.182484   -1.164225    0.000011
      6          1           0       -0.137454    1.500412    0.000006
 ---------------------------------------------------------------------

 SCF Done:  E(RwB97XD) =  -169.729717093     A.U. after   15 cycles

 Excitation energies and oscillator strengths:

 Excited State   1:      Singlet-A      5.7220 eV  216.68 nm  f=0.0007  <S**2>=0.000
      12 -> 13         0.70373
 This state for optimization and/or second-order correction.
 Total Energy, E(TD-HF/TD-DFT) =  -169.519437942
 Copying the excited state density for this state as the 1-particle RhoCI density.

 Excited State   2:      Singlet-A      7.5250 eV  164.76 nm  f=0.0294  <S**2>=0.000
      11 -> 13         0.46109
      12 -> 14         0.51881

 Excited State   3:      Singlet-A      7.6663 eV  161.73 nm  f=0.0163  <S**2>=0.000
      11 -> 14         0.68804
      11 -> 15         0.10604

 Excited State   4:      Singlet-A      8.0639 eV  153.75 nm  f=0.2125  <S**2>=0.000
      11 -> 13         0.43116
      12 -> 14        -0.35695
      12 -> 15         0.39475

 Excited State   5:      Singlet-A      8.5059 eV  145.76 nm  f=0.1850  <S**2>=0.000
      11 -> 13        -0.26552
      12 -> 14         0.26334
      12 -> 15         0.56911
      12 -> 16         0.14388

 Excited State   6:      Singlet-A      8.5808 eV  144.49 nm  f=0.0029  <S**2>=0.000
      11 -> 15         0.66483
      11 -> 16         0.17924

 Excited State   7:      Singlet-A      9.2637 eV  133.84 nm  f=0.0905  <S**2>=0.000
      12 -> 14        -0.15303
      12 -> 16         0.62526
      12 -> 18         0.23820

 Excited State   8:      Singlet-A      9.5462 eV  129.88 nm  f=0.0100  <S**2>=0.000
      11 -> 15        -0.17824
      11 -> 16         0.65612

 Excited State   9:      Singlet-A      9.7828 eV  126.74 nm  f=0.0080  <S**2>=0.000
      12 -> 17         0.70160

 Excited State  10:      Singlet-A     10.1638 eV  121.99 nm  f=0.0099  <S**2>=0.000
      12 -> 16        -0.24264
      12 -> 18         0.63839

 Excited State  11:      Singlet-A     10.1712 eV  121.90 nm  f=0.0022  <S**2>=0.000
       9 -> 13         0.50939
      11 -> 18         0.44158
      11 -> 20         0.13812

 Excited State  12:      Singlet-A     10.2361 eV  121.12 nm  f=0.0001  <S**2>=0.000
       9 -> 13         0.47796
      11 -> 18        -0.43363
      11 -> 19        -0.16127
      11 -> 20        -0.20727

 Excited State  13:      Singlet-A     10.4903 eV  118.19 nm  f=0.0025  <S**2>=0.000
      11 -> 17         0.50050
      12 -> 18         0.11536
      12 -> 19        -0.45721

 Excited State  14:      Singlet-A     10.5882 eV  117.10 nm  f=0.0049  <S**2>=0.000
      10 -> 13        -0.12049
      11 -> 17         0.43931
      12 -> 19         0.42556
      12 -> 20         0.29356

 Excited State  15:      Singlet-A     10.7887 eV  114.92 nm  f=0.0304  <S**2>=0.000
      11 -> 17        -0.16798
      12 -> 19        -0.23472
      12 -> 20         0.63131

 Excited State  16:      Singlet-A     10.8313 eV  114.47 nm  f=0.0036  <S**2>=0.000
      10 -> 15        -0.12870
      11 -> 18        -0.14483
      11 -> 19         0.64170
      11 -> 22         0.15304

 Excited State  17:      Singlet-A     11.2947 eV  109.77 nm  f=0.0581  <S**2>=0.000
      10 -> 15         0.10432
      11 -> 18        -0.21691
      11 -> 20         0.61203
      11 -> 22         0.10606
      11 -> 23        -0.15690

 Excited State  18:      Singlet-A     11.3623 eV  109.12 nm  f=0.0957  <S**2>=0.000
       8 -> 14         0.10895
       9 -> 14        -0.15084
      10 -> 13         0.61948
      11 -> 21         0.15095
      12 -> 19         0.14031
      12 -> 23         0.11670

 Excited State  19:      Singlet-A     11.6666 eV  106.27 nm  f=0.0446  <S**2>=0.000
      10 -> 14         0.66500
      12 -> 21        -0.11899

 Excited State  20:      Singlet-A     11.6902 eV  106.06 nm  f=0.0099  <S**2>=0.000
      11 -> 21         0.11643
      12 -> 22         0.50093
      12 -> 23        -0.45074

 Excited State  21:      Singlet-A     11.8011 eV  105.06 nm  f=0.0022  <S**2>=0.000
       8 -> 13        -0.19691
      10 -> 14         0.13011
      12 -> 21         0.62145
      12 -> 24        -0.17038
      12 -> 26         0.11254

 Excited State  22:      Singlet-A     12.0075 eV  103.26 nm  f=0.0045  <S**2>=0.000
       9 -> 14         0.53533
      11 -> 21         0.35150
      12 -> 22        -0.22325

 Excited State  23:      Singlet-A     12.0631 eV  102.78 nm  f=0.0007  <S**2>=0.000
       8 -> 13         0.64898
      12 -> 21         0.20852

 Excited State  24:      Singlet-A     12.0767 eV  102.66 nm  f=0.1178  <S**2>=0.000
       9 -> 14        -0.39956
      10 -> 13        -0.13582
      11 -> 21         0.40197
      12 -> 22        -0.24607
      12 -> 23        -0.25051

 Excited State  25:      Singlet-A     12.2037 eV  101.60 nm  f=0.0075  <S**2>=0.000
      10 -> 15         0.12119
      11 -> 18         0.11297
      11 -> 19        -0.10176
      11 -> 20        -0.14410
      11 -> 22         0.53866
      11 -> 23        -0.35138

 Excited State  26:      Singlet-A     12.3225 eV  100.62 nm  f=0.0584  <S**2>=0.000
      10 -> 13        -0.12799
      11 -> 21         0.36165
      11 -> 24        -0.13394
      12 -> 22         0.33890
      12 -> 23         0.43090

 Excited State  27:      Singlet-A     12.4108 eV   99.90 nm  f=0.0005  <S**2>=0.000
      10 -> 15         0.49103
      11 -> 22         0.18057
      11 -> 23         0.42084

 Excited State  28:      Singlet-A     12.5534 eV   98.77 nm  f=0.0140  <S**2>=0.000
      10 -> 15         0.42713
      11 -> 19         0.16344
      11 -> 22        -0.33473
      11 -> 23        -0.37179

 Excited State  29:      Singlet-A     12.7025 eV   97.61 nm  f=0.1004  <S**2>=0.000
       9 -> 15         0.68233

 Excited State  30:      Singlet-A     12.8013 eV   96.85 nm  f=0.0091  <S**2>=0.000
      12 -> 21         0.18108
      12 -> 24         0.67140

 Excited State  31:      Singlet-A     12.9913 eV   95.44 nm  f=0.0156  <S**2>=0.000
       9 -> 16        -0.13490
      10 -> 17        -0.11084
      11 -> 24         0.64358

 Excited State  32:      Singlet-A     13.3269 eV   93.03 nm  f=0.0125  <S**2>=0.000
       8 -> 14         0.49041
       9 -> 16         0.40653
       9 -> 18         0.19852

 Excited State  33:      Singlet-A     13.4680 eV   92.06 nm  f=0.0768  <S**2>=0.000
      10 -> 16         0.66776
      10 -> 20         0.11036

 Excited State  34:      Singlet-A     13.7625 eV   90.09 nm  f=0.0794  <S**2>=0.000
       8 -> 14         0.45304
       9 -> 14         0.10535
       9 -> 16        -0.39499
       9 -> 18        -0.29534

 Excited State  35:      Singlet-A     14.0247 eV   88.40 nm  f=0.0035  <S**2>=0.000
       8 -> 15        -0.16450
      10 -> 17        -0.12063
      12 -> 25         0.65614

 Excited State  36:      Singlet-A     14.0805 eV   88.05 nm  f=0.0189  <S**2>=0.000
       9 -> 17         0.63935
      10 -> 18         0.22178
      12 -> 26         0.11441

 Excited State  37:      Singlet-A     14.1053 eV   87.90 nm  f=0.1023  <S**2>=0.000
       8 -> 15         0.53756
       9 -> 16         0.10602
       9 -> 18        -0.25817
       9 -> 19        -0.16024
      10 -> 17         0.18636
      12 -> 25         0.19375

 Excited State  38:      Singlet-A     14.1371 eV   87.70 nm  f=0.0060  <S**2>=0.000
       7 -> 13        -0.15581
       9 -> 17        -0.21890
      10 -> 18         0.42107
      11 -> 25         0.46097

 Excited State  39:      Singlet-A     14.2256 eV   87.16 nm  f=0.0671  <S**2>=0.000
       8 -> 15        -0.23362
       9 -> 20        -0.10596
      10 -> 17         0.60368
      11 -> 24         0.10692
      12 -> 27        -0.12364

 Excited State  40:      Singlet-A     14.2542 eV   86.98 nm  f=0.1517  <S**2>=0.000
       6 -> 13         0.11815
       7 -> 13        -0.11560
       9 -> 17         0.16304
      10 -> 18        -0.37977
      10 -> 20        -0.25894
      11 -> 25         0.40298
      11 -> 27         0.12245
      12 -> 26        -0.15810

 Excited State  41:      Singlet-A     14.3527 eV   86.38 nm  f=0.0107  <S**2>=0.000
       7 -> 13         0.65963
      11 -> 25         0.20241

 Excited State  42:      Singlet-A     14.4052 eV   86.07 nm  f=0.0252  <S**2>=0.000
      10 -> 18        -0.14418
      12 -> 26         0.65596

 Excited State  43:      Singlet-A     14.4825 eV   85.61 nm  f=0.1081  <S**2>=0.000
       8 -> 15         0.25382
       8 -> 16         0.14184
       9 -> 16        -0.29683
       9 -> 18         0.49357
      12 -> 27        -0.17885

 Excited State  44:      Singlet-A     14.5687 eV   85.10 nm  f=0.2733  <S**2>=0.000
       8 -> 16         0.11848
       9 -> 16        -0.12090
       9 -> 18         0.13909
       9 -> 20        -0.19740
      10 -> 17         0.10473
      11 -> 26         0.18287
      12 -> 27         0.55544

 Excited State  45:      Singlet-A     14.6486 eV   84.64 nm  f=0.0004  <S**2>=0.000
      10 -> 19         0.22833
      11 -> 25        -0.13884
      11 -> 27         0.61967

 Excited State  46:      Singlet-A     14.7273 eV   84.19 nm  f=0.0129  <S**2>=0.000
       8 -> 15         0.13902
       8 -> 16        -0.13607
       9 -> 19         0.52662
       9 -> 20         0.14249
      10 -> 21         0.10521
      11 -> 26         0.33462

 Excited State  47:      Singlet-A     14.8435 eV   83.53 nm  f=0.0014  <S**2>=0.000
      10 -> 19         0.63408
      11 -> 27        -0.22724

 Excited State  48:      Singlet-A     14.8705 eV   83.38 nm  f=0.0588  <S**2>=0.000
       7 -> 14        -0.11431
       9 -> 19        -0.32796
      10 -> 21         0.11282
      11 -> 26         0.52444
      12 -> 27        -0.18654
      12 -> 28         0.10442

 Excited State  49:      Singlet-A     15.0793 eV   82.22 nm  f=0.0212  <S**2>=0.000
      10 -> 18        -0.21087
      10 -> 20         0.58236
      10 -> 22         0.12818
      10 -> 23        -0.18589
      11 -> 25         0.18262

 Excited State  50:      Singlet-A     15.1510 eV   81.83 nm  f=0.0100  <S**2>=0.000
       7 -> 14        -0.13062
       8 -> 16        -0.10487
       8 -> 18        -0.12133
       9 -> 19        -0.12735
       9 -> 20         0.56911
      10 -> 17         0.11000
      11 -> 26        -0.12466
      12 -> 27         0.14204
      12 -> 28        -0.15221

 Excited State  51:      Singlet-A     15.3279 eV   80.89 nm  f=0.0132  <S**2>=0.000
       8 -> 16         0.59219
       8 -> 20         0.13217
       9 -> 18        -0.12705
       9 -> 19         0.13020
       9 -> 20         0.19262
      12 -> 28         0.12439

 Excited State  52:      Singlet-A     15.4326 eV   80.34 nm  f=0.1055  <S**2>=0.000
       7 -> 14         0.62288
       7 -> 15         0.16621
       9 -> 20         0.15610

 Excited State  53:      Singlet-A     15.8103 eV   78.42 nm  f=0.0001  <S**2>=0.000
       8 -> 17         0.52450
       8 -> 21         0.10900
       9 -> 21        -0.39856
      11 -> 28        -0.11446

 Excited State  54:      Singlet-A     15.8507 eV   78.22 nm  f=0.0224  <S**2>=0.000
       8 -> 17        -0.12454
      10 -> 18         0.13073
      10 -> 20        -0.16955
      10 -> 22         0.44743
      10 -> 23        -0.36730
      11 -> 28        -0.25108

 Excited State  55:      Singlet-A     15.8664 eV   78.14 nm  f=0.0199  <S**2>=0.000
       8 -> 16        -0.12986
       9 -> 22         0.20002
       9 -> 23        -0.17923
      10 -> 21         0.24799
      11 -> 26        -0.12587
      12 -> 28         0.48038
      12 -> 30        -0.23430
      12 -> 33        -0.12323

 Excited State  56:      Singlet-A     15.9204 eV   77.88 nm  f=0.0097  <S**2>=0.000
       8 -> 18         0.39616
       8 -> 19         0.26316
       9 -> 22         0.12008
       9 -> 23        -0.39445
      10 -> 21        -0.17409
      12 -> 29         0.12937

 Excited State  57:      Singlet-A     15.9898 eV   77.54 nm  f=0.0166  <S**2>=0.000
       7 -> 15         0.11769
       8 -> 18         0.28287
       8 -> 20         0.13865
      10 -> 21         0.40978
      11 -> 26        -0.11068
      12 -> 29        -0.29448
      12 -> 30         0.25048

 Excited State  58:      Singlet-A     16.0584 eV   77.21 nm  f=0.0110  <S**2>=0.000
      10 -> 21         0.36707
      12 -> 28        -0.16298
      12 -> 29         0.52349
      12 -> 31         0.11905

 Excited State  59:      Singlet-A     16.1180 eV   76.92 nm  f=0.0336  <S**2>=0.000
       8 -> 17         0.11010
      10 -> 22        -0.10284
      10 -> 23        -0.43169
      11 -> 28         0.49705
      11 -> 31        -0.11667

 Excited State  60:      Singlet-A     16.2317 eV   76.38 nm  f=0.0008  <S**2>=0.000
       6 -> 13        -0.23462
      10 -> 22        -0.21038
      10 -> 23        -0.11900
      11 -> 28        -0.11549
      11 -> 29        -0.13597
      12 -> 32         0.57083

 Excited State  61:      Singlet-A     16.2448 eV   76.32 nm  f=0.1123  <S**2>=0.000
       7 -> 15         0.10135
       8 -> 16         0.11600
       8 -> 19        -0.22157
       9 -> 22         0.57463
      12 -> 28        -0.11382
      12 -> 30         0.11229

 Excited State  62:      Singlet-A     16.2925 eV   76.10 nm  f=0.0156  <S**2>=0.000
      10 -> 22         0.37595
      10 -> 23         0.21757
      11 -> 28         0.34324
      11 -> 29         0.22647
      11 -> 30         0.11902
      12 -> 32         0.30839

 Excited State  63:      Singlet-A     16.3232 eV   75.96 nm  f=0.0054  <S**2>=0.000
       8 -> 17         0.40322
       9 -> 21         0.52472
       9 -> 24        -0.17237
      11 -> 28        -0.10588

 Excited State  64:      Singlet-A     16.3872 eV   75.66 nm  f=0.0188  <S**2>=0.000
       7 -> 14        -0.12985
       7 -> 15         0.55019
       8 -> 18        -0.10657
       9 -> 22        -0.10114
      12 -> 28         0.16415
      12 -> 29         0.12933
      12 -> 30         0.18965

 Excited State  65:      Singlet-A     16.4667 eV   75.29 nm  f=0.0478  <S**2>=0.000
       7 -> 14        -0.10877
       8 -> 18         0.34536
       8 -> 19        -0.16945
       8 -> 20         0.13594
       9 -> 23         0.37111
      10 -> 24         0.16884
      12 -> 29         0.20449
      12 -> 30        -0.16633

 Excited State  66:      Singlet-A     16.4673 eV   75.29 nm  f=0.0023  <S**2>=0.000
      10 -> 22        -0.21008
      10 -> 23        -0.15526
      11 -> 28        -0.11024
      11 -> 29         0.50393
      11 -> 30         0.36820

 Excited State  67:      Singlet-A     16.5730 eV   74.81 nm  f=0.0113  <S**2>=0.000
       7 -> 15        -0.20433
       9 -> 23         0.10408
      10 -> 21        -0.12621
      10 -> 24        -0.20114
      11 -> 32         0.17830
      12 -> 28         0.31775
      12 -> 29         0.15899
      12 -> 30         0.42479

 Excited State  68:      Singlet-A     16.6393 eV   74.51 nm  f=0.0004  <S**2>=0.000
       6 -> 13         0.13752
      11 -> 27         0.10278
      11 -> 29        -0.36147
      11 -> 30         0.51608
      11 -> 33         0.15854
      11 -> 34        -0.10841

 Excited State  69:      Singlet-A     16.6551 eV   74.44 nm  f=0.0650  <S**2>=0.000
       7 -> 15         0.17659
       8 -> 19         0.10748
      10 -> 21        -0.10355
      10 -> 24        -0.39973
      11 -> 32         0.42433
      12 -> 30        -0.25178

 Excited State  70:      Singlet-A     16.7701 eV   73.93 nm  f=0.1783  <S**2>=0.000
       6 -> 13         0.58046
       9 -> 24        -0.16020
      10 -> 23        -0.10081
      11 -> 30        -0.13937
      12 -> 32         0.22470

 Excited State  71:      Singlet-A     16.8181 eV   73.72 nm  f=0.0081  <S**2>=0.000
       7 -> 16         0.13148
       8 -> 19         0.40219
       8 -> 20        -0.24202
       9 -> 22         0.21019
       9 -> 23         0.32861
      12 -> 31        -0.23566

 Excited State  72:      Singlet-A     16.9819 eV   73.01 nm  f=0.0071  <S**2>=0.000
       8 -> 18        -0.17872
       8 -> 19         0.21368
       8 -> 20         0.43721
       8 -> 22         0.16974
       8 -> 23        -0.11753
       9 -> 22         0.13150
      10 -> 24         0.23997
      11 -> 32         0.26066

 Excited State  73:      Singlet-A     17.0393 eV   72.76 nm  f=0.0604  <S**2>=0.000
       6 -> 14         0.23687
       7 -> 16         0.15886
       8 -> 18         0.10457
       8 -> 19        -0.14170
       8 -> 20        -0.28591
      10 -> 24         0.33775
      11 -> 32         0.38165

 Excited State  74:      Singlet-A     17.0429 eV   72.75 nm  f=0.0447  <S**2>=0.000
       6 -> 13         0.17753
       7 -> 17         0.13724
       8 -> 24        -0.10967
       9 -> 21         0.12351
       9 -> 24         0.62291

 Excited State  75:      Singlet-A     17.0569 eV   72.69 nm  f=0.0950  <S**2>=0.000
       8 -> 19         0.18167
       8 -> 20        -0.10796
       9 -> 23         0.10925
      10 -> 24         0.10314
      12 -> 29        -0.10601
      12 -> 31         0.60151
      12 -> 33         0.10662

 Excited State  76:      Singlet-A     17.2220 eV   71.99 nm  f=0.0059  <S**2>=0.000
      10 -> 23        -0.12359
      11 -> 30         0.11344
      11 -> 31         0.63643
      11 -> 33        -0.12921
      11 -> 34         0.10630

 Excited State  77:      Singlet-A     17.4097 eV   71.22 nm  f=0.0078  <S**2>=0.000
       6 -> 14         0.59431
       7 -> 15         0.10679
       7 -> 16        -0.24063
      10 -> 24        -0.12003
      11 -> 32        -0.14337

 Excited State  78:      Singlet-A     17.5593 eV   70.61 nm  f=0.0539  <S**2>=0.000
       6 -> 14         0.18490
       6 -> 15        -0.10120
       7 -> 16         0.44153
       7 -> 18        -0.19754
       8 -> 19        -0.11244
       8 -> 20         0.18000
      10 -> 24        -0.12680
      11 -> 32        -0.10118
      12 -> 33         0.23779
      12 -> 34        -0.20120

 Excited State  79:      Singlet-A     17.5705 eV   70.56 nm  f=0.0071  <S**2>=0.000
      10 -> 27        -0.11456
      11 -> 29         0.12077
      11 -> 30        -0.11391
      11 -> 31         0.17068
      11 -> 33         0.62706

 Excited State  80:      Singlet-A     17.6643 eV   70.19 nm  f=0.0005  <S**2>=0.000
       8 -> 21         0.66355
       8 -> 24        -0.14959

 Excited State  81:      Singlet-A     17.6680 eV   70.17 nm  f=0.0465  <S**2>=0.000
       7 -> 16        -0.20264
      12 -> 30        -0.12257
      12 -> 31        -0.13322
      12 -> 33         0.59937

 Excited State  82:      Singlet-A     17.8543 eV   69.44 nm  f=0.0852  <S**2>=0.000
       7 -> 18        -0.19211
       7 -> 19        -0.16689
       7 -> 20        -0.11908
       8 -> 18         0.14423
       8 -> 20        -0.13791
       8 -> 22         0.50278
       8 -> 23        -0.21222
      12 -> 33        -0.10023

 Excited State  83:      Singlet-A     18.0060 eV   68.86 nm  f=0.0000  <S**2>=0.000
      10 -> 25         0.66762
      10 -> 27         0.15115

 Excited State  84:      Singlet-A     18.1032 eV   68.49 nm  f=0.1078  <S**2>=0.000
       6 -> 15         0.15974
       7 -> 16         0.15685
       7 -> 18         0.43912
       7 -> 20         0.26456
       8 -> 23        -0.29125
       9 -> 27         0.15725
      12 -> 34        -0.16001

 Excited State  85:      Singlet-A     18.1172 eV   68.43 nm  f=0.0027  <S**2>=0.000
       7 -> 17         0.44021
       7 -> 21         0.18267
       8 -> 24        -0.40950
       9 -> 24        -0.20091
       9 -> 26        -0.15288

 Excited State  86:      Singlet-A     18.2058 eV   68.10 nm  f=0.1228  <S**2>=0.000
       6 -> 15        -0.32593
       7 -> 20         0.12859
       9 -> 25         0.22168
       9 -> 27         0.19141
      12 -> 34         0.47249

 Excited State  87:      Singlet-A     18.2989 eV   67.75 nm  f=0.0553  <S**2>=0.000
       7 -> 18         0.17889
       7 -> 19         0.10017
       7 -> 20         0.11746
       8 -> 22         0.36426
       8 -> 23         0.47070
       9 -> 25        -0.14619
      10 -> 26        -0.13121

 Excited State  88:      Singlet-A     18.3361 eV   67.62 nm  f=0.0433  <S**2>=0.000
       8 -> 24         0.12010
      10 -> 25        -0.13617
      10 -> 27         0.60933
      10 -> 33        -0.11667
      11 -> 33         0.10010
      11 -> 34        -0.18125

 Excited State  89:      Singlet-A     18.3638 eV   67.52 nm  f=0.0258  <S**2>=0.000
       6 -> 15         0.12364
       7 -> 16        -0.12471
       8 -> 23         0.19848
       9 -> 25         0.57444
      10 -> 26         0.13858
      12 -> 34        -0.17391

 Excited State  90:      Singlet-A     18.4655 eV   67.14 nm  f=0.0362  <S**2>=0.000
       6 -> 15         0.41378
       7 -> 16         0.13437
       7 -> 19        -0.21434
       9 -> 25        -0.10869
       9 -> 27         0.19404
      10 -> 26         0.27220
      12 -> 34         0.27838

 The electronic state is 1-A.
 Alpha  occ. eigenvalues --  -19.24147 -14.48559 -10.41274  -1.14119  -1.01094
 Alpha  occ. eigenvalues --   -0.72380  -0.65726  -0.57708  -0.51259  -0.50926
 Alpha  occ. eigenvalues --   -0.37244  -0.35497
 Alpha virt. eigenvalues --    0.08307   0.08399   0.11289   0.15132   0.17942
 Alpha virt. eigenvalues --    0.18166   0.19377   0.21371   0.24443   0.25195
 Alpha virt. eigenvalues --    0.25660   0.28045   0.32546   0.34080   0.34828

 Mulliken charges:
               1
     1  N    0.118837
     2  C    0.534814
     3  O   -0.411219
     4  H   -0.076300
     5  H   -0.035123
     6  H   -0.131009
 Sum of Mulliken charges =  -0.00000

 Dipole moment (field-independent basis, Debye):
    X=              3.9505    Y=              0.9054    Z=              0.0000  Tot=              4.0529
 Quadrupole moment (field-independent basis, Debye-Ang):
   XX=            -18.0846   YY=            -15.4207   ZZ=            -18.8903
   XY=             -1.3159   XZ=              0.0001   YZ=             -0.0000

 Normal termination of Gaussian 16 at Sat Feb 12 22:19:09 2022.
