 Gaussian 16, Revision C.01,
 Gaussian 16:  EM64L-G16RevC.01  3-Jul-2019

 ----------------------------------------------------------------------
 #P TD(Nstates=10000) wB97XD/Gen SCF(maxcycles=100) Int(Grid=ultrafine)
 ----------------------------------------------------------------------

 ---------------------
 xGDB7_00001_tier4.com
 ---------------------
 Symbolic Z-matrix:
 Charge =  0 Multiplicity = 1

                         Standard orientation:
 ---------------------------------------------------------------------
 Center     Atomic      Atomic             Coordinates (Angstroms)
 Number     Number       Type             X           Y           Z
 ---------------------------------------------------------------------
      1          8           0        0.000000    0.000000    0.595593
      2          8           0        0.000000    0.000000   -0.595593
 ---------------------------------------------------------------------

 SCF Done:  E(RwB97XD) =  -150.102527646     A.U. after   10 cycles

 Excitation energies and oscillator strengths:

 Excited state symmetry could not be determined.
 Excited State   1:      Singlet-?Sym    0.0021 eV 585164.62 nm  f=0.0000  <S**2>=0.000
       6 -> 23        -0.11316
       7 -> 22        -0.11446
       8 ->  9        -8.10476
       8 -> 15         0.24512
       6 <- 23        -0.11345
       7 <- 22        -0.11412
       8 <-  9        -8.07391
       8 <- 15         0.24377
 This state for optimization and/or second-order correction.
 Total Energy, E(TD-HF/TD-DFT) =  -150.102449782
 Copying the excited state density for this state as the 1-particle RhoCI density.

 Excited state symmetry could not be determined.
 Excited State   2:      Singlet-?Sym    6.8695 eV  180.49 nm  f=0.0000  <S**2>=0.000
       7 ->  9         0.70606

 Excited state symmetry could not be determined.
 Excited State   3:      Singlet-?Sym    7.7377 eV  160.23 nm  f=0.0000  <S**2>=0.000
       5 ->  9         0.70658

 Excited state symmetry could not be determined.
 Excited State   4:      Singlet-?Sym    8.1914 eV  151.36 nm  f=0.0218  <S**2>=0.000
       8 -> 10         0.69648
       8 -> 17        -0.11342

 Excited state symmetry could not be determined.
 Excited State   5:      Singlet-?Sym    8.2571 eV  150.15 nm  f=0.0000  <S**2>=0.000
       8 -> 11         0.68427
       8 -> 14        -0.17282

 Excited state symmetry could not be determined.
 Excited State   6:      Singlet-?Sym    9.0659 eV  136.76 nm  f=0.0000  <S**2>=0.000
       8 -> 12         0.70571

 Excited state symmetry could not be determined.
 Excited State   7:      Singlet-?Sym    9.1454 eV  135.57 nm  f=0.1132  <S**2>=0.000
       6 ->  9         0.27718
       8 -> 13         0.64841

 Excited state symmetry could not be determined.
 Excited State   8:      Singlet-?Sym   10.5182 eV  117.88 nm  f=0.0000  <S**2>=0.000
       8 -> 11         0.17089
       8 -> 14         0.68262

 Excited state symmetry could not be determined.
 Excited State   9:      Singlet-?Sym   10.6323 eV  116.61 nm  f=0.0762  <S**2>=0.000
       5 -> 17        -0.14089
       6 ->  9         0.63230
       8 -> 13        -0.27943
       6 <-  9        -0.10439

 Excited state symmetry could not be determined.
 Excited State  10:      Singlet-?Sym   10.9179 eV  113.56 nm  f=0.0000  <S**2>=0.000
       8 -> 15         0.70407

 Excited state symmetry could not be determined.
 Excited State  11:      Singlet-?Sym   11.2780 eV  109.93 nm  f=0.0000  <S**2>=0.000
       8 -> 16         0.70466

 Excited state symmetry could not be determined.
 Excited State  12:      Singlet-?Sym   11.9561 eV  103.70 nm  f=0.0089  <S**2>=0.000
       8 -> 10         0.10106
       8 -> 17         0.66918
       8 -> 18        -0.19466

 Excited state symmetry could not be determined.
 Excited State  13:      Singlet-?Sym   15.2941 eV   81.07 nm  f=0.1651  <S**2>=0.000
       7 -> 11         0.26919
       8 -> 17         0.18012
       8 -> 18         0.61920

 Excited state symmetry could not be determined.
 Excited State  14:      Singlet-?Sym   15.6201 eV   79.37 nm  f=0.0000  <S**2>=0.000
       6 -> 10        -0.29539
       8 -> 19         0.63600

 Excited state symmetry could not be determined.
 Excited State  15:      Singlet-?Sym   15.6732 eV   79.11 nm  f=0.0000  <S**2>=0.000
       7 -> 10         0.35879
       8 -> 20         0.60023

 Excited state symmetry could not be determined.
 Excited State  16:      Singlet-?Sym   15.9061 eV   77.95 nm  f=0.0000  <S**2>=0.000
       7 -> 10         0.59392
       8 -> 20        -0.37034

 Excited state symmetry could not be determined.
 Excited State  17:      Singlet-?Sym   15.9087 eV   77.93 nm  f=0.0000  <S**2>=0.000
       6 -> 10         0.62828
       6 -> 17        -0.10552
       8 -> 19         0.30431

 Excited state symmetry could not be determined.
 Excited State  18:      Singlet-?Sym   15.9278 eV   77.84 nm  f=0.1727  <S**2>=0.000
       4 ->  9         0.12173
       6 -> 11         0.67413
       6 -> 14        -0.16856

 Excited state symmetry could not be determined.
 Excited State  19:      Singlet-?Sym   16.0359 eV   77.32 nm  f=0.0332  <S**2>=0.000
       7 -> 11         0.62547
       7 -> 14        -0.16461
       8 -> 18        -0.27750

 Excited state symmetry could not be determined.
 Excited State  20:      Singlet-?Sym   16.1004 eV   77.01 nm  f=0.0309  <S**2>=0.000
       4 ->  9         0.68010

 Excited State  21:      Singlet-SGU   16.1387 eV   76.82 nm  f=0.2525  <S**2>=0.000
       5 -> 10         0.69492

 Excited State  22:      Singlet-SGG   16.5819 eV   74.77 nm  f=0.0000  <S**2>=0.000
       5 -> 11         0.63153
       5 -> 14        -0.10112
       6 -> 12        -0.28114

 Excited state symmetry could not be determined.
 Excited State  23:      Singlet-?Sym   16.6236 eV   74.58 nm  f=0.0000  <S**2>=0.000
       6 -> 13         0.15423
       7 -> 12         0.68765

 Excited state symmetry could not be determined.
 Excited State  24:      Singlet-?Sym   16.6988 eV   74.25 nm  f=0.0000  <S**2>=0.000
       5 -> 11         0.15736
       6 -> 12         0.51739
       7 -> 13        -0.44971

 Excited state symmetry could not be determined.
 Excited State  25:      Singlet-?Sym   16.9335 eV   73.22 nm  f=0.0000  <S**2>=0.000
       6 -> 13         0.68960
       7 -> 12        -0.15433

 Excited state symmetry could not be determined.
 Excited State  26:      Singlet-?Sym   17.1112 eV   72.46 nm  f=0.0550  <S**2>=0.000
       5 -> 12         0.70014

 Excited state symmetry could not be determined.
 Excited State  27:      Singlet-?Sym   17.3343 eV   71.53 nm  f=0.0473  <S**2>=0.000
       5 -> 13         0.70513

 Excited state symmetry could not be determined.
 Excited State  28:      Singlet-?Sym   17.3815 eV   71.33 nm  f=0.0000  <S**2>=0.000
       5 -> 11         0.21386
       5 -> 14        -0.17932
       6 -> 12         0.37132
       7 -> 13         0.52599

 Excited state symmetry could not be determined.
 Excited State  29:      Singlet-?Sym   18.1532 eV   68.30 nm  f=0.0388  <S**2>=0.000
       7 -> 11         0.18162
       7 -> 14         0.67906

 Excited state symmetry could not be determined.
 Excited State  30:      Singlet-?Sym   18.2508 eV   67.93 nm  f=0.0606  <S**2>=0.000
       6 -> 11         0.18289
       6 -> 14         0.67688

 Excited state symmetry could not be determined.
 Excited State  31:      Singlet-?Sym   18.5214 eV   66.94 nm  f=0.0000  <S**2>=0.000
       7 -> 15         0.69615

 Excited state symmetry could not be determined.
 Excited State  32:      Singlet-?Sym   18.5785 eV   66.74 nm  f=0.0000  <S**2>=0.000
       6 -> 15         0.54681
       7 -> 16        -0.44352

 Excited state symmetry could not be determined.
 Excited State  33:      Singlet-?Sym   18.6344 eV   66.54 nm  f=0.0000  <S**2>=0.000
       5 -> 11         0.15845
       5 -> 14         0.67119

 Excited state symmetry could not be determined.
 Excited State  34:      Singlet-?Sym   18.6823 eV   66.36 nm  f=0.0000  <S**2>=0.000
       6 -> 16         0.69925

 Excited state symmetry could not be determined.
 Excited State  35:      Singlet-?Sym   18.7029 eV   66.29 nm  f=0.0438  <S**2>=0.000
       5 -> 17         0.12235
       6 -> 15         0.43220
       7 -> 16         0.53822

 Excited state symmetry could not be determined.
 Excited State  36:      Singlet-?Sym   18.8749 eV   65.69 nm  f=0.0000  <S**2>=0.000
       5 -> 15         0.70142

 Excited state symmetry could not be determined.
 Excited State  37:      Singlet-?Sym   18.9671 eV   65.37 nm  f=0.0000  <S**2>=0.000
       5 -> 16         0.70209

 Excited state symmetry could not be determined.
 Excited State  38:      Singlet-?Sym   19.3796 eV   63.98 nm  f=0.0000  <S**2>=0.000
       6 -> 10         0.11999
       6 -> 17         0.65958
       6 -> 18        -0.20959

 Excited state symmetry could not be determined.
 Excited State  39:      Singlet-?Sym   19.4350 eV   63.79 nm  f=0.0000  <S**2>=0.000
       7 -> 10         0.11233
       7 -> 17         0.66141
       7 -> 18        -0.20260

 Excited state symmetry could not be determined.
 Excited State  40:      Singlet-?Sym   20.6744 eV   59.97 nm  f=0.0015  <S**2>=0.000
       5 -> 17        -0.40738
       8 -> 23         0.56093

 Excited state symmetry could not be determined.
 Excited State  41:      Singlet-?Sym   20.7076 eV   59.87 nm  f=0.0000  <S**2>=0.000
       8 -> 21         0.69847

 Excited state symmetry could not be determined.
 Excited State  42:      Singlet-?Sym   20.8163 eV   59.56 nm  f=0.0000  <S**2>=0.000
       8 -> 22         0.70386

 Excited state symmetry could not be determined.
 Excited State  43:      Singlet-?Sym   21.8166 eV   56.83 nm  f=0.1921  <S**2>=0.000
       6 -> 20        -0.19028
       7 -> 19         0.11676
       8 -> 24         0.66654

 Excited state symmetry could not be determined.
 Excited State  44:      Singlet-?Sym   21.8489 eV   56.75 nm  f=0.1509  <S**2>=0.000
       6 -> 19         0.19627
       7 -> 20         0.12739
       8 -> 25         0.66545

 Excited State  45:      Singlet-SGU   21.9450 eV   56.50 nm  f=0.7580  <S**2>=0.000
       4 -> 11         0.31279
       5 -> 17         0.43654
       5 -> 18         0.22280
       8 -> 23         0.36248

 Excited state symmetry could not be determined.
 Excited State  46:      Singlet-?Sym   22.3745 eV   55.41 nm  f=0.0000  <S**2>=0.000
       8 -> 27         0.69920

 Excited state symmetry could not be determined.
 Excited State  47:      Singlet-?Sym   22.6206 eV   54.81 nm  f=0.0554  <S**2>=0.000
       8 -> 28         0.70027

 Excited state symmetry could not be determined.
 Excited State  48:      Singlet-?Sym   22.7057 eV   54.60 nm  f=0.0000  <S**2>=0.000
       4 -> 10        -0.44534
       4 -> 17         0.10735
       8 -> 26         0.52673

 Excited state symmetry could not be determined.
 Excited State  49:      Singlet-?Sym   22.9721 eV   53.97 nm  f=0.0000  <S**2>=0.000
       6 -> 17         0.20250
       6 -> 18         0.66851

 Excited state symmetry could not be determined.
 Excited State  50:      Singlet-?Sym   22.9985 eV   53.91 nm  f=0.0000  <S**2>=0.000
       7 -> 17         0.20214
       7 -> 18         0.67025

 Excited state symmetry could not be determined.
 Excited State  51:      Singlet-?Sym   23.1269 eV   53.61 nm  f=0.0106  <S**2>=0.000
       6 -> 20        -0.44466
       7 -> 19         0.50615
       8 -> 24        -0.21376

 Excited state symmetry could not be determined.
 Excited State  52:      Singlet-?Sym   23.1395 eV   53.58 nm  f=0.0116  <S**2>=0.000
       6 -> 19         0.44551
       7 -> 20         0.50003
       8 -> 25        -0.22601

 Excited State  53:      Singlet-SGG   23.2970 eV   53.22 nm  f=0.0000  <S**2>=0.000
       4 -> 10         0.53821
       8 -> 26         0.44200

 Excited State  54:      Singlet-SGU   23.4857 eV   52.79 nm  f=0.0250  <S**2>=0.000
       4 -> 11         0.55747
       5 -> 17        -0.18137
       5 -> 18        -0.37786

 Excited state symmetry could not be determined.
 Excited State  55:      Singlet-?Sym   23.7752 eV   52.15 nm  f=0.0000  <S**2>=0.000
       5 -> 19         0.70301

 Excited state symmetry could not be determined.
 Excited State  56:      Singlet-?Sym   23.7905 eV   52.12 nm  f=0.0000  <S**2>=0.000
       5 -> 20         0.70211

 Excited state symmetry could not be determined.
 Excited State  57:      Singlet-?Sym   23.8510 eV   51.98 nm  f=0.0000  <S**2>=0.000
       4 -> 12         0.69752

 Excited state symmetry could not be determined.
 Excited State  58:      Singlet-?Sym   23.9875 eV   51.69 nm  f=0.5689  <S**2>=0.000
       6 -> 19         0.50720
       7 -> 20        -0.47831

 Excited state symmetry could not be determined.
 Excited State  59:      Singlet-?Sym   24.0608 eV   51.53 nm  f=0.6244  <S**2>=0.000
       4 ->  9         0.10138
       6 -> 20         0.50516
       7 -> 19         0.46854

 Excited state symmetry could not be determined.
 Excited State  60:      Singlet-?Sym   24.0908 eV   51.47 nm  f=0.0000  <S**2>=0.000
       4 -> 13         0.70202

 Excited state symmetry could not be determined.
 Excited State  61:      Singlet-?Sym   25.2527 eV   49.10 nm  f=0.0028  <S**2>=0.000
       4 -> 11         0.18304
       4 -> 14         0.66745
       5 -> 18         0.10484

 Excited State  62:      Singlet-SGU   25.3273 eV   48.95 nm  f=0.6899  <S**2>=0.000
       4 -> 11         0.21499
       4 -> 14        -0.16269
       5 -> 17        -0.23818
       5 -> 18         0.51960
       5 -> 28        -0.10486
       6 ->  9        -0.14468
       8 -> 23        -0.19608
       8 -> 30        -0.11481

 Excited state symmetry could not be determined.
 Excited State  63:      Singlet-?Sym   25.6732 eV   48.29 nm  f=0.0006  <S**2>=0.000
       4 -> 15         0.69547

 Excited state symmetry could not be determined.
 Excited State  64:      Singlet-?Sym   25.7607 eV   48.13 nm  f=0.0014  <S**2>=0.000
       4 -> 16         0.69801

 Excited State  65:      Singlet-SGG   27.3643 eV   45.31 nm  f=0.0000  <S**2>=0.000
       4 -> 17         0.61854
       4 -> 18        -0.14894
       5 -> 21         0.10590
       6 -> 22        -0.21454
       7 -> 23        -0.15276

 Excited state symmetry could not be determined.
 Excited State  66:      Singlet-?Sym   28.3892 eV   43.67 nm  f=0.0000  <S**2>=0.000
       6 -> 23         0.24536
       7 -> 22         0.66050

 Excited state symmetry could not be determined.
 Excited State  67:      Singlet-?Sym   28.3908 eV   43.67 nm  f=0.0000  <S**2>=0.000
       5 -> 22        -0.37445
       6 -> 21         0.59557

 Excited state symmetry could not be determined.
 Excited State  68:      Singlet-?Sym   28.4138 eV   43.64 nm  f=0.0000  <S**2>=0.000
       6 -> 22         0.58761
       7 -> 23        -0.36904

 Excited state symmetry could not be determined.
 Excited State  69:      Singlet-?Sym   28.4921 eV   43.52 nm  f=0.0110  <S**2>=0.000
       5 -> 23        -0.25963
       7 -> 21         0.65095

 Excited state symmetry could not be determined.
 Excited State  70:      Singlet-?Sym   28.7156 eV   43.18 nm  f=0.0000  <S**2>=0.000
       5 -> 21         0.65151
       7 -> 23         0.23149

 Excited state symmetry could not be determined.
 Excited State  71:      Singlet-?Sym   28.7645 eV   43.10 nm  f=0.0000  <S**2>=0.000
       6 -> 23         0.66275
       7 -> 22        -0.24551

 Excited state symmetry could not be determined.
 Excited State  72:      Singlet-?Sym   28.8064 eV   43.04 nm  f=0.0000  <S**2>=0.000
       3 ->  9         0.63927
       6 -> 25        -0.20251
       7 -> 24        -0.21135

 Excited state symmetry could not be determined.
 Excited State  73:      Singlet-?Sym   28.9496 eV   42.83 nm  f=0.0000  <S**2>=0.000
       4 -> 17         0.29481
       4 -> 18         0.17292
       5 -> 21        -0.18273
       6 -> 22         0.29013
       7 -> 23         0.51035

 Excited state symmetry could not be determined.
 Excited State  74:      Singlet-?Sym   29.1936 eV   42.47 nm  f=0.3182  <S**2>=0.000
       5 -> 22         0.58673
       6 -> 21         0.37372

 Excited state symmetry could not be determined.
 Excited State  75:      Singlet-?Sym   29.2469 eV   42.39 nm  f=0.0000  <S**2>=0.000
       6 -> 25         0.54326
       7 -> 24        -0.44968

 Excited state symmetry could not be determined.
 Excited State  76:      Singlet-?Sym   29.2497 eV   42.39 nm  f=0.0000  <S**2>=0.000
       6 -> 24         0.54553
       7 -> 25         0.44856

 Excited state symmetry could not be determined.
 Excited State  77:      Singlet-?Sym   29.3744 eV   42.21 nm  f=0.0000  <S**2>=0.000
       4 -> 19         0.30714
       5 -> 24         0.55353
       6 -> 26        -0.18219
       7 -> 27        -0.24162

 Excited state symmetry could not be determined.
 Excited State  78:      Singlet-?Sym   29.3849 eV   42.19 nm  f=0.0041  <S**2>=0.000
       4 -> 20         0.30385
       5 -> 25         0.55449
       6 -> 27        -0.27850
       7 -> 26         0.14003

 Excited state symmetry could not be determined.
 Excited State  79:      Singlet-?Sym   29.4300 eV   42.13 nm  f=0.2859  <S**2>=0.000
       5 -> 23         0.64773
       7 -> 21         0.25926

 Excited state symmetry could not be determined.
 Excited State  80:      Singlet-?Sym   29.6061 eV   41.88 nm  f=0.0000  <S**2>=0.000
       3 ->  9         0.27052
       6 -> 25         0.38168
       6 -> 28        -0.18302
       7 -> 24         0.48890

 Excited state symmetry could not be determined.
 Excited State  81:      Singlet-?Sym   29.6224 eV   41.85 nm  f=0.0000  <S**2>=0.000
       6 -> 24        -0.44015
       7 -> 25         0.53973
       7 -> 28         0.11362

 Excited state symmetry could not be determined.
 Excited State  82:      Singlet-?Sym   30.0515 eV   41.26 nm  f=0.0000  <S**2>=0.000
       5 -> 27         0.65518
       6 -> 28        -0.24354

 Excited state symmetry could not be determined.
 Excited State  83:      Singlet-?Sym   30.1077 eV   41.18 nm  f=0.0000  <S**2>=0.000
       5 -> 24         0.23148
       7 -> 27         0.64348
       8 -> 29        -0.12466

 Excited state symmetry could not be determined.
 Excited State  84:      Singlet-?Sym   30.1409 eV   41.13 nm  f=0.0064  <S**2>=0.000
       5 -> 28         0.48263
       7 -> 26         0.48748

 Excited state symmetry could not be determined.
 Excited State  85:      Singlet-?Sym   30.1861 eV   41.07 nm  f=0.0000  <S**2>=0.000
       5 -> 26         0.57760
       7 -> 28        -0.39212

 Excited state symmetry could not be determined.
 Excited State  86:      Singlet-?Sym   30.2059 eV   41.05 nm  f=0.0072  <S**2>=0.000
       4 -> 20         0.11094
       5 -> 25         0.28499
       5 -> 28         0.18169
       6 -> 27         0.56490
       7 -> 26        -0.22438

 Excited state symmetry could not be determined.
 Excited State  87:      Singlet-?Sym   30.2439 eV   40.99 nm  f=0.0000  <S**2>=0.000
       5 -> 24         0.19786
       6 -> 26         0.67399

 Excited state symmetry could not be determined.
 Excited State  88:      Singlet-?Sym   30.3789 eV   40.81 nm  f=0.0000  <S**2>=0.000
       5 -> 26         0.39710
       7 -> 28         0.57065

 Excited state symmetry could not be determined.
 Excited State  89:      Singlet-?Sym   30.4396 eV   40.73 nm  f=0.0000  <S**2>=0.000
       3 ->  9         0.10178
       5 -> 27         0.23592
       6 -> 25         0.12829
       6 -> 28         0.63429
       7 -> 24         0.11160

 Excited State  90:      Singlet-SGG   30.7219 eV   40.36 nm  f=0.0000  <S**2>=0.000
       4 -> 18         0.66605
       6 -> 22        -0.13721
       7 -> 23        -0.14505

 Excited state symmetry could not be determined.
 Excited State  91:      Singlet-?Sym   30.7301 eV   40.35 nm  f=0.0000  <S**2>=0.000
       4 -> 19         0.62755
       5 -> 24        -0.31719

 Excited state symmetry could not be determined.
 Excited State  92:      Singlet-?Sym   30.7547 eV   40.31 nm  f=0.0000  <S**2>=0.000
       4 -> 20         0.62530
       5 -> 25        -0.31991

 Excited state symmetry could not be determined.
 Excited State  93:      Singlet-?Sym   31.1852 eV   39.76 nm  f=0.0033  <S**2>=0.000
       5 -> 28         0.41780
       6 -> 27        -0.26862
       7 -> 26        -0.40664
       8 -> 30        -0.24448

 Excited state symmetry could not be determined.
 Excited State  94:      Singlet-?Sym   32.6596 eV   37.96 nm  f=0.0000  <S**2>=0.000
       7 -> 27         0.14212
       8 -> 29         0.68980

 Excited state symmetry could not be determined.
 Excited State  95:      Singlet-?Sym   34.7852 eV   35.64 nm  f=0.0068  <S**2>=0.000
       3 -> 10         0.17904
       3 -> 17        -0.20234
       4 -> 21         0.12301
       5 -> 28         0.17015
       6 -> 27        -0.10573
       8 -> 30         0.58663

 Excited state symmetry could not be determined.
 Excited State  96:      Singlet-?Sym   34.9750 eV   35.45 nm  f=0.0000  <S**2>=0.000
       8 -> 31         0.70201

 Excited state symmetry could not be determined.
 Excited State  97:      Singlet-?Sym   35.5603 eV   34.87 nm  f=0.0804  <S**2>=0.000
       4 -> 21         0.68426
       8 -> 30        -0.13185

 Excited state symmetry could not be determined.
 Excited State  98:      Singlet-?Sym   35.7183 eV   34.71 nm  f=0.0000  <S**2>=0.000
       4 -> 22         0.70049

 Excited state symmetry could not be determined.
 Excited State  99:      Singlet-?Sym   36.0109 eV   34.43 nm  f=0.0000  <S**2>=0.000
       4 -> 23         0.69958

 Excited state symmetry could not be determined.
 Excited State 100:      Singlet-?Sym   36.5887 eV   33.89 nm  f=0.0000  <S**2>=0.000
       4 -> 24         0.70591

 Excited state symmetry could not be determined.
 Excited State 101:      Singlet-?Sym   36.6011 eV   33.87 nm  f=0.0000  <S**2>=0.000
       4 -> 25         0.70568

 Excited State 102:      Singlet-SGG   37.0710 eV   33.45 nm  f=0.0000  <S**2>=0.000
       3 -> 11         0.68069
       3 -> 14        -0.17385

 Excited state symmetry could not be determined.
 Excited State 103:      Singlet-?Sym   37.0876 eV   33.43 nm  f=0.0585  <S**2>=0.000
       4 -> 27         0.69288
       5 -> 29        -0.11751

 Excited state symmetry could not be determined.
 Excited State 104:      Singlet-?Sym   37.2096 eV   33.32 nm  f=0.0527  <S**2>=0.000
       4 -> 26         0.69746

 Excited State 105:      Singlet-SGU   37.3768 eV   33.17 nm  f=0.0087  <S**2>=0.000
       3 -> 10         0.67820
       8 -> 30        -0.13930

 Excited state symmetry could not be determined.
 Excited State 106:      Singlet-?Sym   37.4998 eV   33.06 nm  f=0.0000  <S**2>=0.000
       4 -> 28         0.69804

 Excited state symmetry could not be determined.
 Excited State 107:      Singlet-?Sym   37.9120 eV   32.70 nm  f=0.0000  <S**2>=0.000
       3 -> 12         0.70546

 Excited state symmetry could not be determined.
 Excited State 108:      Singlet-?Sym   38.1337 eV   32.51 nm  f=0.0002  <S**2>=0.000
       3 -> 13         0.70532

 Excited state symmetry could not be determined.
 Excited State 109:      Singlet-?Sym   39.4146 eV   31.46 nm  f=0.0000  <S**2>=0.000
       3 -> 11         0.18010
       3 -> 14         0.67822

 Excited state symmetry could not be determined.
 Excited State 110:      Singlet-?Sym   39.7419 eV   31.20 nm  f=0.0000  <S**2>=0.000
       3 -> 15         0.70503

 Excited state symmetry could not be determined.
 Excited State 111:      Singlet-?Sym   39.8261 eV   31.13 nm  f=0.0000  <S**2>=0.000
       3 -> 16         0.70508

 Excited state symmetry could not be determined.
 Excited State 112:      Singlet-?Sym   40.0610 eV   30.95 nm  f=0.0000  <S**2>=0.000
       7 -> 29         0.69961

 Excited state symmetry could not be determined.
 Excited State 113:      Singlet-?Sym   40.2758 eV   30.78 nm  f=0.0000  <S**2>=0.000
       6 -> 29         0.55308
       7 -> 30        -0.43252

 Excited state symmetry could not be determined.
 Excited State 114:      Singlet-?Sym   40.6700 eV   30.49 nm  f=0.0000  <S**2>=0.000
       6 -> 30         0.70541

 Excited state symmetry could not be determined.
 Excited State 115:      Singlet-?Sym   40.6817 eV   30.48 nm  f=0.0523  <S**2>=0.000
       4 -> 27         0.11771
       5 -> 29         0.69599

 Excited state symmetry could not be determined.
 Excited State 116:      Singlet-?Sym   40.9183 eV   30.30 nm  f=0.0680  <S**2>=0.000

 Unable to determine electronic state:  partially filled degenerate orbitals.
 Alpha  occ. eigenvalues --  -19.42610 -19.42597  -1.40577  -0.88700  -0.64146
 Alpha  occ. eigenvalues --   -0.62970  -0.62695  -0.34841
 Alpha virt. eigenvalues --   -0.10818   0.11995   0.15131   0.17474   0.18265
 Alpha virt. eigenvalues --    0.22126   0.22327   0.22602   0.32658   0.41786
 Alpha virt. eigenvalues --    0.45185   0.45266   0.61946   0.63856   0.64750

 Mulliken charges:
               1
     1  O   -0.000000
     2  O   -0.000000
 Sum of Mulliken charges =  -0.00000

 Dipole moment (field-independent basis, Debye):
    X=             -0.0000    Y=              0.0000    Z=             -0.0000  Tot=              0.0000
 Quadrupole moment (field-independent basis, Debye-Ang):
   XX=             -9.2240   YY=            -11.1342   ZZ=            -10.7043
   XY=              0.0000   XZ=              0.0000   YZ=              0.0000

 Normal termination of Gaussian 16 at Sat Feb 12 22:22:45 2022.
