 Gaussian 16, Revision C.01,
 Gaussian 16:  EM64L-G16RevC.01  3-Jul-2019

 ----------------------------------------------------------------------
 #P TD(Nstates=10000) wB97XD/Gen SCF(maxcycles=100) Int(Grid=ultrafine)
 ----------------------------------------------------------------------

 ---------------------
 xGDB7_00001_tier4.com
 ---------------------
 Symbolic Z-matrix:
 Charge =  0 Multiplicity = 1

                         Standard orientation:
 ---------------------------------------------------------------------
 Center     Atomic      Atomic             Coordinates (Angstroms)
 Number     Number       Type             X           Y           Z
 ---------------------------------------------------------------------
      1          6           0       -1.244141   -0.235754   -0.027915
      2          6           0        0.053070    0.554353    0.054597
      3          7           0        1.202580   -0.320195   -0.118513
      4          1           0       -2.119845    0.425044    0.054983
      5          1           0       -1.307630   -0.976111    0.786441
      6          1           0       -1.300428   -0.780687   -0.981677
      7          1           0        0.063480    1.130960    1.004377
      8          1           0        0.070274    1.303101   -0.754854
      9          1           0        1.254541   -0.986760    0.650372
     10          1           0        2.067972    0.214222   -0.090146
 ---------------------------------------------------------------------

 SCF Done:  E(RwB97XD) =  -135.045943933     A.U. after   15 cycles

 Excitation energies and oscillator strengths:

 Excited State   1:      Singlet-A      6.5975 eV  187.93 nm  f=0.0128  <S**2>=0.000
      13 -> 14         0.63519
      13 -> 15        -0.23410
      13 -> 16         0.18233
 This state for optimization and/or second-order correction.
 Total Energy, E(TD-HF/TD-DFT) =  -134.803491363
 Copying the excited state density for this state as the 1-particle RhoCI density.

 Excited State   2:      Singlet-A      7.8834 eV  157.27 nm  f=0.0065  <S**2>=0.000
      13 -> 15         0.49899
      13 -> 16         0.36579
      13 -> 17        -0.24643
      13 -> 18         0.14467

 Excited State   3:      Singlet-A      7.9023 eV  156.90 nm  f=0.0359  <S**2>=0.000
      13 -> 14        -0.26632
      13 -> 15        -0.29269
      13 -> 16         0.55076
      13 -> 18        -0.12010

 Excited State   4:      Singlet-A      8.6317 eV  143.64 nm  f=0.0946  <S**2>=0.000
      13 -> 15         0.24176
      13 -> 17         0.63237

 Excited State   5:      Singlet-A      9.1513 eV  135.48 nm  f=0.0377  <S**2>=0.000
      13 -> 15        -0.18539
      13 -> 18         0.62532
      13 -> 19         0.10402
      13 -> 20         0.13923
      13 -> 23        -0.12525

 Excited State   6:      Singlet-A      9.5567 eV  129.74 nm  f=0.0043  <S**2>=0.000
      12 -> 14         0.45536
      13 -> 19         0.40939
      13 -> 20        -0.23715
      13 -> 21        -0.17145

 Excited State   7:      Singlet-A      9.5877 eV  129.32 nm  f=0.0037  <S**2>=0.000
      12 -> 14         0.51282
      13 -> 19        -0.39803
      13 -> 20         0.13830
      13 -> 21         0.17007

 Excited State   8:      Singlet-A      9.9923 eV  124.08 nm  f=0.0011  <S**2>=0.000
      11 -> 14         0.12662
      13 -> 18        -0.13229
      13 -> 19         0.25248
      13 -> 20         0.52939
      13 -> 22        -0.10117
      13 -> 24        -0.23008

 Excited State   9:      Singlet-A     10.1181 eV  122.54 nm  f=0.0096  <S**2>=0.000
      11 -> 14         0.30112
      13 -> 19         0.19054
      13 -> 20        -0.10641
      13 -> 21         0.55085
      13 -> 25        -0.10583

 Excited State  10:      Singlet-A     10.1933 eV  121.63 nm  f=0.0166  <S**2>=0.000
      10 -> 14         0.11813
      11 -> 14         0.54778
      12 -> 15        -0.20280
      13 -> 19        -0.14477
      13 -> 21        -0.28677

 Excited State  11:      Singlet-A     10.3007 eV  120.36 nm  f=0.0864  <S**2>=0.000
      10 -> 14         0.64342
      10 -> 15         0.20409
      11 -> 14        -0.11300

 Excited State  12:      Singlet-A     10.4549 eV  118.59 nm  f=0.0826  <S**2>=0.000
       9 -> 14        -0.15928
      11 -> 14         0.21855
      12 -> 15         0.62585

 Excited State  13:      Singlet-A     10.7257 eV  115.60 nm  f=0.0292  <S**2>=0.000
      12 -> 16         0.33434
      13 -> 18         0.13773
      13 -> 20        -0.18848
      13 -> 22        -0.19016
      13 -> 23         0.44977
      13 -> 24        -0.24291

 Excited State  14:      Singlet-A     10.8398 eV  114.38 nm  f=0.1110  <S**2>=0.000
      12 -> 16         0.53277
      13 -> 22         0.34483
      13 -> 23        -0.17339

 Excited State  15:      Singlet-A     10.8871 eV  113.88 nm  f=0.0374  <S**2>=0.000
      12 -> 16        -0.23236
      12 -> 17         0.12696
      13 -> 22         0.47664
      13 -> 23         0.31272
      13 -> 25        -0.13927
      13 -> 26        -0.11494

 Excited State  16:      Singlet-A     11.0189 eV  112.52 nm  f=0.1216  <S**2>=0.000
      11 -> 15         0.60437
      13 -> 25        -0.23085

 Excited State  17:      Singlet-A     11.1734 eV  110.96 nm  f=0.0084  <S**2>=0.000
      10 -> 15         0.30471
      13 -> 20         0.16602
      13 -> 23         0.21299
      13 -> 24         0.44221
      13 -> 25        -0.23280
      13 -> 27         0.13521

 Excited State  18:      Singlet-A     11.2117 eV  110.59 nm  f=0.0733  <S**2>=0.000
      10 -> 14        -0.10841
      10 -> 15         0.36875
      11 -> 15        -0.21146
      11 -> 16        -0.11019
      13 -> 23        -0.18776
      13 -> 24        -0.35271
      13 -> 25        -0.27765

 Excited State  19:      Singlet-A     11.2780 eV  109.93 nm  f=0.0348  <S**2>=0.000
      10 -> 14        -0.11090
      10 -> 15         0.37829
      11 -> 15         0.18298
      13 -> 22         0.15460
      13 -> 25         0.44569

 Excited State  20:      Singlet-A     11.3759 eV  108.99 nm  f=0.0094  <S**2>=0.000
      11 -> 16         0.31063
      12 -> 17         0.56966
      12 -> 18         0.12940

 Excited State  21:      Singlet-A     11.4746 eV  108.05 nm  f=0.0192  <S**2>=0.000
      10 -> 16         0.16736
      11 -> 16         0.55350
      11 -> 17        -0.16717
      12 -> 16        -0.10282
      12 -> 17        -0.27398

 Excited State  22:      Singlet-A     11.6250 eV  106.65 nm  f=0.0190  <S**2>=0.000
      10 -> 16         0.63049
      10 -> 17        -0.12071
      11 -> 16        -0.10543
      11 -> 17         0.10658

 Excited State  23:      Singlet-A     11.7164 eV  105.82 nm  f=0.0479  <S**2>=0.000
       9 -> 15         0.11654
      12 -> 17        -0.13741
      12 -> 18         0.63480
      12 -> 19        -0.11493

 Excited State  24:      Singlet-A     11.9125 eV  104.08 nm  f=0.0199  <S**2>=0.000
       9 -> 14         0.47200
      10 -> 17        -0.34905
      11 -> 16        -0.10991
      11 -> 17        -0.17259
      13 -> 26         0.18539
      13 -> 27        -0.11484

 Excited State  25:      Singlet-A     11.9338 eV  103.89 nm  f=0.1033  <S**2>=0.000
       9 -> 14         0.19807
      11 -> 16         0.10566
      11 -> 17         0.60532
      11 -> 18         0.12202

 Excited State  26:      Singlet-A     12.0205 eV  103.14 nm  f=0.0022  <S**2>=0.000
       9 -> 14         0.12031
      10 -> 17        -0.16556
      12 -> 19        -0.10521
      13 -> 26        -0.39867
      13 -> 27         0.47481

 Excited State  27:      Singlet-A     12.1110 eV  102.37 nm  f=0.0690  <S**2>=0.000
       9 -> 14         0.32601
      10 -> 16         0.13583
      10 -> 17         0.45238
      11 -> 18        -0.19051
      13 -> 26        -0.18330
      13 -> 27        -0.12850

 Excited State  28:      Singlet-A     12.1905 eV  101.71 nm  f=0.0440  <S**2>=0.000
       9 -> 14         0.13552
       9 -> 15         0.11463
      10 -> 17         0.21040
      12 -> 19         0.30965
      13 -> 22         0.14079
      13 -> 26         0.31872
      13 -> 27         0.35805
      13 -> 28         0.12604

 Excited State  29:      Singlet-A     12.2780 eV  100.98 nm  f=0.0250  <S**2>=0.000
       9 -> 14         0.11331
      11 -> 17        -0.11249
      11 -> 18         0.41740
      11 -> 19        -0.10085
      12 -> 19         0.30543
      13 -> 26        -0.29791
      13 -> 27        -0.14674
      13 -> 28         0.11529

 Excited State  30:      Singlet-A     12.3018 eV  100.79 nm  f=0.0104  <S**2>=0.000
       9 -> 15         0.17718
      10 -> 17        -0.11725
      10 -> 18        -0.34174
      11 -> 18        -0.31442
      12 -> 19         0.34589
      12 -> 20         0.10466
      13 -> 27        -0.12359
      13 -> 28        -0.12322

 Excited State  31:      Singlet-A     12.3648 eV  100.27 nm  f=0.0646  <S**2>=0.000
       9 -> 15         0.10304
       9 -> 16         0.15545
      10 -> 17         0.12015
      10 -> 18        -0.31756
      11 -> 18         0.13188
      11 -> 19        -0.12880
      12 -> 19        -0.23083
      12 -> 20         0.41343
      13 -> 28         0.14032

 Excited State  32:      Singlet-A     12.5123 eV   99.09 nm  f=0.1939  <S**2>=0.000
       8 -> 14         0.10153
       9 -> 16         0.13636
      10 -> 18         0.39757
      11 -> 18        -0.22952
      11 -> 21        -0.10105
      12 -> 19         0.13571
      12 -> 20         0.29366
      12 -> 21         0.15282
      13 -> 28         0.25301

 Excited State  33:      Singlet-A     12.5448 eV   98.83 nm  f=0.0245  <S**2>=0.000
       9 -> 16        -0.10887
      12 -> 19        -0.11584
      12 -> 20        -0.17805
      12 -> 21        -0.38382
      13 -> 25        -0.11422
      13 -> 28         0.45126

 Excited State  34:      Singlet-A     12.6360 eV   98.12 nm  f=0.0609  <S**2>=0.000
       9 -> 16        -0.12878
      10 -> 18        -0.19832
      11 -> 19         0.20790
      12 -> 20        -0.14355
      12 -> 21         0.46342
      12 -> 22        -0.12353
      13 -> 28         0.27477

 Excited State  35:      Singlet-A     12.7772 eV   97.04 nm  f=0.0537  <S**2>=0.000
       9 -> 16         0.11307
      11 -> 18         0.18144
      11 -> 19         0.52219
      11 -> 20        -0.24792
      12 -> 21        -0.14595
      13 -> 29         0.19892

 Excited State  36:      Singlet-A     12.8782 eV   96.27 nm  f=0.0211  <S**2>=0.000
       8 -> 14         0.15207
       9 -> 15        -0.19204
       9 -> 16         0.15163
      10 -> 19         0.53028
      10 -> 20        -0.14530
      13 -> 29        -0.12658

 Excited State  37:      Singlet-A     12.9423 eV   95.80 nm  f=0.0339  <S**2>=0.000
       8 -> 14         0.19856
      11 -> 19        -0.14919
      11 -> 21         0.16812
      13 -> 28         0.10400
      13 -> 29         0.52789
      13 -> 31         0.11362

 Excited State  38:      Singlet-A     12.9866 eV   95.47 nm  f=0.1236  <S**2>=0.000
       7 -> 14         0.12516
       9 -> 15         0.45506
       9 -> 16        -0.15046
      10 -> 19         0.21616
      10 -> 20        -0.15782
      11 -> 20        -0.23310
      12 -> 19        -0.10561
      13 -> 29         0.11644

 Excited State  39:      Singlet-A     13.0588 eV   94.94 nm  f=0.0310  <S**2>=0.000
       8 -> 14        -0.21908
       9 -> 15         0.12173
      10 -> 19         0.16005
      10 -> 20        -0.11785
      10 -> 21         0.15587
      11 -> 19         0.18361
      11 -> 20         0.43999
      11 -> 21         0.19139
      12 -> 22         0.12917

 Excited State  40:      Singlet-A     13.1278 eV   94.44 nm  f=0.0973  <S**2>=0.000
       9 -> 15         0.12935
       9 -> 16         0.40363
      10 -> 19        -0.18784
      10 -> 20        -0.31248
      12 -> 20        -0.26061
      12 -> 22         0.17391

 Excited State  41:      Singlet-A     13.2056 eV   93.89 nm  f=0.0859  <S**2>=0.000
      10 -> 21         0.27959
      11 -> 20        -0.29238
      11 -> 21         0.44721
      11 -> 22        -0.10215
      12 -> 22         0.17081
      13 -> 29        -0.11666

 Excited State  42:      Singlet-A     13.2145 eV   93.82 nm  f=0.1650  <S**2>=0.000
       8 -> 14         0.49720
       9 -> 15         0.13185
       9 -> 16        -0.10965
      10 -> 21        -0.14546
      11 -> 19         0.17381
      11 -> 21         0.12814
      12 -> 22         0.12321
      13 -> 29        -0.22401

 Excited State  43:      Singlet-A     13.2435 eV   93.62 nm  f=0.0465  <S**2>=0.000
       8 -> 14         0.22615
      10 -> 19        -0.13734
      10 -> 21         0.51913
      11 -> 21        -0.20044

 Excited State  44:      Singlet-A     13.3050 eV   93.19 nm  f=0.0201  <S**2>=0.000
       8 -> 14        -0.10624
       9 -> 16        -0.19600
       9 -> 17         0.34678
      11 -> 21        -0.20097
      12 -> 22         0.42485
      12 -> 23         0.12542

 Excited State  45:      Singlet-A     13.3605 eV   92.80 nm  f=0.0849  <S**2>=0.000
       9 -> 15         0.19868
       9 -> 16         0.28245
       9 -> 17         0.11019
      10 -> 20         0.43702
      12 -> 20        -0.13002
      12 -> 23         0.23864

 Excited State  46:      Singlet-A     13.4999 eV   91.84 nm  f=0.0317  <S**2>=0.000
       7 -> 14        -0.14987
       7 -> 15         0.12186
       9 -> 16        -0.11414
       9 -> 17         0.20217
       9 -> 18        -0.12141
      10 -> 19        -0.10060
      10 -> 20        -0.16591
      11 -> 22        -0.12147
      12 -> 20         0.14394
      12 -> 22        -0.23611
      12 -> 23         0.34292
      12 -> 24        -0.22250

 Excited State  47:      Singlet-A     13.6396 eV   90.90 nm  f=0.0031  <S**2>=0.000
       7 -> 14         0.22350
       7 -> 16         0.10293
       9 -> 15        -0.13057
       9 -> 18        -0.10223
       9 -> 19        -0.10572
      10 -> 20        -0.13412
      10 -> 23        -0.10975
      12 -> 23         0.25376
      12 -> 24         0.40551
      12 -> 25         0.14228
      13 -> 30        -0.20073

 Excited State  48:      Singlet-A     13.7615 eV   90.10 nm  f=0.0084  <S**2>=0.000
       7 -> 14         0.42581
       7 -> 15        -0.10055
       9 -> 16         0.10548
      10 -> 22         0.20794
      11 -> 22         0.16954
      12 -> 23         0.19607
      12 -> 24        -0.24647
      13 -> 30         0.10294
      13 -> 31         0.17185

 Excited State  49:      Singlet-A     13.8234 eV   89.69 nm  f=0.0649  <S**2>=0.000
       7 -> 14        -0.23441
       8 -> 17        -0.11599
       9 -> 17        -0.23924
       9 -> 18        -0.10661
      10 -> 22         0.39070
      10 -> 24        -0.10335
      12 -> 22         0.18173
      13 -> 30        -0.13475

 Excited State  50:      Singlet-A     13.8495 eV   89.52 nm  f=0.1137  <S**2>=0.000
      11 -> 21        -0.15339
      12 -> 24         0.15951
      13 -> 30         0.21180
      13 -> 31         0.52499
      13 -> 33        -0.11376

 Excited State  51:      Singlet-A     13.9131 eV   89.11 nm  f=0.0067  <S**2>=0.000
       8 -> 16         0.10879
       9 -> 18         0.10077
      11 -> 22        -0.24008
      11 -> 23         0.14893
      11 -> 24         0.10517
      12 -> 25         0.10977
      13 -> 30         0.48182
      13 -> 31        -0.21770

 Excited State  52:      Singlet-A     13.9461 eV   88.90 nm  f=0.0707  <S**2>=0.000
       7 -> 14        -0.12253
       8 -> 15        -0.14806
       8 -> 16         0.16301
       9 -> 17         0.12878
       9 -> 18        -0.19998
      10 -> 22         0.17562
      10 -> 23        -0.27238
      11 -> 22         0.33719
      11 -> 23        -0.13058
      12 -> 23        -0.11936
      12 -> 24         0.11006
      13 -> 30         0.17860

 Excited State  53:      Singlet-A     13.9848 eV   88.66 nm  f=0.0480  <S**2>=0.000
       8 -> 16         0.10518
       9 -> 17         0.26549
       9 -> 18         0.27403
      10 -> 22         0.16827
      11 -> 23         0.19850
      11 -> 24         0.19892
      11 -> 25         0.11115
      12 -> 22        -0.13679
      12 -> 23        -0.13749
      12 -> 25         0.19270
      12 -> 26        -0.10762
      13 -> 30        -0.18162
      13 -> 31         0.11906

 Excited State  54:      Singlet-A     14.0395 eV   88.31 nm  f=0.0673  <S**2>=0.000
       7 -> 14        -0.16700
       8 -> 15         0.23428
       8 -> 16        -0.12406
       9 -> 18         0.19288
      10 -> 22         0.10735
      10 -> 23         0.11992
      10 -> 24         0.14827
      11 -> 22         0.31750
      11 -> 23        -0.11863
      12 -> 23         0.22450
      12 -> 25         0.26180

 Excited State  55:      Singlet-A     14.1408 eV   87.68 nm  f=0.0952  <S**2>=0.000
       8 -> 15         0.26912
       9 -> 17         0.29040
       9 -> 18        -0.10609
      10 -> 22         0.27440
      10 -> 23         0.10624
      11 -> 22        -0.12930
      11 -> 24        -0.22096
      11 -> 25        -0.13127
      12 -> 22        -0.11236
      12 -> 23        -0.11939
      12 -> 24         0.10166
      12 -> 25        -0.13224

 Excited State  56:      Singlet-A     14.2013 eV   87.30 nm  f=0.0422  <S**2>=0.000
       8 -> 16         0.35294
       9 -> 18        -0.24765
      10 -> 23         0.10029
      10 -> 24         0.13032
      11 -> 23         0.18318
      12 -> 25         0.34086
      12 -> 27        -0.10416
      12 -> 28         0.11245

 Excited State  57:      Singlet-A     14.2340 eV   87.10 nm  f=0.0078  <S**2>=0.000
       8 -> 15         0.43971
       8 -> 16         0.18571
       9 -> 17        -0.11961
      10 -> 23        -0.28016
      11 -> 23         0.20353

 Excited State  58:      Singlet-A     14.3009 eV   86.70 nm  f=0.0013  <S**2>=0.000
       8 -> 16         0.31833
       9 -> 18         0.15879
      10 -> 23         0.10147
      10 -> 24         0.34714
      11 -> 23        -0.12839
      11 -> 24         0.13022
      12 -> 24         0.11547
      12 -> 25        -0.28169

 Excited State  59:      Singlet-A     14.3748 eV   86.25 nm  f=0.0300  <S**2>=0.000
       7 -> 16        -0.11317
       8 -> 16        -0.14227
       9 -> 19         0.17890
      10 -> 23         0.11944
      11 -> 21         0.11624
      11 -> 22         0.16793
      11 -> 23         0.38429
      11 -> 24         0.14816
      12 -> 24         0.17613
      12 -> 25        -0.16738
      12 -> 26         0.20589

 Excited State  60:      Singlet-A     14.4171 eV   86.00 nm  f=0.0581  <S**2>=0.000
       8 -> 15         0.15501
       8 -> 16        -0.13020
       9 -> 18        -0.24856
       9 -> 19         0.21374
      11 -> 23        -0.11518
      11 -> 24         0.45551
      12 -> 25         0.10718

 Excited State  61:      Singlet-A     14.4878 eV   85.58 nm  f=0.0435  <S**2>=0.000
       8 -> 16        -0.21458
       8 -> 17         0.10279
       9 -> 18        -0.16981
       9 -> 19        -0.11501
      10 -> 24         0.32140
      10 -> 25         0.13000
      11 -> 23         0.19056
      12 -> 26        -0.26531
      13 -> 32        -0.20426

 Excited State  62:      Singlet-A     14.5545 eV   85.19 nm  f=0.0263  <S**2>=0.000
       7 -> 15         0.11437
       7 -> 16         0.15994
       8 -> 16        -0.12798
       8 -> 17         0.12567
       9 -> 19        -0.12640
      10 -> 23        -0.23423
      10 -> 24         0.24296
      11 -> 22        -0.11237
      11 -> 24         0.10035
      11 -> 25        -0.19405
      12 -> 24        -0.16953
      12 -> 26         0.28939
      12 -> 27        -0.16020
      13 -> 32         0.15605
      13 -> 33        -0.10833

 Excited State  63:      Singlet-A     14.6393 eV   84.69 nm  f=0.0002  <S**2>=0.000
      11 -> 25         0.14423
      12 -> 26        -0.11541
      12 -> 27         0.10758
      13 -> 32         0.60867

 Excited State  64:      Singlet-A     14.7433 eV   84.10 nm  f=0.0117  <S**2>=0.000
       8 -> 17         0.25916
       9 -> 18         0.11440
       9 -> 19         0.42282
       9 -> 20        -0.11871
      10 -> 22         0.11031
      10 -> 23        -0.20295
      11 -> 22        -0.10998
      11 -> 24        -0.12938
      11 -> 25         0.17797
      13 -> 34        -0.11544

 Excited State  65:      Singlet-A     14.7627 eV   83.99 nm  f=0.1024  <S**2>=0.000
       9 -> 19         0.11720
       9 -> 21         0.22567
      12 -> 26         0.13918
      12 -> 27         0.16381
      13 -> 33         0.42213
      13 -> 34         0.30890

 Excited State  66:      Singlet-A     14.8454 eV   83.52 nm  f=0.1389  <S**2>=0.000
       7 -> 14         0.11624
       7 -> 15         0.16564
       7 -> 16        -0.14537
       8 -> 17         0.22767
       8 -> 18         0.11534
       9 -> 19         0.11408
       9 -> 20         0.18638
       9 -> 21         0.13122
      10 -> 25        -0.18972
      11 -> 25        -0.22758
      12 -> 27         0.28558
      13 -> 33        -0.23882

 Excited State  67:      Singlet-A     14.8695 eV   83.38 nm  f=0.0227  <S**2>=0.000
       7 -> 16        -0.15238
       8 -> 17         0.23340
       9 -> 21        -0.22226
       9 -> 22         0.12948
      10 -> 25        -0.15398
      11 -> 25        -0.18858
      11 -> 27        -0.11148
      12 -> 26        -0.20376
      12 -> 27        -0.21780
      13 -> 32         0.11821
      13 -> 33         0.24333
      13 -> 34         0.17448

 Excited State  68:      Singlet-A     14.9125 eV   83.14 nm  f=0.0182  <S**2>=0.000
       7 -> 14         0.15242
       7 -> 15         0.46026
       7 -> 16        -0.14720
       7 -> 17        -0.12364
       7 -> 18         0.12964
       8 -> 17        -0.19804

 The electronic state is 1-A.
 Alpha  occ. eigenvalues --  -14.42722 -10.31975 -10.28640  -0.97419  -0.81999
 Alpha  occ. eigenvalues --   -0.68959  -0.57766  -0.55290  -0.50970  -0.45148
 Alpha  occ. eigenvalues --   -0.44687  -0.42534  -0.32411
 Alpha virt. eigenvalues --    0.09188   0.11886   0.13398   0.15896   0.17677
 Alpha virt. eigenvalues --    0.19627   0.20470   0.21156   0.23245   0.24437
 Alpha virt. eigenvalues --    0.24782   0.26964   0.28071   0.28501   0.31527

 Mulliken charges:
               1
     1  C    0.212113
     2  C    0.052186
     3  N   -0.221811
     4  H    0.027674
     5  H    0.005725
     6  H    0.044574
     7  H   -0.071576
     8  H   -0.096940
     9  H    0.051545
    10  H   -0.003490
 Sum of Mulliken charges =  -0.00000

 Dipole moment (field-independent basis, Debye):
    X=              0.1735    Y=              0.6395    Z=              1.1313  Tot=              1.3111
 Quadrupole moment (field-independent basis, Debye-Ang):
   XX=            -19.4441   YY=            -20.8603   ZZ=            -21.4463
   XY=              0.7609   XZ=              1.5901   YZ=             -1.7333

 Normal termination of Gaussian 16 at Sat Feb 12 22:27:38 2022.
