 Gaussian 16, Revision C.01,
 Gaussian 16:  EM64L-G16RevC.01  3-Jul-2019

 ----------------------------------------------------------------------
 #P TD(Nstates=10000) wB97XD/Gen SCF(maxcycles=100) Int(Grid=ultrafine)
 ----------------------------------------------------------------------

 ---------------------
 xGDB7_00001_tier4.com
 ---------------------
 Symbolic Z-matrix:
 Charge =  0 Multiplicity = 1

                         Standard orientation:
 ---------------------------------------------------------------------
 Center     Atomic      Atomic             Coordinates (Angstroms)
 Number     Number       Type             X           Y           Z
 ---------------------------------------------------------------------
      1          6           0       -0.026047   -0.217143    1.209876
      2          7           0       -0.026047    0.570772   -0.000000
      3          6           0       -0.026047   -0.217143   -1.209876
      4          1           0        0.013735    0.440621    2.090832
      5          1           0        0.813545   -0.943661    1.286149
      6          1           0       -0.961368   -0.797172    1.277991
      7          1           0        0.763067    1.210735   -0.000000
      8          1           0       -0.961368   -0.797172   -1.277991
      9          1           0        0.813545   -0.943661   -1.286149
     10          1           0        0.013735    0.440621   -2.090832
 ---------------------------------------------------------------------

 SCF Done:  E(RwB97XD) =  -135.033846999     A.U. after   15 cycles

 Excitation energies and oscillator strengths:

 Excited State   1:      Singlet-A'     6.1782 eV  200.68 nm  f=0.0023  <S**2>=0.000
      13 -> 14         0.66177
      13 -> 16         0.22511
 This state for optimization and/or second-order correction.
 Total Energy, E(TD-HF/TD-DFT) =  -134.806803837
 Copying the excited state density for this state as the 1-particle RhoCI density.

 Excited State   2:      Singlet-A'     7.3629 eV  168.39 nm  f=0.0519  <S**2>=0.000
      13 -> 14        -0.21665
      13 -> 16         0.66048

 Excited State   3:      Singlet-A"     7.3984 eV  167.58 nm  f=0.0034  <S**2>=0.000
      13 -> 15         0.69722

 Excited State   4:      Singlet-A'     8.2776 eV  149.78 nm  f=0.0135  <S**2>=0.000
      13 -> 17         0.49852
      13 -> 18        -0.46467
      13 -> 19         0.12300

 Excited State   5:      Singlet-A'     8.3864 eV  147.84 nm  f=0.1123  <S**2>=0.000
      13 -> 17         0.46745
      13 -> 18         0.50019

 Excited State   6:      Singlet-A'     8.9560 eV  138.44 nm  f=0.0083  <S**2>=0.000
      13 -> 17        -0.14396
      13 -> 19         0.67121
      13 -> 22        -0.11982

 Excited State   7:      Singlet-A"     9.2265 eV  134.38 nm  f=0.0359  <S**2>=0.000
      13 -> 20         0.69318

 Excited State   8:      Singlet-A'     9.5198 eV  130.24 nm  f=0.0094  <S**2>=0.000
      13 -> 18         0.10077
      13 -> 19         0.11865
      13 -> 22         0.67752

 Excited State   9:      Singlet-A"     9.6994 eV  127.83 nm  f=0.0733  <S**2>=0.000
      13 -> 21         0.65034
      13 -> 23         0.23501

 Excited State  10:      Singlet-A"    10.1029 eV  122.72 nm  f=0.0526  <S**2>=0.000
      11 -> 15        -0.17093
      12 -> 14         0.61462
      13 -> 23         0.25174

 Excited State  11:      Singlet-A'    10.1072 eV  122.67 nm  f=0.0372  <S**2>=0.000
      11 -> 14         0.65323
      12 -> 15        -0.18448

 Excited State  12:      Singlet-A"    10.1880 eV  121.70 nm  f=0.0362  <S**2>=0.000
      12 -> 14        -0.23736
      13 -> 21        -0.25194
      13 -> 23         0.60268

 Excited State  13:      Singlet-A'    10.4327 eV  118.84 nm  f=0.0021  <S**2>=0.000
      13 -> 24         0.68379

 Excited State  14:      Singlet-A"    10.5836 eV  117.15 nm  f=0.0002  <S**2>=0.000
      10 -> 14         0.58081
      11 -> 15        -0.22107
      13 -> 25        -0.25036

 Excited State  15:      Singlet-A"    10.6931 eV  115.95 nm  f=0.0161  <S**2>=0.000
      10 -> 14         0.25319
      13 -> 25         0.63245

 Excited State  16:      Singlet-A'    11.1071 eV  111.63 nm  f=0.1219  <S**2>=0.000
       8 -> 14         0.13284
      11 -> 16         0.40062
      12 -> 15         0.52135
      13 -> 27        -0.11335

 Excited State  17:      Singlet-A"    11.1702 eV  111.00 nm  f=0.0264  <S**2>=0.000
      11 -> 15        -0.18261
      13 -> 25        -0.10354
      13 -> 26         0.62819
      13 -> 29        -0.14954

 Excited State  18:      Singlet-A"    11.2267 eV  110.44 nm  f=0.0003  <S**2>=0.000
       9 -> 14         0.11868
      10 -> 14         0.20550
      11 -> 15         0.41053
      12 -> 16         0.44053
      12 -> 18         0.12546
      13 -> 26         0.18148

 Excited State  19:      Singlet-A'    11.3096 eV  109.63 nm  f=0.1588  <S**2>=0.000
       8 -> 14        -0.16668
      10 -> 15         0.24998
      11 -> 14        -0.13970
      11 -> 16         0.51381
      12 -> 15        -0.31089

 Excited State  20:      Singlet-A"    11.4544 eV  108.24 nm  f=0.0134  <S**2>=0.000
       9 -> 14        -0.11426
      10 -> 14        -0.12515
      11 -> 15        -0.36215
      12 -> 14        -0.15359
      12 -> 16         0.51676

 Excited State  21:      Singlet-A'    11.7649 eV  105.39 nm  f=0.0490  <S**2>=0.000
       8 -> 14        -0.16553
      10 -> 15         0.55287
      11 -> 14         0.12732
      11 -> 16        -0.20295
      11 -> 17        -0.10642
      11 -> 18         0.19719
      12 -> 15         0.14164
      13 -> 28        -0.12621

 Excited State  22:      Singlet-A'    11.7955 eV  105.11 nm  f=0.0074  <S**2>=0.000
      12 -> 15         0.12573
      13 -> 27         0.61343
      13 -> 28        -0.21484

 Excited State  23:      Singlet-A"    11.9496 eV  103.76 nm  f=0.0153  <S**2>=0.000
      10 -> 16         0.65846
      11 -> 20         0.11513

 Excited State  24:      Singlet-A'    12.1451 eV  102.09 nm  f=0.0409  <S**2>=0.000
      11 -> 17         0.60487
      11 -> 18         0.12905
      12 -> 21         0.13764
      13 -> 27        -0.17069
      13 -> 28        -0.18608

 Excited State  25:      Singlet-A"    12.1494 eV  102.05 nm  f=0.1127  <S**2>=0.000
       9 -> 14        -0.21222
      12 -> 17         0.24633
      12 -> 18         0.57025
      12 -> 19         0.11147

 Excited State  26:      Singlet-A"    12.1650 eV  101.92 nm  f=0.1703  <S**2>=0.000
      11 -> 21         0.10476
      12 -> 17         0.59987
      12 -> 18        -0.22011

 Excited State  27:      Singlet-A'    12.2917 eV  100.87 nm  f=0.0720  <S**2>=0.000
      10 -> 15         0.18917
      11 -> 17         0.23760
      11 -> 18        -0.36917
      11 -> 19         0.10089
      13 -> 27         0.10379
      13 -> 28         0.42678

 Excited State  28:      Singlet-A'    12.3766 eV  100.18 nm  f=0.0592  <S**2>=0.000
       8 -> 14         0.18831
       9 -> 15        -0.16193
      11 -> 18         0.46426
      13 -> 27         0.12467
      13 -> 28         0.40140

 Excited State  29:      Singlet-A"    12.4213 eV   99.82 nm  f=0.0909  <S**2>=0.000
       8 -> 15        -0.13060
       9 -> 14         0.57678
       9 -> 16         0.11827
      10 -> 18        -0.12495
      11 -> 15        -0.17134
      12 -> 18         0.19791
      12 -> 19        -0.10241

 Excited State  30:      Singlet-A"    12.4934 eV   99.24 nm  f=0.0210  <S**2>=0.000
      10 -> 17         0.18969
      10 -> 18         0.10167
      10 -> 19         0.16522
      12 -> 17        -0.12247
      12 -> 19        -0.11205
      13 -> 26         0.14728
      13 -> 29         0.56856
      13 -> 33         0.11842

 Excited State  31:      Singlet-A'    12.5843 eV   98.52 nm  f=0.0303  <S**2>=0.000
       8 -> 14         0.55168
       8 -> 16         0.17794
      10 -> 15         0.18868
      11 -> 18        -0.13625
      12 -> 15        -0.12550
      13 -> 28        -0.14929

 Excited State  32:      Singlet-A"    12.7374 eV   97.34 nm  f=0.0946  <S**2>=0.000
       9 -> 16        -0.11335
      10 -> 17         0.41971
      10 -> 18        -0.35085
      11 -> 15         0.10668
      11 -> 20         0.30524

 Excited State  33:      Singlet-A"    12.7998 eV   96.86 nm  f=0.0000  <S**2>=0.000
       9 -> 14         0.14702
      10 -> 17         0.24464
      10 -> 18         0.38117
      11 -> 20         0.12455
      12 -> 19         0.37882
      12 -> 22        -0.21117

 Excited State  34:      Singlet-A'    12.8043 eV   96.83 nm  f=0.0074  <S**2>=0.000
      11 -> 19         0.64252
      13 -> 30         0.11912

 Excited State  35:      Singlet-A"    12.8637 eV   96.38 nm  f=0.0003  <S**2>=0.000
       8 -> 15        -0.14854
      10 -> 17        -0.14162
      10 -> 18        -0.30483
      12 -> 19         0.50145
      13 -> 29         0.22940

 Excited State  36:      Singlet-A'    12.9618 eV   95.65 nm  f=0.1631  <S**2>=0.000
      11 -> 19        -0.11709
      11 -> 22        -0.16316
      12 -> 23        -0.10794
      13 -> 30         0.62468

 Excited State  37:      Singlet-A"    13.0951 eV   94.68 nm  f=0.0526  <S**2>=0.000
       9 -> 14         0.17445
       9 -> 16        -0.29131
      10 -> 17        -0.29381
      10 -> 19         0.25065
      11 -> 20         0.38981
      11 -> 21        -0.13346

 Excited State  38:      Singlet-A'    13.1049 eV   94.61 nm  f=0.0331  <S**2>=0.000
       8 -> 14         0.14448
       8 -> 16        -0.23350
       8 -> 18         0.11274
      10 -> 21         0.12752
      11 -> 22        -0.24393
      12 -> 20         0.48153
      13 -> 30        -0.17913

 Excited State  39:      Singlet-A"    13.2022 eV   93.91 nm  f=0.0560  <S**2>=0.000
       9 -> 16         0.20802
      10 -> 17         0.11215
      10 -> 19         0.46502
      12 -> 19         0.15387
      12 -> 22         0.33995
      13 -> 29        -0.11167

 Excited State  40:      Singlet-A'    13.2188 eV   93.79 nm  f=0.0442  <S**2>=0.000
       8 -> 16        -0.25815
       9 -> 15        -0.20608
      10 -> 20        -0.22007
      11 -> 22         0.47743
      12 -> 20         0.12513
      12 -> 23         0.14669
      13 -> 30         0.11985

 Excited State  41:      Singlet-A'    13.3515 eV   92.86 nm  f=0.0084  <S**2>=0.000
       8 -> 18        -0.13646
      10 -> 20         0.15807
      11 -> 17        -0.11085
      12 -> 20         0.18380
      12 -> 21         0.45234
      12 -> 23         0.23119
      13 -> 31         0.13689
      13 -> 32         0.22773

 Excited State  42:      Singlet-A'    13.4123 eV   92.44 nm  f=0.0010  <S**2>=0.000
       8 -> 17        -0.20960
       9 -> 15         0.24562
      10 -> 20        -0.32027
      11 -> 24         0.13023
      12 -> 21         0.38722
      13 -> 31        -0.15696
      13 -> 32        -0.18413

 Excited State  43:      Singlet-A"    13.4335 eV   92.29 nm  f=0.0317  <S**2>=0.000
       9 -> 16         0.23047
       9 -> 17        -0.14564
      10 -> 17        -0.14607
      10 -> 18        -0.14844
      10 -> 19         0.24333
      11 -> 21         0.42202
      12 -> 22        -0.30251

 Excited State  44:      Singlet-A"    13.5367 eV   91.59 nm  f=0.0027  <S**2>=0.000
       9 -> 16         0.19024
       9 -> 17        -0.18532
      10 -> 17        -0.15078
      10 -> 18         0.11465
      10 -> 19        -0.26432
      11 -> 20         0.31624
      11 -> 21         0.20927
      11 -> 23         0.12725
      12 -> 22         0.34570

 Excited State  45:      Singlet-A'    13.5703 eV   91.36 nm  f=0.0239  <S**2>=0.000
       9 -> 15         0.41143
      10 -> 20        -0.15713
      11 -> 22         0.11066
      12 -> 21        -0.10405
      13 -> 31         0.30894
      13 -> 32         0.33428
      13 -> 34         0.11179

 Excited State  46:      Singlet-A"    13.5708 eV   91.36 nm  f=0.0000  <S**2>=0.000
       9 -> 16         0.45112
       9 -> 18         0.11537
      10 -> 22        -0.11324
      11 -> 20         0.20988
      11 -> 21        -0.30931
      11 -> 23        -0.22204
      12 -> 19        -0.10773
      12 -> 22        -0.14554

 Excited State  47:      Singlet-A'    13.5792 eV   91.30 nm  f=0.2351  <S**2>=0.000
       9 -> 15         0.38968
      10 -> 20         0.24827
      11 -> 18         0.13095
      11 -> 22         0.11761
      11 -> 24        -0.14098
      12 -> 20         0.19112
      12 -> 23         0.17844
      13 -> 30         0.12047
      13 -> 31        -0.18954
      13 -> 32        -0.18507
      13 -> 34        -0.11387

 Excited State  48:      Singlet-A'    13.6942 eV   90.54 nm  f=0.0126  <S**2>=0.000
       7 -> 14        -0.20148
       8 -> 14        -0.10889
       8 -> 16         0.39925
       8 -> 18         0.13599
      11 -> 22         0.20191
      12 -> 20         0.27756
      12 -> 23        -0.26573
      12 -> 25        -0.10135

 Excited State  49:      Singlet-A"    13.7498 eV   90.17 nm  f=0.0213  <S**2>=0.000
       8 -> 15         0.52528
      10 -> 18        -0.10940
      10 -> 19        -0.10657
      10 -> 22         0.28748
      11 -> 23         0.14475
      12 -> 22        -0.12185
      13 -> 33        -0.12673

 Excited State  50:      Singlet-A"    13.8430 eV   89.56 nm  f=0.0568  <S**2>=0.000
       8 -> 15        -0.16483
       9 -> 16         0.10819
       9 -> 17         0.11924
      10 -> 22         0.32398
      11 -> 20         0.11432
      11 -> 21        -0.11105
      11 -> 23         0.24679
      12 -> 22        -0.16405
      13 -> 29        -0.14949
      13 -> 33         0.39626

 Excited State  51:      Singlet-A'    13.9209 eV   89.06 nm  f=0.0750  <S**2>=0.000
       7 -> 14         0.58997
       7 -> 16         0.12108
       8 -> 16         0.11119
      10 -> 20        -0.10103
      11 -> 24         0.12649

 Excited State  52:      Singlet-A'    13.9898 eV   88.62 nm  f=0.0219  <S**2>=0.000
      13 -> 31         0.50357
      13 -> 32        -0.44507

 Excited State  53:      Singlet-A"    14.0089 eV   88.50 nm  f=0.0046  <S**2>=0.000
       8 -> 15         0.26708
       9 -> 18         0.10990
      10 -> 22        -0.16667
      10 -> 24         0.10458
      11 -> 23        -0.23006
      12 -> 24        -0.10644
      13 -> 33         0.49043

 Excited State  54:      Singlet-A'    14.0449 eV   88.28 nm  f=0.0197  <S**2>=0.000
       8 -> 16        -0.29801
       8 -> 18         0.17015
       8 -> 19         0.14404
      10 -> 20         0.26532
      10 -> 21         0.29934
      11 -> 22         0.12069
      12 -> 20        -0.10816
      12 -> 21         0.11968
      12 -> 23        -0.25180
      12 -> 25        -0.17737

 Excited State  55:      Singlet-A"    14.1382 eV   87.69 nm  f=0.0014  <S**2>=0.000
       8 -> 15        -0.12098
       9 -> 17        -0.16575
       9 -> 18         0.41722
      10 -> 22         0.30230
      11 -> 23        -0.24869
      11 -> 25        -0.24060

 Excited State  56:      Singlet-A'    14.2472 eV   87.02 nm  f=0.0741  <S**2>=0.000
       8 -> 16         0.18178
       8 -> 17         0.12453
       8 -> 18         0.12618
      10 -> 20        -0.18106
      10 -> 21         0.34675
      11 -> 24        -0.12343
      12 -> 23         0.21575
      12 -> 25        -0.21552
      13 -> 34         0.31781

 Excited State  57:      Singlet-A'    14.2822 eV   86.81 nm  f=0.1091  <S**2>=0.000
      10 -> 20         0.14259
      10 -> 21        -0.10922
      10 -> 23        -0.10500
      12 -> 23        -0.21626
      12 -> 26        -0.10412
      13 -> 32        -0.12818
      13 -> 34         0.53914

 Excited State  58:      Singlet-A"    14.3154 eV   86.61 nm  f=0.0379  <S**2>=0.000
       8 -> 20         0.12032
       9 -> 17         0.16178
      11 -> 25         0.11769
      12 -> 24         0.59204
      13 -> 33         0.12980

 Excited State  59:      Singlet-A"    14.3545 eV   86.37 nm  f=0.0403  <S**2>=0.000
       9 -> 17         0.53853
       9 -> 18         0.27113
      11 -> 21         0.25019
      12 -> 24        -0.13335

 Excited State  60:      Singlet-A'    14.4481 eV   85.81 nm  f=0.0998  <S**2>=0.000
       8 -> 18         0.17478
       8 -> 22        -0.13106
      10 -> 21        -0.15507
      11 -> 24         0.38639
      12 -> 23         0.19125
      12 -> 25        -0.33661
      12 -> 26        -0.15759
      13 -> 37        -0.11208

 Excited State  61:      Singlet-A"    14.5708 eV   85.09 nm  f=0.1033  <S**2>=0.000
       9 -> 17        -0.14766
       9 -> 18         0.28419
       9 -> 22        -0.16952
      10 -> 22        -0.31899
      11 -> 23         0.41200
      11 -> 25        -0.15766
      12 -> 22        -0.12416

 Excited State  62:      Singlet-A'    14.5732 eV   85.08 nm  f=0.0056  <S**2>=0.000
       8 -> 17         0.35498
       8 -> 18         0.33687
       9 -> 21         0.10557
      10 -> 21        -0.29621
      10 -> 23         0.14278
      11 -> 24        -0.17621
      12 -> 21         0.14720
      13 -> 35        -0.16338

 Excited State  63:      Singlet-A'    14.6535 eV   84.61 nm  f=0.2045  <S**2>=0.000
       7 -> 14        -0.15564
       7 -> 16         0.19217
       8 -> 18         0.12217
       8 -> 19        -0.10152
      10 -> 20         0.10465
      10 -> 21         0.19356
      10 -> 23         0.32405
      11 -> 22         0.10103
      11 -> 24         0.20260
      12 -> 23         0.16479
      12 -> 25         0.31263

 Excited State  64:      Singlet-A"    14.6785 eV   84.47 nm  f=0.0121  <S**2>=0.000
       8 -> 20         0.14812
       9 -> 18        -0.14317
       9 -> 19         0.45065
      10 -> 24        -0.22215
      11 -> 25        -0.32809
      11 -> 26         0.17904
      12 -> 24         0.11813

 Excited State  65:      Singlet-A'    14.6967 eV   84.36 nm  f=0.0937  <S**2>=0.000
       8 -> 17         0.41993
       8 -> 18        -0.14198
      10 -> 23        -0.12702
      10 -> 25        -0.12014
      11 -> 24         0.30601
      13 -> 37         0.28750
      13 -> 38         0.11208

 Excited State  66:      Singlet-A'    14.8523 eV   83.48 nm  f=0.0170  <S**2>=0.000
       8 -> 18        -0.17842
       8 -> 19         0.39494
       9 -> 20         0.12358
      10 -> 21        -0.13485
      10 -> 23         0.31344
      11 -> 24         0.12362
      12 -> 26         0.20075
      13 -> 34         0.11859
      13 -> 35         0.18817

 Excited State  67:      Singlet-A"    14.8698 eV   83.38 nm  f=0.2248  <S**2>=0.000
       7 -> 15         0.46010
       9 -> 19         0.25827
      10 -> 24         0.38077
      11 -> 25         0.10109

 Excited State  68:      Singlet-A"    14.9116 eV   83.15 nm  f=0.0045  <S**2>=0.000
       9 -> 17        -0.16379
       9 -> 18         0.24299
       9 -> 19         0.20321
       9 -> 22         0.11702
      10 -> 22         0.10896
      10 -> 24        -0.15797
      11 -> 25         0.38944
      11 -> 26         0.30713
      13 -> 36         0.15334

 Excited State  69:      Singlet-A'    14.9248 eV   83.07 nm  f=0.0020  <S**2>=0.000
       8 -> 18         0.14918
      12 -> 26        -0.17504
      13 -> 35         0.53668
      13 -> 37         0.30706

 Excited State  70:      Singlet-A'    14.9988 eV   82.66 nm  f=0.0082  <S**2>=0.000
       7 -> 14        -0.12437
       7 -> 16         0.53481
       8 -> 19         0.13744
      10 -> 20        -0.13362
      10 -> 23        -0.20020
      10 -> 25         0.14815
      13 -> 37        -0.10340

 Excited State  71:      Singlet-A"    15.0733 eV   82.25 nm  f=0.0983  <S**2>=0.000
       7 -> 15         0.25575
       9 -> 19        -0.10855
      10 -> 24        -0.23432
      11 -> 26        -0.24692
      12 -> 24        -0.15259
      13 -> 36         0.44704

 Excited State  72:      Singlet-A'    15.0845 eV   82.19 nm  f=0.1738  <S**2>=0.000
       7 -> 16         0.15781
       8 -> 18        -0.18391
       8 -> 19        -0.18970
       9 -> 20         0.21124
      10 -> 23         0.27405
      10 -> 25        -0.17239
      11 -> 22        -0.11440
      11 -> 24        -0.20788
      12 -> 23        -0.10304
      12 -> 25        -0.21472
      12 -> 26        -0.26683

 Excited State  73:      Singlet-A"    15.1473 eV   81.85 nm  f=0.0040  <S**2>=0.000
       7 -> 15        -0.35578
       9 -> 19         0.13277
      10 -> 24         0.30333
      11 -> 25        -0.10684
      13 -> 36         0.43004

 Excited State  74:      Singlet-A'    15.2423 eV   81.34 nm  f=0.0051  <S**2>=0.000
       8 -> 17        -0.20530
       9 -> 20         0.33250
       9 -> 21         0.17600
      10 -> 23        -0.12841
      12 -> 26         0.36872
      13 -> 35        -0.11017
      13 -> 37         0.25329

 Excited State  75:      Singlet-A'    15.2589 eV   81.25 nm  f=0.0255  <S**2>=0.000
       7 -> 19         0.13172
       8 -> 17        -0.15679
       8 -> 19         0.34975
       9 -> 21        -0.14471
      10 -> 26        -0.16331
      12 -> 26        -0.17721
      13 -> 35        -0.26821
      13 -> 37         0.29553

 Excited State  76:      Singlet-A"    15.3893 eV   80.57 nm  f=0.2266  <S**2>=0.000
       7 -> 15         0.16404
       8 -> 20        -0.20736
       8 -> 21        -0.16094
       9 -> 19        -0.23474
       9 -> 22         0.26002
      11 -> 25        -0.19607
      11 -> 26         0.37623
      12 -> 27        -0.16618
      13 -> 41         0.10696

 Excited State  77:      Singlet-A'    15.3980 eV   80.52 nm  f=0.0954  <S**2>=0.000
       7 -> 16        -0.13179
       8 -> 18        -0.10501
       8 -> 19         0.10518
       9 -> 20         0.14063
       9 -> 21         0.36566
      10 -> 21         0.12598
      11 -> 27         0.36503
      12 -> 25         0.12700
      12 -> 26        -0.21252
      13 -> 38        -0.10539
      13 -> 40        -0.17143

 Excited State  78:      Singlet-A'    15.4221 eV   80.39 nm  f=0.1501  <S**2>=0.000
       8 -> 18        -0.23843
       9 -> 20        -0.15208
       9 -> 21         0.13509

 The electronic state is 1-A'.
 Alpha  occ. eigenvalues --  -14.43099 -10.31474 -10.31473  -0.99434  -0.79082
 Alpha  occ. eigenvalues --   -0.71358  -0.57946  -0.52947  -0.52530  -0.46775
 Alpha  occ. eigenvalues --   -0.44671  -0.44525  -0.30404
 Alpha virt. eigenvalues --    0.09118   0.11906   0.13621   0.16966   0.17374
 Alpha virt. eigenvalues --    0.19876   0.19977   0.21401   0.21817   0.23899
 Alpha virt. eigenvalues --    0.24761   0.25976   0.27986   0.29443   0.32495

 Mulliken charges:
               1
     1  C    0.537406
     2  N   -0.715677
     3  C    0.537406
     4  H   -0.136217
     5  H    0.025700
     6  H   -0.048451
     7  H   -0.041201
     8  H   -0.048451
     9  H    0.025700
    10  H   -0.136217
 Sum of Mulliken charges =  -0.00000

 Dipole moment (field-independent basis, Debye):
    X=              0.9215    Y=             -0.3309    Z=             -0.0000  Tot=              0.9791
 Quadrupole moment (field-independent basis, Debye-Ang):
   XX=            -20.9732   YY=            -21.3554   ZZ=            -19.8263
   XY=              2.1020   XZ=             -0.0000   YZ=             -0.0000

 Normal termination of Gaussian 16 at Sat Feb 12 22:20:24 2022.
