 Gaussian 16, Revision C.01,
 Gaussian 16:  EM64L-G16RevC.01  3-Jul-2019

 ----------------------------------------------------------------------
 #P TD(Nstates=10000) wB97XD/Gen SCF(maxcycles=100) Int(Grid=ultrafine)
 ----------------------------------------------------------------------

 ---------------------
 xGDB7_00001_tier4.com
 ---------------------
 Symbolic Z-matrix:
 Charge =  0 Multiplicity = 1

                         Standard orientation:
 ---------------------------------------------------------------------
 Center     Atomic      Atomic             Coordinates (Angstroms)
 Number     Number       Type             X           Y           Z
 ---------------------------------------------------------------------
      1          6           0       -0.751618   -0.433594   -0.000000
      2          6           0        0.000308    0.867700   -0.000000
      3          6           0        0.751309   -0.434132   -0.000000
      4          1           0       -1.266926   -0.730804   -0.916822
      5          1           0       -1.266940   -0.730780    0.916822
      6          1           0        0.000547    1.462579    0.916811
      7          1           0        0.000520    1.462578   -0.916811
      8          1           0        1.266397   -0.731718    0.916817
      9          1           0        1.266411   -0.731697   -0.916816
 ---------------------------------------------------------------------

 SCF Done:  E(RwB97XD) =  -117.780165566     A.U. after   11 cycles

 Excitation energies and oscillator strengths:

 Excited State   1:      Singlet-A      8.5174 eV  145.57 nm  f=0.0000  <S**2>=0.000
      12 -> 13         0.68991
 This state for optimization and/or second-order correction.
 Total Energy, E(TD-HF/TD-DFT) =  -117.467158177
 Copying the excited state density for this state as the 1-particle RhoCI density.

 Excited State   2:      Singlet-A      8.5176 eV  145.56 nm  f=0.0000  <S**2>=0.000
      11 -> 13         0.68990

 Excited State   3:      Singlet-A      9.1513 eV  135.48 nm  f=0.0000  <S**2>=0.000
      11 -> 14         0.49335
      12 -> 15         0.49363

 Excited State   4:      Singlet-A      9.2393 eV  134.19 nm  f=0.0000  <S**2>=0.000
      11 -> 15        -0.48756
      12 -> 14         0.49296

 Excited State   5:      Singlet-A      9.2666 eV  133.80 nm  f=0.0000  <S**2>=0.000
      12 -> 16         0.69695

 Excited State   6:      Singlet-A      9.2669 eV  133.79 nm  f=0.0000  <S**2>=0.000
      11 -> 16         0.69695

 Excited State   7:      Singlet-A      9.2735 eV  133.70 nm  f=0.1181  <S**2>=0.000
      11 -> 14         0.38898
      11 -> 15         0.29568
      12 -> 14         0.29238
      12 -> 15        -0.38858

 Excited State   8:      Singlet-A      9.2735 eV  133.70 nm  f=0.1181  <S**2>=0.000
      11 -> 14        -0.29400
      11 -> 15         0.39094
      12 -> 14         0.38661
      12 -> 15         0.29407

 Excited State   9:      Singlet-A     10.1602 eV  122.03 nm  f=0.0000  <S**2>=0.000
       9 -> 14         0.17296
      10 -> 13         0.64924
      10 -> 15         0.17293

 Excited State  10:      Singlet-A     10.1603 eV  122.03 nm  f=0.0000  <S**2>=0.000
       9 -> 13         0.64921
       9 -> 15        -0.17298
      10 -> 14         0.17301

 Excited State  11:      Singlet-A     10.6261 eV  116.68 nm  f=0.0169  <S**2>=0.000
      11 -> 18         0.12117
      12 -> 13         0.10347
      12 -> 17         0.67504

 Excited State  12:      Singlet-A     10.6263 eV  116.68 nm  f=0.0169  <S**2>=0.000
      11 -> 13         0.10347
      11 -> 17         0.67501
      12 -> 18        -0.12131

 Excited State  13:      Singlet-A     10.8477 eV  114.30 nm  f=0.2391  <S**2>=0.000
       9 -> 14         0.48949
      10 -> 15        -0.48948

 Excited State  14:      Singlet-A     11.0726 eV  111.97 nm  f=0.3281  <S**2>=0.000
      10 -> 16         0.26274
      11 -> 17         0.10669
      12 -> 18         0.60815

 Excited State  15:      Singlet-A     11.0728 eV  111.97 nm  f=0.3281  <S**2>=0.000
       9 -> 16        -0.26277
      11 -> 18         0.60815
      12 -> 17        -0.10655

 Excited State  16:      Singlet-A     11.0957 eV  111.74 nm  f=0.0000  <S**2>=0.000
       9 -> 14         0.44914
      10 -> 13        -0.22592
      10 -> 15         0.44918
      10 -> 17         0.16846

 Excited State  17:      Singlet-A     11.0957 eV  111.74 nm  f=0.0000  <S**2>=0.000
       9 -> 13        -0.22599
       9 -> 15        -0.44740
       9 -> 17         0.16844
      10 -> 14         0.45089

 Excited State  18:      Singlet-A     11.1283 eV  111.41 nm  f=0.0000  <S**2>=0.000
       9 -> 15         0.47848
       9 -> 21        -0.11965
      10 -> 14         0.47518
      10 -> 22        -0.11933

 Excited State  19:      Singlet-A     11.3551 eV  109.19 nm  f=0.0484  <S**2>=0.000
      10 -> 16         0.63919
      12 -> 18        -0.26172

 Excited State  20:      Singlet-A     11.3553 eV  109.19 nm  f=0.0484  <S**2>=0.000
       9 -> 16         0.63917
      11 -> 18         0.26178

 Excited State  21:      Singlet-A     11.6929 eV  106.03 nm  f=0.0000  <S**2>=0.000
      11 -> 19        -0.48946
      12 -> 20         0.48960

 Excited State  22:      Singlet-A     11.8382 eV  104.73 nm  f=0.0000  <S**2>=0.000
      11 -> 20        -0.48521
      12 -> 19         0.48794

 Excited State  23:      Singlet-A     11.8382 eV  104.73 nm  f=0.0000  <S**2>=0.000
      11 -> 19         0.48664
      12 -> 20         0.48651

 Excited State  24:      Singlet-A     11.9088 eV  104.11 nm  f=0.0140  <S**2>=0.000
      11 -> 20         0.48686
      12 -> 19         0.48411

 Excited State  25:      Singlet-A     12.1710 eV  101.87 nm  f=0.0202  <S**2>=0.000
      11 -> 21        -0.10870
      11 -> 22        -0.46209
      11 -> 23         0.10153
      12 -> 21         0.46350
      12 -> 22        -0.10882
      12 -> 24        -0.10197

 Excited State  26:      Singlet-A     12.1711 eV  101.87 nm  f=0.0202  <S**2>=0.000
      11 -> 21         0.46270
      11 -> 22        -0.10862
      11 -> 24        -0.10170
      12 -> 21         0.10890
      12 -> 22         0.46290
      12 -> 23        -0.10180

 Excited State  27:      Singlet-A     12.2326 eV  101.36 nm  f=0.0000  <S**2>=0.000
       9 -> 17         0.11301
      10 -> 18         0.67485

 Excited State  28:      Singlet-A     12.2326 eV  101.36 nm  f=0.0000  <S**2>=0.000
       9 -> 18         0.67484
      10 -> 17        -0.11309

 Excited State  29:      Singlet-A     12.2548 eV  101.17 nm  f=0.0000  <S**2>=0.000
      11 -> 22         0.46185
      11 -> 23        -0.17488
      12 -> 21         0.46042
      12 -> 24        -0.17453

 Excited State  30:      Singlet-A     12.4575 eV   99.53 nm  f=0.0000  <S**2>=0.000
       9 -> 18         0.11074
      10 -> 13         0.12843
      10 -> 17         0.60181
      11 -> 25         0.24696

 Excited State  31:      Singlet-A     12.4576 eV   99.52 nm  f=0.0000  <S**2>=0.000
       9 -> 13         0.12843
       9 -> 17         0.60177
      10 -> 18        -0.11069
      12 -> 25         0.24708

 Excited State  32:      Singlet-A     12.4846 eV   99.31 nm  f=0.0000  <S**2>=0.000
       7 -> 16         0.13550
       9 -> 19         0.17246
      10 -> 20         0.17245
      11 -> 21         0.43816
      12 -> 22        -0.43790

 Excited State  33:      Singlet-A     12.8036 eV   96.84 nm  f=0.0000  <S**2>=0.000
      11 -> 22         0.17763
      11 -> 23         0.45830
      12 -> 21         0.17757
      12 -> 24         0.45843

 Excited State  34:      Singlet-A     12.9063 eV   96.06 nm  f=0.0000  <S**2>=0.000
       9 -> 17        -0.24968
      12 -> 25         0.64769

 Excited State  35:      Singlet-A     12.9065 eV   96.06 nm  f=0.0000  <S**2>=0.000
      10 -> 17        -0.24955
      11 -> 25         0.64774

 Excited State  36:      Singlet-A     13.0023 eV   95.36 nm  f=0.0000  <S**2>=0.000
      11 -> 24        -0.47672
      12 -> 23         0.48351

 Excited State  37:      Singlet-A     13.0308 eV   95.15 nm  f=0.0359  <S**2>=0.000
      11 -> 24         0.47855
      12 -> 23         0.47168

 Excited State  38:      Singlet-A     13.0308 eV   95.15 nm  f=0.0359  <S**2>=0.000
      11 -> 23         0.47517
      12 -> 24        -0.47508

 Excited State  39:      Singlet-A     13.2690 eV   93.44 nm  f=0.0000  <S**2>=0.000
      11 -> 26        -0.10566
      11 -> 27         0.47591
      12 -> 26         0.47683
      12 -> 27         0.10611

 Excited State  40:      Singlet-A     13.2691 eV   93.44 nm  f=0.0000  <S**2>=0.000
      11 -> 26        -0.47561
      11 -> 27        -0.10581
      12 -> 26        -0.10597
      12 -> 27         0.47715

 Excited State  41:      Singlet-A     13.3040 eV   93.19 nm  f=0.0337  <S**2>=0.000
       7 -> 13        -0.11468
       9 -> 23        -0.12325
      10 -> 24         0.12323
      11 -> 26         0.46380
      12 -> 27         0.46211

 Excited State  42:      Singlet-A     13.3899 eV   92.60 nm  f=0.0000  <S**2>=0.000
       8 -> 13         0.65160
       9 -> 19        -0.16792
      10 -> 20        -0.16790

 Excited State  43:      Singlet-A     13.4345 eV   92.29 nm  f=0.0000  <S**2>=0.000
      11 -> 27         0.48701
      12 -> 26        -0.48607

 Excited State  44:      Singlet-A     13.5767 eV   91.32 nm  f=0.2137  <S**2>=0.000
       9 -> 20         0.16003
      10 -> 19         0.16019
      12 -> 28         0.64107

 Excited State  45:      Singlet-A     13.5769 eV   91.32 nm  f=0.2137  <S**2>=0.000
       9 -> 19         0.16024
      10 -> 20        -0.16022
      11 -> 28         0.64103

 Excited State  46:      Singlet-A     13.8024 eV   89.83 nm  f=0.0008  <S**2>=0.000
       9 -> 20         0.45662
      10 -> 19         0.45804
      12 -> 28        -0.20035

 Excited State  47:      Singlet-A     13.8024 eV   89.83 nm  f=0.0008  <S**2>=0.000
       9 -> 19        -0.45728
      10 -> 20         0.45730
      11 -> 28         0.20052

 Excited State  48:      Singlet-A     13.8997 eV   89.20 nm  f=0.0000  <S**2>=0.000
       9 -> 20         0.46672
       9 -> 26         0.16156
      10 -> 19        -0.46528
      10 -> 27        -0.16159

 Excited State  49:      Singlet-A     13.9125 eV   89.12 nm  f=0.0000  <S**2>=0.000
       7 -> 14        -0.24180
       9 -> 21        -0.43661
       9 -> 28         0.10690
      10 -> 22         0.43715

 Excited State  50:      Singlet-A     13.9125 eV   89.12 nm  f=0.0000  <S**2>=0.000
       7 -> 15         0.24179
       9 -> 22         0.43673
      10 -> 21         0.43704
      10 -> 28         0.10692

 Excited State  51:      Singlet-A     13.9653 eV   88.78 nm  f=0.0000  <S**2>=0.000
       9 -> 15         0.11328
       9 -> 21         0.45430
      10 -> 14         0.11323
      10 -> 22         0.45378

 Excited State  52:      Singlet-A     13.9946 eV   88.59 nm  f=0.2252  <S**2>=0.000
       8 -> 14         0.68805

 Excited State  53:      Singlet-A     13.9948 eV   88.59 nm  f=0.2253  <S**2>=0.000
       8 -> 15         0.68805

 Excited State  54:      Singlet-A     14.0823 eV   88.04 nm  f=0.0562  <S**2>=0.000
       7 -> 13         0.16037
       8 -> 16         0.58841
       9 -> 22         0.18678
       9 -> 23        -0.14391
      10 -> 21        -0.18661
      10 -> 24         0.14387

 Excited State  55:      Singlet-A     14.1521 eV   87.61 nm  f=0.0000  <S**2>=0.000
       8 -> 13         0.21703
       8 -> 17        -0.11014
       9 -> 19         0.41851
      10 -> 20         0.41851
      11 -> 21        -0.16814
      12 -> 22         0.16811

 Excited State  56:      Singlet-A     14.1642 eV   87.53 nm  f=0.2069  <S**2>=0.000
       7 -> 13         0.64478
       7 -> 17        -0.11618
       8 -> 16        -0.18817

 Excited State  57:      Singlet-A     14.2514 eV   87.00 nm  f=0.0887  <S**2>=0.000
       7 -> 13        -0.13590
       8 -> 16        -0.24522
       9 -> 22         0.44030
      10 -> 21        -0.44012

 Excited State  58:      Singlet-A     14.8102 eV   83.72 nm  f=0.0000  <S**2>=0.000
       9 -> 23         0.41011
       9 -> 24         0.24745
      10 -> 23        -0.24775
      10 -> 24         0.41007

 Excited State  59:      Singlet-A     14.8102 eV   83.72 nm  f=0.0000  <S**2>=0.000
       9 -> 23         0.24761
       9 -> 24        -0.40985
      10 -> 23         0.41034
      10 -> 24         0.24760

 Excited State  60:      Singlet-A     14.8440 eV   83.52 nm  f=0.1137  <S**2>=0.000
      10 -> 25         0.63836
      11 -> 30         0.16832
      12 -> 29         0.16846

 Excited State  61:      Singlet-A     14.8442 eV   83.52 nm  f=0.1138  <S**2>=0.000
       9 -> 25         0.63832
      11 -> 29         0.16862
      12 -> 30        -0.16823

 Excited State  62:      Singlet-A     14.8728 eV   83.36 nm  f=0.0000  <S**2>=0.000
       8 -> 18         0.46934
       9 -> 26         0.23072
      10 -> 27        -0.23056
      11 -> 29        -0.25838
      12 -> 30        -0.25888

 Excited State  63:      Singlet-A     14.9188 eV   83.11 nm  f=0.0000  <S**2>=0.000
       8 -> 18        -0.20728
       9 -> 20        -0.13541
       9 -> 26         0.39488
      10 -> 19         0.13537
      10 -> 27        -0.39482
      11 -> 29         0.21045
      12 -> 30         0.21015

 Excited State  64:      Singlet-A     15.0020 eV   82.65 nm  f=1.0344  <S**2>=0.000
       8 -> 16         0.19684
       9 -> 23         0.44430
      10 -> 24        -0.44420
      11 -> 26         0.12243
      12 -> 27         0.12251

 Excited State  65:      Singlet-A     15.0048 eV   82.63 nm  f=0.0000  <S**2>=0.000
       7 -> 14         0.63031
       9 -> 21        -0.16096
       9 -> 28         0.17116
      10 -> 22         0.16098

 Excited State  66:      Singlet-A     15.0049 eV   82.63 nm  f=0.0000  <S**2>=0.000
       7 -> 15         0.63032
       9 -> 22        -0.16084
      10 -> 21        -0.16104
      10 -> 28        -0.17121

 Excited State  67:      Singlet-A     15.0756 eV   82.24 nm  f=0.0000  <S**2>=0.000
       9 -> 24         0.48310
      10 -> 23         0.48251

 Excited State  68:      Singlet-A     15.1171 eV   82.02 nm  f=0.0000  <S**2>=0.000
       7 -> 16         0.50501
       8 -> 17        -0.37319
       9 -> 27         0.16876
      10 -> 26         0.16908

 Excited State  69:      Singlet-A     15.2263 eV   81.43 nm  f=0.4577  <S**2>=0.000
       9 -> 27        -0.47327
      10 -> 26         0.47342

 Excited State  70:      Singlet-A     15.2263 eV   81.43 nm  f=0.4576  <S**2>=0.000
       9 -> 26         0.47336
      10 -> 27         0.47335

 Excited State  71:      Singlet-A     15.3347 eV   80.85 nm  f=0.0000  <S**2>=0.000
       7 -> 15         0.11796
       9 -> 22        -0.11680
      10 -> 21        -0.11677
      10 -> 28         0.65533

 Excited State  72:      Singlet-A     15.3348 eV   80.85 nm  f=0.0000  <S**2>=0.000
       7 -> 14        -0.11790
       9 -> 21         0.11676
       9 -> 28         0.65536
      10 -> 22        -0.11675

 Excited State  73:      Singlet-A     15.4534 eV   80.23 nm  f=0.0000  <S**2>=0.000
       8 -> 17         0.27479
       9 -> 27         0.41305
      10 -> 26         0.41280
      11 -> 30         0.15537
      12 -> 29        -0.15550

 Excited State  74:      Singlet-A     15.4628 eV   80.18 nm  f=0.0000  <S**2>=0.000
       8 -> 18         0.47489
      11 -> 29         0.34981
      12 -> 30         0.34967

 Excited State  75:      Singlet-A     15.5285 eV   79.84 nm  f=0.0000  <S**2>=0.000
       8 -> 17         0.30838
      11 -> 30        -0.43014
      12 -> 29         0.43099

 Excited State  76:      Singlet-A     15.7018 eV   78.96 nm  f=0.3625  <S**2>=0.000
      10 -> 25        -0.20690
      11 -> 30         0.42503
      11 -> 31         0.12512
      12 -> 29         0.42436
      12 -> 33        -0.12716

 Excited State  77:      Singlet-A     15.7018 eV   78.96 nm  f=0.3623  <S**2>=0.000
       9 -> 25         0.20693
      11 -> 29        -0.42465
      11 -> 33        -0.12712
      12 -> 30         0.42474
      12 -> 31        -0.12522

 Excited State  78:      Singlet-A     15.7465 eV   78.74 nm  f=0.0000  <S**2>=0.000
       7 -> 16         0.44409
       8 -> 13         0.10186
       8 -> 17         0.38583
       9 -> 27        -0.19044
      10 -> 26        -0.19044
      11 -> 30         0.11719
      12 -> 29        -0.11610

 Excited State  79:      Singlet-A     15.8548 eV   78.20 nm  f=0.0000  <S**2>=0.000
       7 -> 18         0.68274

 Excited State  80:      Singlet-A     16.0475 eV   77.26 nm  f=0.0352  <S**2>=0.000
      12 -> 31         0.66800

 Excited State  81:      Singlet-A     16.0477 eV   77.26 nm  f=0.0352  <S**2>=0.000
      11 -> 31         0.66801

 Excited State  82:      Singlet-A     16.3732 eV   75.72 nm  f=0.1186  <S**2>=0.000
       7 -> 13         0.11643
       7 -> 17         0.66646
       8 -> 25        -0.13371

 Excited State  83:      Singlet-A     16.4474 eV   75.38 nm  f=0.0000  <S**2>=0.000
       5 -> 16         0.18954
       8 -> 19         0.63782
      12 -> 34        -0.17935

 Excited State  84:      Singlet-A     16.4476 eV   75.38 nm  f=0.0000  <S**2>=0.000
       6 -> 16         0.18958
       8 -> 20         0.63781
      11 -> 34        -0.17935

 Excited State  85:      Singlet-A     16.4855 eV   75.21 nm  f=0.0064  <S**2>=0.000
       5 -> 14         0.10881
       6 -> 13         0.18372
       6 -> 15         0.10881
       8 -> 21         0.36356
      12 -> 33         0.51858

 Excited State  86:      Singlet-A     16.4857 eV   75.21 nm  f=0.0064  <S**2>=0.000
       5 -> 13        -0.18366
       5 -> 15         0.10883
       6 -> 14        -0.10885
       8 -> 22         0.36360
      11 -> 33         0.51858

 Excited State  87:      Singlet-A     16.8763 eV   73.47 nm  f=0.0000  <S**2>=0.000
       8 -> 19         0.17566
      11 -> 32         0.13439
      12 -> 34         0.65694

 Excited State  88:      Singlet-A     16.8765 eV   73.47 nm  f=0.0000  <S**2>=0.000
       8 -> 20         0.17562
      11 -> 34         0.65684
      12 -> 32        -0.13484

 Excited State  89:      Singlet-A     17.0011 eV   72.93 nm  f=0.0000  <S**2>=0.000
       8 -> 26        -0.11365
      11 -> 34         0.13371
      12 -> 32         0.66516

 Excited State  90:      Singlet-A     17.0014 eV   72.93 nm  f=0.0000  <S**2>=0.000
       8 -> 27         0.11369
      11 -> 32         0.66524
      12 -> 34        -0.13326

 Excited State  91:      Singlet-A     17.0431 eV   72.75 nm  f=0.0186  <S**2>=0.000
       6 -> 13         0.57467
       6 -> 17        -0.11062
       8 -> 21        -0.35220

 Excited State  92:      Singlet-A     17.0432 eV   72.75 nm  f=0.0186  <S**2>=0.000
       5 -> 13         0.57456
       5 -> 17        -0.11064
       8 -> 22         0.35231

 Excited State  93:      Singlet-A     17.1355 eV   72.36 nm  f=0.0977  <S**2>=0.000
       9 -> 29         0.48569
      10 -> 30        -0.48517

 Excited State  94:      Singlet-A     17.1800 eV   72.17 nm  f=0.0269  <S**2>=0.000
       5 -> 13        -0.24033
       5 -> 15         0.20664
       6 -> 14        -0.20674
       7 -> 19         0.35532
       8 -> 22         0.25500
       8 -> 23         0.20244
      11 -> 33        -0.27689

 Excited State  95:      Singlet-A     17.1800 eV   72.17 nm  f=0.0270  <S**2>=0.000
       5 -> 14        -0.20671
       6 -> 13        -0.24008
       6 -> 15        -0.20672
       7 -> 20         0.35522
       8 -> 21        -0.25521
       8 -> 24        -0.20239
      12 -> 33         0.27698

 Excited State  96:      Singlet-A     17.2147 eV   72.02 nm  f=0.0000  <S**2>=0.000
       6 -> 16         0.10683
       9 -> 29         0.45387
      10 -> 30         0.45445
      10 -> 31         0.13050
      12 -> 32        -0.10451

 Excited State  97:      Singlet-A     17.2148 eV   72.02 nm  f=0.0000  <S**2>=0.000
       5 -> 16         0.10681
       9 -> 30        -0.45377
       9 -> 31         0.13052
      10 -> 29         0.45456
      11 -> 32         0.10455

 Excited State  98:      Singlet-A     17.4324 eV   71.12 nm  f=0.0000  <S**2>=0.000
       7 -> 18        -0.13181
       9 -> 30         0.47960
      10 -> 29         0.47891

 Excited State  99:      Singlet-A     17.6591 eV   70.21 nm  f=0.0000  <S**2>=0.000
       6 -> 16         0.10167
       7 -> 21         0.52955
       8 -> 26        -0.25312
       9 -> 29        -0.12399
       9 -> 33        -0.23768
      10 -> 30        -0.12399
      12 -> 32        -0.10641

 Excited State 100:      Singlet-A     17.6591 eV   70.21 nm  f=0.0000  <S**2>=0.000
       5 -> 16        -0.10171
       7 -> 22         0.52953
       8 -> 27         0.25310
       9 -> 30        -0.12406
      10 -> 29         0.12387
      10 -> 33        -0.23770
      11 -> 32        -0.10643

 Excited State 101:      Singlet-A     17.6642 eV   70.19 nm  f=0.0220  <S**2>=0.000
       5 -> 15        -0.15373
       6 -> 14         0.15488
       7 -> 19         0.49532
      11 -> 33         0.19083
      11 -> 37        -0.20725
      12 -> 38         0.20771

 Excited State 102:      Singlet-A     17.6643 eV   70.19 nm  f=0.0222  <S**2>=0.000
       5 -> 14         0.15381
       6 -> 15         0.15371
       7 -> 20         0.49488
      11 -> 38        -0.20773
      12 -> 33        -0.19106
      12 -> 37        -0.20787

 Excited State 103:      Singlet-A     17.6843 eV   70.11 nm  f=0.1067  <S**2>=0.000
       5 -> 15         0.18355
       5 -> 17        -0.14464
       6 -> 14        -0.18612
       7 -> 19        -0.19377
       8 -> 22        -0.17513
       8 -> 23         0.51427
      11 -> 33         0.12464
      11 -> 37        -0.12126
      12 -> 38         0.12050

 Excited State 104:      Singlet-A     17.6844 eV   70.11 nm  f=0.1064  <S**2>=0.000
       5 -> 14         0.18500
       6 -> 15         0.18588
       6 -> 17         0.14464
       7 -> 20         0.19499
       8 -> 21        -0.17506
       8 -> 24         0.51391
      11 -> 38         0.12021
      12 -> 33         0.12413
      12 -> 37         0.12038

 Excited State 105:      Singlet-A     17.7034 eV   70.03 nm  f=0.0000  <S**2>=0.000
       5 -> 15         0.44407
       5 -> 21        -0.10966
       6 -> 14         0.44294
       6 -> 22        -0.10963
      11 -> 37         0.15962
      12 -> 38         0.15975

 Excited State 106:      Singlet-A     17.7052 eV   70.03 nm  f=0.0000  <S**2>=0.000
       5 -> 14         0.47568
       6 -> 15        -0.47539

 Excited State 107:      Singlet-A     17.7899 eV   69.69 nm  f=0.0000  <S**2>=0.000
       6 -> 16         0.48456
       7 -> 21        -0.13149

 The electronic state is 1-A.
 Alpha  occ. eigenvalues --  -10.29933 -10.29902 -10.29902  -0.94590  -0.68337
 Alpha  occ. eigenvalues --   -0.68336  -0.58203  -0.55228  -0.44294  -0.44294
 Alpha  occ. eigenvalues --   -0.37976  -0.37975
 Alpha virt. eigenvalues --    0.09964   0.11813   0.11813   0.14243   0.18175
 Alpha virt. eigenvalues --    0.20508   0.21917   0.21918   0.24518   0.24518
 Alpha virt. eigenvalues --    0.26807   0.26807   0.27309   0.28370   0.28370

 Mulliken charges:
               1
     1  C    0.324257
     2  C    0.324232
     3  C    0.324276
     4  H   -0.162101
     5  H   -0.162101
     6  H   -0.162162
     7  H   -0.162163
     8  H   -0.162118
     9  H   -0.162121
 Sum of Mulliken charges =  -0.00000

 Dipole moment (field-independent basis, Debye):
    X=              0.0000    Y=              0.0001    Z=             -0.0000  Tot=              0.0001
 Quadrupole moment (field-independent basis, Debye-Ang):
   XX=            -20.6597   YY=            -20.6604   ZZ=            -18.4820
   XY=              0.0000   XZ=             -0.0000   YZ=              0.0000

 Normal termination of Gaussian 16 at Sat Feb 12 21:43:35 2022.
