 Gaussian 16, Revision C.01,
 Gaussian 16:  EM64L-G16RevC.01  3-Jul-2019

 ----------------------------------------------------------------------
 #P TD(Nstates=10000) wB97XD/Gen SCF(maxcycles=100) Int(Grid=ultrafine)
 ----------------------------------------------------------------------

 ---------------------
 xGDB7_00001_tier4.com
 ---------------------
 Symbolic Z-matrix:
 Charge =  0 Multiplicity = 1

                         Standard orientation:
 ---------------------------------------------------------------------
 Center     Atomic      Atomic             Coordinates (Angstroms)
 Number     Number       Type             X           Y           Z
 ---------------------------------------------------------------------
      1          8           0       -1.032262   -0.375556    0.000000
      2          7           0       -0.000000    0.520019   -0.000000
      3          6           0        1.135343   -0.046739   -0.000000
      4          1           0       -1.816691    0.181727    0.000000
      5          1           0        2.013490    0.602485   -0.000000
      6          1           0        1.249236   -1.139460   -0.000000
 ---------------------------------------------------------------------

 SCF Done:  E(RwB97XD) =  -169.641295882     A.U. after   14 cycles

 Excitation energies and oscillator strengths:

 Excited State   1:      Singlet-A"     5.9093 eV  209.81 nm  f=0.0010  <S**2>=0.000
      11 -> 13         0.70390
 This state for optimization and/or second-order correction.
 Total Energy, E(TD-HF/TD-DFT) =  -169.424133010
 Copying the excited state density for this state as the 1-particle RhoCI density.

 Excited State   2:      Singlet-A'     7.0001 eV  177.12 nm  f=0.1984  <S**2>=0.000
      12 -> 13         0.68796

 Excited State   3:      Singlet-A"     7.4716 eV  165.94 nm  f=0.0010  <S**2>=0.000
      12 -> 14         0.68274
      12 -> 15        -0.11466

 Excited State   4:      Singlet-A'     7.8871 eV  157.20 nm  f=0.0184  <S**2>=0.000
      11 -> 14         0.67962
      11 -> 15        -0.12683

 Excited State   5:      Singlet-A"     8.4143 eV  147.35 nm  f=0.0237  <S**2>=0.000
      12 -> 14         0.11880
      12 -> 15         0.66435
      12 -> 17         0.15470

 Excited State   6:      Singlet-A'     8.9866 eV  137.97 nm  f=0.0286  <S**2>=0.000
      11 -> 14         0.12878
      11 -> 15         0.67415

 Excited State   7:      Singlet-A"     9.2897 eV  133.46 nm  f=0.0055  <S**2>=0.000
      12 -> 15        -0.16687
      12 -> 16         0.11974
      12 -> 17         0.60983
      12 -> 20         0.16001
      12 -> 21         0.13362
      12 -> 25         0.13646

 Excited State   8:      Singlet-A"     9.5630 eV  129.65 nm  f=0.0029  <S**2>=0.000
      10 -> 13         0.64995
      12 -> 16         0.21256
      12 -> 17        -0.11761

 Excited State   9:      Singlet-A"     9.6927 eV  127.91 nm  f=0.0150  <S**2>=0.000
      10 -> 13        -0.23077
      12 -> 16         0.64785

 Excited State  10:      Singlet-A'     9.8409 eV  125.99 nm  f=0.1047  <S**2>=0.000
      11 -> 16        -0.21234
      11 -> 17         0.56437
      11 -> 20         0.12184
      11 -> 21         0.14282
      11 -> 25         0.13178
      12 -> 18         0.24991

 Excited State  11:      Singlet-A'    10.1582 eV  122.05 nm  f=0.1059  <S**2>=0.000
      11 -> 16         0.59984
      12 -> 18         0.33325

 Excited State  12:      Singlet-A'    10.3750 eV  119.50 nm  f=0.1049  <S**2>=0.000
      11 -> 16        -0.24817
      11 -> 17        -0.31425
      11 -> 20        -0.10617
      12 -> 18         0.54900

 Excited State  13:      Singlet-A"    10.4956 eV  118.13 nm  f=0.0082  <S**2>=0.000
      11 -> 18         0.56698
      12 -> 17        -0.10979
      12 -> 19        -0.15615
      12 -> 20         0.35905

 Excited State  14:      Singlet-A"    10.5562 eV  117.45 nm  f=0.0491  <S**2>=0.000
      11 -> 18        -0.40697
      12 -> 19        -0.29685
      12 -> 20         0.45675

 Excited State  15:      Singlet-A"    10.7094 eV  115.77 nm  f=0.0040  <S**2>=0.000
      12 -> 17        -0.12056
      12 -> 19         0.59821
      12 -> 20         0.31469

 Excited State  16:      Singlet-A'    10.9050 eV  113.69 nm  f=0.0774  <S**2>=0.000
       9 -> 13         0.65503
      11 -> 19        -0.10989
      11 -> 20        -0.11508

 Excited State  17:      Singlet-A'    11.0659 eV  112.04 nm  f=0.0111  <S**2>=0.000
      11 -> 17        -0.14636
      11 -> 19        -0.31025
      11 -> 20         0.59579

 Excited State  18:      Singlet-A'    11.1580 eV  111.12 nm  f=0.0300  <S**2>=0.000
       9 -> 13         0.13875
      11 -> 17        -0.10852
      11 -> 19         0.59335
      11 -> 20         0.28936

 Excited State  19:      Singlet-A"    11.1954 eV  110.75 nm  f=0.0010  <S**2>=0.000
       8 -> 13         0.63473
      12 -> 17        -0.10676
      12 -> 21         0.23305

 Excited State  20:      Singlet-A"    11.4560 eV  108.23 nm  f=0.0034  <S**2>=0.000
       8 -> 13        -0.25137
       9 -> 14         0.13286
      12 -> 17        -0.12787
      12 -> 20        -0.10505
      12 -> 21         0.60457

 Excited State  21:      Singlet-A"    11.7622 eV  105.41 nm  f=0.0265  <S**2>=0.000
       9 -> 14         0.63932
       9 -> 15        -0.16567
      12 -> 21        -0.14168

 Excited State  22:      Singlet-A'    11.9575 eV  103.69 nm  f=0.1374  <S**2>=0.000
       8 -> 14         0.13840
      10 -> 14        -0.36181
      11 -> 21         0.54648

 Excited State  23:      Singlet-A'    11.9948 eV  103.37 nm  f=0.1189  <S**2>=0.000
      10 -> 14         0.53728
      10 -> 15         0.20756
      11 -> 21         0.34715

 Excited State  24:      Singlet-A'    12.4053 eV   99.94 nm  f=0.1235  <S**2>=0.000
       8 -> 14         0.17154
      10 -> 14        -0.12713
      10 -> 15         0.62690
      11 -> 21        -0.12589

 Excited State  25:      Singlet-A'    12.5994 eV   98.40 nm  f=0.0853  <S**2>=0.000
      12 -> 22         0.66956
      12 -> 23        -0.13834

 Excited State  26:      Singlet-A"    12.8120 eV   96.77 nm  f=0.0102  <S**2>=0.000
       7 -> 13         0.37326
       9 -> 15         0.24095
       9 -> 17         0.24972
      11 -> 22         0.15640
      12 -> 24        -0.26931
      12 -> 25         0.29904

 Excited State  27:      Singlet-A"    12.8971 eV   96.13 nm  f=0.0004  <S**2>=0.000
       7 -> 13         0.28404
       9 -> 15        -0.26472
       9 -> 17        -0.18177
      11 -> 22         0.47372
      12 -> 25        -0.22952

 Excited State  28:      Singlet-A"    12.9996 eV   95.38 nm  f=0.0218  <S**2>=0.000
       7 -> 13        -0.31769
       9 -> 14         0.10920
       9 -> 15         0.32106
      11 -> 22         0.43281
      11 -> 23        -0.10816
      12 -> 24         0.22476

 Excited State  29:      Singlet-A'    13.0269 eV   95.18 nm  f=0.1328  <S**2>=0.000
       8 -> 14         0.29309
      10 -> 16        -0.18738
      10 -> 17        -0.23590
      12 -> 23         0.50043

 Excited State  30:      Singlet-A"    13.0721 eV   94.85 nm  f=0.0532  <S**2>=0.000
       7 -> 13         0.36407
       9 -> 14         0.12804
       9 -> 15         0.30793
      11 -> 22        -0.14832
      12 -> 24         0.33338
      12 -> 25        -0.29117

 Excited State  31:      Singlet-A'    13.2681 eV   93.45 nm  f=0.0254  <S**2>=0.000
       8 -> 14         0.51868
       8 -> 15        -0.13949
      10 -> 14         0.11666
      12 -> 22        -0.11132
      12 -> 23        -0.35390

 Excited State  32:      Singlet-A"    13.2736 eV   93.41 nm  f=0.0420  <S**2>=0.000
       7 -> 13         0.12035
       9 -> 15        -0.24512
      11 -> 23         0.21200
      12 -> 24         0.43936
      12 -> 25         0.37890

 Excited State  33:      Singlet-A"    13.4036 eV   92.50 nm  f=0.0240  <S**2>=0.000
       9 -> 15         0.11394
      10 -> 18         0.10012
      11 -> 22         0.12725
      11 -> 23         0.63660
      12 -> 24        -0.17329

 Excited State  34:      Singlet-A'    13.5251 eV   91.67 nm  f=0.0332  <S**2>=0.000
      10 -> 17        -0.31161
      10 -> 19        -0.12353
      11 -> 24         0.45792
      11 -> 25         0.32912
      12 -> 23        -0.12326

 Excited State  35:      Singlet-A'    13.6764 eV   90.66 nm  f=0.0244  <S**2>=0.000
       8 -> 14         0.18040
      10 -> 16         0.10533
      11 -> 24         0.47423
      11 -> 25        -0.40650

 Excited State  36:      Singlet-A"    13.7736 eV   90.02 nm  f=0.0003  <S**2>=0.000
       9 -> 15        -0.16958
       9 -> 16        -0.16388
       9 -> 17         0.52873
       9 -> 20         0.17177
       9 -> 21         0.15115
       9 -> 25         0.16278
      12 -> 25        -0.23741

 Excited State  37:      Singlet-A'    13.9338 eV   88.98 nm  f=0.0029  <S**2>=0.000
       8 -> 15        -0.12014
      10 -> 16         0.25326
      10 -> 17         0.36910
      10 -> 19         0.15034
      11 -> 24         0.15836
      11 -> 25         0.38958
      12 -> 23         0.16716

 Excited State  38:      Singlet-A"    14.0614 eV   88.17 nm  f=0.0048  <S**2>=0.000
       9 -> 15        -0.13733
       9 -> 16         0.53040
      12 -> 26         0.40976

 Excited State  39:      Singlet-A'    14.0817 eV   88.05 nm  f=0.0116  <S**2>=0.000
       9 -> 18        -0.12665
      10 -> 16         0.55483
      10 -> 17        -0.26198
      10 -> 19        -0.17012
      10 -> 21        -0.10814

 Excited State  40:      Singlet-A"    14.1804 eV   87.43 nm  f=0.0054  <S**2>=0.000
       9 -> 16        -0.39593
      12 -> 25         0.11298
      12 -> 26         0.54906

 Excited State  41:      Singlet-A'    14.2279 eV   87.14 nm  f=0.0257  <S**2>=0.000
       8 -> 14         0.14769
       8 -> 15         0.40475
       8 -> 16         0.10079
       9 -> 18         0.34260
      10 -> 19        -0.10505
      11 -> 26         0.33881

 Excited State  42:      Singlet-A'    14.4139 eV   86.02 nm  f=0.0105  <S**2>=0.000
       8 -> 15         0.45035
       9 -> 18        -0.43543
      10 -> 17         0.12959
      10 -> 19         0.12493
      11 -> 26        -0.10596

 Excited State  43:      Singlet-A"    14.4757 eV   85.65 nm  f=0.0013  <S**2>=0.000
       8 -> 18        -0.12339
      10 -> 18         0.66755
      11 -> 23        -0.11567

 Excited State  44:      Singlet-A'    14.5607 eV   85.15 nm  f=0.0034  <S**2>=0.000
       7 -> 14        -0.15748
       8 -> 15        -0.16582
       9 -> 18        -0.25229
      10 -> 19         0.25151
      11 -> 26         0.51374

 Excited State  45:      Singlet-A'    14.7326 eV   84.16 nm  f=0.0363  <S**2>=0.000
       8 -> 17        -0.10434
       9 -> 18        -0.11884
      10 -> 19        -0.15133
      10 -> 20         0.12308
      12 -> 27         0.62687

 Excited State  46:      Singlet-A'    14.9337 eV   83.02 nm  f=0.0873  <S**2>=0.000
       8 -> 17         0.19507
       8 -> 19         0.10300
       9 -> 18         0.21204
      10 -> 17        -0.19098
      10 -> 19         0.46336
      11 -> 26        -0.17936
      12 -> 27         0.22983

 Excited State  47:      Singlet-A"    14.9584 eV   82.89 nm  f=0.0417  <S**2>=0.000
       6 -> 13         0.20281
       9 -> 17        -0.20200
       9 -> 19        -0.23408
       9 -> 20         0.54279
      11 -> 27        -0.14056
      12 -> 24         0.10186

 Excited State  48:      Singlet-A'    14.9674 eV   82.84 nm  f=0.1906  <S**2>=0.000
       8 -> 17        -0.11637
      10 -> 19         0.13898
      10 -> 20         0.63307

 Excited State  49:      Singlet-A"    15.1314 eV   81.94 nm  f=0.0000  <S**2>=0.000
       6 -> 13         0.12950
       9 -> 20         0.10420
      11 -> 27         0.66490

 Excited State  50:      Singlet-A'    15.2592 eV   81.25 nm  f=0.0728  <S**2>=0.000
       7 -> 14         0.52182
       8 -> 16        -0.34371
       8 -> 17        -0.18352
      10 -> 19         0.13173
      11 -> 26         0.10629

 Excited State  51:      Singlet-A"    15.4075 eV   80.47 nm  f=0.0005  <S**2>=0.000
       6 -> 13         0.17239
       9 -> 19         0.61182
       9 -> 20         0.11673
      12 -> 28         0.14253
      12 -> 29        -0.14999

 Excited State  52:      Singlet-A'    15.4289 eV   80.36 nm  f=0.0231  <S**2>=0.000
       7 -> 14         0.32018
       8 -> 15        -0.10009
       8 -> 16         0.18213
       8 -> 17         0.45136
       8 -> 20         0.17013
       9 -> 18        -0.12539
      10 -> 16        -0.10208
      10 -> 20         0.14853

 Excited State  53:      Singlet-A"    15.4661 eV   80.17 nm  f=0.0151  <S**2>=0.000
       6 -> 13         0.15171
       9 -> 19        -0.19034
       9 -> 20        -0.19695
      12 -> 28         0.56038
      12 -> 29        -0.22506

 Excited State  54:      Singlet-A'    15.5430 eV   79.77 nm  f=0.2459  <S**2>=0.000
       7 -> 14         0.18417
       7 -> 15         0.11241
       8 -> 16         0.50393
       8 -> 17        -0.30621
      10 -> 19         0.15731
      10 -> 21        -0.16872

 Excited State  55:      Singlet-A"    15.6470 eV   79.24 nm  f=0.0499  <S**2>=0.000
       6 -> 13         0.42237
       8 -> 18        -0.27452
       9 -> 21        -0.29354
      10 -> 22        -0.19814
      11 -> 30         0.11587
      12 -> 29         0.24116

 Excited State  56:      Singlet-A"    15.7296 eV   78.82 nm  f=0.0000  <S**2>=0.000
       6 -> 13         0.13178
       8 -> 18        -0.29447
       9 -> 17        -0.11018
       9 -> 20        -0.16009
       9 -> 21         0.50260
      10 -> 22        -0.11980
      12 -> 28        -0.13544
      12 -> 29        -0.15005

 Excited State  57:      Singlet-A"    15.8205 eV   78.37 nm  f=0.0614  <S**2>=0.000
       6 -> 13         0.33410
       8 -> 18         0.52551
       9 -> 20        -0.17362
       9 -> 21         0.12431
      12 -> 28        -0.14961

 Excited State  58:      Singlet-A'    15.8347 eV   78.30 nm  f=0.0296  <S**2>=0.000
       7 -> 15        -0.16791
       8 -> 16         0.17107
       8 -> 21        -0.11198
      10 -> 17        -0.10063
      10 -> 21         0.46751
      11 -> 28         0.37183

 Excited State  59:      Singlet-A'    15.9786 eV   77.59 nm  f=0.0504  <S**2>=0.000
       7 -> 15         0.59934
      10 -> 21         0.14369
      12 -> 30         0.15981

 Excited State  60:      Singlet-A'    16.0896 eV   77.06 nm  f=0.1160  <S**2>=0.000
       8 -> 19         0.11152
      10 -> 21        -0.35500
      11 -> 28         0.49935
      11 -> 29        -0.20483
      12 -> 30         0.13570

 Excited State  61:      Singlet-A"    16.0966 eV   77.02 nm  f=0.0741  <S**2>=0.000
       9 -> 21         0.24771
      12 -> 28         0.28805
      12 -> 29         0.55621

 Excited State  62:      Singlet-A'    16.2794 eV   76.16 nm  f=0.0456  <S**2>=0.000
       7 -> 15        -0.13982
       8 -> 17        -0.12759
       8 -> 19        -0.22328
       8 -> 20         0.49298
      11 -> 29        -0.12155
      12 -> 30         0.31180

 Excited State  63:      Singlet-A"    16.4371 eV   75.43 nm  f=0.2444  <S**2>=0.000
       6 -> 13         0.18615
       8 -> 18        -0.14097
       8 -> 22         0.11649
      10 -> 22         0.53936
      11 -> 30        -0.23203
      12 -> 31         0.11121
      12 -> 33         0.12751

 Excited State  64:      Singlet-A'    16.4534 eV   75.35 nm  f=0.0018  <S**2>=0.000
       7 -> 15        -0.12388
       8 -> 19        -0.18769
       8 -> 20        -0.31027
      11 -> 29         0.28864
      12 -> 30         0.47555

 Excited State  65:      Singlet-A'    16.5340 eV   74.99 nm  f=0.0689  <S**2>=0.000
       7 -> 16        -0.12033
       7 -> 17        -0.20203
       8 -> 19         0.12446
       8 -> 20         0.22672
      11 -> 28         0.21219
      11 -> 29         0.52146

 Excited State  66:      Singlet-A"    16.5980 eV   74.70 nm  f=0.0003  <S**2>=0.000
      10 -> 22         0.25548
      10 -> 23         0.10785
      11 -> 30         0.58896
      12 -> 31        -0.18320

 Excited State  67:      Singlet-A'    16.5983 eV   74.70 nm  f=0.1504  <S**2>=0.000
       7 -> 19         0.11496
       8 -> 19         0.53511
      11 -> 28        -0.15536
      12 -> 30         0.29472

 Excited State  68:      Singlet-A"    16.6842 eV   74.31 nm  f=0.0204  <S**2>=0.000
       9 -> 25         0.15690
      11 -> 30         0.21370
      12 -> 31         0.60462
      12 -> 32        -0.18693

 Excited State  69:      Singlet-A'    16.8257 eV   73.69 nm  f=0.0800  <S**2>=0.000
       6 -> 14        -0.15877
       7 -> 16         0.20590
       7 -> 17         0.44432
       7 -> 19         0.10949
       8 -> 20         0.15645
       8 -> 21        -0.18022
      10 -> 25         0.12779
      11 -> 29         0.19740

 Excited State  70:      Singlet-A"    16.8701 eV   73.49 nm  f=0.0001  <S**2>=0.000
       7 -> 18        -0.25056
      10 -> 22        -0.14360
      10 -> 23         0.59815
      11 -> 27        -0.11375

 Excited State  71:      Singlet-A'    16.9629 eV   73.09 nm  f=0.0192  <S**2>=0.000
       7 -> 16         0.11923
       8 -> 21         0.29117
       9 -> 23         0.10015
      10 -> 25        -0.18040
      11 -> 31         0.51496
      11 -> 32        -0.19821

 Excited State  72:      Singlet-A"    17.0549 eV   72.70 nm  f=0.0114  <S**2>=0.000
      12 -> 31         0.18291
      12 -> 32         0.63313
      12 -> 33         0.15612

 Excited State  73:      Singlet-A'    17.1397 eV   72.34 nm  f=0.0211  <S**2>=0.000
       7 -> 16         0.17263
       7 -> 17        -0.10571
       7 -> 20         0.10195
       8 -> 21         0.13415
       9 -> 22         0.44558
       9 -> 23        -0.37524
      10 -> 24        -0.17169

 Excited State  74:      Singlet-A'    17.2213 eV   71.99 nm  f=0.0630  <S**2>=0.000
       7 -> 16         0.55151
       7 -> 17        -0.18331
       7 -> 21        -0.10627
       9 -> 22        -0.19609
       9 -> 23         0.13325
      11 -> 31        -0.18524

 Excited State  75:      Singlet-A'    17.3408 eV   71.50 nm  f=0.0642  <S**2>=0.000
       7 -> 17         0.20308
       7 -> 20        -0.17597
       8 -> 21         0.41402
      10 -> 21         0.10640
      10 -> 24         0.13874
      10 -> 26         0.10229
      11 -> 31        -0.35277
      11 -> 32        -0.14343

 Excited State  76:      Singlet-A"    17.3796 eV   71.34 nm  f=0.0235  <S**2>=0.000
       9 -> 24         0.62348
       9 -> 25        -0.17475
      12 -> 33        -0.19789

 Excited State  77:      Singlet-A'    17.4196 eV   71.18 nm  f=0.0681  <S**2>=0.000
       6 -> 14         0.41187
       6 -> 15        -0.11138
       7 -> 19         0.13589
       8 -> 21         0.11506
      10 -> 25         0.43649

 Excited State  78:      Singlet-A'    17.4956 eV   70.87 nm  f=0.0821  <S**2>=0.000
       7 -> 17         0.11870
       8 -> 21         0.11243
       9 -> 22        -0.23173
       9 -> 23        -0.13795
      10 -> 25        -0.14775
      11 -> 32         0.55588

 Excited State  79:      Singlet-A"    17.5244 eV   70.75 nm  f=0.0723  <S**2>=0.000
       7 -> 18        -0.12721
       9 -> 25        -0.40578
      12 -> 32        -0.13190
      12 -> 33         0.48854

 Excited State  80:      Singlet-A'    17.6065 eV   70.42 nm  f=0.0491  <S**2>=0.000
       6 -> 15        -0.17505
       7 -> 16         0.12892
       7 -> 19         0.16984
       9 -> 22         0.38487
       9 -> 23         0.38267
      10 -> 24         0.15425
      11 -> 32         0.17718
      12 -> 35        -0.10406

 Excited State  81:      Singlet-A'    17.6265 eV   70.34 nm  f=0.0022  <S**2>=0.000
       6 -> 14         0.44189
       7 -> 17         0.14943
       7 -> 20         0.11672
       8 -> 21        -0.18760
      10 -> 24        -0.20991
      10 -> 25        -0.31143
      11 -> 32        -0.12300

 Excited State  82:      Singlet-A"    17.6787 eV   70.13 nm  f=0.0018  <S**2>=0.000
       7 -> 18         0.62092
       9 -> 25        -0.12034
      10 -> 23         0.22849

 Excited State  83:      Singlet-A"    17.7544 eV   69.83 nm  f=0.0099  <S**2>=0.000
       9 -> 25        -0.19359
      12 -> 33        -0.19116
      12 -> 34         0.61893

 Excited State  84:      Singlet-A'    17.8238 eV   69.56 nm  f=0.0489  <S**2>=0.000
       7 -> 16         0.12929
       8 -> 21        -0.13189
       9 -> 23        -0.26038
      10 -> 24         0.30409
      10 -> 25        -0.12021
      11 -> 33         0.45673
      12 -> 35        -0.13832

 Excited State  85:      Singlet-A"    17.8797 eV   69.34 nm  f=0.0185  <S**2>=0.000
       9 -> 21        -0.10376
       9 -> 24         0.26332
       9 -> 25         0.40084
      12 -> 31        -0.13731
      12 -> 33         0.33290
      12 -> 34         0.28889

 Excited State  86:      Singlet-A'    17.9472 eV   69.08 nm  f=0.0341  <S**2>=0.000
       6 -> 15        -0.14967
       9 -> 23         0.12403
      10 -> 24        -0.42057
      11 -> 33         0.43626
      11 -> 34        -0.12232
      12 -> 35         0.12212

 Excited State  87:      Singlet-A'    18.0796 eV   68.58 nm  f=0.0053  <S**2>=0.000
       6 -> 15         0.17210
       7 -> 19        -0.28915
       7 -> 20         0.30312
       9 -> 23         0.18110
      10 -> 24         0.16823
      10 -> 26        -0.19747
      11 -> 33         0.18570
      11 -> 34         0.18716
      12 -> 35         0.24155

 Excited State  88:      Singlet-A'    18.2538 eV   67.92 nm  f=0.0139  <S**2>=0.000
       6 -> 14         0.11306
       6 -> 15         0.42217
       7 -> 19        -0.14387
       7 -> 20        -0.32851
       8 -> 19         0.12424
      10 -> 25         0.11813
      11 -> 32         0.11513
      11 -> 34        -0.27574

 Excited State  89:      Singlet-A'    18.2984 eV   67.76 nm  f=0.0132  <S**2>=0.000
       6 -> 15         0.29937
       7 -> 19         0.43687
       7 -> 20         0.18695
      10 -> 26         0.11201

 The electronic state is 1-A'.
 Alpha  occ. eigenvalues --  -19.31553 -14.51029 -10.33746  -1.20180  -0.95917
 Alpha  occ. eigenvalues --   -0.70918  -0.63041  -0.56892  -0.52016  -0.51068
 Alpha  occ. eigenvalues --   -0.37262  -0.35972
 Alpha virt. eigenvalues --    0.05712   0.08788   0.11042   0.16102   0.17531
 Alpha virt. eigenvalues --    0.18358   0.20585   0.21236   0.23598   0.27991
 Alpha virt. eigenvalues --    0.29387   0.29933   0.30883   0.33862   0.35685

 Mulliken charges:
               1
     1  O   -0.380652
     2  N   -0.034934
     3  C    0.410341
     4  H    0.219579
     5  H   -0.140291
     6  H   -0.074042
 Sum of Mulliken charges =  -0.00000

 Dipole moment (field-independent basis, Debye):
    X=              0.2316    Y=             -0.1708    Z=             -0.0000  Tot=              0.2878
 Quadrupole moment (field-independent basis, Debye-Ang):
   XX=            -11.8847   YY=            -19.4166   ZZ=            -19.1278
   XY=             -1.6350   XZ=              0.0000   YZ=              0.0000

 Normal termination of Gaussian 16 at Sat Feb 12 21:41:30 2022.
