 Gaussian 16, Revision C.01,
 Gaussian 16:  EM64L-G16RevC.01  3-Jul-2019

 ----------------------------------------------------------------------
 #P TD(Nstates=10000) wB97XD/Gen SCF(maxcycles=100) Int(Grid=ultrafine)
 ----------------------------------------------------------------------

 ---------------------
 xGDB7_00001_tier4.com
 ---------------------
 Symbolic Z-matrix:
 Charge =  0 Multiplicity = 1

                         Standard orientation:
 ---------------------------------------------------------------------
 Center     Atomic      Atomic             Coordinates (Angstroms)
 Number     Number       Type             X           Y           Z
 ---------------------------------------------------------------------
      1          6           0       -0.050263    0.696897    0.000000
      2          7           0       -0.050263   -0.753988   -0.000000
      3          1           0        0.948194    1.180822    0.000000
      4          1           0       -0.593517    1.068540    0.882628
      5          1           0       -0.593517    1.068540   -0.882628
      6          1           0        0.446130   -1.110683    0.813463
      7          1           0        0.446130   -1.110683   -0.813463
 ---------------------------------------------------------------------

 SCF Done:  E(RwB97XD) =  -95.7662720764     A.U. after   15 cycles

 Excitation energies and oscillator strengths:

 Excited State   1:      Singlet-A'     6.5105 eV  190.44 nm  f=0.0099  <S**2>=0.000
       9 -> 10         0.66225
       9 -> 11         0.23402
 This state for optimization and/or second-order correction.
 Total Energy, E(TD-HF/TD-DFT) =  -95.5270137955
 Copying the excited state density for this state as the 1-particle RhoCI density.

 Excited State   2:      Singlet-A'     7.8158 eV  158.63 nm  f=0.0467  <S**2>=0.000
       9 -> 10        -0.22985
       9 -> 11         0.65872

 Excited State   3:      Singlet-A"     8.2918 eV  149.53 nm  f=0.0097  <S**2>=0.000
       9 -> 12         0.69285

 Excited State   4:      Singlet-A'     9.0648 eV  136.78 nm  f=0.0981  <S**2>=0.000
       9 -> 13         0.69139

 Excited State   5:      Singlet-A"     9.4214 eV  131.60 nm  f=0.0001  <S**2>=0.000
       9 -> 14         0.69126

 Excited State   6:      Singlet-A"     9.9712 eV  124.34 nm  f=0.0189  <S**2>=0.000
       8 -> 10         0.69685

 Excited State   7:      Singlet-A'    10.0450 eV  123.43 nm  f=0.0118  <S**2>=0.000
       9 -> 15         0.68116

 Excited State   8:      Singlet-A'    10.1406 eV  122.27 nm  f=0.0241  <S**2>=0.000
       9 -> 16         0.67830
       9 -> 18        -0.10977
       9 -> 19        -0.10203

 Excited State   9:      Singlet-A"    10.7681 eV  115.14 nm  f=0.0004  <S**2>=0.000
       9 -> 17         0.68063

 Excited State  10:      Singlet-A"    11.0540 eV  112.16 nm  f=0.1111  <S**2>=0.000
       8 -> 11         0.69058

 Excited State  11:      Singlet-A'    11.1017 eV  111.68 nm  f=0.0748  <S**2>=0.000
       7 -> 10         0.67086
       9 -> 18         0.12583
       9 -> 19         0.11639

 Excited State  12:      Singlet-A'    11.5375 eV  107.46 nm  f=0.0060  <S**2>=0.000
       7 -> 10        -0.17766
       9 -> 15        -0.10611
       9 -> 16         0.12301
       9 -> 18         0.49518
       9 -> 19         0.39110

 Excited State  13:      Singlet-A'    11.7232 eV  105.76 nm  f=0.0293  <S**2>=0.000
       6 -> 10         0.18892
       8 -> 12         0.18516
       9 -> 18        -0.36559
       9 -> 19         0.50556
       9 -> 21        -0.10213

 Excited State  14:      Singlet-A"    11.7525 eV  105.50 nm  f=0.0113  <S**2>=0.000
       9 -> 20         0.68898

 Excited State  15:      Singlet-A'    12.0093 eV  103.24 nm  f=0.1350  <S**2>=0.000
       8 -> 12         0.66111
       9 -> 18         0.12591
       9 -> 19        -0.11279

 Excited State  16:      Singlet-A'    12.1155 eV  102.34 nm  f=0.1645  <S**2>=0.000
       6 -> 10        -0.39900
       7 -> 11         0.55294

 Excited State  17:      Singlet-A"    12.2252 eV  101.42 nm  f=0.0386  <S**2>=0.000
       8 -> 13         0.69001

 Excited State  18:      Singlet-A'    12.3920 eV  100.05 nm  f=0.0297  <S**2>=0.000
       6 -> 10         0.50308
       7 -> 11         0.39011
       8 -> 14         0.18892
       9 -> 18         0.10972
       9 -> 19        -0.11544

 Excited State  19:      Singlet-A'    12.8146 eV   96.75 nm  f=0.0389  <S**2>=0.000
       6 -> 10        -0.14396
       8 -> 14         0.52905
       9 -> 18        -0.14331
       9 -> 19         0.10436
       9 -> 21         0.35023

 Excited State  20:      Singlet-A"    12.9429 eV   95.79 nm  f=0.0189  <S**2>=0.000
       7 -> 12         0.67819
       9 -> 22         0.12067

 Excited State  21:      Singlet-A'    13.0533 eV   94.98 nm  f=0.2283  <S**2>=0.000
       6 -> 11         0.14313
       8 -> 14        -0.33094
       9 -> 21         0.55525
       9 -> 24        -0.10473

 Excited State  22:      Singlet-A"    13.2288 eV   93.72 nm  f=0.0058  <S**2>=0.000
       5 -> 10         0.22189
       5 -> 11         0.15717
       7 -> 14         0.27421
       8 -> 15         0.50348
       8 -> 16        -0.15881
       9 -> 22        -0.21365

 Excited State  23:      Singlet-A"    13.2498 eV   93.57 nm  f=0.0349  <S**2>=0.000
       5 -> 10         0.25940
       5 -> 11         0.15434
       8 -> 16         0.60578
       8 -> 18        -0.11160
       9 -> 22        -0.10487

 Excited State  24:      Singlet-A'    13.2837 eV   93.34 nm  f=0.1212  <S**2>=0.000
       6 -> 10        -0.11499
       6 -> 11         0.65423
       8 -> 14         0.12966

 Excited State  25:      Singlet-A"    13.4278 eV   92.33 nm  f=0.1508  <S**2>=0.000
       7 -> 12        -0.11653
       8 -> 15         0.22754
       9 -> 22         0.62991

 Excited State  26:      Singlet-A'    13.5134 eV   91.75 nm  f=0.0000  <S**2>=0.000
       7 -> 13         0.64551
       8 -> 17        -0.17853

 Excited State  27:      Singlet-A"    13.6669 eV   90.72 nm  f=0.0726  <S**2>=0.000
       5 -> 10         0.56923
       8 -> 11        -0.11325
       8 -> 15        -0.27312
       8 -> 16        -0.24797

 Excited State  28:      Singlet-A"    13.7416 eV   90.23 nm  f=0.0479  <S**2>=0.000
       6 -> 12         0.24904
       7 -> 14         0.58095
       8 -> 15        -0.26951

 Excited State  29:      Singlet-A'    13.8108 eV   89.77 nm  f=0.2330  <S**2>=0.000
       7 -> 13        -0.11280
       7 -> 16         0.11145
       9 -> 23         0.64337
       9 -> 24         0.15215

 Excited State  30:      Singlet-A"    14.0485 eV   88.25 nm  f=0.1172  <S**2>=0.000
       6 -> 12         0.63009
       7 -> 14        -0.21903
       7 -> 17         0.10427
       8 -> 19         0.12754

 Excited State  31:      Singlet-A'    14.0803 eV   88.05 nm  f=0.0098  <S**2>=0.000
       6 -> 13         0.21912
       7 -> 15         0.15931
       8 -> 17        -0.31740
       9 -> 21         0.15017
       9 -> 23        -0.13767
       9 -> 24         0.49853

 Excited State  32:      Singlet-A'    14.2056 eV   87.28 nm  f=0.0182  <S**2>=0.000
       6 -> 13        -0.32418
       7 -> 15        -0.13822
       8 -> 17         0.38604
       9 -> 24         0.41659

 Excited State  33:      Singlet-A'    14.5190 eV   85.39 nm  f=0.0283  <S**2>=0.000
       6 -> 13        -0.42978
       7 -> 15         0.45689
       7 -> 16         0.20908
       8 -> 17        -0.14224

 Excited State  34:      Singlet-A"    14.6730 eV   84.50 nm  f=0.0001  <S**2>=0.000
       5 -> 13         0.15279
       6 -> 14         0.35187
       8 -> 18         0.56181

 Excited State  35:      Singlet-A'    14.6919 eV   84.39 nm  f=0.1282  <S**2>=0.000
       7 -> 13        -0.10272
       7 -> 15        -0.28396
       7 -> 16         0.58065
       8 -> 17        -0.12508
       9 -> 23        -0.10530

 Excited State  36:      Singlet-A"    14.7372 eV   84.13 nm  f=0.0017  <S**2>=0.000
       5 -> 11        -0.36011
       6 -> 12         0.10144
       6 -> 14         0.42020
       7 -> 17        -0.14103
       8 -> 18        -0.23947
       8 -> 19        -0.25890

 Excited State  37:      Singlet-A'    14.7536 eV   84.04 nm  f=0.1770  <S**2>=0.000
       5 -> 12         0.15318
       6 -> 13         0.31124
       7 -> 13         0.10698
       7 -> 15         0.26578
       7 -> 16         0.17067
       8 -> 17         0.35210
       8 -> 20        -0.15956
       9 -> 25        -0.25213

 Excited State  38:      Singlet-A"    14.8332 eV   83.59 nm  f=0.0428  <S**2>=0.000
       5 -> 10        -0.15731
       5 -> 11         0.46078
       6 -> 14         0.37050
       8 -> 15        -0.11512
       8 -> 18        -0.26680

 Excited State  39:      Singlet-A'    15.0634 eV   82.31 nm  f=0.0065  <S**2>=0.000
       5 -> 12         0.16264
       6 -> 13         0.11759
       7 -> 15         0.14413
       7 -> 16         0.16030
       8 -> 17         0.10763
       9 -> 25         0.58570

 Excited State  40:      Singlet-A"    15.1552 eV   81.81 nm  f=0.0649  <S**2>=0.000
       5 -> 11        -0.25411
       6 -> 12        -0.10541
       6 -> 14         0.18268
       7 -> 14         0.10674
       7 -> 17         0.46175
       8 -> 19         0.35974

 Excited State  41:      Singlet-A'    15.3743 eV   80.64 nm  f=0.1635  <S**2>=0.000
       5 -> 12         0.12906
       6 -> 16        -0.19894
       8 -> 17         0.10091
       8 -> 20         0.59955
       9 -> 25        -0.19932

 Excited State  42:      Singlet-A"    15.3876 eV   80.57 nm  f=0.1353  <S**2>=0.000
       7 -> 17        -0.27692
       8 -> 19         0.30653
       9 -> 26         0.44686
       9 -> 27         0.25812
       9 -> 28         0.15761

 Excited State  43:      Singlet-A'    15.4981 eV   80.00 nm  f=0.0480  <S**2>=0.000
       5 -> 12        -0.40134
       6 -> 13         0.10203
       6 -> 15         0.41197
       6 -> 16         0.13427
       7 -> 18        -0.18057
       7 -> 19        -0.14655
       8 -> 20         0.14924
       9 -> 30        -0.14134

 Excited State  44:      Singlet-A"    15.5594 eV   79.68 nm  f=0.0779  <S**2>=0.000
       7 -> 17         0.38578
       7 -> 20        -0.12855
       8 -> 19        -0.33955
       9 -> 26         0.37841
       9 -> 27         0.12661
       9 -> 28         0.14737

 Excited State  45:      Singlet-A'    15.7134 eV   78.90 nm  f=0.1934  <S**2>=0.000
       5 -> 12         0.21537
       6 -> 15         0.39664
       6 -> 16        -0.38928
       7 -> 18        -0.17295
       8 -> 20        -0.16300
       9 -> 30         0.22878

 Excited State  46:      Singlet-A"    15.7971 eV   78.49 nm  f=0.0219  <S**2>=0.000
       6 -> 17         0.18395
       9 -> 26        -0.33598
       9 -> 27         0.38061
       9 -> 28         0.41143

 Excited State  47:      Singlet-A'    15.8312 eV   78.32 nm  f=0.0500  <S**2>=0.000
       6 -> 15         0.27311
       7 -> 18         0.60436
       9 -> 29        -0.16403

 Excited State  48:      Singlet-A"    15.9160 eV   77.90 nm  f=0.0495  <S**2>=0.000
       5 -> 13         0.59238
       5 -> 15        -0.14373
       7 -> 20        -0.24370
       8 -> 18        -0.13464
       8 -> 23        -0.14550

 Excited State  49:      Singlet-A"    16.0679 eV   77.16 nm  f=0.0090  <S**2>=0.000
       6 -> 17        -0.11059
       9 -> 27         0.48994
       9 -> 28        -0.46443

 Excited State  50:      Singlet-A'    16.0679 eV   77.16 nm  f=0.0033  <S**2>=0.000
       5 -> 12         0.12371
       5 -> 14        -0.24636
       6 -> 16         0.37129
       7 -> 19        -0.27577
       9 -> 30         0.37571

 Excited State  51:      Singlet-A'    16.0930 eV   77.04 nm  f=0.0432  <S**2>=0.000
       5 -> 12        -0.27809
       6 -> 15        -0.15038
       6 -> 16        -0.15629
       7 -> 18         0.18009
       9 -> 29         0.42923
       9 -> 30         0.30772

 Excited State  52:      Singlet-A"    16.2488 eV   76.30 nm  f=0.0004  <S**2>=0.000
       6 -> 17         0.58203
       7 -> 20        -0.22206
       8 -> 21        -0.16791
       9 -> 26         0.12995
       9 -> 28        -0.16149

 Excited State  53:      Singlet-A'    16.2815 eV   76.15 nm  f=0.1993  <S**2>=0.000
       5 -> 14         0.24502
       6 -> 16         0.16654
       6 -> 18         0.15389
       7 -> 19         0.46619
       9 -> 30         0.32514

 Excited State  54:      Singlet-A'    16.3816 eV   75.69 nm  f=0.0401  <S**2>=0.000
       5 -> 12         0.28284
       5 -> 14         0.13720
       6 -> 15         0.13215
       6 -> 16         0.22646
       9 -> 29         0.46570
       9 -> 30        -0.16910

 Excited State  55:      Singlet-A"    16.3868 eV   75.66 nm  f=0.0179  <S**2>=0.000
       5 -> 13         0.24412
       5 -> 15         0.11147
       6 -> 17         0.28708
       7 -> 20         0.43932
       8 -> 21         0.32538

 Excited State  56:      Singlet-A'    16.4851 eV   75.21 nm  f=0.1345  <S**2>=0.000
       5 -> 14         0.51855
       6 -> 18        -0.12587
       6 -> 19        -0.12456
       7 -> 19        -0.31552
       8 -> 22         0.12691
       9 -> 29        -0.13254

 Excited State  57:      Singlet-A"    16.5515 eV   74.91 nm  f=0.0832  <S**2>=0.000
       5 -> 13        -0.11736
       5 -> 16        -0.16799
       7 -> 20        -0.31958
       8 -> 19         0.13057
       8 -> 21         0.54094

 Excited State  58:      Singlet-A'    16.8467 eV   73.60 nm  f=0.0331  <S**2>=0.000
       5 -> 14        -0.10192
       5 -> 17        -0.15040
       6 -> 18         0.48400
       6 -> 19        -0.15274
       7 -> 19        -0.12571
       8 -> 22         0.39230

 Excited State  59:      Singlet-A"    16.8811 eV   73.45 nm  f=0.0892  <S**2>=0.000
       5 -> 13         0.12337
       5 -> 15         0.32157
       7 -> 20        -0.18226
       8 -> 23         0.54097

 Excited State  60:      Singlet-A'    17.0260 eV   72.82 nm  f=0.0673  <S**2>=0.000
       5 -> 14        -0.18944
       6 -> 18        -0.38376
       7 -> 19         0.10256
       7 -> 21         0.14052
       8 -> 22         0.49263

 Excited State  61:      Singlet-A"    17.0985 eV   72.51 nm  f=0.0005  <S**2>=0.000
       5 -> 15         0.46614
       5 -> 16         0.22495
       5 -> 18         0.12088
       6 -> 20        -0.20460
       8 -> 23        -0.36315
       9 -> 31        -0.12647

 Excited State  62:      Singlet-A"    17.2267 eV   71.97 nm  f=0.0060  <S**2>=0.000
       5 -> 16         0.53557
       6 -> 20         0.30088
       8 -> 21         0.18499
       8 -> 24         0.15082
       9 -> 31         0.11520

 Excited State  63:      Singlet-A'    17.3114 eV   71.62 nm  f=0.0909  <S**2>=0.000
       6 -> 19         0.56666
       7 -> 21        -0.27137
       8 -> 22         0.13746
       9 -> 32        -0.14303
       9 -> 33         0.10690

 Excited State  64:      Singlet-A"    17.3882 eV   71.30 nm  f=0.0473  <S**2>=0.000
       5 -> 16        -0.13952
       8 -> 24         0.65901

 Excited State  65:      Singlet-A'    17.4125 eV   71.20 nm  f=0.0216  <S**2>=0.000
       6 -> 18        -0.11177
       7 -> 21        -0.19443
       9 -> 30         0.12350
       9 -> 32         0.60247
       9 -> 33        -0.14883

 Excited State  66:      Singlet-A"    17.4809 eV   70.93 nm  f=0.1202  <S**2>=0.000
       5 -> 15         0.23827
       5 -> 16        -0.19088
       5 -> 18         0.12478
       6 -> 20         0.28945
       7 -> 20        -0.11948
       9 -> 27        -0.10662
       9 -> 31         0.49084

 Excited State  67:      Singlet-A"    17.6229 eV   70.35 nm  f=0.0606  <S**2>=0.000
       5 -> 15         0.12754
       5 -> 16        -0.14866
       6 -> 20         0.47101
       7 -> 22        -0.13066
       9 -> 31        -0.43966

 Excited State  68:      Singlet-A'    17.8017 eV   69.65 nm  f=0.1804  <S**2>=0.000
       4 -> 10        -0.16993
       5 -> 17        -0.36211
       6 -> 19         0.22634
       7 -> 21         0.46174
       8 -> 22        -0.10836
       9 -> 32         0.11594
       9 -> 34        -0.10857

 Excited State  69:      Singlet-A'    17.9599 eV   69.03 nm  f=0.0019  <S**2>=0.000
       4 -> 10        -0.18025
       5 -> 17         0.53546
       5 -> 20         0.10470
       6 -> 19         0.12081
       7 -> 21         0.25774
       7 -> 24         0.12185
       8 -> 22         0.14041
       9 -> 34        -0.10638

 Excited State  70:      Singlet-A"    18.0034 eV   68.87 nm  f=0.0224  <S**2>=0.000
       5 -> 15         0.14078
       5 -> 18        -0.29382
       6 -> 20         0.11874
       7 -> 22         0.54330
       8 -> 25        -0.20764

 Excited State  71:      Singlet-A'    18.1110 eV   68.46 nm  f=0.0178  <S**2>=0.000
       7 -> 23         0.65130
       9 -> 33         0.15767

 Excited State  72:      Singlet-A"    18.1949 eV   68.14 nm  f=0.0003  <S**2>=0.000
       5 -> 18         0.42426
       7 -> 22         0.39756
       8 -> 24         0.10011
       8 -> 25         0.33425

 Excited State  73:      Singlet-A'    18.3082 eV   67.72 nm  f=0.0133  <S**2>=0.000
       4 -> 10         0.24472
       7 -> 23        -0.14295
       7 -> 24         0.28192
       9 -> 32         0.18894
       9 -> 33         0.50463
       9 -> 34         0.12079

 Excited State  74:      Singlet-A"    18.3342 eV   67.62 nm  f=0.0021  <S**2>=0.000
       5 -> 16        -0.12372
       5 -> 18        -0.38744
       8 -> 23        -0.11933
       8 -> 25         0.54015

 Excited State  75:      Singlet-A'    18.4070 eV   67.36 nm  f=0.0144  <S**2>=0.000
       4 -> 10         0.54604
       6 -> 21         0.11757
       9 -> 33        -0.21402
       9 -> 34        -0.26450

 Excited State  76:      Singlet-A'    18.5015 eV   67.01 nm  f=0.0372  <S**2>=0.000
       7 -> 24         0.48035
       9 -> 33        -0.32296
       9 -> 34         0.33770

 Excited State  77:      Singlet-A"    18.5865 eV   66.71 nm  f=0.0361  <S**2>=0.000
       5 -> 19         0.64512
       5 -> 21        -0.13563

 Excited State  78:      Singlet-A'    18.6051 eV   66.64 nm  f=0.0161  <S**2>=0.000
       4 -> 10         0.13813
       5 -> 20         0.42954
       7 -> 24        -0.24996
       8 -> 26         0.11931
       9 -> 34         0.39825

 Excited State  79:      Singlet-A'    18.7552 eV   66.11 nm  f=0.0452  <S**2>=0.000
       5 -> 20         0.23383
       6 -> 21        -0.18531
       6 -> 23        -0.11935
       7 -> 21        -0.10100
       7 -> 24         0.15925
       8 -> 26         0.50459
       8 -> 27        -0.11152
       9 -> 34        -0.22419

 Excited State  80:      Singlet-A'    18.7944 eV   65.97 nm  f=0.0128  <S**2>=0.000
       5 -> 20        -0.13589
       6 -> 21         0.54247
       7 -> 24        -0.10150
       8 -> 26         0.32499

 Excited State  81:      Singlet-A'    18.9176 eV   65.54 nm  f=0.0850  <S**2>=0.000
       4 -> 10        -0.11871
       5 -> 17        -0.11470
       5 -> 20         0.41498
       6 -> 21         0.28930
       7 -> 23        -0.11495
       7 -> 24         0.14953
       7 -> 25         0.15523
       8 -> 26        -0.26971
       9 -> 34        -0.15771

 Excited State  82:      Singlet-A"    19.0119 eV   65.21 nm  f=0.0050  <S**2>=0.000
       6 -> 22         0.63816
       9 -> 35         0.20198
       9 -> 37         0.13681

 Excited State  83:      Singlet-A'    19.0684 eV   65.02 nm  f=0.0007  <S**2>=0.000
       6 -> 23        -0.37720
       8 -> 27        -0.13349
       8 -> 28         0.18133
       9 -> 34         0.10543
       9 -> 36         0.50165

 Excited State  84:      Singlet-A"    19.0774 eV   64.99 nm  f=0.0094  <S**2>=0.000
       9 -> 35         0.57378
       9 -> 37        -0.35374

 Excited State  85:      Singlet-A'    19.2475 eV   64.42 nm  f=0.0232  <S**2>=0.000
       4 -> 11         0.57300
       6 -> 24         0.12319
       8 -> 27         0.14820
       8 -> 28        -0.24082
       9 -> 36         0.17077

 Excited State  86:      Singlet-A"    19.3118 eV   64.20 nm  f=0.0017  <S**2>=0.000
       8 -> 29         0.44554
       8 -> 30        -0.16551
       9 -> 35         0.19211
       9 -> 37         0.43872

 Excited State  87:      Singlet-A"    19.3618 eV   64.04 nm  f=0.0189  <S**2>=0.000
       6 -> 22         0.22075
       7 -> 26         0.10987
       8 -> 29         0.39598
       8 -> 30        -0.22143
       9 -> 35        -0.27199
       9 -> 37        -0.33958

 Excited State  88:      Singlet-A'    19.4015 eV   63.90 nm  f=0.0666  <S**2>=0.000
       6 -> 23         0.33157
       7 -> 25         0.42821
       8 -> 26         0.14061
       8 -> 27         0.25761
       8 -> 28         0.18058
       9 -> 36         0.19623

 Excited State  89:      Singlet-A'    19.5370 eV   63.46 nm  f=0.1053  <S**2>=0.000
       4 -> 11         0.18733
       6 -> 21        -0.11210
       6 -> 23        -0.15031
       6 -> 24        -0.31311
       6 -> 25         0.15319
       7 -> 25         0.38488
       8 -> 27        -0.27828
       9 -> 36        -0.16163

 Excited State  90:      Singlet-A'    19.5481 eV   63.43 nm  f=0.0605  <S**2>=0.000
       6 -> 23        -0.32330
       6 -> 24        -0.23571
       8 -> 26         0.10428
       8 -> 27         0.43956
       8 -> 28         0.24149
       9 -> 36        -0.16315

 Excited State  91:      Singlet-A"    19.6462 eV   63.11 nm  f=0.0824  <S**2>=0.000
       4 -> 12         0.13071
       8 -> 29         0.28050
       8 -> 30         0.58761

 Excited State  92:      Singlet-A'    19.6519 eV   63.09 nm  f=0.1752  <S**2>=0.000
       4 -> 11        -0.22392
       6 -> 23        -0.23237
       6 -> 24         0.33610
       7 -> 25         0.22314
       7 -> 29        -0.13736
       8 -> 27         0.17517
       8 -> 28        -0.32519

 Excited State  93:      Singlet-A'    19.8953 eV   62.32 nm  f=0.0967  <S**2>=0.000
       4 -> 11         0.13998
       5 -> 22        -0.21759
       6 -> 24         0.41098
       7 -> 29         0.15371
       8 -> 27        -0.10406
       8 -> 28         0.34199
       9 -> 36        -0.20473

 Excited State  94:      Singlet-A"    19.9055 eV   62.29 nm  f=0.0145  <S**2>=0.000

 The electronic state is 1-A'.
 Alpha  occ. eigenvalues --  -14.42860 -10.31583  -0.96928  -0.74679  -0.57894
 Alpha  occ. eigenvalues --   -0.52975  -0.48928  -0.44789  -0.32417
 Alpha virt. eigenvalues --    0.09322   0.13009   0.16482   0.18307   0.19905
 Alpha virt. eigenvalues --    0.22291   0.23099   0.24320   0.27218   0.29277
 Alpha virt. eigenvalues --    0.29479   0.33884   0.34675   0.35905   0.36833

 Mulliken charges:
               1
     1  C    0.486318
     2  N   -0.335245
     3  H   -0.015213
     4  H   -0.085511
     5  H   -0.085511
     6  H    0.017581
     7  H    0.017581
 Sum of Mulliken charges =  -0.00000

 Dipole moment (field-independent basis, Debye):
    X=              1.2979    Y=              0.3532    Z=             -0.0000  Tot=              1.3451
 Quadrupole moment (field-independent basis, Debye-Ang):
   XX=            -15.0173   YY=            -14.3377   ZZ=            -12.6770
   XY=             -2.1423   XZ=             -0.0000   YZ=             -0.0000

 Normal termination of Gaussian 16 at Sat Feb 12 22:25:33 2022.
