 Gaussian 16, Revision C.01,
 Gaussian 16:  EM64L-G16RevC.01  3-Jul-2019

 ----------------------------------------------------------------------
 #P TD(Nstates=10000) wB97XD/Gen SCF(maxcycles=100) Int(Grid=ultrafine)
 ----------------------------------------------------------------------

 ---------------------
 xGDB7_00001_tier4.com
 ---------------------
 Symbolic Z-matrix:
 Charge =  0 Multiplicity = 1

                         Standard orientation:
 ---------------------------------------------------------------------
 Center     Atomic      Atomic             Coordinates (Angstroms)
 Number     Number       Type             X           Y           Z
 ---------------------------------------------------------------------
      1          6           0       -0.620492    0.000001    0.000000
      2          9           0        0.745429   -0.000000   -0.000000
      3          1           0       -0.995303   -0.422238    0.946037
      4          1           0       -0.995305   -0.608181   -0.838684
      5          1           0       -0.995300    1.030416   -0.107353
 ---------------------------------------------------------------------

 SCF Done:  E(RwB97XD) =  -139.604899306     A.U. after   12 cycles

 Excitation energies and oscillator strengths:

 Excited State   1:      Singlet-A      9.6126 eV  128.98 nm  f=0.0321  <S**2>=0.000
       8 -> 10         0.50986
       8 -> 11         0.17496
       9 -> 10         0.41992
       9 -> 11         0.14409
 This state for optimization and/or second-order correction.
 Total Energy, E(TD-HF/TD-DFT) =  -139.251643976
 Copying the excited state density for this state as the 1-particle RhoCI density.

 Excited State   2:      Singlet-A      9.6126 eV  128.98 nm  f=0.0321  <S**2>=0.000
       8 -> 10        -0.41991
       8 -> 11        -0.14410
       9 -> 10         0.50987
       9 -> 11         0.17495

 Excited State   3:      Singlet-A     10.2872 eV  120.52 nm  f=0.0291  <S**2>=0.000
       9 -> 10        -0.23096
       9 -> 11         0.64609

 Excited State   4:      Singlet-A     10.2872 eV  120.52 nm  f=0.0291  <S**2>=0.000
       8 -> 10        -0.23098
       8 -> 11         0.64609

 Excited State   5:      Singlet-A     11.6729 eV  106.22 nm  f=0.0488  <S**2>=0.000
       8 -> 12        -0.31600
       8 -> 13        -0.38082
       9 -> 12         0.38100
       9 -> 13        -0.31595

 Excited State   6:      Singlet-A     11.6729 eV  106.22 nm  f=0.0488  <S**2>=0.000
       8 -> 12         0.38090
       8 -> 13        -0.31594
       9 -> 12         0.31602
       9 -> 13         0.38092

 Excited State   7:      Singlet-A     11.7330 eV  105.67 nm  f=0.0000  <S**2>=0.000
       8 -> 12        -0.20064
       8 -> 13         0.44721
       9 -> 12         0.44701
       9 -> 13         0.20070

 Excited State   8:      Singlet-A     11.9154 eV  104.05 nm  f=0.1260  <S**2>=0.000
       8 -> 12         0.44673
       8 -> 13         0.20052
       9 -> 12         0.20049
       9 -> 13        -0.44672

 Excited State   9:      Singlet-A     12.6332 eV   98.14 nm  f=0.0000  <S**2>=0.000
       8 -> 15         0.48480
       9 -> 16         0.48478

 Excited State  10:      Singlet-A     12.7619 eV   97.15 nm  f=0.0373  <S**2>=0.000
       7 -> 10        -0.15711
       7 -> 11        -0.13701
       8 -> 16        -0.13948
       9 -> 14         0.62394
       9 -> 15        -0.13954

 Excited State  11:      Singlet-A     12.7619 eV   97.15 nm  f=0.0373  <S**2>=0.000
       6 -> 10        -0.15712
       6 -> 11        -0.13701
       8 -> 14         0.62394
       8 -> 15         0.13951
       9 -> 16        -0.13948

 Excited State  12:      Singlet-A     13.0455 eV   95.04 nm  f=0.0073  <S**2>=0.000
       8 -> 16        -0.47342
       9 -> 15         0.47374

 Excited State  13:      Singlet-A     13.1086 eV   94.58 nm  f=0.1240  <S**2>=0.000
       8 -> 14        -0.14360
       8 -> 15         0.23205
       8 -> 16         0.39964
       9 -> 14         0.17064
       9 -> 15         0.39940
       9 -> 16        -0.23204

 Excited State  14:      Singlet-A     13.1086 eV   94.58 nm  f=0.1240  <S**2>=0.000
       8 -> 14         0.17062
       8 -> 15        -0.39949
       8 -> 16         0.23218
       9 -> 14         0.14359
       9 -> 15         0.23192
       9 -> 16         0.39955

 Excited State  15:      Singlet-A     13.5812 eV   91.29 nm  f=0.1137  <S**2>=0.000
       6 -> 10         0.46247
       7 -> 10         0.45350
       8 -> 14         0.10246
       9 -> 14         0.11969

 Excited State  16:      Singlet-A     13.5812 eV   91.29 nm  f=0.1137  <S**2>=0.000
       6 -> 10        -0.45350
       7 -> 10         0.46248
       8 -> 14        -0.11969
       9 -> 14         0.10245

 Excited State  17:      Singlet-A     13.7059 eV   90.46 nm  f=0.0196  <S**2>=0.000
       8 -> 17         0.43496
       8 -> 18         0.20136
       9 -> 17        -0.20148
       9 -> 18         0.43503

 Excited State  18:      Singlet-A     13.7059 eV   90.46 nm  f=0.0196  <S**2>=0.000
       8 -> 17         0.20153
       8 -> 18        -0.43481
       9 -> 17         0.43518
       9 -> 18         0.20131

 Excited State  19:      Singlet-A     13.7328 eV   90.28 nm  f=0.0000  <S**2>=0.000
       8 -> 17         0.26227
       8 -> 18         0.40986
       9 -> 17         0.40941
       9 -> 18        -0.26232

 Excited State  20:      Singlet-A     14.0217 eV   88.42 nm  f=0.0117  <S**2>=0.000
       5 -> 10         0.65334
       8 -> 17        -0.14009
       9 -> 18         0.14009

 Excited State  21:      Singlet-A     14.2170 eV   87.21 nm  f=0.0064  <S**2>=0.000
       6 -> 11        -0.12879
       7 -> 10        -0.15049
       7 -> 11         0.62317
       7 -> 14         0.10250
       9 -> 19        -0.11728
       9 -> 20         0.12578

 Excited State  22:      Singlet-A     14.2170 eV   87.21 nm  f=0.0064  <S**2>=0.000
       6 -> 10        -0.15050
       6 -> 11         0.62317
       6 -> 14         0.10250
       7 -> 11         0.12879
       8 -> 19        -0.11728
       8 -> 20         0.12578

 Excited State  23:      Singlet-A     14.2236 eV   87.17 nm  f=0.0014  <S**2>=0.000
       5 -> 10        -0.15032
       5 -> 11        -0.31997
       8 -> 17        -0.34214
       8 -> 18         0.21908
       9 -> 17         0.21908
       9 -> 18         0.34216

 Excited State  24:      Singlet-A     15.0148 eV   82.57 nm  f=0.5339  <S**2>=0.000
       5 -> 10        -0.18168
       5 -> 11         0.58869
       8 -> 16        -0.10416
       8 -> 17        -0.15053
       9 -> 15         0.10416
       9 -> 18         0.15052

 Excited State  25:      Singlet-A     15.4121 eV   80.45 nm  f=0.0089  <S**2>=0.000
       5 -> 12        -0.10674
       6 -> 11         0.11658
       6 -> 13        -0.24814
       7 -> 12         0.24817
       8 -> 19         0.43092
       8 -> 20        -0.35023

 Excited State  26:      Singlet-A     15.4121 eV   80.45 nm  f=0.0089  <S**2>=0.000
       5 -> 13         0.10676
       6 -> 12         0.24817
       7 -> 11         0.11659
       7 -> 13         0.24815
       9 -> 19         0.43091
       9 -> 20        -0.35024

 Excited State  27:      Singlet-A     15.5953 eV   79.50 nm  f=0.0000  <S**2>=0.000
       6 -> 12        -0.15706
       6 -> 13         0.45157
       6 -> 15        -0.10596
       7 -> 12         0.45181
       7 -> 13         0.15707
       7 -> 16        -0.10595

 Excited State  28:      Singlet-A     15.6492 eV   79.23 nm  f=0.0657  <S**2>=0.000
       6 -> 12        -0.24610
       6 -> 13         0.32415
       7 -> 12        -0.32392
       7 -> 13        -0.24602
       8 -> 19         0.23590
       8 -> 20        -0.21217
       9 -> 19         0.10781

 Excited State  29:      Singlet-A     15.6492 eV   79.23 nm  f=0.0657  <S**2>=0.000
       6 -> 12         0.32400
       6 -> 13         0.24614
       7 -> 12        -0.24598
       7 -> 13         0.32407
       8 -> 19         0.10780
       9 -> 19        -0.23590
       9 -> 20         0.21218

 Excited State  30:      Singlet-A     15.8705 eV   78.12 nm  f=0.0273  <S**2>=0.000
       5 -> 12         0.67617

 Excited State  31:      Singlet-A     15.8705 eV   78.12 nm  f=0.0273  <S**2>=0.000
       5 -> 13         0.67617

 Excited State  32:      Singlet-A     16.0684 eV   77.16 nm  f=0.0132  <S**2>=0.000
       5 -> 11         0.10514
       6 -> 12         0.43448
       6 -> 13         0.15109
       6 -> 16        -0.10681
       7 -> 12         0.15108
       7 -> 13        -0.43447
       7 -> 15         0.10681

 Excited State  33:      Singlet-A     16.2663 eV   76.22 nm  f=0.0620  <S**2>=0.000
       7 -> 14         0.30405
       9 -> 19         0.40427
       9 -> 20         0.44751

 Excited State  34:      Singlet-A     16.2663 eV   76.22 nm  f=0.0620  <S**2>=0.000
       6 -> 14         0.30405
       8 -> 19         0.40426
       8 -> 20         0.44752

 Excited State  35:      Singlet-A     16.5785 eV   74.79 nm  f=0.0000  <S**2>=0.000
       6 -> 15         0.47235
       7 -> 16         0.47233

 Excited State  36:      Singlet-A     16.7500 eV   74.02 nm  f=0.0058  <S**2>=0.000
       5 -> 14        -0.29928
       6 -> 12        -0.10453
       6 -> 16        -0.43149
       7 -> 13         0.10453
       7 -> 15         0.43155

 Excited State  37:      Singlet-A     16.8958 eV   73.38 nm  f=0.2175  <S**2>=0.000
       5 -> 15         0.43014
       6 -> 16        -0.35340
       7 -> 15        -0.35336

 Excited State  38:      Singlet-A     16.8958 eV   73.38 nm  f=0.2176  <S**2>=0.000
       5 -> 16         0.43012
       6 -> 15        -0.35339
       7 -> 16         0.35341

 Excited State  39:      Singlet-A     16.9899 eV   72.98 nm  f=0.0009  <S**2>=0.000
       5 -> 15        -0.10873
       6 -> 14        -0.11335
       7 -> 14         0.57830
       9 -> 19        -0.18443
       9 -> 20        -0.25751

 Excited State  40:      Singlet-A     16.9899 eV   72.98 nm  f=0.0009  <S**2>=0.000
       5 -> 16         0.10862
       6 -> 14         0.57832
       7 -> 14         0.11333
       8 -> 19        -0.18445
       8 -> 20        -0.25752

 Excited State  41:      Singlet-A     17.0889 eV   72.55 nm  f=0.0671  <S**2>=0.000
       5 -> 15         0.43688
       5 -> 16         0.27034
       6 -> 15         0.14552
       6 -> 16         0.22080
       6 -> 17         0.13172
       7 -> 15         0.22074
       7 -> 16        -0.14552
       7 -> 18         0.13172

 Excited State  42:      Singlet-A     17.0889 eV   72.55 nm  f=0.0671  <S**2>=0.000
       5 -> 15        -0.27033
       5 -> 16         0.43692
       6 -> 15         0.22074
       6 -> 16        -0.14552
       6 -> 18         0.13171
       7 -> 15        -0.14552
       7 -> 16        -0.22075
       7 -> 17        -0.13173

 Excited State  43:      Singlet-A     17.1760 eV   72.18 nm  f=0.0220  <S**2>=0.000
       6 -> 15         0.15258
       6 -> 17        -0.11396
       6 -> 18        -0.15751
       7 -> 16        -0.15259
       7 -> 17         0.15752
       7 -> 18        -0.11396
       8 -> 21         0.38117
       8 -> 22        -0.16353
       9 -> 21         0.16353
       9 -> 22         0.38118

 Excited State  44:      Singlet-A     17.1761 eV   72.18 nm  f=0.0220  <S**2>=0.000
       6 -> 16         0.15262
       6 -> 17        -0.15750
       6 -> 18         0.11395
       7 -> 15         0.15257
       7 -> 17        -0.11396
       7 -> 18        -0.15752
       8 -> 21        -0.16352
       8 -> 22        -0.38111
       9 -> 21         0.38124
       9 -> 22        -0.16354

 Excited State  45:      Singlet-A     17.2451 eV   71.90 nm  f=0.0263  <S**2>=0.000
       5 -> 14         0.55718
       6 -> 16        -0.17674
       7 -> 15         0.17676
       8 -> 22        -0.20940
       9 -> 21        -0.20930

 Excited State  46:      Singlet-A     17.3009 eV   71.66 nm  f=0.3524  <S**2>=0.000
       5 -> 14         0.19619
       6 -> 17         0.18369
       6 -> 18        -0.14164
       7 -> 17        -0.14161
       7 -> 18        -0.18365
       8 -> 21         0.10320
       8 -> 22         0.38568
       9 -> 21         0.38561
       9 -> 22        -0.10316

 Excited State  47:      Singlet-A     17.3218 eV   71.58 nm  f=0.0000  <S**2>=0.000
       6 -> 17        -0.14809
       6 -> 18        -0.19205
       7 -> 17        -0.19205
       7 -> 18         0.14808
       8 -> 21         0.41223
       8 -> 22        -0.11029
       9 -> 21        -0.11028
       9 -> 22        -0.41221

 Excited State  48:      Singlet-A     17.5938 eV   70.47 nm  f=0.0050  <S**2>=0.000
       9 -> 23         0.66846

 Excited State  49:      Singlet-A     17.5938 eV   70.47 nm  f=0.0050  <S**2>=0.000
       8 -> 23         0.66846

 Excited State  50:      Singlet-A     17.8403 eV   69.50 nm  f=0.0000  <S**2>=0.000
       6 -> 17         0.26217
       6 -> 18         0.33981
       7 -> 17         0.34005
       7 -> 18        -0.26196
       8 -> 21         0.23146
       9 -> 22        -0.23156

 Excited State  51:      Singlet-A     17.8528 eV   69.45 nm  f=0.0523  <S**2>=0.000
       5 -> 17        -0.23123
       5 -> 18        -0.24516
       6 -> 17         0.30415
       6 -> 18        -0.20121
       7 -> 17         0.20097
       7 -> 18         0.30439
       8 -> 22        -0.17269
       8 -> 24         0.12508
       9 -> 21         0.17275

 Excited State  52:      Singlet-A     17.8528 eV   69.45 nm  f=0.0523  <S**2>=0.000
       5 -> 17        -0.24520
       5 -> 18         0.23122
       6 -> 17         0.20109
       6 -> 18         0.30430
       7 -> 17        -0.30424
       7 -> 18         0.20105
       8 -> 21         0.17273
       9 -> 22         0.17271
       9 -> 24         0.12509

 Excited State  53:      Singlet-A     17.9619 eV   69.03 nm  f=0.0084  <S**2>=0.000
       5 -> 17         0.58030
       5 -> 18        -0.11485
       6 -> 17         0.19306
       7 -> 18         0.19302

 Excited State  54:      Singlet-A     17.9619 eV   69.03 nm  f=0.0084  <S**2>=0.000
       5 -> 17         0.11486
       5 -> 18         0.58033
       6 -> 18        -0.19303
       7 -> 17         0.19299

 Excited State  55:      Singlet-A     18.0759 eV   68.59 nm  f=0.0001  <S**2>=0.000
       5 -> 14        -0.17646
       5 -> 20         0.15039
       6 -> 17         0.33178
       6 -> 18        -0.25578
       7 -> 17        -0.25576
       7 -> 18        -0.33177
       8 -> 22        -0.16441
       9 -> 21        -0.16440

 Excited State  56:      Singlet-A     18.5207 eV   66.94 nm  f=0.0001  <S**2>=0.000
       9 -> 24         0.67518

 Excited State  57:      Singlet-A     18.5207 eV   66.94 nm  f=0.0001  <S**2>=0.000
       8 -> 24         0.67518

 Excited State  58:      Singlet-A     18.5612 eV   66.80 nm  f=0.0000  <S**2>=0.000
       8 -> 25        -0.32598
       8 -> 26        -0.36583
       9 -> 25         0.36587
       9 -> 26        -0.32595

 Excited State  59:      Singlet-A     18.7170 eV   66.24 nm  f=0.0581  <S**2>=0.000
       6 -> 19        -0.11747
       8 -> 26         0.45232
       9 -> 24        -0.12346
       9 -> 25         0.45234

 Excited State  60:      Singlet-A     18.7170 eV   66.24 nm  f=0.0581  <S**2>=0.000
       7 -> 19         0.11745
       8 -> 24        -0.12347
       8 -> 25        -0.45231
       9 -> 26         0.45236

 Excited State  61:      Singlet-A     18.7988 eV   65.95 nm  f=0.0619  <S**2>=0.000
       4 -> 10         0.13356
       8 -> 25         0.34534
       8 -> 26        -0.30773
       9 -> 25         0.30764
       9 -> 26         0.34533

 Excited State  62:      Singlet-A     19.2843 eV   64.29 nm  f=0.0043  <S**2>=0.000
       6 -> 19         0.50366
       6 -> 20        -0.39453
       7 -> 19        -0.10661
       8 -> 23         0.11143
       8 -> 26         0.10324
       9 -> 25         0.10323

 Excited State  63:      Singlet-A     19.2843 eV   64.29 nm  f=0.0043  <S**2>=0.000
       6 -> 19         0.10662
       7 -> 19         0.50366
       7 -> 20        -0.39453
       8 -> 25         0.10322
       9 -> 23         0.11142
       9 -> 26        -0.10321

 Excited State  64:      Singlet-A     19.5362 eV   63.46 nm  f=0.0022  <S**2>=0.000
       4 -> 10         0.65398
       4 -> 11         0.11449
       5 -> 19        -0.16362

 Excited State  65:      Singlet-A     19.8603 eV   62.43 nm  f=0.0118  <S**2>=0.000
       4 -> 11         0.31510
       5 -> 19        -0.17430
       8 -> 27         0.28015
       8 -> 28        -0.30347
       9 -> 27        -0.30390
       9 -> 28        -0.28003

 Excited State  66:      Singlet-A     19.8627 eV   62.42 nm  f=0.0000  <S**2>=0.000
       8 -> 27         0.36430
       8 -> 28         0.33459
       9 -> 27         0.33473
       9 -> 28        -0.36414

 Excited State  67:      Singlet-A     19.9417 eV   62.17 nm  f=0.0594  <S**2>=0.000
       7 -> 19         0.12870
       7 -> 20         0.10690
       8 -> 27         0.35265
       8 -> 28        -0.32219
       9 -> 27         0.32192
       9 -> 28         0.35269

 Excited State  68:      Singlet-A     19.9417 eV   62.17 nm  f=0.0594  <S**2>=0.000
       6 -> 19        -0.12871
       6 -> 20        -0.10689
       8 -> 27         0.32194
       8 -> 28         0.35279
       9 -> 27        -0.35254
       9 -> 28         0.32217

 Excited State  69:      Singlet-A     20.2257 eV   61.30 nm  f=0.0142  <S**2>=0.000
       6 -> 20         0.13240
       7 -> 19         0.35716
       7 -> 20         0.50979
       8 -> 28         0.12307
       9 -> 27        -0.12307
       9 -> 29        -0.20431

 Excited State  70:      Singlet-A     20.2257 eV   61.30 nm  f=0.0142  <S**2>=0.000
       6 -> 19         0.35715
       6 -> 20         0.50979
       7 -> 20        -0.13240
       8 -> 27         0.12306
       8 -> 29        -0.20432
       9 -> 28         0.12307

 Excited State  71:      Singlet-A     20.2795 eV   61.14 nm  f=0.1296  <S**2>=0.000
       4 -> 11         0.54327
       4 -> 14         0.11499
       5 -> 19         0.33787
       8 -> 28         0.10968
       9 -> 27         0.10965

 Excited State  72:      Singlet-A     20.4348 eV   60.67 nm  f=0.0606  <S**2>=0.000
       7 -> 19         0.19577
       7 -> 20         0.11988
       9 -> 29         0.65118

 Excited State  73:      Singlet-A     20.4348 eV   60.67 nm  f=0.0606  <S**2>=0.000
       6 -> 19         0.19577
       6 -> 20         0.11989
       8 -> 29         0.65118

 Excited State  74:      Singlet-A     20.5769 eV   60.25 nm  f=0.0080  <S**2>=0.000
       4 -> 10         0.11963
       4 -> 11        -0.18645
       5 -> 19         0.48347
       5 -> 20         0.34471
       8 -> 28        -0.10979
       9 -> 27        -0.10977

 Excited State  75:      Singlet-A     20.9987 eV   59.04 nm  f=0.0671  <S**2>=0.000
       4 -> 10        -0.10352
       5 -> 19        -0.17125
       5 -> 20         0.50969
       6 -> 25         0.10864
       7 -> 26         0.10864
       8 -> 28         0.10880
       8 -> 31         0.13425
       8 -> 32         0.11653
       9 -> 27         0.10880
       9 -> 31        -0.11653
       9 -> 32         0.13424

 Excited State  76:      Singlet-A     21.1283 eV   58.68 nm  f=0.0067  <S**2>=0.000
       6 -> 21        -0.28606
       6 -> 22        -0.34597
       7 -> 21         0.34675
       7 -> 22        -0.28635
       9 -> 30        -0.26175

 Excited State  77:      Singlet-A     21.1284 eV   58.68 nm  f=0.0067  <S**2>=0.000
       6 -> 21         0.34645
       6 -> 22        -0.28612
       7 -> 21         0.28631
       7 -> 22         0.34641
       8 -> 30         0.26156

 Excited State  78:      Singlet-A     21.1393 eV   58.65 nm  f=0.0057  <S**2>=0.000
       5 -> 23        -0.12579
       6 -> 21         0.16426
       6 -> 22         0.45200
       7 -> 21         0.45115
       7 -> 22        -0.16391

 Excited State  79:      Singlet-A     21.1674 eV   58.57 nm  f=0.0525  <S**2>=0.000
       4 -> 13        -0.11153
       6 -> 22        -0.19106
       6 -> 23         0.18136
       7 -> 21         0.19140
       7 -> 23        -0.33731
       8 -> 30        -0.27193
       9 -> 30         0.41451

 Excited State  80:      Singlet-A     21.1674 eV   58.57 nm  f=0.0525  <S**2>=0.000
       4 -> 12         0.11155
       6 -> 21        -0.19114
       6 -> 23        -0.33734
       7 -> 22        -0.19111
       7 -> 23        -0.18135
       8 -> 30         0.41460
       9 -> 30         0.27188

 Excited State  81:      Singlet-A     21.2693 eV   58.29 nm  f=0.0000  <S**2>=0.000
       6 -> 21         0.46669
       6 -> 22        -0.16958
       7 -> 21        -0.16956
       7 -> 22        -0.46668

 Excited State  82:      Singlet-A     21.4679 eV   57.75 nm  f=0.0520  <S**2>=0.000
       4 -> 12        -0.29303
       4 -> 13         0.33682
       5 -> 21         0.51150

 Excited State  83:      Singlet-A     21.4679 eV   57.75 nm  f=0.0520  <S**2>=0.000
       4 -> 12        -0.33687
       4 -> 13        -0.29302
       5 -> 22         0.51147

 Excited State  84:      Singlet-A     21.5096 eV   57.64 nm  f=0.0033  <S**2>=0.000
       4 -> 12         0.44958
       4 -> 13        -0.20161
       5 -> 21         0.40153
       5 -> 22         0.20209
       9 -> 30        -0.10641

 Excited State  85:      Singlet-A     21.5096 eV   57.64 nm  f=0.0033  <S**2>=0.000
       4 -> 12         0.20157
       4 -> 13         0.44961
       5 -> 21        -0.20203
       5 -> 22         0.40155
       8 -> 30        -0.10639

 Excited State  86:      Singlet-A     21.7911 eV   56.90 nm  f=0.0101  <S**2>=0.000
       6 -> 23         0.27767
       7 -> 23         0.49133
       8 -> 30         0.15644
       9 -> 30         0.34367

 Excited State  87:      Singlet-A     21.7911 eV   56.90 nm  f=0.0101  <S**2>=0.000
       6 -> 23         0.49133
       7 -> 23        -0.27767

 The electronic state is 1-A.
 Alpha  occ. eigenvalues --  -24.81283 -10.37690  -1.28906  -0.79181  -0.58954
 Alpha  occ. eigenvalues --   -0.57934  -0.57934  -0.43664  -0.43664
 Alpha virt. eigenvalues --    0.09170   0.14012   0.17223   0.17223   0.21147
 Alpha virt. eigenvalues --    0.22477   0.22477   0.24607   0.24607   0.33462
 Alpha virt. eigenvalues --    0.35235   0.38105   0.38105   0.39194   0.42344

 Mulliken charges:
               1
     1  C    0.577559
     2  F   -0.489182
     3  H   -0.029471
     4  H   -0.029451
     5  H   -0.029456
 Sum of Mulliken charges =  -0.00000

 Dipole moment (field-independent basis, Debye):
    X=             -1.8204    Y=             -0.0000    Z=             -0.0000  Tot=              1.8204
 Quadrupole moment (field-independent basis, Debye-Ang):
   XX=            -12.6185   YY=            -11.9073   ZZ=            -11.9074
   XY=              0.0000   XZ=              0.0000   YZ=              0.0000

 Normal termination of Gaussian 16 at Sat Feb 12 22:25:29 2022.
