 Gaussian 16, Revision C.01,
 Gaussian 16:  EM64L-G16RevC.01  3-Jul-2019

 ----------------------------------------------------------------------
 #P TD(Nstates=10000) wB97XD/Gen SCF(maxcycles=100) Int(Grid=ultrafine)
 ----------------------------------------------------------------------

 ---------------------
 xGDB7_00001_tier4.com
 ---------------------
 Symbolic Z-matrix:
 Charge =  0 Multiplicity = 1

                         Standard orientation:
 ---------------------------------------------------------------------
 Center     Atomic      Atomic             Coordinates (Angstroms)
 Number     Number       Type             X           Y           Z
 ---------------------------------------------------------------------
      1          6           0        0.000000    1.272934   -0.258139
      2          6           0       -0.000000   -0.000000    0.582399
      3          6           0       -0.000000   -1.272934   -0.258139
      4          1           0        0.000000    2.175267    0.371719
      5          1           0       -0.887995    1.319511   -0.908891
      6          1           0        0.887995    1.319511   -0.908891
      7          1           0       -0.879879    0.000000    1.247700
      8          1           0        0.879879   -0.000000    1.247700
      9          1           0       -0.887995   -1.319511   -0.908891
     10          1           0       -0.000000   -2.175267    0.371719
     11          1           0        0.887995   -1.319511   -0.908891
 ---------------------------------------------------------------------

 SCF Done:  E(RwB97XD) =  -119.026319001     A.U. after   12 cycles

 Excitation energies and oscillator strengths:

 Excited State   1:      Singlet-B1     9.0821 eV  136.52 nm  f=0.0026  <S**2>=0.000
      13 -> 14         0.68173
      13 -> 16         0.11776
 This state for optimization and/or second-order correction.
 Total Energy, E(TD-HF/TD-DFT) =  -118.692558849
 Copying the excited state density for this state as the 1-particle RhoCI density.

 Excited State   2:      Singlet-A1     9.5018 eV  130.48 nm  f=0.0082  <S**2>=0.000
      11 -> 15        -0.11023
      12 -> 14         0.67867
      12 -> 16         0.10008

 Excited State   3:      Singlet-B2     9.5577 eV  129.72 nm  f=0.0501  <S**2>=0.000
      11 -> 14         0.68792

 Excited State   4:      Singlet-A2     9.9846 eV  124.18 nm  f=0.0000  <S**2>=0.000
      10 -> 14        -0.33314
      13 -> 15         0.60879

 Excited State   5:      Singlet-B1    10.1707 eV  121.90 nm  f=0.1881  <S**2>=0.000
      13 -> 14        -0.10292
      13 -> 16         0.67655

 Excited State   6:      Singlet-B2    10.3200 eV  120.14 nm  f=0.0102  <S**2>=0.000
       9 -> 14        -0.27904
      12 -> 15         0.62887

 Excited State   7:      Singlet-A1    10.4509 eV  118.64 nm  f=0.1242  <S**2>=0.000
       8 -> 14         0.13605
      11 -> 15         0.49502
      12 -> 16         0.46690

 Excited State   8:      Singlet-A1    10.5360 eV  117.68 nm  f=0.0662  <S**2>=0.000
      11 -> 15        -0.44798
      12 -> 14        -0.14027
      12 -> 16         0.49502

 Excited State   9:      Singlet-B2    10.7091 eV  115.77 nm  f=0.0267  <S**2>=0.000
      11 -> 16         0.69450

 Excited State  10:      Singlet-A1    10.7969 eV  114.83 nm  f=0.2396  <S**2>=0.000
      13 -> 17         0.68354

 Excited State  11:      Singlet-A2    10.8221 eV  114.57 nm  f=0.0000  <S**2>=0.000
      10 -> 14         0.58299
      10 -> 18         0.11324
      11 -> 17        -0.13846
      13 -> 15         0.32073

 Excited State  12:      Singlet-B1    11.0331 eV  112.38 nm  f=0.0812  <S**2>=0.000
      10 -> 15         0.15182
      12 -> 17         0.49570
      13 -> 18         0.45942

 Excited State  13:      Singlet-B1    11.0774 eV  111.93 nm  f=0.0278  <S**2>=0.000
      10 -> 15        -0.16752
      12 -> 17         0.47576
      13 -> 18        -0.45712
      13 -> 20         0.11158

 Excited State  14:      Singlet-A2    11.1354 eV  111.34 nm  f=0.0000  <S**2>=0.000
      10 -> 14         0.11324
      11 -> 17         0.68125

 Excited State  15:      Singlet-A1    11.4078 eV  108.68 nm  f=0.0158  <S**2>=0.000
       9 -> 15         0.18866
      12 -> 18         0.65012
      12 -> 20        -0.14865

 Excited State  16:      Singlet-B2    11.4665 eV  108.13 nm  f=0.1092  <S**2>=0.000
       8 -> 15         0.11292
       9 -> 14         0.60470
      11 -> 18        -0.11849
      12 -> 15         0.27359

 Excited State  17:      Singlet-B2    11.4902 eV  107.90 nm  f=0.1983  <S**2>=0.000
       9 -> 14         0.14359
      11 -> 18         0.65909

 Excited State  18:      Singlet-B1    11.5846 eV  107.02 nm  f=0.0205  <S**2>=0.000
      10 -> 15         0.48304
      12 -> 19         0.14163
      13 -> 20         0.44084

 Excited State  19:      Singlet-A2    11.6816 eV  106.14 nm  f=0.0000  <S**2>=0.000
      10 -> 16         0.54528
      10 -> 24        -0.10789
      13 -> 21         0.39223

 Excited State  20:      Singlet-A1    11.7976 eV  105.09 nm  f=0.0073  <S**2>=0.000
      13 -> 19         0.67624

 Excited State  21:      Singlet-B1    11.8798 eV  104.37 nm  f=0.0454  <S**2>=0.000
      10 -> 15        -0.15837
      12 -> 19         0.65771

 Excited State  22:      Singlet-A2    11.9883 eV  103.42 nm  f=0.0000  <S**2>=0.000
      11 -> 19         0.67224

 Excited State  23:      Singlet-B1    12.0404 eV  102.97 nm  f=0.0968  <S**2>=0.000
       7 -> 14        -0.15519
      10 -> 15        -0.34831
      12 -> 19        -0.13016
      13 -> 18         0.19077
      13 -> 20         0.50602

 Excited State  24:      Singlet-A1    12.0593 eV  102.81 nm  f=0.0130  <S**2>=0.000
       8 -> 14         0.20114
       9 -> 15         0.44052
      12 -> 20         0.47500

 Excited State  25:      Singlet-B2    12.0849 eV  102.59 nm  f=0.0170  <S**2>=0.000
       9 -> 16         0.39899
      10 -> 17        -0.33665
      12 -> 21         0.38864
      13 -> 22         0.19008

 Excited State  26:      Singlet-B2    12.1517 eV  102.03 nm  f=0.1075  <S**2>=0.000
       8 -> 15        -0.12075
      11 -> 20         0.65418
      11 -> 24        -0.10156
      13 -> 23        -0.11525

 Excited State  27:      Singlet-B2    12.2933 eV  100.85 nm  f=0.3572  <S**2>=0.000
       9 -> 16         0.31343
      10 -> 17         0.46277
      10 -> 19        -0.11982
      11 -> 18        -0.10706
      11 -> 20        -0.10666
      12 -> 21         0.22247
      13 -> 22        -0.26627

 Excited State  28:      Singlet-A2    12.3215 eV  100.62 nm  f=0.0000  <S**2>=0.000
      10 -> 16        -0.30080
      10 -> 18        -0.32036
      11 -> 19        -0.15198
      12 -> 22         0.11326
      12 -> 23         0.16690
      13 -> 21         0.43681
      13 -> 25        -0.12230

 Excited State  29:      Singlet-A1    12.3528 eV  100.37 nm  f=0.0595  <S**2>=0.000
       8 -> 14         0.41890
       9 -> 15         0.24581
      12 -> 18        -0.18082
      12 -> 20        -0.40950

 Excited State  30:      Singlet-A2    12.4551 eV   99.55 nm  f=0.0000  <S**2>=0.000
       9 -> 17         0.46864
      10 -> 16        -0.20294
      12 -> 22        -0.41677
      12 -> 23        -0.10714
      13 -> 21         0.15718

 Excited State  31:      Singlet-A1    12.4886 eV   99.28 nm  f=0.0731  <S**2>=0.000
       8 -> 16        -0.22010
      11 -> 21         0.63176

 Excited State  32:      Singlet-B2    12.5654 eV   98.67 nm  f=0.0001  <S**2>=0.000
       9 -> 16        -0.14076
      10 -> 17         0.16565
      10 -> 19         0.21884
      12 -> 21         0.24537
      13 -> 23         0.56311

 Excited State  33:      Singlet-A2    12.5828 eV   98.53 nm  f=0.0000  <S**2>=0.000
       7 -> 15        -0.16489
       9 -> 17        -0.21849
      10 -> 16        -0.15821
      10 -> 18         0.43073
      10 -> 20         0.11044
      13 -> 21         0.27201
      13 -> 25         0.30684

 Excited State  34:      Singlet-B1    12.6722 eV   97.84 nm  f=0.0110  <S**2>=0.000
       7 -> 14         0.20103
       7 -> 16         0.17645
      10 -> 21        -0.25119
      11 -> 22        -0.24816
      11 -> 23        -0.22080
      13 -> 24         0.46989

 Excited State  35:      Singlet-B2    12.7097 eV   97.55 nm  f=0.0717  <S**2>=0.000
       9 -> 16        -0.38265
       9 -> 18        -0.26027
      10 -> 19        -0.12045
      12 -> 21         0.39357
      12 -> 25        -0.16597
      13 -> 23        -0.25698

 Excited State  36:      Singlet-A1    12.7227 eV   97.45 nm  f=0.0041  <S**2>=0.000
       8 -> 14         0.43955
       8 -> 18         0.14795
       9 -> 15        -0.39363
      11 -> 25        -0.11246
      12 -> 18         0.13002
      12 -> 20         0.20860

 Excited State  37:      Singlet-B1    12.7562 eV   97.20 nm  f=0.0012  <S**2>=0.000
       7 -> 14         0.14708
       7 -> 16         0.10272
       8 -> 17         0.10377
       8 -> 19        -0.10257
      10 -> 21        -0.12684
      11 -> 22         0.38735
      11 -> 23         0.43772
      13 -> 24         0.26793

 Excited State  38:      Singlet-A2    12.7968 eV   96.89 nm  f=0.0000  <S**2>=0.000
       9 -> 17         0.16469
       9 -> 19         0.19179
      10 -> 20         0.26354
      12 -> 23         0.50951
      13 -> 21        -0.11781
      13 -> 25         0.21627
      13 -> 27        -0.11125

 Excited State  39:      Singlet-B1    12.9070 eV   96.06 nm  f=0.0280  <S**2>=0.000
       8 -> 17        -0.23088
      11 -> 22        -0.43532
      11 -> 23         0.44967

 Excited State  40:      Singlet-B2    12.9129 eV   96.02 nm  f=0.0237  <S**2>=0.000
       9 -> 16         0.11015
       9 -> 18        -0.21622
      10 -> 17         0.29756
      12 -> 21        -0.12737
      12 -> 25        -0.18889
      13 -> 22         0.51722

 Excited State  41:      Singlet-B1    13.0719 eV   94.85 nm  f=0.0877  <S**2>=0.000
       7 -> 14         0.59208
       7 -> 18         0.10515
      10 -> 15        -0.18276
      11 -> 23        -0.11169
      13 -> 24        -0.25625

 Excited State  42:      Singlet-A2    13.0855 eV   94.75 nm  f=0.0000  <S**2>=0.000
      10 -> 18        -0.27010
      10 -> 20         0.48441
      12 -> 23        -0.31414
      13 -> 25         0.17178

 Excited State  43:      Singlet-B2    13.0861 eV   94.74 nm  f=0.0423  <S**2>=0.000
       8 -> 15        -0.12342
       9 -> 16        -0.17852
       9 -> 18         0.41253
      10 -> 17         0.14164
      12 -> 21         0.18444
      12 -> 25         0.31236
      13 -> 22         0.30800

 Excited State  44:      Singlet-A1    13.1236 eV   94.47 nm  f=0.0080  <S**2>=0.000
       8 -> 14        -0.14893
       8 -> 16         0.22249
       9 -> 15         0.12297
       9 -> 21        -0.18352
      11 -> 21         0.11488
      11 -> 25        -0.33611
      12 -> 24         0.46979

 Excited State  45:      Singlet-A2    13.3580 eV   92.82 nm  f=0.0000  <S**2>=0.000
       9 -> 17         0.40950
      12 -> 22         0.52423
      12 -> 23        -0.12542
      13 -> 25         0.11237

 Excited State  46:      Singlet-B2    13.3732 eV   92.71 nm  f=0.1564  <S**2>=0.000
       8 -> 15         0.19208
       9 -> 20        -0.14816
      10 -> 19         0.50203
      11 -> 24        -0.28889
      11 -> 28         0.10766
      13 -> 23        -0.21214

 Excited State  47:      Singlet-B2    13.3939 eV   92.57 nm  f=0.0008  <S**2>=0.000
       8 -> 15         0.17643
       9 -> 20         0.17997
      10 -> 19         0.24006
      11 -> 24         0.49861
      12 -> 25         0.21523
      12 -> 27        -0.14303
      13 -> 23        -0.13856

 Excited State  48:      Singlet-A1    13.4407 eV   92.25 nm  f=0.0006  <S**2>=0.000
       7 -> 17        -0.17902
       8 -> 16        -0.22454
      10 -> 22        -0.24910
      11 -> 25         0.36702
      12 -> 24         0.34835
      13 -> 26         0.22910

 Excited State  49:      Singlet-A2    13.4791 eV   91.98 nm  f=0.0000  <S**2>=0.000
       9 -> 19        -0.14533
      10 -> 18        -0.22773
      10 -> 20        -0.29934
      10 -> 24         0.13971
      13 -> 15         0.10971
      13 -> 25         0.46260
      13 -> 27        -0.18200
      13 -> 30         0.16164

 Excited State  50:      Singlet-B2    13.5126 eV   91.75 nm  f=0.0000  <S**2>=0.000
       9 -> 18        -0.25539
       9 -> 20         0.36637
      11 -> 24        -0.32230
      12 -> 25         0.31837
      12 -> 27        -0.23106

 Excited State  51:      Singlet-B2    13.6532 eV   90.81 nm  f=0.0010  <S**2>=0.000
       8 -> 15         0.54586
       9 -> 14        -0.11085
       9 -> 20         0.10640
      10 -> 19        -0.23490
      11 -> 24        -0.12038
      12 -> 25         0.13825
      12 -> 27         0.16146

 Excited State  52:      Singlet-A1    13.6643 eV   90.74 nm  f=0.0000  <S**2>=0.000
       7 -> 17        -0.10109
       8 -> 16         0.49063
       8 -> 18        -0.12672
       9 -> 21        -0.11729
      10 -> 22        -0.18724
      11 -> 21         0.19937
      11 -> 25         0.14913
      12 -> 24        -0.21403
      13 -> 26         0.22011

 Excited State  53:      Singlet-B1    13.7539 eV   90.14 nm  f=0.0005  <S**2>=0.000
       7 -> 16        -0.22223
       9 -> 23        -0.11281
      10 -> 21         0.38142
      12 -> 26        -0.17282
      12 -> 29        -0.17535
      13 -> 24         0.23410
      13 -> 28         0.35704

 Excited State  54:      Singlet-A2    13.7798 eV   89.98 nm  f=0.0000  <S**2>=0.000
       9 -> 19        -0.13275
      10 -> 18        -0.12547
      10 -> 24        -0.12053
      12 -> 23         0.13274
      13 -> 25         0.19013
      13 -> 27         0.58819
      13 -> 30        -0.10962

 Excited State  55:      Singlet-B1    13.7903 eV   89.91 nm  f=0.0777  <S**2>=0.000
       7 -> 16        -0.15602
       7 -> 18         0.19411
       9 -> 23         0.18112
      10 -> 21         0.32364
      12 -> 26         0.26608
      12 -> 29         0.17947
      13 -> 24         0.23243
      13 -> 28        -0.28835

 Excited State  56:      Singlet-A2    13.8070 eV   89.80 nm  f=0.0000  <S**2>=0.000
       8 -> 23        -0.11832
       9 -> 19         0.57967
      10 -> 20        -0.10625
      11 -> 26         0.15436
      12 -> 23        -0.20476
      13 -> 25         0.16107
      13 -> 27         0.10625

 Excited State  57:      Singlet-A1    13.9554 eV   88.84 nm  f=0.0226  <S**2>=0.000
       8 -> 14         0.10390
       8 -> 18        -0.26834
       8 -> 20         0.16417
      11 -> 25        -0.12100
      11 -> 27         0.47682
      12 -> 28         0.23655
      13 -> 29        -0.22224

 Excited State  58:      Singlet-B1    13.9924 eV   88.61 nm  f=0.0132  <S**2>=0.000
       8 -> 17         0.42250
       9 -> 22         0.32095
      11 -> 22        -0.20291
      12 -> 26        -0.25285
      12 -> 29         0.22195
      13 -> 28        -0.14903

 Excited State  59:      Singlet-A1    14.0518 eV   88.23 nm  f=0.2586  <S**2>=0.000
       8 -> 16        -0.20893
       8 -> 20         0.13505
       9 -> 21        -0.16138
      10 -> 23         0.23510
      11 -> 25        -0.17000
      12 -> 24        -0.11929
      12 -> 28        -0.19910
      13 -> 26         0.38010
      13 -> 29         0.27856

 Excited State  60:      Singlet-A2    14.1287 eV   87.75 nm  f=0.0000  <S**2>=0.000
       7 -> 15         0.58014
      10 -> 18         0.10454
      11 -> 26        -0.27203
      13 -> 27        -0.12024

 Excited State  61:      Singlet-A2    14.1689 eV   87.50 nm  f=0.0000  <S**2>=0.000
       7 -> 15         0.26357
       9 -> 19        -0.19230
      11 -> 26         0.52441
      11 -> 29         0.24981

 Excited State  62:      Singlet-B2    14.1776 eV   87.45 nm  f=0.0027  <S**2>=0.000
       9 -> 18        -0.30877
       9 -> 20        -0.32167
      11 -> 28        -0.17200
      12 -> 25         0.35711
      12 -> 27         0.32700

 Excited State  63:      Singlet-B1    14.2081 eV   87.26 nm  f=0.0098  <S**2>=0.000
       7 -> 16         0.57859
       9 -> 22        -0.10758
      10 -> 21         0.28228
      10 -> 25        -0.16727

 Excited State  64:      Singlet-A1    14.2179 eV   87.20 nm  f=0.0625  <S**2>=0.000
       8 -> 16         0.15093
       8 -> 20         0.11566
       9 -> 21         0.18066
      10 -> 22         0.23582
      10 -> 23         0.20448
      11 -> 25         0.21916
      12 -> 24         0.13689
      12 -> 28         0.35233
      13 -> 29         0.31747

 Excited State  65:      Singlet-B2    14.2194 eV   87.19 nm  f=0.0905  <S**2>=0.000
       8 -> 15        -0.19121
       9 -> 20         0.26521
       9 -> 24        -0.15351
      11 -> 28         0.31996
      12 -> 27         0.43344
      12 -> 30        -0.14341

 Excited State  66:      Singlet-B1    14.2983 eV   86.71 nm  f=0.0185  <S**2>=0.000
       8 -> 17         0.45043
       9 -> 22        -0.15105
      10 -> 21        -0.11236
      11 -> 22        -0.14085
      12 -> 26         0.42405
      12 -> 29        -0.15035
      13 -> 28         0.12104

 Excited State  67:      Singlet-A1    14.3351 eV   86.49 nm  f=0.0090  <S**2>=0.000
       7 -> 17         0.23810
      10 -> 22        -0.13435
      10 -> 23        -0.21914
      11 -> 25        -0.13418
      11 -> 27        -0.18269
      12 -> 28         0.39942
      13 -> 26         0.35376

 Excited State  68:      Singlet-A1    14.3967 eV   86.12 nm  f=0.0068  <S**2>=0.000
      10 -> 22         0.11123
      10 -> 23         0.43014
      11 -> 27        -0.28003
      12 -> 24        -0.11649
      12 -> 28         0.13901
      13 -> 29        -0.37287

 Excited State  69:      Singlet-A2    14.4542 eV   85.78 nm  f=0.0000  <S**2>=0.000
       8 -> 22        -0.15384
      10 -> 24         0.16921
      11 -> 26        -0.25239
      11 -> 29         0.59946

 Excited State  70:      Singlet-A1    14.4846 eV   85.60 nm  f=0.0097  <S**2>=0.000
       7 -> 17         0.23560
       8 -> 18         0.15914
       9 -> 21         0.35531
      10 -> 22         0.17107
      11 -> 27         0.15176
      12 -> 24         0.12175
      12 -> 28        -0.22873
      13 -> 26         0.26271
      13 -> 29        -0.25630

 Excited State  71:      Singlet-B1    14.5092 eV   85.45 nm  f=0.0614  <S**2>=0.000
       7 -> 14        -0.11480
       7 -> 18         0.25743
       8 -> 17        -0.11528
       9 -> 22         0.12725
       9 -> 23         0.10549
      10 -> 21        -0.12892
      10 -> 25        -0.25791
      12 -> 26         0.10501
      12 -> 29         0.29424
      13 -> 28         0.40016

 Excited State  72:      Singlet-A2    14.5869 eV   85.00 nm  f=0.0000  <S**2>=0.000
       7 -> 21         0.14621
      10 -> 20         0.14805
      10 -> 24         0.59644
      11 -> 29        -0.15973
      13 -> 27         0.16746

 Excited State  73:      Singlet-B1    14.6496 eV   84.63 nm  f=0.0147  <S**2>=0.000
       7 -> 18        -0.10158
       8 -> 19         0.28064
       9 -> 22        -0.15219
       9 -> 23        -0.36769
      10 -> 25         0.16986
      12 -> 26         0.10310
      12 -> 29         0.41365

 Excited State  74:      Singlet-A1    14.7398 eV   84.12 nm  f=0.0241  <S**2>=0.000
       7 -> 17        -0.20418
       8 -> 18         0.24656
       8 -> 20        -0.10393
       9 -> 21        -0.30433
      10 -> 22         0.38595
      10 -> 23        -0.21837
      11 -> 25         0.12562
      13 -> 26         0.15155

 Excited State  75:      Singlet-B2    14.7644 eV   83.98 nm  f=0.2621  <S**2>=0.000
       9 -> 20        -0.23026
       9 -> 24         0.11578
      10 -> 19        -0.12026
      11 -> 28         0.54955
      12 -> 25         0.14466
      12 -> 27        -0.19559

 Excited State  76:      Singlet-A1    14.8145 eV   83.69 nm  f=0.0017  <S**2>=0.000
       7 -> 17         0.18651
       8 -> 18         0.41549
       9 -> 21        -0.16080
       9 -> 25        -0.21402
      10 -> 22        -0.27599
      10 -> 23         0.15320
      11 -> 25         0.10270
      11 -> 27         0.22406
      13 -> 26        -0.10064

 Excited State  77:      Singlet-B1    14.9479 eV   82.94 nm  f=0.1988  <S**2>=0.000
       7 -> 16         0.11513
       7 -> 18        -0.10394
       7 -> 20        -0.19429
       9 -> 22         0.31137
       9 -> 23         0.16227
      10 -> 21         0.10235
      10 -> 25         0.44411
      10 -> 27        -0.13045
      12 -> 26         0.16604
      13 -> 28         0.15539
      13 -> 31         0.10882

 Excited State  78:      Singlet-A1    14.9805 eV   82.76 nm  f=0.0054  <S**2>=0.000
       7 -> 17         0.45029
       8 -> 18        -0.16580
       8 -> 20         0.12209
       9 -> 21        -0.30596
       9 -> 25         0.15462
      10 -> 22         0.12664
      11 -> 25         0.20573
      11 -> 27        -0.10520

 Excited State  79:      Singlet-B1    15.0214 eV   82.54 nm  f=0.0030  <S**2>=0.000
       7 -> 18        -0.16945
       7 -> 20         0.18426
       8 -> 19         0.39041
       9 -> 22         0.32687
      10 -> 25        -0.18509
      10 -> 27         0.16426
      12 -> 26         0.21126
      12 -> 29        -0.10033
      13 -> 31        -0.10691

 Excited State  80:      Singlet-B2    15.1662 eV   81.75 nm  f=0.0379  <S**2>=0.000
       8 -> 21         0.23876
       9 -> 20         0.18004
       9 -> 24         0.56893
      10 -> 26         0.12108
      12 -> 27         0.16011

 Excited State  81:      Singlet-B1    15.1812 eV   81.67 nm  f=0.3137  <S**2>=0.000
       7 -> 18         0.32850
       7 -> 20        -0.10755
       8 -> 19         0.40625
       9 -> 22        -0.12667
       9 -> 23         0.13268
      12 -> 26        -0.10680
      12 -> 29        -0.17911
      13 -> 28        -0.10491
      13 -> 31         0.28524

 Excited State  82:      Singlet-B1    15.2430 eV   81.34 nm  f=0.0796  <S**2>=0.000
       7 -> 18        -0.28705
       8 -> 19         0.17923
       9 -> 22        -0.25825
       9 -> 23         0.41243
      10 -> 27        -0.16718
      12 -> 26        -0.15145
      12 -> 29         0.16653

 The electronic state is 1-A1.
 Alpha  occ. eigenvalues --  -10.29335 -10.28621 -10.28619  -0.87281  -0.76895
 Alpha  occ. eigenvalues --   -0.66985  -0.54358  -0.52312  -0.48266  -0.46224
 Alpha  occ. eigenvalues --   -0.42036  -0.41747  -0.40555
 Alpha virt. eigenvalues --    0.09233   0.11900   0.12750   0.15659   0.17134
 Alpha virt. eigenvalues --    0.18996   0.19874   0.20298   0.21855   0.22899
 Alpha virt. eigenvalues --    0.23602   0.24679   0.26676   0.27354   0.28002

 Mulliken charges:
               1
     1  C    0.279995
     2  C   -0.572843
     3  C    0.279995
     4  H    0.003851
     5  H    0.019492
     6  H    0.019492
     7  H   -0.036408
     8  H   -0.036408
     9  H    0.019492
    10  H    0.003851
    11  H    0.019492
 Sum of Mulliken charges =  -0.00000

 Dipole moment (field-independent basis, Debye):
    X=              0.0000    Y=             -0.0000    Z=              0.0842  Tot=              0.0842
 Quadrupole moment (field-independent basis, Debye-Ang):
   XX=            -21.4409   YY=            -22.2057   ZZ=            -21.9030
   XY=             -0.0000   XZ=              0.0000   YZ=              0.0000

 Normal termination of Gaussian 16 at Sat Feb 12 22:24:25 2022.
