 Gaussian 16, Revision C.01,
 Gaussian 16:  EM64L-G16RevC.01  3-Jul-2019

 ----------------------------------------------------------------------
 #P TD(Nstates=10000) wB97XD/Gen SCF(maxcycles=100) Int(Grid=ultrafine)
 ----------------------------------------------------------------------

 ---------------------
 xGDB7_00001_tier4.com
 ---------------------
 Symbolic Z-matrix:
 Charge =  0 Multiplicity = 1

                         Standard orientation:
 ---------------------------------------------------------------------
 Center     Atomic      Atomic             Coordinates (Angstroms)
 Number     Number       Type             X           Y           Z
 ---------------------------------------------------------------------
      1          6           0       -0.000062    0.008656   -1.242373
      2          6           0        0.000027   -0.001520    0.217155
      3          6           0        0.000068   -0.009931    1.425637
      4          1           0        0.500133   -0.886687   -1.640248
      5          1           0        0.527554    0.893630   -1.627834
      6          1           0       -1.027977    0.027218   -1.633762
      7          1           0        0.000092   -0.017394    2.499329
 ---------------------------------------------------------------------

 SCF Done:  E(RwB97XD) =  -116.529284257     A.U. after   14 cycles

 Excitation energies and oscillator strengths:

 Excited State   1:      Singlet-A      6.6558 eV  186.28 nm  f=0.0000  <S**2>=0.000
      10 -> 13        -0.49013
      11 -> 14         0.49017
 This state for optimization and/or second-order correction.
 Total Energy, E(TD-HF/TD-DFT) =  -116.284688139
 Copying the excited state density for this state as the 1-particle RhoCI density.

 Excited State   2:      Singlet-A      6.9087 eV  179.46 nm  f=0.0006  <S**2>=0.000
      10 -> 14        -0.48866
      11 -> 13         0.48866

 Excited State   3:      Singlet-A      6.9087 eV  179.46 nm  f=0.0006  <S**2>=0.000
      10 -> 13         0.48868
      11 -> 14         0.48864

 Excited State   4:      Singlet-A      7.6161 eV  162.79 nm  f=0.0316  <S**2>=0.000
      11 -> 12         0.67666
      11 -> 15         0.11317
      11 -> 16         0.14612

 Excited State   5:      Singlet-A      7.6162 eV  162.79 nm  f=0.0316  <S**2>=0.000
      10 -> 12         0.67666
      10 -> 15         0.11317
      10 -> 16         0.14610

 Excited State   6:      Singlet-A      8.7131 eV  142.30 nm  f=0.0196  <S**2>=0.000
      11 -> 15         0.66337
      11 -> 16        -0.21517

 Excited State   7:      Singlet-A      8.7131 eV  142.30 nm  f=0.0196  <S**2>=0.000
      10 -> 15         0.66337
      10 -> 16        -0.21517

 Excited State   8:      Singlet-A      9.3776 eV  132.21 nm  f=0.0759  <S**2>=0.000
      11 -> 12        -0.16509
      11 -> 15         0.19437
      11 -> 16         0.63630
      11 -> 21        -0.13288

 Excited State   9:      Singlet-A      9.3776 eV  132.21 nm  f=0.0759  <S**2>=0.000
      10 -> 12        -0.16507
      10 -> 15         0.19438
      10 -> 16         0.63630
      10 -> 21        -0.13289

 Excited State  10:      Singlet-A      9.7119 eV  127.66 nm  f=1.0060  <S**2>=0.000
      10 -> 14         0.45374
      10 -> 17        -0.16402
      11 -> 13         0.45374
      11 -> 18        -0.16405

 Excited State  11:      Singlet-A     10.5552 eV  117.46 nm  f=0.0000  <S**2>=0.000
      10 -> 18         0.44585
      10 -> 19        -0.18736
      11 -> 17        -0.44561
      11 -> 20         0.18729

 Excited State  12:      Singlet-A     10.5854 eV  117.13 nm  f=0.0043  <S**2>=0.000
      10 -> 17        -0.47566
      11 -> 18         0.47570

 Excited State  13:      Singlet-A     10.5854 eV  117.13 nm  f=0.0043  <S**2>=0.000
      10 -> 18         0.47557
      11 -> 17         0.47580

 Excited State  14:      Singlet-A     10.9308 eV  113.43 nm  f=0.3059  <S**2>=0.000
      10 -> 14         0.14709
      10 -> 17         0.40600
      10 -> 20        -0.21131
      11 -> 13         0.14710
      11 -> 18         0.40592
      11 -> 19        -0.21135

 Excited State  15:      Singlet-A     11.1418 eV  111.28 nm  f=0.0000  <S**2>=0.000
      10 -> 18        -0.18528
      10 -> 19        -0.43585
      11 -> 17         0.18534
      11 -> 20         0.43602

 Excited State  16:      Singlet-A     11.1592 eV  111.10 nm  f=0.0021  <S**2>=0.000
      10 -> 20        -0.37247
      11 -> 19         0.37265
      11 -> 21         0.40127

 Excited State  17:      Singlet-A     11.1593 eV  111.10 nm  f=0.0021  <S**2>=0.000
      10 -> 19        -0.37267
      10 -> 21         0.40128
      11 -> 20        -0.37244

 Excited State  18:      Singlet-A     11.2572 eV  110.14 nm  f=0.0138  <S**2>=0.000
      10 -> 19        -0.17151
      10 -> 20         0.21625
      10 -> 21        -0.30871
      11 -> 19        -0.21746
      11 -> 20        -0.17187
      11 -> 21         0.44598

 Excited State  19:      Singlet-A     11.2572 eV  110.14 nm  f=0.0138  <S**2>=0.000
      10 -> 19         0.21713
      10 -> 20         0.17026
      10 -> 21         0.44597
      11 -> 19        -0.17313
      11 -> 20         0.21662
      11 -> 21         0.30870

 Excited State  20:      Singlet-A     11.2632 eV  110.08 nm  f=0.0034  <S**2>=0.000
      10 -> 17         0.21968
      10 -> 20         0.42457
      11 -> 18         0.21947
      11 -> 19         0.42244

 Excited State  21:      Singlet-A     11.8727 eV  104.43 nm  f=0.1297  <S**2>=0.000
       9 -> 12         0.65663
       9 -> 15        -0.18764

 Excited State  22:      Singlet-A     11.8728 eV  104.43 nm  f=0.1297  <S**2>=0.000
       8 -> 12         0.65663
       8 -> 15        -0.18764

 Excited State  23:      Singlet-A     12.0843 eV  102.60 nm  f=0.0311  <S**2>=0.000
       8 -> 14         0.14859
       9 -> 13        -0.14860
      10 -> 20         0.11965
      10 -> 22         0.44258
      11 -> 19        -0.11965
      11 -> 23        -0.44257

 Excited State  24:      Singlet-A     12.0844 eV  102.60 nm  f=0.0312  <S**2>=0.000
       8 -> 13         0.14802
       9 -> 14         0.14930
      10 -> 19         0.11956
      10 -> 23         0.44199
      11 -> 20         0.11972
      11 -> 22         0.44307

 Excited State  25:      Singlet-A     12.1062 eV  102.41 nm  f=0.0000  <S**2>=0.000
       8 -> 13         0.41160
       9 -> 14        -0.41107
      10 -> 23         0.26812
      11 -> 22        -0.26666

 Excited State  26:      Singlet-A     12.1468 eV  102.07 nm  f=0.0023  <S**2>=0.000
       7 -> 13         0.47806
       8 -> 14         0.10542
       9 -> 13        -0.10542
      11 -> 24        -0.45709

 Excited State  27:      Singlet-A     12.1468 eV  102.07 nm  f=0.0023  <S**2>=0.000
       7 -> 14         0.47800
       8 -> 13         0.10498
       9 -> 14         0.10556
      10 -> 24        -0.45712

 Excited State  28:      Singlet-A     12.2346 eV  101.34 nm  f=0.0000  <S**2>=0.000
       8 -> 13        -0.26015
       9 -> 14         0.26023
      10 -> 23         0.40263
      11 -> 22        -0.40241

 Excited State  29:      Singlet-A     12.3399 eV  100.47 nm  f=0.0050  <S**2>=0.000
       8 -> 13        -0.15596
       8 -> 14        -0.38000
       9 -> 13         0.38004
       9 -> 14        -0.15594
      10 -> 22         0.11181
      10 -> 24        -0.11243
      11 -> 23        -0.11168
      11 -> 24        -0.28678

 Excited State  30:      Singlet-A     12.3399 eV  100.47 nm  f=0.0050  <S**2>=0.000
       8 -> 13         0.38010
       8 -> 14        -0.15595
       9 -> 13         0.15594
       9 -> 14         0.37998
      10 -> 23        -0.11182
      10 -> 24         0.28672
      11 -> 22        -0.11173
      11 -> 24        -0.11247

 Excited State  31:      Singlet-A     12.5876 eV   98.50 nm  f=0.0077  <S**2>=0.000
       7 -> 12         0.61764
       7 -> 15        -0.10952
      10 -> 22        -0.18341
      11 -> 23        -0.18352

 Excited State  32:      Singlet-A     12.6061 eV   98.35 nm  f=0.0137  <S**2>=0.000
       7 -> 14         0.47198
       8 -> 13        -0.19341
       9 -> 14        -0.19337
      10 -> 24         0.40440

 Excited State  33:      Singlet-A     12.6061 eV   98.35 nm  f=0.0137  <S**2>=0.000
       7 -> 13         0.47199
       8 -> 14        -0.19348
       9 -> 13         0.19332
      11 -> 24         0.40438

 Excited State  34:      Singlet-A     12.9156 eV   96.00 nm  f=0.0737  <S**2>=0.000
       6 -> 15         0.10981
       7 -> 12        -0.24028
       8 -> 14         0.34010
       9 -> 13         0.34006
      10 -> 22        -0.26256
      11 -> 23        -0.26256

 Excited State  35:      Singlet-A     13.0304 eV   95.15 nm  f=0.1980  <S**2>=0.000
       6 -> 15        -0.10528
       7 -> 12         0.17951
       7 -> 15         0.11303
       7 -> 21         0.10740
       8 -> 14         0.31709
       9 -> 13         0.31706
      10 -> 22         0.30753
      11 -> 23         0.30754

 Excited State  36:      Singlet-A     13.5061 eV   91.80 nm  f=0.0000  <S**2>=0.000
       9 -> 12         0.11983
       9 -> 15         0.45334
       9 -> 16         0.49672
       9 -> 21         0.11670

 Excited State  37:      Singlet-A     13.5061 eV   91.80 nm  f=0.0000  <S**2>=0.000
       8 -> 12         0.11983
       8 -> 15         0.45334
       8 -> 16         0.49672
       8 -> 21         0.11670

 Excited State  38:      Singlet-A     13.5560 eV   91.46 nm  f=0.0000  <S**2>=0.000
       8 -> 19        -0.10177
       9 -> 20         0.10177
      10 -> 25         0.47384
      11 -> 26        -0.47376

 Excited State  39:      Singlet-A     13.6396 eV   90.90 nm  f=0.0319  <S**2>=0.000
      10 -> 26         0.45156
      10 -> 29         0.12024
      11 -> 25         0.45171
      11 -> 28         0.12025

 Excited State  40:      Singlet-A     13.9203 eV   89.07 nm  f=0.1342  <S**2>=0.000
       6 -> 13        -0.34487
      10 -> 26         0.40486
      11 -> 25        -0.40473

 Excited State  41:      Singlet-A     13.9203 eV   89.07 nm  f=0.1342  <S**2>=0.000
       6 -> 14        -0.34488
      10 -> 25         0.40475
      11 -> 26         0.40484

 Excited State  42:      Singlet-A     14.0182 eV   88.45 nm  f=0.0130  <S**2>=0.000
       6 -> 12        -0.21672
       7 -> 15         0.58512
       7 -> 16         0.20312
       8 -> 17        -0.10235
       9 -> 18        -0.10238

 Excited State  43:      Singlet-A     14.3515 eV   86.39 nm  f=0.0581  <S**2>=0.000
       8 -> 17        -0.34698
       8 -> 18         0.27335
       9 -> 17         0.27349
       9 -> 18         0.34702
      10 -> 29         0.12393
      11 -> 28        -0.12394

 Excited State  44:      Singlet-A     14.3516 eV   86.39 nm  f=0.0581  <S**2>=0.000
       8 -> 17         0.27341
       8 -> 18         0.34697
       9 -> 17         0.34710
       9 -> 18        -0.27341
      10 -> 28        -0.12394
      11 -> 29        -0.12396

 Excited State  45:      Singlet-A     14.4104 eV   86.04 nm  f=0.0000  <S**2>=0.000
       9 -> 12         0.14280
       9 -> 15         0.46108
       9 -> 16        -0.39343
       9 -> 21        -0.17334
       9 -> 24         0.12442
      11 -> 27        -0.12265

 Excited State  46:      Singlet-A     14.4104 eV   86.04 nm  f=0.0000  <S**2>=0.000
       8 -> 12         0.14282
       8 -> 15         0.46112
       8 -> 16        -0.39347
       8 -> 21        -0.17338
       8 -> 24         0.12445
      10 -> 27        -0.12264

 Excited State  47:      Singlet-A     14.4617 eV   85.73 nm  f=0.0000  <S**2>=0.000
       8 -> 18         0.47590
       9 -> 17        -0.47577

 Excited State  48:      Singlet-A     14.4832 eV   85.61 nm  f=0.3103  <S**2>=0.000
       6 -> 15         0.20634
       7 -> 15        -0.11770
       7 -> 16         0.61137
      10 -> 29         0.10470
      11 -> 28         0.10473

 Excited State  49:      Singlet-A     14.4966 eV   85.53 nm  f=0.0159  <S**2>=0.000
       6 -> 13         0.21039
      10 -> 27         0.13218
      11 -> 27         0.59389
      11 -> 30         0.13526

 Excited State  50:      Singlet-A     14.4966 eV   85.53 nm  f=0.0159  <S**2>=0.000
       6 -> 14         0.21039
      10 -> 27         0.59386
      10 -> 30         0.13526
      11 -> 27        -0.13217

 Excited State  51:      Singlet-A     14.6212 eV   84.80 nm  f=0.0029  <S**2>=0.000
       6 -> 13        -0.11977
       8 -> 17         0.16430
       9 -> 18        -0.16430
      10 -> 29         0.42832
      11 -> 28        -0.42831

 Excited State  52:      Singlet-A     14.6213 eV   84.80 nm  f=0.0029  <S**2>=0.000
       6 -> 14        -0.11966
       8 -> 18         0.16425
       9 -> 17         0.16426
      10 -> 28         0.42825
      11 -> 29         0.42843

 Excited State  53:      Singlet-A     14.6864 eV   84.42 nm  f=0.0000  <S**2>=0.000
       8 -> 19        -0.18931
       9 -> 20         0.18934
      10 -> 25        -0.10018
      10 -> 28         0.43689
      11 -> 26         0.10022
      11 -> 29        -0.43667

 Excited State  54:      Singlet-A     14.8671 eV   83.39 nm  f=0.0000  <S**2>=0.000
       8 -> 18         0.10515
       8 -> 19         0.43532
       9 -> 17        -0.10511
       9 -> 20        -0.43530
      10 -> 28         0.18843
      11 -> 29        -0.18838

 Excited State  55:      Singlet-A     14.8952 eV   83.24 nm  f=0.0092  <S**2>=0.000
       7 -> 15         0.11302
       8 -> 17         0.33044
       8 -> 20        -0.32539
       9 -> 18         0.33046
       9 -> 19        -0.32576

 Excited State  56:      Singlet-A     14.9102 eV   83.15 nm  f=0.1943  <S**2>=0.000
       6 -> 13         0.10249
       6 -> 14        -0.30244
       7 -> 17         0.38825
       7 -> 18        -0.12596
       8 -> 19        -0.14278
       9 -> 20        -0.14287
      10 -> 25        -0.15663
      10 -> 27         0.22003
      10 -> 28        -0.11533
      11 -> 26        -0.15664
      11 -> 29        -0.11548

 Excited State  57:      Singlet-A     14.9102 eV   83.15 nm  f=0.1943  <S**2>=0.000
       6 -> 13        -0.30239
       6 -> 14        -0.10250
       7 -> 17         0.12595
       7 -> 18         0.38826
       8 -> 20        -0.14316
       9 -> 19         0.14245
      10 -> 26        -0.15669
      10 -> 29        -0.11551
      11 -> 25         0.15655
      11 -> 27         0.22005
      11 -> 28         0.11541

 Excited State  58:      Singlet-A     15.1456 eV   81.86 nm  f=0.0244  <S**2>=0.000
       6 -> 12         0.58948
       6 -> 15         0.12892
       6 -> 16         0.17069
       7 -> 15         0.23839

 Excited State  59:      Singlet-A     15.1643 eV   81.76 nm  f=0.0172  <S**2>=0.000
       6 -> 14         0.20319
       6 -> 17         0.12166
       7 -> 17         0.46689
       7 -> 18        -0.12229
       8 -> 19         0.27816
       9 -> 20         0.27811

 Excited State  60:      Singlet-A     15.1643 eV   81.76 nm  f=0.0172  <S**2>=0.000
       6 -> 13         0.20319
       6 -> 18         0.12166
       7 -> 17         0.12230
       7 -> 18         0.46687
       8 -> 20         0.27820
       9 -> 19        -0.27811

 Excited State  61:      Singlet-A     15.2578 eV   81.26 nm  f=0.0479  <S**2>=0.000
       7 -> 16        -0.10306
       8 -> 17         0.19464
       8 -> 20         0.17991
       9 -> 18         0.19461
       9 -> 19         0.17981
      10 -> 29         0.35062
      10 -> 31         0.14471
      11 -> 28         0.35059
      11 -> 32         0.14462

 Excited State  62:      Singlet-A     15.4663 eV   80.16 nm  f=0.0151  <S**2>=0.000
       6 -> 12         0.15635
       7 -> 15         0.13425
       7 -> 21        -0.11249
       8 -> 17         0.24184
       8 -> 20         0.29019
       9 -> 18         0.24178
       9 -> 19         0.29031
      10 -> 29        -0.19918
      10 -> 31        -0.12554
      11 -> 28        -0.19918
      11 -> 32        -0.12551

 Excited State  63:      Singlet-A     15.5529 eV   79.72 nm  f=0.3558  <S**2>=0.000
       6 -> 13         0.29400
       7 -> 18         0.17805
       7 -> 19        -0.13387
       8 -> 20        -0.26981
       9 -> 16         0.15869
       9 -> 19         0.26964
       9 -> 21        -0.25875
       9 -> 24         0.14852
      11 -> 30         0.16739

 Excited State  64:      Singlet-A     15.5530 eV   79.72 nm  f=0.3559  <S**2>=0.000
       6 -> 14         0.29400
       7 -> 17         0.17803
       7 -> 20        -0.13387
       8 -> 16         0.15869
       8 -> 19        -0.26974
       8 -> 21        -0.25873
       8 -> 24         0.14851
       9 -> 20        -0.26974
      10 -> 30         0.16738

 Excited State  65:      Singlet-A     15.7816 eV   78.56 nm  f=0.1031  <S**2>=0.000
       7 -> 19        -0.26963
       9 -> 16        -0.14992
       9 -> 21         0.42723
       9 -> 24        -0.21133
      10 -> 31        -0.15888
      11 -> 27        -0.12238
      11 -> 30         0.21568
      11 -> 32         0.15887

 Excited State  66:      Singlet-A     15.7816 eV   78.56 nm  f=0.1031  <S**2>=0.000
       7 -> 20        -0.26954
       8 -> 16        -0.14994
       8 -> 21         0.42724
       8 -> 24        -0.21137
      10 -> 27        -0.12239
      10 -> 30         0.21574
      10 -> 32        -0.15885
      11 -> 31        -0.15892

 Excited State  67:      Singlet-A     15.8745 eV   78.10 nm  f=0.0015  <S**2>=0.000
       6 -> 19         0.10184
       7 -> 18         0.10917
       7 -> 19         0.59297
      10 -> 31        -0.16277
      11 -> 30         0.13282
      11 -> 32         0.16270

 Excited State  68:      Singlet-A     15.8745 eV   78.10 nm  f=0.0015  <S**2>=0.000
       6 -> 20         0.10185
       7 -> 17         0.10917
       7 -> 20         0.59301
      10 -> 30         0.13282
      10 -> 32        -0.16266
      11 -> 31        -0.16277

 Excited State  69:      Singlet-A     15.9626 eV   77.67 nm  f=0.0010  <S**2>=0.000
       6 -> 12        -0.12206
       6 -> 15         0.47386
       6 -> 16        -0.25478
       7 -> 12         0.10176
       7 -> 15         0.11816
       7 -> 16        -0.17669
      10 -> 31        -0.21961
      11 -> 32        -0.21925

 Excited State  70:      Singlet-A     16.0096 eV   77.44 nm  f=0.2131  <S**2>=0.000
       6 -> 14        -0.12388
      10 -> 30         0.52958
      10 -> 32         0.26610
      11 -> 31         0.26670

 Excited State  71:      Singlet-A     16.0097 eV   77.44 nm  f=0.2132  <S**2>=0.000
       6 -> 13        -0.12390
      10 -> 31         0.26632
      11 -> 30         0.52962
      11 -> 32        -0.26640

 Excited State  72:      Singlet-A     16.0938 eV   77.04 nm  f=0.0000  <S**2>=0.000
      10 -> 32        -0.48575
      11 -> 31         0.48719

 Excited State  73:      Singlet-A     16.1084 eV   76.97 nm  f=0.2435  <S**2>=0.000
       7 -> 19        -0.11535
       8 -> 20         0.13057
       9 -> 19        -0.13054
       9 -> 21        -0.26358
      10 -> 30        -0.12154
      10 -> 31        -0.31230
      11 -> 30         0.23796
      11 -> 32         0.31233

 Excited State  74:      Singlet-A     16.1084 eV   76.97 nm  f=0.2435  <S**2>=0.000
       7 -> 20         0.11536
       8 -> 19        -0.13058
       8 -> 21         0.26357
       9 -> 20        -0.13058
      10 -> 30        -0.23799
      10 -> 32         0.31363
      11 -> 30        -0.12154
      11 -> 31         0.31096

 Excited State  75:      Singlet-A     16.4226 eV   75.50 nm  f=0.0110  <S**2>=0.000
       6 -> 16         0.30997
       7 -> 21         0.45561
      10 -> 31        -0.26772
      11 -> 32        -0.26784

 Excited State  76:      Singlet-A     16.4366 eV   75.43 nm  f=0.0068  <S**2>=0.000
       6 -> 13        -0.10940
       9 -> 24         0.11694
      11 -> 34         0.44086
      11 -> 35        -0.41151
      11 -> 36        -0.26252

 Excited State  77:      Singlet-A     16.4367 eV   75.43 nm  f=0.0068  <S**2>=0.000
       6 -> 14        -0.10940
       8 -> 24         0.11695
      10 -> 34         0.44083
      10 -> 35        -0.41151
      10 -> 36        -0.26256

 Excited State  78:      Singlet-A     16.6868 eV   74.30 nm  f=0.0288  <S**2>=0.000
       6 -> 15         0.34272
       7 -> 21         0.25653
       8 -> 22         0.16986
       9 -> 23         0.16989
      10 -> 29        -0.12369
      10 -> 31         0.25056
      11 -> 28        -0.12369
      11 -> 32         0.25063

 Excited State  79:      Singlet-A     16.8805 eV   73.45 nm  f=0.0017  <S**2>=0.000
       8 -> 24        -0.10521
       9 -> 21         0.24577
       9 -> 24         0.55735
       9 -> 36         0.13094
      11 -> 34        -0.20022

 Excited State  80:      Singlet-A     16.8805 eV   73.45 nm  f=0.0017  <S**2>=0.000
       8 -> 21         0.24579
       8 -> 24         0.55727
       8 -> 36         0.13094
       9 -> 24         0.10525
      10 -> 34        -0.20026

 Excited State  81:      Singlet-A     16.9766 eV   73.03 nm  f=0.0655  <S**2>=0.000
       6 -> 12        -0.13417
       6 -> 15         0.19181
       6 -> 16         0.47682
       6 -> 21        -0.17789
       7 -> 21        -0.39137

 Excited State  82:      Singlet-A     17.0586 eV   72.68 nm  f=0.0001  <S**2>=0.000
       8 -> 23        -0.10072
       9 -> 22        -0.10080
      10 -> 35        -0.12763
      11 -> 33         0.65898

 Excited State  83:      Singlet-A     17.0586 eV   72.68 nm  f=0.0001  <S**2>=0.000
       8 -> 22         0.10081
       9 -> 23        -0.10088
      10 -> 33         0.65889
      11 -> 35         0.12779

 Excited State  84:      Singlet-A     17.0946 eV   72.53 nm  f=0.1139  <S**2>=0.000
       8 -> 22        -0.12866
       9 -> 23         0.12865
      10 -> 33        -0.12358
      10 -> 34         0.11643
      10 -> 35         0.14784
      11 -> 34         0.36615
      11 -> 35         0.46505
      11 -> 36        -0.13070

 Excited State  85:      Singlet-A     17.0946 eV   72.53 nm  f=0.1138  <S**2>=0.000

 The electronic state is 1-A.
 Alpha  occ. eigenvalues --  -10.32480 -10.30643 -10.29234  -0.87389  -0.79256
 Alpha  occ. eigenvalues --   -0.61384  -0.54247  -0.51992  -0.51992  -0.35361
 Alpha  occ. eigenvalues --   -0.35361
 Alpha virt. eigenvalues --    0.08711   0.11238   0.11238   0.12052   0.14799
 Alpha virt. eigenvalues --    0.19477   0.19477   0.22120   0.22120   0.22689
 Alpha virt. eigenvalues --    0.27166   0.27166   0.28035   0.33879   0.33879

 Mulliken charges:
               1
     1  C    0.269408
     2  C    0.738290
     3  C   -0.982409
     4  H    0.011491
     5  H    0.011493
     6  H    0.011478
     7  H   -0.059752
 Sum of Mulliken charges =  -0.00000

 Dipole moment (field-independent basis, Debye):
    X=             -0.0001    Y=              0.0056    Z=             -0.8016  Tot=              0.8016
 Quadrupole moment (field-independent basis, Debye-Ang):
   XX=            -19.6032   YY=            -19.6029   ZZ=            -13.9548
   XY=              0.0000   XZ=              0.0002   YZ=             -0.0393

 Normal termination of Gaussian 16 at Sat Feb 12 21:41:48 2022.
