 Gaussian 16, Revision C.01,
 Gaussian 16:  EM64L-G16RevC.01  3-Jul-2019

 ----------------------------------------------------------------------
 #P TD(Nstates=10000) wB97XD/Gen SCF(maxcycles=100) Int(Grid=ultrafine)
 ----------------------------------------------------------------------

 ---------------------
 xGDB7_00001_tier4.com
 ---------------------
 Symbolic Z-matrix:
 Charge =  0 Multiplicity = 1

                         Standard orientation:
 ---------------------------------------------------------------------
 Center     Atomic      Atomic             Coordinates (Angstroms)
 Number     Number       Type             X           Y           Z
 ---------------------------------------------------------------------
      1          9           0       -1.144917   -0.250427    0.000000
      2          6           0        0.000000    0.427393    0.000000
      3          6           0        1.183927   -0.167335    0.000000
      4          1           0       -0.158453    1.510009    0.000000
      5          1           0        1.269581   -1.255556    0.000000
      6          1           0        2.089568    0.439043    0.000000
 ---------------------------------------------------------------------

 SCF Done:  E(RwB97XD) =  -177.646357694     A.U. after   14 cycles

 Excitation energies and oscillator strengths:

 Excited State   1:      Singlet-A"     7.6547 eV  161.97 nm  f=0.0589  <S**2>=0.000
      12 -> 14         0.69390
 This state for optimization and/or second-order correction.
 Total Energy, E(TD-HF/TD-DFT) =  -177.365053725
 Copying the excited state density for this state as the 1-particle RhoCI density.

 Excited State   2:      Singlet-A'     7.7256 eV  160.48 nm  f=0.3395  <S**2>=0.000
      12 -> 13         0.69798

 Excited State   3:      Singlet-A"     8.3522 eV  148.45 nm  f=0.0076  <S**2>=0.000
      12 -> 15         0.66302
      12 -> 17        -0.18250

 Excited State   4:      Singlet-A"     8.9279 eV  138.87 nm  f=0.0000  <S**2>=0.000
      11 -> 13         0.67729
      12 -> 16        -0.16689

 Excited State   5:      Singlet-A"     9.0975 eV  136.28 nm  f=0.0045  <S**2>=0.000
      11 -> 13         0.16520
      12 -> 15        -0.15998
      12 -> 16         0.60275
      12 -> 17        -0.22386
      12 -> 21         0.12586

 Excited State   6:      Singlet-A"     9.5784 eV  129.44 nm  f=0.0060  <S**2>=0.000
      10 -> 13         0.18667
      12 -> 15         0.14961
      12 -> 16         0.23952
      12 -> 17         0.59765

 Excited State   7:      Singlet-A"     9.9068 eV  125.15 nm  f=0.0017  <S**2>=0.000
      10 -> 13         0.67744
      12 -> 17        -0.17174

 Excited State   8:      Singlet-A"    10.4824 eV  118.28 nm  f=0.0301  <S**2>=0.000
      12 -> 18         0.66025
      12 -> 21         0.15276

 Excited State   9:      Singlet-A'    10.6847 eV  116.04 nm  f=0.0018  <S**2>=0.000
      11 -> 14        -0.34962
      11 -> 15        -0.15019
      12 -> 19         0.57415

 Excited State  10:      Singlet-A'    10.7576 eV  115.25 nm  f=0.0133  <S**2>=0.000
      11 -> 14         0.52548
      11 -> 15         0.21130
      11 -> 16         0.10138
      12 -> 19         0.38284

 Excited State  11:      Singlet-A"    10.8896 eV  113.86 nm  f=0.1044  <S**2>=0.000
       8 -> 13         0.11468
      12 -> 18        -0.14583
      12 -> 20         0.61393
      12 -> 21         0.27483

 Excited State  12:      Singlet-A'    11.4710 eV  108.08 nm  f=0.1140  <S**2>=0.000
      10 -> 14         0.45399
      10 -> 15        -0.15960
      11 -> 14        -0.21083
      11 -> 15         0.42980
      11 -> 16         0.13054

 Excited State  13:      Singlet-A"    11.6324 eV  106.59 nm  f=0.0145  <S**2>=0.000
      12 -> 16        -0.14898
      12 -> 20        -0.27817
      12 -> 21         0.59369

 Excited State  14:      Singlet-A'    11.6723 eV  106.22 nm  f=0.0423  <S**2>=0.000
      11 -> 16         0.17993
      12 -> 22         0.65684

 Excited State  15:      Singlet-A'    11.8136 eV  104.95 nm  f=0.1486  <S**2>=0.000
      10 -> 14        -0.42737
      11 -> 14        -0.15037
      11 -> 15         0.45362
      11 -> 16        -0.19671

 Excited State  16:      Singlet-A"    12.0873 eV  102.57 nm  f=0.0401  <S**2>=0.000
       8 -> 13         0.66003
      12 -> 20        -0.12763
      12 -> 23        -0.15972

 Excited State  17:      Singlet-A'    12.0994 eV  102.47 nm  f=0.1836  <S**2>=0.000
      10 -> 14        -0.17618
      10 -> 15         0.21280
      11 -> 14        -0.13353
      11 -> 16         0.55298
      11 -> 17        -0.18599
      11 -> 21         0.10526
      12 -> 22        -0.13537

 Excited State  18:      Singlet-A"    12.2612 eV  101.12 nm  f=0.0006  <S**2>=0.000
       8 -> 13         0.16712
      12 -> 23         0.66338

 Excited State  19:      Singlet-A'    12.4115 eV   99.89 nm  f=0.0403  <S**2>=0.000
       9 -> 13         0.66839
      12 -> 24         0.10355

 Excited State  20:      Singlet-A'    12.4459 eV   99.62 nm  f=0.1030  <S**2>=0.000
      10 -> 14         0.22760
      10 -> 15         0.61729
      11 -> 16        -0.13025

 Excited State  21:      Singlet-A'    12.9532 eV   95.72 nm  f=0.0814  <S**2>=0.000
       8 -> 14         0.10024
      11 -> 15         0.11897
      11 -> 16         0.20523
      11 -> 17         0.60746
      12 -> 24        -0.10059

 Excited State  22:      Singlet-A'    13.1944 eV   93.97 nm  f=0.0472  <S**2>=0.000
       8 -> 14         0.12422
      10 -> 16         0.10073
      10 -> 17         0.29867
      12 -> 24         0.57632

 Excited State  23:      Singlet-A'    13.3710 eV   92.73 nm  f=0.1574  <S**2>=0.000
      10 -> 16         0.58598
      10 -> 17        -0.24078
      10 -> 18        -0.12782
      11 -> 17         0.11220
      11 -> 18         0.16138

 Excited State  24:      Singlet-A"    13.3835 eV   92.64 nm  f=0.0194  <S**2>=0.000
       7 -> 13         0.37446
       9 -> 14         0.48899
       9 -> 15         0.23527
       9 -> 16         0.16791
      12 -> 25        -0.14394

 Excited State  25:      Singlet-A"    13.4116 eV   92.45 nm  f=0.0137  <S**2>=0.000
       7 -> 13        -0.42196
       9 -> 14         0.29445
       9 -> 15         0.13834
      11 -> 19         0.42602

 Excited State  26:      Singlet-A"    13.4672 eV   92.06 nm  f=0.0645  <S**2>=0.000
       7 -> 13         0.38340
       9 -> 14        -0.18587
      11 -> 19         0.54140

 Excited State  27:      Singlet-A"    13.5554 eV   91.47 nm  f=0.0163  <S**2>=0.000
       7 -> 13         0.15479
      12 -> 25         0.61720
      12 -> 27        -0.25170

 Excited State  28:      Singlet-A'    13.6561 eV   90.79 nm  f=0.0719  <S**2>=0.000
       8 -> 14         0.10399
      10 -> 17         0.22395
      11 -> 18         0.55802
      11 -> 20         0.24609
      12 -> 24        -0.12022

 Excited State  29:      Singlet-A'    13.6930 eV   90.55 nm  f=0.0016  <S**2>=0.000
       8 -> 14         0.10171
       8 -> 15         0.16781
      10 -> 16         0.20169
      10 -> 17         0.34492
      11 -> 18        -0.31277
      11 -> 20         0.33992
      12 -> 24        -0.21216

 Excited State  30:      Singlet-A"    13.9890 eV   88.63 nm  f=0.0075  <S**2>=0.000
       9 -> 16        -0.10696
      12 -> 25         0.25719
      12 -> 27         0.61014

 Excited State  31:      Singlet-A'    14.0887 eV   88.00 nm  f=0.0003  <S**2>=0.000
       8 -> 14         0.57728
      10 -> 17        -0.11900
      11 -> 20        -0.16845
      12 -> 26        -0.26846

 Excited State  32:      Singlet-A'    14.1314 eV   87.74 nm  f=0.1005  <S**2>=0.000
       8 -> 14         0.16219
       8 -> 15         0.10985
      10 -> 16        -0.13416
      10 -> 17        -0.33316
      10 -> 20         0.17765
      11 -> 20         0.45247
      12 -> 24         0.19030
      12 -> 26         0.13647

 Excited State  33:      Singlet-A'    14.3005 eV   86.70 nm  f=0.0137  <S**2>=0.000
       8 -> 14         0.20593
      10 -> 16         0.16738
      10 -> 18         0.23288
      11 -> 20        -0.15851
      12 -> 26         0.53746

 Excited State  34:      Singlet-A'    14.3797 eV   86.22 nm  f=0.0845  <S**2>=0.000
       8 -> 15        -0.16309
      10 -> 18        -0.13419
      10 -> 20        -0.11007
      11 -> 17         0.10589
      11 -> 21         0.57833
      12 -> 26         0.21790

 Excited State  35:      Singlet-A"    14.4812 eV   85.62 nm  f=0.0021  <S**2>=0.000
       9 -> 14        -0.28086
       9 -> 15         0.57794
       9 -> 17        -0.23713
       9 -> 18        -0.11293

 Excited State  36:      Singlet-A"    14.5680 eV   85.11 nm  f=0.0023  <S**2>=0.000
       9 -> 16        -0.11897
      10 -> 19         0.51854
      10 -> 22         0.12699
      11 -> 22        -0.41058

 Excited State  37:      Singlet-A'    14.6273 eV   84.76 nm  f=0.1681  <S**2>=0.000
       8 -> 15        -0.32855
      10 -> 17        -0.10617
      10 -> 18         0.50873
      11 -> 20         0.14497
      12 -> 26        -0.11618

 Excited State  38:      Singlet-A'    14.7243 eV   84.20 nm  f=0.0388  <S**2>=0.000
       8 -> 14        -0.11352
       8 -> 15         0.43179
       8 -> 17        -0.15920
      10 -> 18         0.23765
      10 -> 20         0.19914
      10 -> 21         0.17316
      11 -> 21         0.25830
      12 -> 26        -0.13510

 Excited State  39:      Singlet-A"    14.7470 eV   84.07 nm  f=0.0073  <S**2>=0.000
       9 -> 14        -0.15218
       9 -> 16         0.54973
       9 -> 17        -0.11489
      10 -> 19         0.25235
      11 -> 22         0.15063
      12 -> 27         0.14161

 Excited State  40:      Singlet-A"    14.8578 eV   83.45 nm  f=0.0012  <S**2>=0.000
       9 -> 16        -0.25653
      10 -> 19         0.31329
      10 -> 24         0.10164
      11 -> 22         0.52350
      11 -> 24        -0.11508

 Excited State  41:      Singlet-A'    14.9525 eV   82.92 nm  f=0.0320  <S**2>=0.000
       7 -> 14        -0.19146
       7 -> 15        -0.10449
       8 -> 15        -0.28211
       8 -> 16         0.11930
      10 -> 20         0.51550
      10 -> 21         0.13171

 Excited State  42:      Singlet-A"    15.2395 eV   81.36 nm  f=0.0304  <S**2>=0.000
       9 -> 17         0.11060
      12 -> 27        -0.11025
      12 -> 28         0.65250
      12 -> 29         0.12662

 Excited State  43:      Singlet-A'    15.2886 eV   81.10 nm  f=0.0234  <S**2>=0.000
       7 -> 14        -0.14451
       8 -> 18         0.11486
       9 -> 19         0.13011
      10 -> 20        -0.12837
      10 -> 21        -0.11163
      11 -> 23         0.62075

 Excited State  44:      Singlet-A'    15.4483 eV   80.26 nm  f=0.1262  <S**2>=0.000
       7 -> 14         0.46571
       7 -> 15         0.11548
       8 -> 16        -0.34871
       9 -> 19         0.10381
      10 -> 20         0.23123
      11 -> 23         0.13733

 Excited State  45:      Singlet-A'    15.4967 eV   80.01 nm  f=0.0760  <S**2>=0.000
       7 -> 14         0.35360
       8 -> 16         0.38839
       8 -> 17        -0.31868
      10 -> 18        -0.18279
      10 -> 21         0.13767

 Excited State  46:      Singlet-A"    15.5134 eV   79.92 nm  f=0.0602  <S**2>=0.000
       6 -> 13        -0.22531
       8 -> 19        -0.10606
      10 -> 19        -0.11316
      10 -> 22         0.61786

 Excited State  47:      Singlet-A"    15.7040 eV   78.95 nm  f=0.0219  <S**2>=0.000
       6 -> 13        -0.12062
       9 -> 15         0.20389
       9 -> 16         0.19343
       9 -> 17         0.54190
       9 -> 18         0.10388
       9 -> 20         0.15187
       9 -> 21        -0.14391
       9 -> 27         0.11811
      12 -> 28        -0.13125

 Excited State  48:      Singlet-A'    15.7146 eV   78.90 nm  f=0.0209  <S**2>=0.000
       6 -> 14        -0.10658
       7 -> 14         0.12213
       8 -> 15         0.12177
       8 -> 16         0.31599
       8 -> 17         0.51853
       9 -> 19         0.14131
      11 -> 27         0.10090
      12 -> 31         0.11487

 Excited State  49:      Singlet-A"    15.9244 eV   77.86 nm  f=0.0177  <S**2>=0.000
       6 -> 13        -0.19543
       9 -> 18         0.10562
      12 -> 29         0.55552
      12 -> 30        -0.33869

 Excited State  50:      Singlet-A'    15.9269 eV   77.85 nm  f=0.0310  <S**2>=0.000
       7 -> 16         0.22198
       9 -> 19         0.15229
      10 -> 20        -0.12033
      10 -> 21         0.48699
      12 -> 31        -0.30663

 Excited State  51:      Singlet-A'    16.0560 eV   77.22 nm  f=0.0654  <S**2>=0.000
       7 -> 14        -0.10971
       7 -> 15         0.11772
       7 -> 16        -0.12377
       9 -> 19         0.39785
      10 -> 21         0.15082
      11 -> 23        -0.12209
      12 -> 31         0.44988

 Excited State  52:      Singlet-A"    16.0663 eV   77.17 nm  f=0.0418  <S**2>=0.000
       6 -> 13         0.24704
      10 -> 22         0.13885
      11 -> 24        -0.13543
      12 -> 28        -0.15010
      12 -> 29         0.36862
      12 -> 30         0.44734

 Excited State  53:      Singlet-A"    16.1319 eV   76.86 nm  f=0.0992  <S**2>=0.000
       6 -> 13         0.44778
       9 -> 17         0.19794
       9 -> 18        -0.13390
       9 -> 20        -0.21207
      11 -> 24         0.13608
      12 -> 30        -0.30170
      12 -> 32         0.11116
      12 -> 33        -0.13287

 Excited State  54:      Singlet-A'    16.1748 eV   76.65 nm  f=0.0119  <S**2>=0.000
       7 -> 15        -0.19226
       7 -> 16         0.22234
       8 -> 16        -0.10446
       9 -> 19        -0.34961
      10 -> 21         0.21965
      11 -> 25        -0.11715
      12 -> 31         0.39913

 Excited State  55:      Singlet-A"    16.2122 eV   76.48 nm  f=0.0034  <S**2>=0.000
       8 -> 19        -0.22550
      10 -> 19         0.13934
      10 -> 24        -0.12203
      11 -> 24         0.55419
      12 -> 30         0.22721

 Excited State  56:      Singlet-A'    16.2215 eV   76.43 nm  f=0.1505  <S**2>=0.000
       7 -> 14        -0.12454
       7 -> 15         0.51446
       7 -> 17        -0.11637
       7 -> 18        -0.12978
       9 -> 19        -0.19738
      10 -> 23         0.24781
      11 -> 25        -0.13097

 Excited State  57:      Singlet-A'    16.4218 eV   75.50 nm  f=0.1749  <S**2>=0.000
       7 -> 15        -0.24306
       8 -> 18         0.22718
      10 -> 18         0.11011
      10 -> 23         0.54869
      11 -> 23        -0.13080

 Excited State  58:      Singlet-A"    16.4718 eV   75.27 nm  f=0.0321  <S**2>=0.000
       6 -> 13         0.15914
       9 -> 18         0.58734
       9 -> 21         0.15595
       9 -> 23         0.18431
      12 -> 32         0.17207

 Excited State  59:      Singlet-A'    16.5529 eV   74.90 nm  f=0.1513  <S**2>=0.000
       7 -> 16         0.53000
       8 -> 17        -0.12305
       9 -> 19         0.20125
      10 -> 21        -0.22065
      10 -> 23        -0.19041

 Excited State  60:      Singlet-A'    16.6694 eV   74.38 nm  f=0.1035  <S**2>=0.000
       7 -> 15         0.15883
       7 -> 16         0.11948
       8 -> 20        -0.24151
       9 -> 19        -0.13144
      11 -> 25         0.47170
      11 -> 27        -0.29389

 Excited State  61:      Singlet-A"    16.6861 eV   74.30 nm  f=0.0909  <S**2>=0.000
       6 -> 13        -0.15865
       8 -> 19         0.15358
       9 -> 20        -0.36891
       9 -> 21         0.11280
      10 -> 24        -0.23291
      12 -> 32         0.41744
      12 -> 33         0.14515

 Excited State  62:      Singlet-A"    16.7116 eV   74.19 nm  f=0.0451  <S**2>=0.000
       6 -> 13         0.13122
       9 -> 18        -0.10681
       9 -> 20         0.45320
       9 -> 21        -0.19195
      10 -> 24        -0.17618
      12 -> 32         0.37215

 Excited State  63:      Singlet-A'    16.7289 eV   74.11 nm  f=0.0164  <S**2>=0.000
       7 -> 15         0.12303
       8 -> 18         0.56901
       8 -> 20         0.16870
       8 -> 21         0.17873
       9 -> 19        -0.11459
      10 -> 23        -0.15371

 Excited State  64:      Singlet-A"    16.7627 eV   73.96 nm  f=0.0131  <S**2>=0.000
       7 -> 19         0.12044
       8 -> 19        -0.25823
      10 -> 24         0.49680
      10 -> 26        -0.11305
      12 -> 32         0.33359

 Excited State  65:      Singlet-A"    17.0157 eV   72.86 nm  f=0.0160  <S**2>=0.000
       7 -> 19         0.11817
       8 -> 19         0.53876
      10 -> 24         0.22835
      11 -> 24         0.32568
      11 -> 26         0.12143

 Excited State  66:      Singlet-A"    17.0705 eV   72.63 nm  f=0.0095  <S**2>=0.000
       8 -> 22        -0.14257
       9 -> 17         0.11150
       9 -> 18        -0.14616
       9 -> 20         0.15498
       9 -> 21         0.48442
      11 -> 26        -0.35778
      12 -> 33        -0.15065

 Excited State  67:      Singlet-A'    17.0762 eV   72.61 nm  f=0.0036  <S**2>=0.000
       6 -> 14        -0.19103
       6 -> 15        -0.12850
       8 -> 18        -0.15252
       8 -> 20         0.43525
      11 -> 27        -0.40839

 Excited State  68:      Singlet-A"    17.0928 eV   72.54 nm  f=0.0162  <S**2>=0.000
       8 -> 19        -0.11329
       8 -> 22         0.21245
       9 -> 20         0.16466
       9 -> 21         0.33656
      11 -> 26         0.49066
      12 -> 33        -0.11309

 Excited State  69:      Singlet-A'    17.2408 eV   71.91 nm  f=0.0389  <S**2>=0.000
       6 -> 14        -0.27413
       6 -> 15        -0.11065
       8 -> 20         0.18291
       8 -> 21         0.13061
      11 -> 25         0.41897
      11 -> 27         0.36938

 Excited State  70:      Singlet-A'    17.4509 eV   71.05 nm  f=0.0080  <S**2>=0.000
       6 -> 14         0.42811
       7 -> 17        -0.35966
       8 -> 16         0.11353
       8 -> 20         0.21680
      10 -> 25        -0.15612
      11 -> 25         0.13756

 Excited State  71:      Singlet-A"    17.4544 eV   71.03 nm  f=0.0788  <S**2>=0.000
       6 -> 13         0.12374
       9 -> 21         0.15530
      12 -> 32        -0.11908
      12 -> 33         0.61978

 Excited State  72:      Singlet-A'    17.5057 eV   70.83 nm  f=0.0018  <S**2>=0.000
       7 -> 17        -0.25970
       7 -> 20         0.15894
      10 -> 25         0.57744

 Excited State  73:      Singlet-A'    17.6335 eV   70.31 nm  f=0.0071  <S**2>=0.000
       6 -> 14        -0.27041
       6 -> 15        -0.13214
       7 -> 16        -0.12859
       7 -> 17        -0.29695
       8 -> 20        -0.20782
       9 -> 22         0.35587
      10 -> 25        -0.15266
      10 -> 27         0.18903

 Excited State  74:      Singlet-A'    17.8280 eV   69.54 nm  f=0.0204  <S**2>=0.000
       8 -> 18        -0.12599
       8 -> 20        -0.12880
       8 -> 21         0.51236
      12 -> 34        -0.36493

 Excited State  75:      Singlet-A"    17.9218 eV   69.18 nm  f=0.0842  <S**2>=0.000
       8 -> 22         0.53992
      10 -> 24         0.11227
      10 -> 26         0.30733
      11 -> 26        -0.21713

 Excited State  76:      Singlet-A'    17.9261 eV   69.16 nm  f=0.0330  <S**2>=0.000
       6 -> 14         0.11467
       6 -> 15         0.11219
       7 -> 17         0.22410
       7 -> 18         0.11441
       9 -> 22         0.52197
      10 -> 27        -0.12058
      11 -> 28        -0.13322
      12 -> 34         0.12707

 Excited State  77:      Singlet-A"    17.9972 eV   68.89 nm  f=0.0011  <S**2>=0.000
       9 -> 18        -0.18430
       9 -> 23         0.62707
      12 -> 35         0.21431

 Excited State  78:      Singlet-A"    18.0416 eV   68.72 nm  f=0.0300  <S**2>=0.000
       7 -> 19         0.64963
       8 -> 22        -0.10265
      10 -> 24        -0.16600

 Excited State  79:      Singlet-A'    18.0676 eV   68.62 nm  f=0.0117  <S**2>=0.000
       6 -> 15        -0.10603
       6 -> 16        -0.10123
       7 -> 17         0.21711
       7 -> 18         0.19629
       7 -> 20         0.13679
       8 -> 23         0.12763
      10 -> 27         0.51669
      12 -> 34        -0.16232

 Excited State  80:      Singlet-A'    18.1786 eV   68.20 nm  f=0.0899  <S**2>=0.000
       6 -> 16         0.10146
       7 -> 18         0.20142
       7 -> 20         0.15427
       8 -> 21         0.29727
       9 -> 22        -0.10997
      10 -> 27         0.10429
      11 -> 28         0.13479
      12 -> 34         0.47756

 Excited State  81:      Singlet-A"    18.1894 eV   68.16 nm  f=0.0401  <S**2>=0.000
       7 -> 22        -0.16674
       8 -> 22        -0.29994
       8 -> 24         0.12659
      10 -> 26         0.55561
      11 -> 26         0.13477

 Excited State  82:      Singlet-A"    18.2274 eV   68.02 nm  f=0.0516  <S**2>=0.000
       9 -> 23        -0.21057
      12 -> 35         0.64292

 Excited State  83:      Singlet-A'    18.2500 eV   67.94 nm  f=0.0537  <S**2>=0.000
       6 -> 14        -0.22296
       6 -> 15         0.47253
       6 -> 17        -0.17420
       8 -> 23         0.23865
      10 -> 27         0.12137
      11 -> 28        -0.20954

 Excited State  84:      Singlet-A'    18.2984 eV   67.76 nm  f=0.0107  <S**2>=0.000
       7 -> 17        -0.14689
       7 -> 18         0.52702
       8 -> 23         0.15151
      10 -> 27        -0.22139
      10 -> 28        -0.11583
      11 -> 28        -0.13462
      12 -> 34        -0.12277

 Excited State  85:      Singlet-A'    18.3835 eV   67.44 nm  f=0.0757  <S**2>=0.000
       6 -> 15        -0.32219
       7 -> 18        -0.21599
       8 -> 23         0.39869
      11 -> 28        -0.27209
      11 -> 29         0.16540
      12 -> 34         0.11725

 Excited State  86:      Singlet-A'    18.5095 eV   66.98 nm  f=0.0303  <S**2>=0.000
       6 -> 16        -0.10640
       7 -> 18        -0.10907
       7 -> 20         0.51415
       8 -> 23        -0.24584
      10 -> 25        -0.19911
      11 -> 28        -0.14010
      11 -> 30        -0.16159

 The electronic state is 1-A'.
 Alpha  occ. eigenvalues --  -24.84275 -10.39190 -10.30682  -1.32523  -0.86744
 Alpha  occ. eigenvalues --   -0.70570  -0.62981  -0.58055  -0.56669  -0.50050
 Alpha  occ. eigenvalues --   -0.46710  -0.35587
 Alpha virt. eigenvalues --    0.07437   0.09630   0.11544   0.16071   0.17572
 Alpha virt. eigenvalues --    0.19863   0.20563   0.22114   0.24001   0.25394
 Alpha virt. eigenvalues --    0.25929   0.30395   0.31750   0.33650   0.34227

 Mulliken charges:
               1
     1  F   -0.445792
     2  C    0.572390
     3  C   -0.030639
     4  H   -0.060833
     5  H   -0.052235
     6  H    0.017111
 Sum of Mulliken charges =   0.00000

 Dipole moment (field-independent basis, Debye):
    X=              1.1526    Y=              0.7452    Z=              0.0000  Tot=              1.3725
 Quadrupole moment (field-independent basis, Debye-Ang):
   XX=            -17.6462   YY=            -15.5881   ZZ=            -19.0420
   XY=             -0.8247   XZ=              0.0000   YZ=              0.0000

 Normal termination of Gaussian 16 at Sat Feb 12 22:19:01 2022.
