 Gaussian 16, Revision C.01,
 Gaussian 16:  EM64L-G16RevC.01  3-Jul-2019

 ----------------------------------------------------------------------
 #P TD(Nstates=10000) wB97XD/Gen SCF(maxcycles=100) Int(Grid=ultrafine)
 ----------------------------------------------------------------------

 ---------------------
 xGDB7_00001_tier4.com
 ---------------------
 Symbolic Z-matrix:
 Charge =  0 Multiplicity = 1

                         Standard orientation:
 ---------------------------------------------------------------------
 Center     Atomic      Atomic             Coordinates (Angstroms)
 Number     Number       Type             X           Y           Z
 ---------------------------------------------------------------------
      1          7           0        1.103618    0.139891   -0.083217
      2          7           0       -0.072588   -0.506265    0.004864
      3          6           0       -1.155369    0.162724    0.008193
      4          1           0        1.875310   -0.411500    0.269912
      5          1           0        1.124899    1.116158    0.216077
      6          1           0       -2.101707   -0.383324    0.034098
      7          1           0       -1.183499    1.266937   -0.020767
 ---------------------------------------------------------------------

 SCF Done:  E(RwB97XD) =  -149.811749559     A.U. after   15 cycles

 Excitation energies and oscillator strengths:

 Excited State   1:      Singlet-A      5.8685 eV  211.27 nm  f=0.0048  <S**2>=0.000
      11 -> 13         0.68842
      12 -> 13         0.11588
 This state for optimization and/or second-order correction.
 Total Energy, E(TD-HF/TD-DFT) =  -149.596087310
 Copying the excited state density for this state as the 1-particle RhoCI density.

 Excited State   2:      Singlet-A      6.1800 eV  200.62 nm  f=0.2162  <S**2>=0.000
      11 -> 13        -0.11070
      12 -> 13         0.67867
      12 -> 14         0.10234

 Excited State   3:      Singlet-A      6.6444 eV  186.60 nm  f=0.0316  <S**2>=0.000
      12 -> 13        -0.10591
      12 -> 14         0.66089
      12 -> 15         0.19051

 Excited State   4:      Singlet-A      7.6853 eV  161.33 nm  f=0.0339  <S**2>=0.000
      12 -> 14        -0.17503
      12 -> 15         0.65124
      12 -> 16         0.15650

 Excited State   5:      Singlet-A      8.0351 eV  154.30 nm  f=0.0399  <S**2>=0.000
      11 -> 14         0.67895

 Excited State   6:      Singlet-A      8.2082 eV  151.05 nm  f=0.0193  <S**2>=0.000
      12 -> 15        -0.13480
      12 -> 16         0.67509

 Excited State   7:      Singlet-A      8.9208 eV  138.98 nm  f=0.0153  <S**2>=0.000
      11 -> 14        -0.10379
      11 -> 15         0.64249
      12 -> 17         0.22472

 Excited State   8:      Singlet-A      8.9849 eV  137.99 nm  f=0.0150  <S**2>=0.000
      11 -> 15        -0.22721
      12 -> 17         0.62284
      12 -> 18         0.17114

 Excited State   9:      Singlet-A      9.3962 eV  131.95 nm  f=0.0162  <S**2>=0.000
      11 -> 16        -0.10705
      12 -> 17        -0.16135
      12 -> 18         0.64191
      12 -> 19         0.16420

 Excited State  10:      Singlet-A      9.5246 eV  130.17 nm  f=0.1488  <S**2>=0.000
      11 -> 16         0.67109
      12 -> 18         0.10175

 Excited State  11:      Singlet-A      9.7094 eV  127.69 nm  f=0.0085  <S**2>=0.000
       9 -> 13         0.45725
      10 -> 13         0.25068
      12 -> 19         0.44080

 Excited State  12:      Singlet-A      9.8413 eV  125.98 nm  f=0.0039  <S**2>=0.000
       9 -> 13        -0.40118
      10 -> 13        -0.20289
      12 -> 18        -0.12190
      12 -> 19         0.50937

 Excited State  13:      Singlet-A     10.2126 eV  121.40 nm  f=0.0461  <S**2>=0.000
      10 -> 13         0.12454
      11 -> 17         0.55603
      11 -> 18         0.34640
      12 -> 20        -0.11688

 Excited State  14:      Singlet-A     10.5414 eV  117.62 nm  f=0.0197  <S**2>=0.000
       9 -> 13        -0.26862
      10 -> 13         0.48125
      11 -> 18        -0.38028

 Excited State  15:      Singlet-A     10.5862 eV  117.12 nm  f=0.1700  <S**2>=0.000
       9 -> 13        -0.16210
      10 -> 13         0.29235
      11 -> 17        -0.38188
      11 -> 18         0.42160
      11 -> 19         0.16674

 Excited State  16:      Singlet-A     10.8051 eV  114.75 nm  f=0.0057  <S**2>=0.000
      11 -> 18         0.16306
      11 -> 19        -0.41022
      12 -> 20         0.52668

 Excited State  17:      Singlet-A     10.9447 eV  113.28 nm  f=0.0128  <S**2>=0.000
      11 -> 19         0.49973
      12 -> 20         0.38059
      12 -> 21        -0.25876

 Excited State  18:      Singlet-A     10.9729 eV  112.99 nm  f=0.0840  <S**2>=0.000
      11 -> 19         0.19528
      12 -> 20         0.14127
      12 -> 21         0.62948

 Excited State  19:      Singlet-A     11.2341 eV  110.36 nm  f=0.0479  <S**2>=0.000
      10 -> 14        -0.32286
      12 -> 22         0.59614

 Excited State  20:      Singlet-A     11.2828 eV  109.89 nm  f=0.0833  <S**2>=0.000
      10 -> 14         0.55883
      10 -> 15         0.20154
      12 -> 22         0.33673

 Excited State  21:      Singlet-A     11.8266 eV  104.84 nm  f=0.0139  <S**2>=0.000
       9 -> 14        -0.13748
      11 -> 20         0.64762
      12 -> 24        -0.14907

 Excited State  22:      Singlet-A     11.9154 eV  104.05 nm  f=0.1333  <S**2>=0.000
       9 -> 14         0.60005
      10 -> 15        -0.14723
      11 -> 20         0.17465
      12 -> 23         0.11141
      12 -> 24         0.15081

 Excited State  23:      Singlet-A     11.9852 eV  103.45 nm  f=0.0663  <S**2>=0.000
       8 -> 13        -0.12874
       9 -> 14        -0.22182
      11 -> 21        -0.17139
      12 -> 23         0.32362
      12 -> 24         0.50170

 Excited State  24:      Singlet-A     12.1083 eV  102.40 nm  f=0.0383  <S**2>=0.000
       8 -> 13         0.14460
      11 -> 21         0.57682
      11 -> 22        -0.13490
      12 -> 24         0.27920

 Excited State  25:      Singlet-A     12.1414 eV  102.12 nm  f=0.0085  <S**2>=0.000
       8 -> 13         0.60767
      11 -> 21        -0.22227
      12 -> 23        -0.10034
      12 -> 25        -0.14198

 Excited State  26:      Singlet-A     12.1948 eV  101.67 nm  f=0.0163  <S**2>=0.000
       8 -> 13         0.17738
      11 -> 21         0.11996
      11 -> 22        -0.17422
      12 -> 23         0.55147
      12 -> 24        -0.25099

 Excited State  27:      Singlet-A     12.3473 eV  100.41 nm  f=0.0050  <S**2>=0.000
       9 -> 14         0.12448
      10 -> 14        -0.16996
      10 -> 15         0.58708
      10 -> 16         0.17334
      11 -> 22         0.14433
      12 -> 25        -0.12666

 Excited State  28:      Singlet-A     12.4257 eV   99.78 nm  f=0.1002  <S**2>=0.000
      10 -> 15        -0.13238
      11 -> 20        -0.12546
      11 -> 21         0.18148
      11 -> 22         0.59212
      12 -> 24        -0.12408
      12 -> 25        -0.11348

 Excited State  29:      Singlet-A     12.5584 eV   98.73 nm  f=0.1271  <S**2>=0.000
       8 -> 13         0.14298
      10 -> 16        -0.14915
      11 -> 22         0.16054
      12 -> 25         0.61310

 Excited State  30:      Singlet-A     12.7860 eV   96.97 nm  f=0.0375  <S**2>=0.000
      10 -> 16         0.53489
      12 -> 25         0.16804
      12 -> 26         0.22210
      12 -> 27         0.28779

 Excited State  31:      Singlet-A     12.8774 eV   96.28 nm  f=0.0893  <S**2>=0.000
       7 -> 14         0.11374
       9 -> 15         0.58824
      10 -> 16        -0.15428
      12 -> 26         0.14612
      12 -> 27         0.13634

 Excited State  32:      Singlet-A     13.0240 eV   95.20 nm  f=0.0889  <S**2>=0.000
       9 -> 15        -0.23914
      10 -> 15         0.11377
      10 -> 16        -0.20647
      11 -> 23         0.37332
      12 -> 26         0.41385
      12 -> 27         0.17310

 Excited State  33:      Singlet-A     13.0300 eV   95.15 nm  f=0.0462  <S**2>=0.000
       9 -> 15         0.10829
      10 -> 16         0.20319
      11 -> 23         0.54955
      11 -> 24        -0.15675
      12 -> 26        -0.26448
      12 -> 27        -0.12060

 Excited State  34:      Singlet-A     13.2395 eV   93.65 nm  f=0.0508  <S**2>=0.000
      10 -> 16        -0.12817
      10 -> 17        -0.10128
      12 -> 26        -0.38191
      12 -> 27         0.51928

 Excited State  35:      Singlet-A     13.3759 eV   92.69 nm  f=0.0488  <S**2>=0.000
      11 -> 23         0.12497
      11 -> 24         0.63360
      11 -> 25         0.12086

 Excited State  36:      Singlet-A     13.4431 eV   92.23 nm  f=0.0007  <S**2>=0.000
       7 -> 13         0.67055

 Excited State  37:      Singlet-A     13.5930 eV   91.21 nm  f=0.0353  <S**2>=0.000
       9 -> 16         0.49934
      10 -> 17        -0.38439
      11 -> 25        -0.14820

 Excited State  38:      Singlet-A     13.6980 eV   90.51 nm  f=0.0037  <S**2>=0.000
       9 -> 16         0.38825
       9 -> 17        -0.10979
      10 -> 17         0.49033
      10 -> 18         0.13153
      12 -> 27         0.12765

 Excited State  39:      Singlet-A     13.7942 eV   89.88 nm  f=0.0160  <S**2>=0.000
       9 -> 18        -0.11031
      11 -> 25         0.58809
      11 -> 26        -0.16034
      11 -> 27        -0.13116

 Excited State  40:      Singlet-A     14.0204 eV   88.43 nm  f=0.0487  <S**2>=0.000
       8 -> 14        -0.11034
      10 -> 17        -0.12997
      10 -> 18         0.58693
      10 -> 19         0.22550
      11 -> 25         0.12669

 Excited State  41:      Singlet-A     14.1389 eV   87.69 nm  f=0.0599  <S**2>=0.000
       9 -> 16         0.11258
      10 -> 18        -0.10419
      11 -> 25         0.18022
      11 -> 26         0.52579
      11 -> 27         0.34590

 Excited State  42:      Singlet-A     14.2766 eV   86.84 nm  f=0.0278  <S**2>=0.000
       8 -> 14         0.46989
       9 -> 17        -0.19031
       9 -> 18        -0.40460
      10 -> 19         0.15597

 Excited State  43:      Singlet-A     14.3893 eV   86.16 nm  f=0.0248  <S**2>=0.000
       8 -> 14         0.17764
       9 -> 17         0.28334
       9 -> 18         0.15821
      10 -> 18        -0.15162
      10 -> 19         0.41803
      11 -> 26        -0.22237
      11 -> 27         0.21223

 Excited State  44:      Singlet-A     14.4585 eV   85.75 nm  f=0.0276  <S**2>=0.000
       8 -> 14        -0.28316
       9 -> 17        -0.20208
      10 -> 18        -0.19573
      10 -> 19         0.43801
      11 -> 26         0.19621
      11 -> 27        -0.19866
      12 -> 28         0.13330

 Excited State  45:      Singlet-A     14.4872 eV   85.58 nm  f=0.0419  <S**2>=0.000
       7 -> 15         0.10760
       8 -> 14        -0.30023
       9 -> 18        -0.29065
       9 -> 19        -0.16897
      11 -> 26        -0.23506
      11 -> 27         0.40187
      12 -> 29        -0.11174

 Excited State  46:      Singlet-A     14.6230 eV   84.79 nm  f=0.0176  <S**2>=0.000
       8 -> 15        -0.10158
       9 -> 17        -0.22790
       9 -> 19         0.12352
      10 -> 20         0.20542
      11 -> 26        -0.11379
      11 -> 27         0.21789
      12 -> 28         0.15260
      12 -> 29         0.46958
      12 -> 30        -0.12108

 Excited State  47:      Singlet-A     14.7324 eV   84.16 nm  f=0.0207  <S**2>=0.000
       9 -> 17         0.19863
       9 -> 18        -0.12584
       9 -> 19        -0.11507
      10 -> 19        -0.11186
      12 -> 27        -0.10474
      12 -> 28         0.57794

 Excited State  48:      Singlet-A     14.7400 eV   84.11 nm  f=0.0245  <S**2>=0.000
       7 -> 14         0.10495
       9 -> 17         0.33289
       9 -> 18        -0.20053
       9 -> 19        -0.14425
      12 -> 28        -0.24177
      12 -> 29         0.41675

 Excited State  49:      Singlet-A     14.9560 eV   82.90 nm  f=0.1288  <S**2>=0.000
       7 -> 14        -0.22124
       7 -> 15        -0.10983
       8 -> 14        -0.13477
       9 -> 18        -0.16891
       9 -> 19         0.44400
      10 -> 20        -0.17725
      12 -> 30         0.30336

 Excited State  50:      Singlet-A     14.9731 eV   82.80 nm  f=0.0918  <S**2>=0.000
       7 -> 14        -0.12060
       8 -> 15         0.13563
       9 -> 17        -0.10078
       9 -> 18         0.17770
       9 -> 19        -0.34731
      12 -> 29         0.11967
      12 -> 30         0.48209

 Excited State  51:      Singlet-A     15.0208 eV   82.54 nm  f=0.0677  <S**2>=0.000
       7 -> 14         0.52846
       7 -> 15         0.22301
       9 -> 15        -0.13528
       9 -> 19         0.19797
      12 -> 30         0.22830

 Excited State  52:      Singlet-A     15.2209 eV   81.46 nm  f=0.0280  <S**2>=0.000
       8 -> 15        -0.39179
       9 -> 18        -0.10626
      10 -> 20         0.45505
      12 -> 29        -0.12602
      12 -> 30         0.22491

 Excited State  53:      Singlet-A     15.4086 eV   80.46 nm  f=0.0454  <S**2>=0.000
       7 -> 15        -0.10465
       7 -> 16        -0.10212
       8 -> 15         0.45711
       8 -> 16        -0.15005
       9 -> 17         0.15719
       9 -> 18        -0.10938
      10 -> 20         0.38498

 Excited State  54:      Singlet-A     15.5166 eV   79.90 nm  f=0.0197  <S**2>=0.000
      10 -> 21         0.49076
      12 -> 31         0.43778
      12 -> 32        -0.14275

 Excited State  55:      Singlet-A     15.5960 eV   79.50 nm  f=0.0727  <S**2>=0.000
      10 -> 21        -0.36611
      12 -> 28        -0.12866
      12 -> 31         0.48621
      12 -> 32         0.23958

 Excited State  56:      Singlet-A     15.6219 eV   79.37 nm  f=0.0442  <S**2>=0.000
       6 -> 13        -0.16716
       9 -> 23         0.10078
      10 -> 22         0.11008
      11 -> 28         0.36828
      11 -> 29         0.44663
      11 -> 30        -0.21663

 Excited State  57:      Singlet-A     15.7777 eV   78.58 nm  f=0.0045  <S**2>=0.000
       6 -> 13         0.26393
       8 -> 16        -0.26632
       9 -> 20         0.39320
       9 -> 21         0.23622
      11 -> 28         0.23389
      11 -> 30         0.15578

 Excited State  58:      Singlet-A     15.8078 eV   78.43 nm  f=0.0510  <S**2>=0.000
       6 -> 13         0.20040
       8 -> 16         0.46556
       8 -> 17        -0.10665
      10 -> 22        -0.22930
      11 -> 28         0.27375
      12 -> 32         0.10920

 Excited State  59:      Singlet-A     15.8593 eV   78.18 nm  f=0.0717  <S**2>=0.000
       6 -> 13         0.41776
       8 -> 16        -0.16160
       9 -> 20        -0.23566
      10 -> 22        -0.23028
      11 -> 29         0.17636
      11 -> 30        -0.12482
      12 -> 33         0.18173
      12 -> 35         0.11480

 Excited State  60:      Singlet-A     15.9215 eV   77.87 nm  f=0.0268  <S**2>=0.000
       9 -> 20         0.43500
       9 -> 23         0.19555
      10 -> 22        -0.15903
      10 -> 23         0.11419
      11 -> 28        -0.27279
      11 -> 29         0.12318
      11 -> 30        -0.26144

 Excited State  61:      Singlet-A     15.9753 eV   77.61 nm  f=0.0168  <S**2>=0.000
       6 -> 13         0.16773
       8 -> 16         0.21905
      10 -> 21        -0.10103
      10 -> 22         0.42175
      12 -> 32        -0.36492
      12 -> 33         0.15723

 Excited State  62:      Singlet-A     16.0348 eV   77.32 nm  f=0.0105  <S**2>=0.000
       6 -> 13        -0.18249
       7 -> 15         0.18111
       7 -> 16         0.11642
       9 -> 22         0.14921
      10 -> 21        -0.14887
      10 -> 22        -0.18720
      11 -> 28         0.13640
      11 -> 29        -0.19733
      12 -> 31         0.12684
      12 -> 32        -0.27273
      12 -> 33         0.33155
      12 -> 34         0.11029

 Excited State  63:      Singlet-A     16.1892 eV   76.58 nm  f=0.0137  <S**2>=0.000
       9 -> 22         0.22668
       9 -> 23         0.14621
       9 -> 24        -0.12107
      10 -> 21         0.14933
      10 -> 22         0.23410
      10 -> 23         0.20637
      10 -> 24         0.16954
      12 -> 32         0.33280
      12 -> 33         0.21417
      12 -> 35         0.10501

 Excited State  64:      Singlet-A     16.2418 eV   76.34 nm  f=0.0183  <S**2>=0.000
       7 -> 14         0.14285
       7 -> 15        -0.30869
       7 -> 17         0.17744
       8 -> 18         0.12367
       9 -> 21        -0.23250
      10 -> 24         0.14137
      11 -> 28         0.16571
      11 -> 30         0.39253
      12 -> 33         0.12194

 Excited State  65:      Singlet-A     16.2611 eV   76.25 nm  f=0.1352  <S**2>=0.000
       6 -> 13        -0.10254
       8 -> 16         0.12687
       9 -> 21         0.37047
       9 -> 22        -0.10814
       9 -> 23        -0.15940
      11 -> 28        -0.19794
      11 -> 29         0.26977
      11 -> 30         0.15098
      12 -> 33         0.19056
      12 -> 34         0.23367

 Excited State  66:      Singlet-A     16.2926 eV   76.10 nm  f=0.0762  <S**2>=0.000
       7 -> 14        -0.18544
       7 -> 15         0.34729
       9 -> 21        -0.19546
      11 -> 28        -0.14650
      11 -> 29         0.28006
      11 -> 30         0.30610
      12 -> 34        -0.13737

 Excited State  67:      Singlet-A     16.4210 eV   75.50 nm  f=0.1265  <S**2>=0.000
       7 -> 15        -0.19313
       7 -> 16        -0.10512
       8 -> 17         0.10901
       9 -> 21         0.25686
       9 -> 22         0.37227
       9 -> 23         0.12601
       9 -> 24        -0.11809
      10 -> 24        -0.17080
      12 -> 34        -0.27527

 Excited State  68:      Singlet-A     16.5432 eV   74.95 nm  f=0.0301  <S**2>=0.000
       8 -> 17         0.21014
       9 -> 22         0.17522
      10 -> 23        -0.20891
      10 -> 24        -0.24900
      12 -> 34         0.38704
      12 -> 35         0.23644

 Excited State  69:      Singlet-A     16.6453 eV   74.49 nm  f=0.0421  <S**2>=0.000
       8 -> 18         0.22379
       9 -> 21        -0.10284
       9 -> 23        -0.10840
      10 -> 23        -0.27608
      10 -> 24        -0.14763
      11 -> 31        -0.10950
      12 -> 32         0.16639
      12 -> 33         0.35262
      12 -> 34        -0.16332
      12 -> 35        -0.21156
      12 -> 36         0.17522

 Excited State  70:      Singlet-A     16.6750 eV   74.35 nm  f=0.1154  <S**2>=0.000
       7 -> 16         0.23899
       8 -> 16         0.10703
       8 -> 17         0.47258
       9 -> 22        -0.14974
      10 -> 23         0.23741
      12 -> 34        -0.11400
      12 -> 36         0.15941

 Excited State  71:      Singlet-A     16.7257 eV   74.13 nm  f=0.0745  <S**2>=0.000
       8 -> 18         0.12999
       9 -> 22         0.17511
       9 -> 23        -0.19082
      10 -> 23        -0.18475
      10 -> 24         0.42454
      11 -> 31        -0.15505
      12 -> 33        -0.13611
      12 -> 34        -0.14035
      12 -> 35         0.17035
      12 -> 36        -0.11943

 Excited State  72:      Singlet-A     16.7571 eV   73.99 nm  f=0.2159  <S**2>=0.000
       6 -> 15        -0.10264
       7 -> 15         0.11071
       7 -> 16        -0.11409
       8 -> 17        -0.11336
       8 -> 18         0.50458
       9 -> 22        -0.10159
       9 -> 23         0.18814
       9 -> 24        -0.13546
      10 -> 23         0.13361
      11 -> 31        -0.11163
      12 -> 33        -0.10730

 Excited State  73:      Singlet-A     16.8831 eV   73.44 nm  f=0.0138  <S**2>=0.000
       7 -> 16        -0.26343
       8 -> 17         0.10308
       8 -> 19         0.20950
       9 -> 23         0.16033
      10 -> 23        -0.18477
      11 -> 31         0.42153
      11 -> 32        -0.23803

 Excited State  74:      Singlet-A     16.9207 eV   73.27 nm  f=0.0929  <S**2>=0.000
       7 -> 16         0.18961
       8 -> 17        -0.12815
       8 -> 18         0.18309
       9 -> 22         0.18440
       9 -> 23        -0.11456
      10 -> 24         0.10433
      10 -> 25        -0.13814
      11 -> 31         0.41279
      11 -> 32         0.13126
      12 -> 35        -0.26092

 Excited State  75:      Singlet-A     16.9528 eV   73.13 nm  f=0.1354  <S**2>=0.000
       7 -> 16         0.31462
       8 -> 17        -0.15287
       9 -> 21         0.10870
       9 -> 23         0.19444
      10 -> 23        -0.23543
      10 -> 25         0.27210
      11 -> 32         0.13995
      12 -> 35         0.27815

 Excited State  76:      Singlet-A     16.9598 eV   73.10 nm  f=0.0717  <S**2>=0.000
       7 -> 16         0.11693
       8 -> 18        -0.10108
       8 -> 19         0.10172
       9 -> 23         0.33445
      10 -> 23        -0.20985
      10 -> 24         0.20654
      10 -> 25        -0.20759
      11 -> 31        -0.19634
      12 -> 35        -0.28189
      12 -> 36         0.12121

 Excited State  77:      Singlet-A     17.0317 eV   72.80 nm  f=0.0325  <S**2>=0.000
       7 -> 16        -0.19564
       8 -> 19        -0.32627
      10 -> 24         0.15428
      10 -> 25         0.15956
      12 -> 34         0.13570
      12 -> 36         0.46317

 Excited State  78:      Singlet-A     17.1188 eV   72.43 nm  f=0.0445  <S**2>=0.000
       8 -> 17        -0.14820
       8 -> 18        -0.11506
       8 -> 19         0.52390
       9 -> 22         0.10490
       9 -> 23        -0.11923
      10 -> 25         0.18611
      11 -> 32         0.13061
      12 -> 36         0.20671

 Excited State  79:      Singlet-A     17.1351 eV   72.36 nm  f=0.0281  <S**2>=0.000
       9 -> 22         0.12050
      10 -> 25         0.47617
      11 -> 32        -0.23315
      12 -> 34         0.17370
      12 -> 35        -0.21971
      12 -> 36        -0.21706

 Excited State  80:      Singlet-A     17.2335 eV   71.94 nm  f=0.0922  <S**2>=0.000
       6 -> 14        -0.12498
       7 -> 17         0.19949
       7 -> 19         0.10152
       8 -> 18         0.10067

 The electronic state is 1-A.
 Alpha  occ. eigenvalues --  -14.48196 -14.47962 -10.32219  -1.09694  -0.89663
 Alpha  occ. eigenvalues --   -0.70422  -0.62339  -0.59441  -0.50711  -0.48558
 Alpha  occ. eigenvalues --   -0.35944  -0.31795
 Alpha virt. eigenvalues --    0.06808   0.09690   0.12634   0.15996   0.19389
 Alpha virt. eigenvalues --    0.20157   0.21348   0.25181   0.25915   0.27213
 Alpha virt. eigenvalues --    0.29296   0.29720   0.32028   0.33615   0.35516

 Mulliken charges:
               1
     1  N    0.128628
     2  N   -0.255475
     3  C    0.490723
     4  H    0.008996
     5  H    0.012253
     6  H   -0.277357
     7  H   -0.107768
 Sum of Mulliken charges =   0.00000

 Dipole moment (field-independent basis, Debye):
    X=              0.5628    Y=              1.6676    Z=              0.9215  Tot=              1.9867
 Quadrupole moment (field-independent basis, Debye-Ang):
   XX=            -14.5550   YY=            -18.4858   ZZ=            -20.6379
   XY=             -0.2466   XZ=              1.7056   YZ=              0.2546

 Normal termination of Gaussian 16 at Sat Feb 12 21:42:02 2022.
