 Gaussian 16, Revision C.01,
 Gaussian 16:  EM64L-G16RevC.01  3-Jul-2019

 ----------------------------------------------------------------------
 #P TD(Nstates=10000) wB97XD/Gen SCF(maxcycles=100) Int(Grid=ultrafine)
 ----------------------------------------------------------------------

 ---------------------
 xGDB7_00001_tier4.com
 ---------------------
 Symbolic Z-matrix:
 Charge =  0 Multiplicity = 1

                         Standard orientation:
 ---------------------------------------------------------------------
 Center     Atomic      Atomic             Coordinates (Angstroms)
 Number     Number       Type             X           Y           Z
 ---------------------------------------------------------------------
      1          6           0       -1.115976   -0.467377    0.000000
      2          6           0        0.000000    0.551060    0.000000
      3          9           0        1.223274   -0.079801    0.000000
      4          1           0       -2.093267    0.037854    0.000000
      5          1           0       -1.056924   -1.108199    0.891580
      6          1           0       -1.056924   -1.108199   -0.891580
      7          1           0       -0.053248    1.197330    0.892538
      8          1           0       -0.053248    1.197330   -0.892538
 ---------------------------------------------------------------------

 SCF Done:  E(RwB97XD) =  -178.887825613     A.U. after   13 cycles

 Excitation energies and oscillator strengths:

 Excited State   1:      Singlet-A"     9.2548 eV  133.97 nm  f=0.0063  <S**2>=0.000
      13 -> 14         0.66788
      13 -> 15         0.18323
 This state for optimization and/or second-order correction.
 Total Energy, E(TD-HF/TD-DFT) =  -178.547717951
 Copying the excited state density for this state as the 1-particle RhoCI density.

 Excited State   2:      Singlet-A'     9.6770 eV  128.12 nm  f=0.0107  <S**2>=0.000
      12 -> 14         0.65975
      12 -> 15         0.19064
      12 -> 16        -0.11850

 Excited State   3:      Singlet-A"    10.0906 eV  122.87 nm  f=0.0245  <S**2>=0.000
      10 -> 14         0.15924
      13 -> 14        -0.17071
      13 -> 15         0.49631
      13 -> 16        -0.38893
      13 -> 18        -0.10968
      13 -> 19        -0.11335

 Excited State   4:      Singlet-A'    10.4241 eV  118.94 nm  f=0.0316  <S**2>=0.000
      12 -> 14        -0.22190
      12 -> 15         0.48444
      12 -> 16        -0.39934
      12 -> 18        -0.13140
      12 -> 19        -0.11485

 Excited State   5:      Singlet-A"    10.5197 eV  117.86 nm  f=0.0979  <S**2>=0.000
      10 -> 14         0.11498
      13 -> 15         0.40220
      13 -> 16         0.52901

 Excited State   6:      Singlet-A'    10.8327 eV  114.45 nm  f=0.0643  <S**2>=0.000
      11 -> 14         0.42525
      12 -> 15        -0.35569
      12 -> 16        -0.38904
      13 -> 17        -0.10428

 Excited State   7:      Singlet-A'    10.9040 eV  113.71 nm  f=0.1109  <S**2>=0.000
      11 -> 14         0.52121
      11 -> 15        -0.14839
      12 -> 15         0.26995
      12 -> 16         0.31972
      13 -> 17         0.11445

 Excited State   8:      Singlet-A'    10.9244 eV  113.49 nm  f=0.1783  <S**2>=0.000
      12 -> 16        -0.12705
      13 -> 17         0.67726

 Excited State   9:      Singlet-A"    11.1545 eV  111.15 nm  f=0.0284  <S**2>=0.000
      12 -> 17         0.68992

 Excited State  10:      Singlet-A"    11.2442 eV  110.27 nm  f=0.0161  <S**2>=0.000
      10 -> 14         0.62659
      13 -> 15        -0.15394
      13 -> 18         0.20522

 Excited State  11:      Singlet-A"    11.6072 eV  106.82 nm  f=0.0048  <S**2>=0.000
      10 -> 14        -0.15729
      10 -> 18        -0.11875
      13 -> 15         0.10221
      13 -> 18         0.62824
      13 -> 19        -0.15318

 Excited State  12:      Singlet-A'    11.8128 eV  104.96 nm  f=0.0488  <S**2>=0.000
      11 -> 15         0.27325
      12 -> 16        -0.10903
      12 -> 18         0.59939

 Excited State  13:      Singlet-A"    11.9892 eV  103.41 nm  f=0.0498  <S**2>=0.000
      10 -> 15         0.58141
      13 -> 21         0.32579

 Excited State  14:      Singlet-A'    11.9985 eV  103.33 nm  f=0.0587  <S**2>=0.000
      11 -> 14         0.13685
      11 -> 15         0.56280
      11 -> 21        -0.10262
      12 -> 18        -0.27516
      12 -> 19         0.23313

 Excited State  15:      Singlet-A"    12.0483 eV  102.91 nm  f=0.0674  <S**2>=0.000
      10 -> 14        -0.10981
      13 -> 16        -0.15849
      13 -> 19         0.64434

 Excited State  16:      Singlet-A'    12.1546 eV  102.01 nm  f=0.0163  <S**2>=0.000
       9 -> 14         0.12497
      11 -> 15        -0.17723
      12 -> 16        -0.13664
      12 -> 19         0.56706
      13 -> 20         0.25949

 Excited State  17:      Singlet-A'    12.2106 eV  101.54 nm  f=0.0045  <S**2>=0.000
      11 -> 15         0.13106
      12 -> 19        -0.23473
      13 -> 20         0.62429

 Excited State  18:      Singlet-A"    12.2247 eV  101.42 nm  f=0.0047  <S**2>=0.000
      12 -> 20         0.68735

 Excited State  19:      Singlet-A"    12.5437 eV   98.84 nm  f=0.0061  <S**2>=0.000
      10 -> 16        -0.39999
      11 -> 17         0.47663
      11 -> 22         0.10443
      13 -> 21        -0.22217

 Excited State  20:      Singlet-A"    12.5826 eV   98.54 nm  f=0.0363  <S**2>=0.000
      10 -> 16         0.35900
      11 -> 17         0.47970
      11 -> 22         0.11601
      13 -> 21         0.27730

 Excited State  21:      Singlet-A'    12.6057 eV   98.36 nm  f=0.1025  <S**2>=0.000
      10 -> 17         0.29513
      11 -> 16         0.53830
      11 -> 19         0.14400
      13 -> 22        -0.21401

 Excited State  22:      Singlet-A'    12.6756 eV   97.81 nm  f=0.0216  <S**2>=0.000
      10 -> 17         0.44279
      11 -> 16        -0.31148
      11 -> 18        -0.26196
      11 -> 19        -0.16985
      13 -> 22        -0.26422

 Excited State  23:      Singlet-A"    12.8460 eV   96.52 nm  f=0.0005  <S**2>=0.000
      10 -> 15        -0.31960
      10 -> 16        -0.32051
      13 -> 21         0.46871
      13 -> 23        -0.17703

 Excited State  24:      Singlet-A'    12.8657 eV   96.37 nm  f=0.0191  <S**2>=0.000
       9 -> 14         0.13448
       9 -> 15         0.16816
      11 -> 18         0.17075
      12 -> 21         0.61199

 Excited State  25:      Singlet-A'    13.0538 eV   94.98 nm  f=0.1091  <S**2>=0.000
       9 -> 14         0.52042
       9 -> 15         0.12134
       9 -> 16        -0.12657
      10 -> 17        -0.12947
      11 -> 18        -0.31288
      12 -> 19        -0.10932
      12 -> 23        -0.13750

 Excited State  26:      Singlet-A"    13.1040 eV   94.62 nm  f=0.0003  <S**2>=0.000
      10 -> 15        -0.10693
      10 -> 18        -0.35803
      10 -> 19        -0.25150
      13 -> 23         0.45595

 Excited State  27:      Singlet-A'    13.1514 eV   94.27 nm  f=0.1782  <S**2>=0.000
       9 -> 14         0.34114
      10 -> 17         0.21367
      11 -> 16        -0.11979
      11 -> 18         0.44694
      12 -> 21        -0.18020
      12 -> 23         0.20689

 Excited State  28:      Singlet-A"    13.2541 eV   93.54 nm  f=0.0004  <S**2>=0.000
      10 -> 16        -0.15714
      10 -> 18         0.31789
      10 -> 19        -0.19064
      11 -> 20         0.31983
      12 -> 22         0.33696
      13 -> 18         0.10984
      13 -> 23         0.24150

 Excited State  29:      Singlet-A"    13.3052 eV   93.19 nm  f=0.0018  <S**2>=0.000
       9 -> 17        -0.15575
      10 -> 18        -0.25444
      11 -> 20        -0.22708
      12 -> 22         0.54606
      12 -> 24        -0.11414

 Excited State  30:      Singlet-A'    13.3979 eV   92.54 nm  f=0.0042  <S**2>=0.000
      10 -> 17         0.34209
      13 -> 22         0.59273

 Excited State  31:      Singlet-A"    13.4727 eV   92.03 nm  f=0.0088  <S**2>=0.000
       8 -> 14        -0.13027
      10 -> 18        -0.32149
      11 -> 20         0.44582
      13 -> 23        -0.23343
      13 -> 25        -0.24951

 Excited State  32:      Singlet-A'    13.4753 eV   92.01 nm  f=0.0516  <S**2>=0.000
       9 -> 14         0.10184
       9 -> 15        -0.13188
       9 -> 16         0.21015
      10 -> 20         0.20259
      11 -> 18        -0.14593
      12 -> 21         0.17543
      12 -> 23         0.39993
      13 -> 24        -0.37218

 Excited State  33:      Singlet-A'    13.6150 eV   91.06 nm  f=0.0357  <S**2>=0.000
      10 -> 17        -0.11712
      10 -> 20        -0.32258
      11 -> 16         0.13630
      11 -> 18        -0.10561
      11 -> 19        -0.21282
      12 -> 23         0.38682
      12 -> 25         0.10706
      13 -> 24         0.29693

 Excited State  34:      Singlet-A"    13.6448 eV   90.87 nm  f=0.0636  <S**2>=0.000
      10 -> 19         0.10560
      11 -> 20         0.18434
      12 -> 22         0.15773
      12 -> 24         0.55572
      13 -> 25         0.23272

 Excited State  35:      Singlet-A"    13.7342 eV   90.27 nm  f=0.0018  <S**2>=0.000
       8 -> 15        -0.10038
      10 -> 19         0.46741
      10 -> 21        -0.22676
      10 -> 23         0.15581
      13 -> 23         0.22196
      13 -> 25        -0.28783
      13 -> 26         0.16493

 Excited State  36:      Singlet-A'    13.7620 eV   90.09 nm  f=0.0531  <S**2>=0.000
       9 -> 15         0.12002
       9 -> 16        -0.18624
      11 -> 16        -0.11492
      11 -> 19         0.53462
      11 -> 23         0.14796
      12 -> 23         0.23058

 Excited State  37:      Singlet-A'    13.9034 eV   89.18 nm  f=0.1000  <S**2>=0.000
       7 -> 14         0.16054
       9 -> 15        -0.30386
       9 -> 16         0.14317
      10 -> 20         0.26527
      11 -> 21         0.18696
      12 -> 25        -0.17016
      13 -> 24         0.40258

 Excited State  38:      Singlet-A"    14.0183 eV   88.44 nm  f=0.0049  <S**2>=0.000
       8 -> 14        -0.40012
       8 -> 15        -0.12788
      10 -> 19         0.19238
      11 -> 20         0.16122
      12 -> 24        -0.20831
      13 -> 25         0.40172

 Excited State  39:      Singlet-A'    14.0664 eV   88.14 nm  f=0.0834  <S**2>=0.000
       9 -> 15         0.41584
      10 -> 20         0.38474
      11 -> 19        -0.17978
      11 -> 21        -0.11126
      12 -> 25        -0.20442

 Excited State  40:      Singlet-A"    14.0774 eV   88.07 nm  f=0.2708  <S**2>=0.000
       8 -> 14         0.43359
       8 -> 15         0.15814
      10 -> 18        -0.14734
      10 -> 19         0.18882
      10 -> 21         0.18441
      11 -> 20         0.20947
      12 -> 24        -0.27349
      13 -> 23         0.10845
      13 -> 25         0.16651

 Excited State  41:      Singlet-A'    14.1081 eV   87.88 nm  f=0.0443  <S**2>=0.000
       7 -> 14         0.21437
       7 -> 15         0.11867
       9 -> 15         0.30186
       9 -> 16         0.20111
      10 -> 22        -0.11052
      11 -> 21         0.44141
      11 -> 25        -0.10685
      13 -> 24        -0.14183
      13 -> 27         0.10994

 Excited State  42:      Singlet-A'    14.2222 eV   87.18 nm  f=0.0487  <S**2>=0.000
       7 -> 14        -0.35404
       9 -> 15         0.13087
       9 -> 16         0.31929
      10 -> 20         0.13951
      12 -> 25         0.37975
      13 -> 24         0.17495

 Excited State  43:      Singlet-A'    14.3869 eV   86.18 nm  f=0.0910  <S**2>=0.000
       7 -> 14        -0.34698
       9 -> 16        -0.32417
       9 -> 18        -0.11094
      10 -> 20         0.15755
      11 -> 21         0.36843
      12 -> 26         0.10803

 Excited State  44:      Singlet-A"    14.4931 eV   85.55 nm  f=0.0157  <S**2>=0.000
       9 -> 17         0.54292
      10 -> 21        -0.17075
      11 -> 22        -0.30184
      12 -> 22         0.14610

 Excited State  45:      Singlet-A'    14.4938 eV   85.54 nm  f=0.0561  <S**2>=0.000
       7 -> 14         0.33685
       9 -> 16        -0.16132
      10 -> 20         0.21218
      10 -> 22        -0.11681
      11 -> 16         0.13228
      11 -> 19        -0.12761
      12 -> 25         0.43666
      13 -> 27         0.11624

 Excited State  46:      Singlet-A"    14.5644 eV   85.13 nm  f=0.0227  <S**2>=0.000
       8 -> 14        -0.23739
       9 -> 17         0.25084
      10 -> 19         0.10362
      10 -> 21         0.51038
      13 -> 23         0.12378
      13 -> 25        -0.20489

 Excited State  47:      Singlet-A"    14.5942 eV   84.95 nm  f=0.0357  <S**2>=0.000
       7 -> 17        -0.15577
       9 -> 17         0.29882
      10 -> 21        -0.13351
      11 -> 17        -0.12468
      11 -> 22         0.53888
      11 -> 24         0.11081
      13 -> 25         0.10401

 Excited State  48:      Singlet-A"    14.7975 eV   83.79 nm  f=0.0378  <S**2>=0.000
       8 -> 16        -0.20295
      11 -> 24        -0.11466
      13 -> 26         0.56146
      13 -> 28        -0.20385

 Excited State  49:      Singlet-A'    14.8871 eV   83.28 nm  f=0.1229  <S**2>=0.000
       7 -> 14         0.11874
       7 -> 15        -0.10978
       8 -> 17        -0.12176
       9 -> 19         0.21035
      10 -> 22         0.37917
      12 -> 25         0.12850
      12 -> 26         0.30849
      13 -> 27        -0.30353

 Excited State  50:      Singlet-A"    14.9303 eV   83.04 nm  f=0.0035  <S**2>=0.000
       8 -> 14        -0.12917
       8 -> 15         0.42121
       8 -> 16        -0.37730
       8 -> 18        -0.13605
       8 -> 19        -0.13535
       8 -> 23         0.10855
      10 -> 21        -0.14782
      10 -> 25         0.13951
      11 -> 22        -0.10175
      13 -> 26        -0.12081

 Excited State  51:      Singlet-A'    14.9703 eV   82.82 nm  f=0.0529  <S**2>=0.000
       7 -> 16        -0.13324
       9 -> 16         0.20830
       9 -> 18        -0.35713
      10 -> 22        -0.10416
      12 -> 26         0.40600
      12 -> 28        -0.20088
      13 -> 27         0.14273

 Excited State  52:      Singlet-A'    15.0939 eV   82.14 nm  f=0.0551  <S**2>=0.000
       7 -> 15        -0.33109
       7 -> 16         0.44167
       8 -> 17        -0.11683
      10 -> 22        -0.23830
      11 -> 23         0.11548
      11 -> 25        -0.12902
      13 -> 27         0.14653

 Excited State  53:      Singlet-A"    15.2108 eV   81.51 nm  f=0.0000  <S**2>=0.000
       8 -> 15         0.20015
       8 -> 16         0.21471
      10 -> 23         0.52055
      10 -> 25         0.10972
      11 -> 24        -0.18950
      13 -> 28         0.13614

 Excited State  54:      Singlet-A'    15.2291 eV   81.41 nm  f=0.0527  <S**2>=0.000
       7 -> 16        -0.12866
       8 -> 17        -0.13130
       9 -> 16        -0.10500
       9 -> 18         0.40436
      11 -> 23        -0.20782
      12 -> 26         0.22869
      13 -> 24         0.10567
      13 -> 27         0.35613

 Excited State  55:      Singlet-A"    15.3177 eV   80.94 nm  f=0.0095  <S**2>=0.000
       8 -> 15         0.20834
       8 -> 16         0.28490
      10 -> 25         0.11108
      11 -> 24         0.36892
      12 -> 27         0.33998
      13 -> 26         0.17630

 Excited State  56:      Singlet-A'    15.3369 eV   80.84 nm  f=0.0421  <S**2>=0.000
       7 -> 15         0.42954
       7 -> 16         0.27947
       9 -> 19         0.19505
      11 -> 23         0.18030
      11 -> 25         0.27803
      12 -> 26         0.13117

 Excited State  57:      Singlet-A"    15.3388 eV   80.83 nm  f=0.0010  <S**2>=0.000
       9 -> 22        -0.11551
      11 -> 24        -0.34459
      11 -> 27         0.10533
      12 -> 27         0.53971

 Excited State  58:      Singlet-A'    15.4344 eV   80.33 nm  f=0.0169  <S**2>=0.000
       9 -> 18        -0.16441
       9 -> 19        -0.18320
      10 -> 22         0.39369
      10 -> 24         0.18188
      11 -> 21         0.10368
      11 -> 23         0.14191
      11 -> 25         0.13044
      12 -> 26        -0.10436
      12 -> 28        -0.10378
      13 -> 27         0.35031

 Excited State  59:      Singlet-A'    15.4885 eV   80.05 nm  f=0.0045  <S**2>=0.000
       9 -> 18        -0.20980
       9 -> 19         0.38386
      10 -> 22         0.14158
      10 -> 24        -0.32441
      12 -> 26        -0.24630
      12 -> 29         0.10161
      13 -> 27         0.18361

 Excited State  60:      Singlet-A"    15.5187 eV   79.89 nm  f=0.0171  <S**2>=0.000
       8 -> 14        -0.10462
       8 -> 15         0.33083
       8 -> 16         0.25009
       9 -> 20         0.23407
      10 -> 21        -0.14137
      10 -> 23        -0.28829
      10 -> 25        -0.16776
      11 -> 24        -0.21569
      13 -> 28         0.10526

 Excited State  61:      Singlet-A'    15.5588 eV   79.69 nm  f=0.1421  <S**2>=0.000
       8 -> 17        -0.20521
       9 -> 18        -0.15112
       9 -> 19         0.23725
      10 -> 24         0.43022
      10 -> 27        -0.10727
      11 -> 23        -0.29818
      12 -> 26        -0.11629

 Excited State  62:      Singlet-A"    15.5998 eV   79.48 nm  f=0.0017  <S**2>=0.000
       8 -> 15        -0.10674
       9 -> 20         0.62508
      10 -> 23         0.10543
      11 -> 24         0.15260
      12 -> 27         0.12792

 Excited State  63:      Singlet-A"    15.6737 eV   79.10 nm  f=0.0033  <S**2>=0.000
       7 -> 17         0.55164
      11 -> 22         0.13513
      13 -> 26         0.13331
      13 -> 28         0.28372
      13 -> 29         0.13534

 Excited State  64:      Singlet-A'    15.6824 eV   79.06 nm  f=0.0013  <S**2>=0.000
       7 -> 15        -0.31697
       7 -> 16        -0.13327
       9 -> 19         0.11171
      11 -> 21         0.16482
      11 -> 25         0.49955
      11 -> 26         0.16762

 Excited State  65:      Singlet-A'    15.8181 eV   78.38 nm  f=0.0511  <S**2>=0.000
       7 -> 16         0.11814
       8 -> 17         0.54531
       9 -> 21         0.21675
      10 -> 22         0.10912
      10 -> 24         0.16877
      11 -> 23        -0.10244
      11 -> 25        -0.11463
      12 -> 26         0.10413

 Excited State  66:      Singlet-A"    15.8217 eV   78.36 nm  f=0.0790  <S**2>=0.000
       7 -> 17        -0.32509
       8 -> 16        -0.14468
       8 -> 18        -0.10974
      10 -> 25        -0.25661
      11 -> 24         0.11378
      12 -> 27         0.11114
      13 -> 26         0.10240
      13 -> 28         0.38538
      13 -> 29         0.16988
      13 -> 30        -0.10940

 Excited State  67:      Singlet-A'    15.9147 eV   77.91 nm  f=0.0936  <S**2>=0.000
       7 -> 16        -0.29240
       9 -> 19         0.16096
      10 -> 24         0.23085
      11 -> 19        -0.10704
      11 -> 23         0.39500
      11 -> 25        -0.12735
      11 -> 26        -0.10669
      12 -> 25        -0.12057
      12 -> 28         0.13814
      12 -> 29         0.22237

 Excited State  68:      Singlet-A"    15.9437 eV   77.76 nm  f=0.0312  <S**2>=0.000
       7 -> 17        -0.10076
      10 -> 23        -0.15979
      10 -> 25         0.52575
      13 -> 26         0.17940
      13 -> 28         0.26534

 Excited State  69:      Singlet-A'    16.0641 eV   77.18 nm  f=0.0638  <S**2>=0.000
       9 -> 18        -0.17837
       9 -> 19        -0.18456
       9 -> 21        -0.10833
      11 -> 23        -0.14902
      12 -> 26         0.15864
      12 -> 28         0.54065
      12 -> 29         0.12558

 Excited State  70:      Singlet-A"    16.1374 eV   76.83 nm  f=0.1980  <S**2>=0.000
       8 -> 18        -0.13999
      13 -> 28        -0.23673
      13 -> 29         0.58463

 Excited State  71:      Singlet-A'    16.3626 eV   75.77 nm  f=0.0406  <S**2>=0.000
       7 -> 18         0.20008
       8 -> 17        -0.11553
       9 -> 21         0.54989
      12 -> 28         0.15965
      12 -> 29        -0.21980

 Excited State  72:      Singlet-A"    16.3968 eV   75.61 nm  f=0.0433  <S**2>=0.000
       8 -> 16        -0.14475
       8 -> 18         0.58110
      10 -> 26        -0.15285
      13 -> 29         0.15077

 Excited State  73:      Singlet-A'    16.4739 eV   75.26 nm  f=0.0412  <S**2>=0.000
       7 -> 18         0.29572
       7 -> 19        -0.23389
       8 -> 17         0.14789
       8 -> 20        -0.20204
       9 -> 19         0.12049
       9 -> 21        -0.22547
       9 -> 23         0.12821
      11 -> 26        -0.20532
      12 -> 28         0.10184
      12 -> 29        -0.26803
      12 -> 30         0.17116

 Excited State  74:      Singlet-A'    16.5759 eV   74.80 nm  f=0.1488  <S**2>=0.000
       7 -> 18         0.10632
       7 -> 19        -0.11369
       8 -> 20         0.32059
      10 -> 27        -0.12492
      12 -> 30         0.10096
      13 -> 31         0.53859

 Excited State  75:      Singlet-A"    16.6420 eV   74.50 nm  f=0.0383  <S**2>=0.000
       8 -> 18        -0.18620
       8 -> 19        -0.17801
       9 -> 22         0.35803
       9 -> 24        -0.12490
      10 -> 26        -0.25739
      11 -> 27        -0.17245
      12 -> 31         0.13086
      13 -> 30        -0.33940

 Excited State  76:      Singlet-A"    16.6557 eV   74.44 nm  f=0.0071  <S**2>=0.000
       7 -> 20         0.20882
       9 -> 22         0.25073
      11 -> 27        -0.29670
      12 -> 31         0.15570
      13 -> 28         0.12667
      13 -> 30         0.45486

 Excited State  77:      Singlet-A"    16.6887 eV   74.29 nm  f=0.0101  <S**2>=0.000
       7 -> 20        -0.16085
       8 -> 18         0.10380
       8 -> 19         0.28418
       9 -> 22         0.40790
      10 -> 23         0.10034
      10 -> 26         0.32732
      13 -> 30        -0.11457

 Excited State  78:      Singlet-A'    16.7542 eV   74.00 nm  f=0.1423  <S**2>=0.000
       7 -> 19         0.31988
      11 -> 23         0.10945
      11 -> 25        -0.12126
      11 -> 26         0.38784
      12 -> 29        -0.30785
      13 -> 31         0.16276

 The electronic state is 1-A'.
 Alpha  occ. eigenvalues --  -24.80668 -10.37634 -10.30182  -1.28158  -0.85809
 Alpha  occ. eigenvalues --   -0.72110  -0.59435  -0.59063  -0.54851  -0.48679
 Alpha  occ. eigenvalues --   -0.48000  -0.42863  -0.41766
 Alpha virt. eigenvalues --    0.09050   0.11990   0.15268   0.15325   0.17683
 Alpha virt. eigenvalues --    0.19385   0.19514   0.21580   0.22472   0.24149
 Alpha virt. eigenvalues --    0.25328   0.26819   0.29599   0.30548   0.34167

 Mulliken charges:
               1
     1  C    0.039476
     2  C    0.434640
     3  F   -0.480472
     4  H    0.046526
     5  H    0.042445
     6  H    0.042445
     7  H   -0.062530
     8  H   -0.062530
 Sum of Mulliken charges =  -0.00000

 Dipole moment (field-independent basis, Debye):
    X=             -1.8104    Y=              0.6897    Z=             -0.0000  Tot=              1.9374
 Quadrupole moment (field-independent basis, Debye-Ang):
   XX=            -20.8843   YY=            -18.2305   ZZ=            -18.2743
   XY=              0.2640   XZ=              0.0000   YZ=             -0.0000

 Normal termination of Gaussian 16 at Sat Feb 12 22:24:07 2022.
