 Gaussian 16, Revision C.01,
 Gaussian 16:  EM64L-G16RevC.01  3-Jul-2019

 ----------------------------------------------------------------------
 #P TD(Nstates=10000) wB97XD/Gen SCF(maxcycles=100) Int(Grid=ultrafine)
 ----------------------------------------------------------------------

 ---------------------
 xGDB7_00001_tier4.com
 ---------------------
 Symbolic Z-matrix:
 Charge =  0 Multiplicity = 1

                         Standard orientation:
 ---------------------------------------------------------------------
 Center     Atomic      Atomic             Coordinates (Angstroms)
 Number     Number       Type             X           Y           Z
 ---------------------------------------------------------------------
      1          6           0        0.000000    0.000000   -1.178077
      2          6           0        0.000000    0.000000    0.280701
      3          7           0        0.000000    0.000000    1.435775
      4          1           0       -0.000000    1.031632   -1.555391
      5          1           0       -0.893420   -0.515816   -1.555391
      6          1           0        0.893420   -0.515816   -1.555391
 ---------------------------------------------------------------------

 SCF Done:  E(RwB97XD) =  -132.611333067     A.U. after   13 cycles

 Excitation energies and oscillator strengths:

 Excited state symmetry could not be determined.
 Excited State   1:      Singlet-?Sym    7.7951 eV  159.05 nm  f=0.0000  <S**2>=0.000
      10 -> 14        -0.48547
      11 -> 13         0.48547
 This state for optimization and/or second-order correction.
 Total Energy, E(TD-HF/TD-DFT) =  -132.324868242
 Copying the excited state density for this state as the 1-particle RhoCI density.

 Excited state symmetry could not be determined.
 Excited State   2:      Singlet-?Sym    8.1604 eV  151.93 nm  f=0.0014  <S**2>=0.000
      10 -> 13        -0.48741
      11 -> 14         0.48741

 Excited state symmetry could not be determined.
 Excited State   3:      Singlet-?Sym    8.1604 eV  151.93 nm  f=0.0014  <S**2>=0.000
      10 -> 14         0.48741
      11 -> 13         0.48741

 Excited State   4:      Singlet-E      9.0281 eV  137.33 nm  f=0.0053  <S**2>=0.000
      11 -> 12         0.67561
      11 -> 15         0.18501

 Excited State   5:      Singlet-E      9.0281 eV  137.33 nm  f=0.0053  <S**2>=0.000
      10 -> 12         0.67561
      10 -> 15         0.18500

 Excited State   6:      Singlet-E      9.5332 eV  130.06 nm  f=0.0176  <S**2>=0.000
       9 -> 14         0.68796
       9 -> 16         0.12732

 Excited State   7:      Singlet-E      9.5332 eV  130.06 nm  f=0.0176  <S**2>=0.000
       9 -> 13         0.68796
       9 -> 17         0.12731

 Excited State   8:      Singlet-A1    10.2533 eV  120.92 nm  f=0.0486  <S**2>=0.000
       9 -> 12         0.65269
       9 -> 15         0.24614

 Excited State   9:      Singlet-E     10.9389 eV  113.34 nm  f=0.1151  <S**2>=0.000
       8 -> 12        -0.13108
      11 -> 12        -0.17858
      11 -> 15         0.66170

 Excited State  10:      Singlet-E     10.9389 eV  113.34 nm  f=0.1151  <S**2>=0.000
       7 -> 12        -0.13108
      10 -> 12        -0.17858
      10 -> 15         0.66170

 Excited state symmetry could not be determined.
 Excited State  11:      Singlet-?Sym   11.0746 eV  111.95 nm  f=0.7707  <S**2>=0.000
       9 -> 15        -0.10463
       9 -> 24        -0.10929
      10 -> 13         0.42460
      10 -> 17        -0.20171
      11 -> 14         0.42460
      11 -> 16        -0.20172

 Excited state symmetry could not be determined.
 Excited State  12:      Singlet-?Sym   11.7851 eV  105.20 nm  f=0.0000  <S**2>=0.000
       7 -> 14         0.16953
       8 -> 13        -0.16955
      10 -> 14         0.10673
      10 -> 16        -0.41797
      10 -> 19         0.17325
      11 -> 13        -0.10674
      11 -> 17         0.41803
      11 -> 18        -0.17327

 Excited state symmetry could not be determined.
 Excited State  13:      Singlet-?Sym   11.8519 eV  104.61 nm  f=0.0241  <S**2>=0.000
      10 -> 16         0.46447
      11 -> 17         0.46441

 Excited state symmetry could not be determined.
 Excited State  14:      Singlet-?Sym   11.8519 eV  104.61 nm  f=0.0241  <S**2>=0.000
      10 -> 17        -0.46443
      11 -> 16         0.46445

 Excited State  15:      Singlet-A1    12.1873 eV  101.73 nm  f=0.0260  <S**2>=0.000
       9 -> 12        -0.20778
       9 -> 15         0.54514
       9 -> 20        -0.11966
      10 -> 17        -0.23636
      11 -> 16        -0.23635

 Excited State  16:      Singlet-E     12.3258 eV  100.59 nm  f=0.0108  <S**2>=0.000
      11 -> 20         0.65725

 Excited State  17:      Singlet-E     12.3258 eV  100.59 nm  f=0.0108  <S**2>=0.000
      10 -> 20         0.65725

 Excited State  18:      Singlet-E     12.4163 eV   99.86 nm  f=0.1120  <S**2>=0.000
       7 -> 12         0.68164
      10 -> 15         0.11648

 Excited State  19:      Singlet-E     12.4163 eV   99.86 nm  f=0.1120  <S**2>=0.000
       8 -> 12         0.68164
      11 -> 15         0.11647

 Excited state symmetry could not be determined.
 Excited State  20:      Singlet-?Sym   12.4922 eV   99.25 nm  f=0.0000  <S**2>=0.000
       7 -> 14         0.32538
       8 -> 13        -0.32534
      10 -> 16         0.24363
      10 -> 19         0.27187
      11 -> 17        -0.24364
      11 -> 18        -0.27192

 Excited state symmetry could not be determined.
 Excited State  21:      Singlet-?Sym   12.5121 eV   99.09 nm  f=0.0000  <S**2>=0.000
       7 -> 14         0.33119
       8 -> 13        -0.33127
      10 -> 19        -0.36701
      11 -> 18         0.36723

 Excited state symmetry could not be determined.
 Excited State  22:      Singlet-?Sym   12.5654 eV   98.67 nm  f=0.0134  <S**2>=0.000
       7 -> 13        -0.22507
       8 -> 14         0.22483
      10 -> 18         0.42117
      10 -> 20         0.14061
      11 -> 19        -0.42046

 Excited state symmetry could not be determined.
 Excited State  23:      Singlet-?Sym   12.5654 eV   98.67 nm  f=0.0134  <S**2>=0.000
       7 -> 14        -0.22502
       8 -> 13        -0.22489
      10 -> 19         0.42092
      11 -> 18         0.42070
      11 -> 20        -0.14059

 Excited state symmetry could not be determined.
 Excited State  24:      Singlet-?Sym   12.5661 eV   98.67 nm  f=0.3245  <S**2>=0.000
       7 -> 13        -0.14874
       8 -> 14        -0.14912
       9 -> 15        -0.18515
      10 -> 13        -0.11730
      10 -> 17        -0.10441
      10 -> 18         0.41048
      11 -> 14        -0.11730
      11 -> 16        -0.10437
      11 -> 19         0.41118

 Excited state symmetry could not be determined.
 Excited State  25:      Singlet-?Sym   12.6615 eV   97.92 nm  f=0.1312  <S**2>=0.000
       9 -> 12        -0.11754
       9 -> 15         0.22520
       9 -> 20        -0.12436
       9 -> 24        -0.11733
      10 -> 13         0.13208
      10 -> 17         0.34060
      10 -> 18         0.23086
      11 -> 14         0.13208
      11 -> 16         0.34059
      11 -> 19         0.23090

 Excited state symmetry could not be determined.
 Excited State  26:      Singlet-?Sym   12.7207 eV   97.47 nm  f=0.0223  <S**2>=0.000
       7 -> 13        -0.41113
       8 -> 14         0.41113
      10 -> 17        -0.12265
      10 -> 18        -0.21353
      11 -> 16         0.12266
      11 -> 19         0.21355

 Excited state symmetry could not be determined.
 Excited State  27:      Singlet-?Sym   12.7207 eV   97.47 nm  f=0.0223  <S**2>=0.000
       7 -> 14         0.41112
       8 -> 13         0.41114
      10 -> 16         0.12266
      10 -> 19         0.21356
      11 -> 17         0.12266
      11 -> 18         0.21353

 Excited State  28:      Singlet-E     13.2891 eV   93.30 nm  f=0.0044  <S**2>=0.000
       9 -> 14        -0.12613
       9 -> 16         0.64867
       9 -> 19        -0.20625

 Excited State  29:      Singlet-E     13.2891 eV   93.30 nm  f=0.0044  <S**2>=0.000
       9 -> 13        -0.12613
       9 -> 17         0.64867
       9 -> 18        -0.20626

 Excited state symmetry could not be determined.
 Excited State  30:      Singlet-?Sym   13.5502 eV   91.50 nm  f=0.0981  <S**2>=0.000
       6 -> 15         0.13279
       7 -> 13         0.39959
       8 -> 14         0.39959
       9 -> 20        -0.18506
       9 -> 24         0.15633
      10 -> 13        -0.11301
      10 -> 22        -0.11392
      11 -> 14        -0.11302
      11 -> 21         0.11394

 Excited State  31:      Singlet-A1    13.6221 eV   91.02 nm  f=0.2993  <S**2>=0.000
       6 -> 12         0.10577
       7 -> 13         0.14698
       8 -> 14         0.14698
       9 -> 15         0.16316
       9 -> 20         0.61162
       9 -> 23         0.15107

 Excited State  32:      Singlet-A1    13.8103 eV   89.78 nm  f=0.0414  <S**2>=0.000
       6 -> 12         0.67595

 Excited State  33:      Singlet-E     13.9497 eV   88.88 nm  f=0.0003  <S**2>=0.000
       9 -> 17         0.18953
       9 -> 18         0.63757
       9 -> 22         0.16063
       9 -> 25         0.10271

 Excited State  34:      Singlet-E     13.9497 eV   88.88 nm  f=0.0003  <S**2>=0.000
       9 -> 16         0.18953
       9 -> 19         0.63757
       9 -> 21        -0.16063
       9 -> 26        -0.10271

 Excited State  35:      Singlet-E     14.0716 eV   88.11 nm  f=0.0333  <S**2>=0.000
       6 -> 13         0.62936
       7 -> 18         0.10193
       8 -> 19        -0.10193
      10 -> 20         0.12763
      10 -> 24        -0.15336

 Excited State  36:      Singlet-E     14.0716 eV   88.11 nm  f=0.0333  <S**2>=0.000
       6 -> 14         0.62936
       7 -> 19        -0.10193
       8 -> 18        -0.10193
      11 -> 20         0.12763
      11 -> 24        -0.15336

 Excited state symmetry could not be determined.
 Excited State  37:      Singlet-?Sym   14.1936 eV   87.35 nm  f=0.0001  <S**2>=0.000
       7 -> 15         0.33476
       9 -> 18         0.10378
      10 -> 22         0.39165
      10 -> 24        -0.12435
      11 -> 21         0.39168

 Excited state symmetry could not be determined.
 Excited State  38:      Singlet-?Sym   14.1936 eV   87.35 nm  f=0.0001  <S**2>=0.000
       8 -> 15         0.33465
       9 -> 19         0.10377
      10 -> 21         0.39173
      11 -> 22        -0.39171
      11 -> 24        -0.12430

 Excited State  39:      Singlet-E     14.2638 eV   86.92 nm  f=0.0146  <S**2>=0.000
       8 -> 15         0.52333
      10 -> 21        -0.24805
      11 -> 22         0.24804
      11 -> 24        -0.24556

 Excited State  40:      Singlet-E     14.2638 eV   86.92 nm  f=0.0146  <S**2>=0.000
       7 -> 15         0.52326
      10 -> 22        -0.24811
      10 -> 24        -0.24554
      11 -> 21        -0.24815

 Excited state symmetry could not be determined.
 Excited State  41:      Singlet-?Sym   14.4090 eV   86.05 nm  f=0.0000  <S**2>=0.000
      10 -> 21         0.47687
      11 -> 22         0.47689

 Excited State  42:      Singlet-E     14.7391 eV   84.12 nm  f=0.0087  <S**2>=0.000
       6 -> 14         0.14874
       8 -> 15         0.24630
       9 -> 21        -0.12400
      11 -> 24         0.57923

 Excited State  43:      Singlet-E     14.7391 eV   84.12 nm  f=0.0087  <S**2>=0.000
       6 -> 13         0.14873
       7 -> 15         0.24629
       9 -> 22         0.12400
      10 -> 24         0.57923

 Excited state symmetry could not be determined.
 Excited State  44:      Singlet-?Sym   14.8176 eV   83.67 nm  f=0.0040  <S**2>=0.000
       6 -> 20         0.13572
       9 -> 23         0.16519
       9 -> 24        -0.19405
      10 -> 22         0.40088
      11 -> 21        -0.40081

 Excited state symmetry could not be determined.
 Excited State  45:      Singlet-?Sym   14.9520 eV   82.92 nm  f=0.0000  <S**2>=0.000
       7 -> 16        -0.43524
       7 -> 19         0.21478
       8 -> 17         0.43704
       8 -> 18        -0.21460

 Excited state symmetry could not be determined.
 Excited State  46:      Singlet-?Sym   14.9583 eV   82.89 nm  f=0.0528  <S**2>=0.000
       7 -> 17         0.46790
       8 -> 16        -0.46788

 Excited state symmetry could not be determined.
 Excited State  47:      Singlet-?Sym   14.9583 eV   82.89 nm  f=0.0528  <S**2>=0.000
       7 -> 16         0.46873
       8 -> 17         0.46705

 Excited State  48:      Singlet-E     15.1007 eV   82.10 nm  f=0.0000  <S**2>=0.000
       8 -> 15         0.10221
       8 -> 20        -0.19425
      11 -> 23         0.65144

 Excited State  49:      Singlet-E     15.1007 eV   82.10 nm  f=0.0000  <S**2>=0.000
       7 -> 15         0.10221
       7 -> 20        -0.19421
      10 -> 23         0.65144

 Excited state symmetry could not be determined.
 Excited State  50:      Singlet-?Sym   15.2495 eV   81.30 nm  f=0.0036  <S**2>=0.000
       6 -> 15        -0.17517
       6 -> 20         0.10195
       7 -> 17         0.34040
       7 -> 18        -0.29406
       8 -> 16         0.34041
       8 -> 19        -0.29406
      10 -> 25         0.12080
      11 -> 26        -0.12081

 Excited state symmetry could not be determined.
 Excited State  51:      Singlet-?Sym   15.3080 eV   80.99 nm  f=0.0000  <S**2>=0.000
       7 -> 16        -0.21690
       7 -> 19        -0.41364
       8 -> 17         0.21691
       8 -> 18         0.41368
      10 -> 26        -0.13614
      11 -> 25        -0.13616

 Excited State  52:      Singlet-E     15.3510 eV   80.77 nm  f=0.0366  <S**2>=0.000
       8 -> 20         0.14671
       9 -> 19         0.12765
       9 -> 21         0.61408
       9 -> 28         0.13209
       9 -> 32        -0.12817
      11 -> 24         0.10790

 Excited State  53:      Singlet-E     15.3510 eV   80.77 nm  f=0.0366  <S**2>=0.000
       7 -> 20        -0.14668
       9 -> 18        -0.12765
       9 -> 22         0.61409
       9 -> 29         0.13210
       9 -> 33        -0.12817
      10 -> 24        -0.10792

 Excited State  54:      Singlet-E     15.5521 eV   79.72 nm  f=0.0144  <S**2>=0.000
       7 -> 19        -0.13611
       8 -> 18        -0.13604
       8 -> 20         0.58042
       8 -> 24         0.13500
       9 -> 21        -0.14020
      11 -> 23         0.19830
      11 -> 24        -0.13154

 Excited State  55:      Singlet-E     15.5521 eV   79.72 nm  f=0.0144  <S**2>=0.000
       7 -> 18         0.13616
       7 -> 20         0.58043
       7 -> 24         0.13499
       8 -> 19        -0.13605
       9 -> 22         0.14016
      10 -> 23         0.19828
      10 -> 24        -0.13152

 Excited State  56:      Singlet-A1    15.6498 eV   79.22 nm  f=0.0119  <S**2>=0.000
       6 -> 15         0.37602
       7 -> 17        -0.18278
       7 -> 18        -0.30237
       8 -> 16        -0.18279
       8 -> 19        -0.30243
       9 -> 23         0.16677
       9 -> 24        -0.12647
      10 -> 25         0.11979
      11 -> 26        -0.11979

 Excited State  57:      Singlet-A1    15.8877 eV   78.04 nm  f=0.0238  <S**2>=0.000
       6 -> 15         0.28388
       6 -> 20         0.11799
       7 -> 18        -0.10716
       8 -> 19        -0.10716
       9 -> 20         0.12678
       9 -> 23        -0.32559
       9 -> 24         0.34957
      10 -> 22         0.15716
      10 -> 25        -0.15493
      11 -> 21        -0.15715
      11 -> 26         0.15494

 Excited state symmetry could not be determined.
 Excited State  58:      Singlet-?Sym   16.0318 eV   77.34 nm  f=0.3357  <S**2>=0.000
       6 -> 14         0.12719
       6 -> 16        -0.33812
       7 -> 19         0.38013
       8 -> 18         0.38013
       8 -> 20         0.21532

 Excited state symmetry could not be determined.
 Excited State  59:      Singlet-?Sym   16.0318 eV   77.34 nm  f=0.3357  <S**2>=0.000
       6 -> 13        -0.12718
       6 -> 17         0.33810
       7 -> 18         0.38013
       7 -> 20        -0.21537
       8 -> 19        -0.38013

 Excited State  60:      Singlet-A1    16.1845 eV   76.61 nm  f=0.1324  <S**2>=0.000
       6 -> 15         0.36065
       7 -> 17         0.18659
       7 -> 18         0.14860
       8 -> 16         0.18659
       8 -> 19         0.14862
       9 -> 20         0.10862
       9 -> 23        -0.28000
       9 -> 24        -0.32792

 Excited State  61:      Singlet-A1    16.2612 eV   76.25 nm  f=0.0067  <S**2>=0.000
       6 -> 15         0.17526
       7 -> 17         0.16768
       8 -> 16         0.16769
       9 -> 23         0.35166
      10 -> 25        -0.33583
      11 -> 26         0.33588

 Excited state symmetry could not be determined.
 Excited State  62:      Singlet-?Sym   16.2640 eV   76.23 nm  f=0.0000  <S**2>=0.000
       7 -> 19        -0.15523
       8 -> 18         0.15528
      10 -> 26         0.45865
      11 -> 25         0.45871

 Excited State  63:      Singlet-E     16.3256 eV   75.94 nm  f=0.0004  <S**2>=0.000
       6 -> 16         0.52886
       6 -> 19        -0.12563
       7 -> 19         0.18377
       8 -> 18         0.18375
      10 -> 26        -0.23107
      11 -> 25         0.23100

 Excited State  64:      Singlet-E     16.3256 eV   75.94 nm  f=0.0004  <S**2>=0.000
       6 -> 17         0.52887
       6 -> 18        -0.12563
       7 -> 18        -0.18376
       8 -> 19         0.18376
      10 -> 25        -0.23106
      11 -> 26        -0.23098

 Excited State  65:      Singlet-A1    16.5416 eV   74.95 nm  f=0.0119  <S**2>=0.000
       6 -> 15         0.17882
       7 -> 18         0.17335
       8 -> 19         0.17333
       9 -> 23         0.28258
       9 -> 24         0.26777
      10 -> 25         0.21660
      10 -> 29        -0.20281
      11 -> 26        -0.21663
      11 -> 28         0.20281

 Excited state symmetry could not be determined.
 Excited State  66:      Singlet-?Sym   16.8029 eV   73.79 nm  f=0.4822  <S**2>=0.000
       6 -> 14         0.11884
       6 -> 16         0.17279
       6 -> 19        -0.24406
       9 -> 26         0.17142
      10 -> 26         0.37377
      11 -> 25        -0.37374

 Excited state symmetry could not be determined.
 Excited State  67:      Singlet-?Sym   16.8029 eV   73.79 nm  f=0.4821  <S**2>=0.000
       6 -> 13         0.11883
       6 -> 17         0.17276
       6 -> 18        -0.24409
       9 -> 25        -0.17144
      10 -> 25         0.37376
      11 -> 26         0.37374

 Excited State  68:      Singlet-E     16.9991 eV   72.94 nm  f=0.0406  <S**2>=0.000
       6 -> 16         0.20656
       6 -> 19         0.59648
       9 -> 26        -0.13873
      10 -> 26         0.14224
      11 -> 25        -0.14222

 Excited State  69:      Singlet-E     16.9991 eV   72.94 nm  f=0.0407  <S**2>=0.000
       6 -> 17         0.20657
       6 -> 18         0.59647
       9 -> 25         0.13871
      10 -> 25         0.14226
      11 -> 26         0.14224

 Excited State  70:      Singlet-E     17.3443 eV   71.48 nm  f=0.0259  <S**2>=0.000
       7 -> 21        -0.14918
       8 -> 22         0.14920
      10 -> 28         0.32179
      10 -> 32        -0.13480
      11 -> 27         0.39711
      11 -> 29        -0.32184
      11 -> 33         0.13482

 Excited State  71:      Singlet-E     17.3443 eV   71.48 nm  f=0.0258  <S**2>=0.000
       7 -> 22        -0.14914
       8 -> 21        -0.14918
      10 -> 27         0.39725
      10 -> 29         0.32175
      10 -> 33        -0.13479
      11 -> 28         0.32176
      11 -> 32        -0.13479

 Excited state symmetry could not be determined.
 Excited State  72:      Singlet-?Sym   17.3772 eV   71.35 nm  f=0.0000  <S**2>=0.000
       7 -> 21        -0.14252
       8 -> 22        -0.14254
      10 -> 28         0.44119
      10 -> 32        -0.13586
      11 -> 29         0.44131
      11 -> 33        -0.13588

 Excited State  73:      Singlet-E     17.3890 eV   71.30 nm  f=0.1542  <S**2>=0.000
      10 -> 28        -0.24870
      11 -> 27         0.55177
      11 -> 29         0.24843

 Excited State  74:      Singlet-E     17.3890 eV   71.30 nm  f=0.1542  <S**2>=0.000
      10 -> 27         0.55166
      10 -> 29        -0.24864
      11 -> 28        -0.24866

 Excited State  75:      Singlet-E     17.4735 eV   70.96 nm  f=0.0023  <S**2>=0.000
       6 -> 18        -0.18585
       9 -> 18        -0.10580
       9 -> 25         0.64040

 Excited State  76:      Singlet-E     17.4735 eV   70.96 nm  f=0.0023  <S**2>=0.000
       6 -> 19         0.18585
       9 -> 19         0.10580
       9 -> 26         0.64040

 Excited State  77:      Singlet-A1    17.7297 eV   69.93 nm  f=0.4080  <S**2>=0.000
       6 -> 20         0.50742
       7 -> 22        -0.26104
       8 -> 21         0.26103
      10 -> 29         0.13974
      11 -> 28        -0.13969

 Excited State  78:      Singlet-E     17.8892 eV   69.31 nm  f=0.0010  <S**2>=0.000
      11 -> 30         0.65373
      11 -> 34        -0.16580

 Excited State  79:      Singlet-E     17.8892 eV   69.31 nm  f=0.0010  <S**2>=0.000
      10 -> 30         0.65373
      10 -> 34        -0.16580

 Excited State  80:      Singlet-A1    18.1361 eV   68.36 nm  f=0.0226  <S**2>=0.000
       6 -> 20         0.37960
       7 -> 22         0.28838
       8 -> 21        -0.28871
       9 -> 24        -0.17302
      10 -> 29        -0.19931
      11 -> 28         0.19912

 Excited state symmetry could not be determined.
 Excited State  81:      Singlet-?Sym   18.1495 eV   68.31 nm  f=0.0114  <S**2>=0.000
       7 -> 22         0.42819
       8 -> 21         0.42794
      10 -> 29         0.21062
      11 -> 28         0.21077

 Excited state symmetry could not be determined.
 Excited State  82:      Singlet-?Sym   18.1495 eV   68.31 nm  f=0.0114  <S**2>=0.000
       7 -> 21        -0.42806
       8 -> 22         0.42806
      10 -> 28        -0.21071
      11 -> 29         0.21070

 Excited state symmetry could not be determined.
 Excited State  83:      Singlet-?Sym   18.2833 eV   67.81 nm  f=0.0000  <S**2>=0.000
       7 -> 21         0.36394
       8 -> 22         0.36394
      10 -> 28         0.19989
      10 -> 32         0.27084
      11 -> 29         0.19989
      11 -> 33         0.27085

 Excited State  84:      Singlet-E     18.3377 eV   67.61 nm  f=0.0000  <S**2>=0.000
      10 -> 33         0.11535
      11 -> 31         0.66475
      11 -> 32         0.11823

 Excited State  85:      Singlet-E     18.3377 eV   67.61 nm  f=0.0000  <S**2>=0.000
      10 -> 31         0.66478
      10 -> 32        -0.11675
      11 -> 33         0.11676

 Excited state symmetry could not be determined.
 Excited State  86:      Singlet-?Sym   18.3383 eV   67.61 nm  f=0.0015  <S**2>=0.000
       7 -> 22         0.21192
       8 -> 21        -0.21224

 The electronic state is 1-A1.
 Alpha  occ. eigenvalues --  -14.44982 -10.35828 -10.34730  -1.00303  -0.87380
 Alpha  occ. eigenvalues --   -0.60681  -0.55614  -0.55614  -0.45409  -0.42073
 Alpha  occ. eigenvalues --   -0.42073
 Alpha virt. eigenvalues --    0.07370   0.09920   0.09920   0.13635   0.18066
 Alpha virt. eigenvalues --    0.18066   0.20460   0.20460   0.21113   0.28855
 Alpha virt. eigenvalues --    0.28855   0.30189   0.31301   0.36735   0.36735

 Mulliken charges:
               1
     1  C    0.110700
     2  C   -0.302095
     3  N   -0.036602
     4  H    0.075999
     5  H    0.075999
     6  H    0.075999
 Sum of Mulliken charges =  -0.00000

 Dipole moment (field-independent basis, Debye):
    X=             -0.0000    Y=              0.0000    Z=             -4.0722  Tot=              4.0722
 Quadrupole moment (field-independent basis, Debye-Ang):
   XX=            -17.5664   YY=            -17.5664   ZZ=            -20.8744
   XY=             -0.0000   XZ=             -0.0000   YZ=             -0.0000

 Normal termination of Gaussian 16 at Sat Feb 12 22:18:24 2022.
