 Gaussian 16, Revision C.01,
 Gaussian 16:  EM64L-G16RevC.01  3-Jul-2019

 ----------------------------------------------------------------------
 #P TD(Nstates=10000) wB97XD/Gen SCF(maxcycles=100) Int(Grid=ultrafine)
 ----------------------------------------------------------------------

 ---------------------
 xGDB7_00001_tier4.com
 ---------------------
 Symbolic Z-matrix:
 Charge =  0 Multiplicity = 1

                         Standard orientation:
 ---------------------------------------------------------------------
 Center     Atomic      Atomic             Coordinates (Angstroms)
 Number     Number       Type             X           Y           Z
 ---------------------------------------------------------------------
      1          6           0       -0.000002    0.000002   -0.000001
      2          1           0        0.522735   -0.218730    0.940345
      3          1           0       -0.998021    0.400732    0.220726
      4          1           0       -0.097687   -0.922308   -0.587489
      5          1           0        0.572987    0.740295   -0.573577
 ---------------------------------------------------------------------

 SCF Done:  E(RwB97XD) =  -40.4748648921     A.U. after   11 cycles

 Excitation energies and oscillator strengths:

 Excited State   1:      Singlet-A     10.7114 eV  115.75 nm  f=0.1566  <S**2>=0.000
       5 ->  6         0.70202
 This state for optimization and/or second-order correction.
 Total Energy, E(TD-HF/TD-DFT) =  -40.0812266623
 Copying the excited state density for this state as the 1-particle RhoCI density.

 Excited State   2:      Singlet-A     10.7115 eV  115.75 nm  f=0.1566  <S**2>=0.000
       4 ->  6         0.70227

 Excited State   3:      Singlet-A     10.7116 eV  115.75 nm  f=0.1566  <S**2>=0.000
       3 ->  6         0.70219

 Excited State   4:      Singlet-A     13.1093 eV   94.58 nm  f=0.0000  <S**2>=0.000
       3 ->  8         0.20027
       4 ->  7        -0.16752
       4 ->  8        -0.38716
       4 -> 10        -0.16301
       5 ->  7         0.40746
       5 ->  8        -0.14777
       5 ->  9        -0.10781
       5 -> 11         0.16728

 Excited State   5:      Singlet-A     13.1093 eV   94.58 nm  f=0.0000  <S**2>=0.000
       3 ->  7         0.26229
       3 ->  8         0.22363
       3 ->  9        -0.29703
       3 -> 10         0.13552
       4 ->  7         0.18816
       4 ->  8         0.11545
       4 ->  9         0.15223
       5 ->  7         0.19532
       5 ->  8         0.10016
       5 ->  9         0.31605
       5 -> 12        -0.13277

 Excited State   6:      Singlet-A     13.1094 eV   94.58 nm  f=0.0000  <S**2>=0.000
       3 ->  7         0.21643
       3 ->  8        -0.34155
       3 ->  9        -0.11690
       3 -> 11         0.14543
       4 ->  7         0.20412
       4 ->  8        -0.10439
       4 ->  9         0.34262
       4 -> 12        -0.14395
       5 ->  8        -0.11858
       5 ->  9        -0.25657

 Excited State   7:      Singlet-A     13.1479 eV   94.30 nm  f=0.1321  <S**2>=0.000
       3 ->  7         0.13557
       3 ->  8         0.11394
       3 -> 13        -0.10320
       4 ->  7        -0.30225
       4 ->  8        -0.19688
       4 ->  9         0.23107
       5 ->  7        -0.26289
       5 ->  8         0.41925

 Excited State   8:      Singlet-A     13.1479 eV   94.30 nm  f=0.1321  <S**2>=0.000
       3 ->  7        -0.26354
       3 ->  8        -0.31348
       3 ->  9        -0.16949
       4 ->  7        -0.14662
       4 ->  8        -0.18485
       4 ->  9         0.12469
       5 ->  9         0.43410

 Excited State   9:      Singlet-A     13.1480 eV   94.30 nm  f=0.1321  <S**2>=0.000
       3 ->  7         0.42047
       3 ->  8        -0.24203
       4 ->  7        -0.10054
       4 ->  8        -0.19491
       4 ->  9        -0.40306
       5 ->  9         0.10491

 Excited State  10:      Singlet-A     13.2912 eV   93.28 nm  f=0.0000  <S**2>=0.000
       3 ->  8        -0.26055
       3 ->  9         0.12497
       4 ->  7        -0.20847
       4 ->  8         0.31214
       4 ->  9         0.10850
       5 ->  7         0.40439
       5 ->  8         0.28395

 Excited State  11:      Singlet-A     13.2914 eV   93.28 nm  f=0.0000  <S**2>=0.000
       3 ->  9         0.48664
       4 ->  7         0.33403
       4 ->  8        -0.21023
       4 ->  9         0.12027
       5 ->  8         0.18136
       5 ->  9         0.20689

 Excited State  12:      Singlet-A     13.6625 eV   90.75 nm  f=0.0000  <S**2>=0.000
       3 ->  7        -0.17405
       3 ->  9        -0.18820
       3 -> 10        -0.13406
       3 -> 11        -0.11059
       3 -> 12         0.25821
       4 ->  7         0.18559
       4 ->  8        -0.11167
       4 ->  9        -0.14451
       4 -> 11         0.28277
       4 -> 12         0.12934
       5 ->  8         0.23064
       5 ->  9        -0.10731
       5 -> 10         0.28080
       5 -> 12         0.11586

 Excited State  13:      Singlet-A     13.7461 eV   90.20 nm  f=0.0000  <S**2>=0.000
       3 -> 10        -0.26285
       3 -> 12        -0.13622
       4 -> 10         0.14870
       4 -> 11        -0.34117
       5 -> 10         0.46332
       5 -> 11         0.19337

 Excited State  14:      Singlet-A     13.7462 eV   90.20 nm  f=0.0000  <S**2>=0.000
       3 -> 12         0.47503
       4 -> 11        -0.38838
       4 -> 12         0.17777
       5 -> 10        -0.13756
       5 -> 11         0.10352
       5 -> 12         0.20963

 Excited State  15:      Singlet-A     13.7981 eV   89.86 nm  f=0.0000  <S**2>=0.000
       3 -> 14         0.15244
       4 ->  8         0.15304
       4 -> 10        -0.40645
       4 -> 12        -0.12537
       5 ->  7        -0.14613
       5 -> 11         0.42547

 Excited State  16:      Singlet-A     13.7981 eV   89.86 nm  f=0.0000  <S**2>=0.000
       3 ->  8         0.14685
       3 -> 10        -0.39131
       3 -> 12        -0.17108
       4 -> 13         0.14257
       5 ->  9         0.14357
       5 -> 10        -0.18089
       5 -> 12         0.39833

 Excited State  17:      Singlet-A     13.7982 eV   89.86 nm  f=0.0000  <S**2>=0.000
       3 ->  7        -0.12245
       3 -> 11         0.40342
       3 -> 12         0.17826
       4 ->  7        -0.11202
       4 ->  9        -0.13276
       4 -> 10         0.14807
       4 -> 11         0.16678
       4 -> 12        -0.38308
       5 -> 13        -0.13528

 Excited State  18:      Singlet-A     14.4636 eV   85.72 nm  f=0.0262  <S**2>=0.000
       3 -> 13         0.34617
       3 -> 14         0.10093
       4 -> 10         0.31464
       4 -> 11         0.16428
       4 -> 12         0.17927
       4 -> 13         0.10967
       5 -> 10        -0.15984
       5 -> 11         0.36591
       5 -> 14        -0.13313

 Excited State  19:      Singlet-A     14.4636 eV   85.72 nm  f=0.0262  <S**2>=0.000
       3 -> 10         0.26233
       3 -> 11        -0.22527
       3 -> 14        -0.15601
       4 -> 10         0.21804
       4 -> 12        -0.17312
       4 -> 13        -0.10109
       4 -> 14         0.26885
       5 -> 12         0.34121
       5 -> 13         0.18727
       5 -> 14         0.12402

 Excited State  20:      Singlet-A     14.4636 eV   85.72 nm  f=0.0262  <S**2>=0.000
       3 -> 10         0.22812
       3 -> 11         0.33334
       3 -> 12        -0.16816
       4 -> 12         0.29301
       4 -> 13        -0.21620
       4 -> 14         0.15474
       5 -> 10         0.14672
       5 -> 12         0.15331
       5 -> 14        -0.28652

 Excited State  21:      Singlet-A     14.7947 eV   83.80 nm  f=0.0000  <S**2>=0.000
       3 -> 13        -0.20350
       4 -> 12        -0.11161
       4 -> 14        -0.21368
       5 -> 13         0.54581
       5 -> 14        -0.25589

 Excited State  22:      Singlet-A     14.7948 eV   83.80 nm  f=0.0000  <S**2>=0.000
       3 -> 10         0.11713
       3 -> 13        -0.19606
       3 -> 14        -0.12960
       4 -> 13         0.51090
       4 -> 14         0.29887
       5 -> 12        -0.10537
       5 -> 14        -0.21319

 Excited State  23:      Singlet-A     14.7948 eV   83.80 nm  f=0.0000  <S**2>=0.000
       3 -> 13        -0.14062
       3 -> 14         0.57899
       4 -> 10         0.12856
       4 -> 14         0.23151
       5 -> 11        -0.10886
       5 -> 13         0.12731
       5 -> 14         0.16113

 Excited State  24:      Singlet-A     15.0320 eV   82.48 nm  f=0.0000  <S**2>=0.000
       3 ->  7        -0.20312
       3 ->  9        -0.21956
       3 -> 10         0.11280
       3 -> 12        -0.21753
       4 ->  7         0.21658
       4 ->  8        -0.13031
       4 ->  9        -0.16862
       4 -> 11        -0.23802
       4 -> 12        -0.10893
       5 ->  8         0.26921
       5 ->  9        -0.12523
       5 -> 10        -0.23620

 Excited State  25:      Singlet-A     15.1092 eV   82.06 nm  f=0.7180  <S**2>=0.000
       3 ->  7         0.11467
       3 -> 11         0.26537
       3 -> 14        -0.16401
       4 ->  9        -0.10253
       4 -> 12         0.23610
       4 -> 13         0.18302
       5 -> 13         0.23034
       5 -> 14         0.43930

 Excited State  26:      Singlet-A     15.1092 eV   82.06 nm  f=0.7180  <S**2>=0.000
       3 -> 10        -0.21675
       3 -> 12         0.10593
       3 -> 13         0.15378
       3 -> 14        -0.14122
       4 -> 10        -0.14389
       4 -> 13        -0.23598
       4 -> 14         0.41937
       5 ->  9         0.11066
       5 -> 12        -0.24477
       5 -> 13         0.17788

 Excited State  27:      Singlet-A     15.1092 eV   82.06 nm  f=0.7180  <S**2>=0.000
       3 -> 13         0.46333
       3 -> 14         0.14664
       4 -> 10        -0.19892
       4 -> 11        -0.10570
       4 -> 12        -0.10139
       4 -> 13         0.20042
       5 ->  8         0.10223
       5 -> 10         0.12282
       5 -> 11        -0.24285
       5 -> 14        -0.14092

 Excited State  28:      Singlet-A     17.5737 eV   70.55 nm  f=0.1171  <S**2>=0.000
       5 -> 15         0.69961

 Excited State  29:      Singlet-A     17.5738 eV   70.55 nm  f=0.1171  <S**2>=0.000
       4 -> 15         0.69934

 Excited State  30:      Singlet-A     17.5739 eV   70.55 nm  f=0.1171  <S**2>=0.000
       3 -> 15         0.69902

 Excited State  31:      Singlet-A     19.0888 eV   64.95 nm  f=0.0504  <S**2>=0.000
       5 -> 16         0.67383

 Excited State  32:      Singlet-A     19.0888 eV   64.95 nm  f=0.0504  <S**2>=0.000
       4 -> 16         0.67378

 Excited State  33:      Singlet-A     19.0889 eV   64.95 nm  f=0.0504  <S**2>=0.000
       3 -> 16         0.67398

 Excited State  34:      Singlet-A     19.1552 eV   64.73 nm  f=0.0000  <S**2>=0.000
       2 ->  6         0.66044
       3 -> 22        -0.12559
       4 -> 21        -0.12375
       5 -> 20        -0.12851

 Excited State  35:      Singlet-A     19.4129 eV   63.87 nm  f=0.0000  <S**2>=0.000
       3 -> 17         0.22844
       3 -> 18        -0.18118
       3 -> 22         0.14364
       4 -> 18         0.33821
       4 -> 21        -0.12787
       5 -> 17        -0.19198
       5 -> 18         0.14189
       5 -> 19         0.41795

 Excited State  36:      Singlet-A     19.4129 eV   63.87 nm  f=0.0000  <S**2>=0.000
       3 -> 17         0.41774
       3 -> 18         0.11433
       3 -> 19         0.13647
       4 -> 18        -0.28392
       4 -> 19         0.28995
       4 -> 21        -0.10839
       5 -> 17         0.13911
       5 -> 18         0.18277
       5 -> 19         0.10147
       5 -> 20         0.14833

 Excited State  37:      Singlet-A     19.4882 eV   63.62 nm  f=0.0131  <S**2>=0.000
       3 -> 16         0.12728
       4 -> 17        -0.34326
       4 -> 18         0.31874
       4 -> 19         0.11384
       5 -> 17         0.29601
       5 -> 18         0.36206
       5 -> 19        -0.13257

 Excited State  38:      Singlet-A     19.4882 eV   63.62 nm  f=0.0131  <S**2>=0.000
       3 -> 17        -0.34062
       3 -> 18         0.31268
       3 -> 19         0.13688
       4 -> 16        -0.12735
       5 -> 17         0.18832
       5 -> 19         0.44821

 Excited State  39:      Singlet-A     19.4882 eV   63.62 nm  f=0.0131  <S**2>=0.000
       3 -> 17        -0.26176
       3 -> 18        -0.36317
       3 -> 19         0.18911
       4 -> 17         0.21051
       4 -> 19         0.43224
       5 -> 16         0.12835

 Excited State  40:      Singlet-A     19.6362 eV   63.14 nm  f=0.0000  <S**2>=0.000
       3 -> 21        -0.16449
       4 -> 17         0.33731
       4 -> 19        -0.25336
       4 -> 20        -0.17139
       4 -> 22         0.11168
       5 -> 18         0.41790
       5 -> 19        -0.14045
       5 -> 21         0.14970

 Excited State  41:      Singlet-A     19.6362 eV   63.14 nm  f=0.0000  <S**2>=0.000
       3 -> 18        -0.32783
       3 -> 19        -0.22606
       3 -> 20         0.20124
       4 -> 18        -0.15375
       4 -> 19        -0.16444
       4 -> 22        -0.11362
       5 -> 17         0.41019
       5 -> 19         0.11140
       5 -> 22        -0.16167

 Excited State  42:      Singlet-A     19.6363 eV   63.14 nm  f=0.0000  <S**2>=0.000
       3 -> 18        -0.22008
       3 -> 19         0.41229
       3 -> 21         0.12468
       4 -> 17        -0.30073
       4 -> 18        -0.17800
       4 -> 19        -0.19151
       4 -> 20        -0.13018
       4 -> 22        -0.13008
       5 -> 21         0.12907
       5 -> 22         0.14520

 Excited State  43:      Singlet-A     19.7816 eV   62.68 nm  f=0.0000  <S**2>=0.000
       3 -> 17        -0.15160
       3 -> 20        -0.24957
       3 -> 21         0.10118
       4 -> 21        -0.35579
       5 -> 20         0.43167
       5 -> 21         0.13553
       5 -> 22        -0.11639

 Excited State  44:      Singlet-A     19.7817 eV   62.68 nm  f=0.0000  <S**2>=0.000
       3 -> 20         0.15294
       3 -> 22         0.43236
       4 -> 18        -0.12595
       4 -> 21        -0.34638
       4 -> 22         0.16920
       5 -> 19        -0.14055
       5 -> 20        -0.10082
       5 -> 21         0.10177
       5 -> 22         0.22520

 Excited State  45:      Singlet-A     19.8876 eV   62.34 nm  f=0.0000  <S**2>=0.000
       3 -> 17         0.18976
       3 -> 19         0.35788
       4 -> 17         0.22517
       4 -> 18         0.30011
       4 -> 19        -0.16094
       5 -> 17         0.28292
       5 -> 18        -0.27231
       5 -> 19        -0.11195

 Excited State  46:      Singlet-A     19.9114 eV   62.27 nm  f=0.0000  <S**2>=0.000
       3 -> 20        -0.10822
       3 -> 21         0.17623
       4 -> 19        -0.17004
       4 -> 20         0.40129
       5 -> 18         0.19951
       5 -> 20        -0.13925
       5 -> 21        -0.39452

 Excited State  47:      Singlet-A     19.9114 eV   62.27 nm  f=0.0000  <S**2>=0.000
       3 -> 18         0.15011
       3 -> 19         0.14574
       3 -> 20         0.39341
       3 -> 21         0.10447
       3 -> 22         0.16368
       4 -> 20         0.12110
       4 -> 22        -0.21750
       5 -> 17        -0.21335
       5 -> 22        -0.34463

 Excited State  48:      Singlet-A     19.9115 eV   62.27 nm  f=0.0000  <S**2>=0.000
       3 -> 18         0.11429
       3 -> 19        -0.16715
       3 -> 20        -0.10870
       3 -> 21         0.36627
       4 -> 17         0.20937
       4 -> 21         0.17116
       4 -> 22        -0.34022
       5 -> 21         0.11602
       5 -> 22         0.26322

 Excited State  49:      Singlet-A     20.3880 eV   60.81 nm  f=0.1567  <S**2>=0.000
       3 -> 16        -0.10163
       3 -> 20        -0.15361
       3 -> 26         0.12982
       4 -> 20         0.40370
       4 -> 21         0.12737
       5 -> 20        -0.17625
       5 -> 21         0.44178

 Excited State  50:      Singlet-A     20.3881 eV   60.81 nm  f=0.1567  <S**2>=0.000
       3 -> 20         0.33081
       3 -> 22        -0.26058
       4 -> 16        -0.13199
       4 -> 20         0.23310
       4 -> 27        -0.11994
       5 -> 20         0.22086
       5 -> 22         0.39017

 Excited State  51:      Singlet-A     20.3881 eV   60.81 nm  f=0.1567  <S**2>=0.000
       3 -> 16         0.10139
       3 -> 21         0.44542
       3 -> 22        -0.14070
       4 -> 21         0.10883
       4 -> 22         0.43762
       5 -> 27         0.11416

 Excited State  52:      Singlet-A     20.4967 eV   60.49 nm  f=0.0000  <S**2>=0.000
       2 ->  6         0.18352
       3 -> 21        -0.10136
       3 -> 22         0.29450
       3 -> 23        -0.13067
       3 -> 25         0.17123
       4 -> 21         0.29004
       4 -> 22         0.12532
       4 -> 24        -0.17816
       5 -> 20         0.30101
       5 -> 21        -0.10792
       5 -> 23        -0.14966
       5 -> 24         0.12109

 Excited State  53:      Singlet-A     21.2917 eV   58.23 nm  f=0.0000  <S**2>=0.000
       3 -> 24         0.10413
       4 -> 23        -0.34759
       4 -> 24         0.23039
       4 -> 25        -0.11752
       5 -> 23         0.32647
       5 -> 24         0.41630

 Excited State  54:      Singlet-A     21.2917 eV   58.23 nm  f=0.0001  <S**2>=0.000
       3 -> 23         0.35275
       3 -> 24        -0.15239
       3 -> 25         0.17926
       4 -> 23        -0.16969
       5 -> 23        -0.28446
       5 -> 24         0.10311
       5 -> 25         0.42715

 Excited State  55:      Singlet-A     21.2918 eV   58.23 nm  f=0.0000  <S**2>=0.000
       3 -> 23         0.15939
       3 -> 24         0.41392
       3 -> 25         0.13089
       4 -> 23        -0.28327
       4 -> 24        -0.11431
       4 -> 25         0.40024
       5 -> 24        -0.10659
       5 -> 25        -0.10584

 Excited State  56:      Singlet-A     21.2920 eV   58.23 nm  f=0.0023  <S**2>=0.000
       3 -> 23        -0.11253
       3 -> 24         0.22959
       4 -> 23         0.36154
       4 -> 25         0.23916
       5 -> 23        -0.20540
       5 -> 24         0.38113

 Excited State  57:      Singlet-A     21.2920 eV   58.23 nm  f=0.0023  <S**2>=0.000
       2 -> 11         0.11111
       3 -> 24        -0.31310
       3 -> 25         0.29588
       4 -> 23         0.14266
       4 -> 24        -0.15004
       4 -> 25         0.31853
       5 -> 23         0.34014
       5 -> 24         0.11477

 Excited State  58:      Singlet-A     21.2921 eV   58.23 nm  f=0.0023  <S**2>=0.000
       2 ->  7         0.10954
       3 -> 24         0.26665
       3 -> 25         0.45888
       4 -> 23         0.19612
       4 -> 24         0.19867
       4 -> 25        -0.23133
       5 -> 23         0.11572
       5 -> 24        -0.15680

 Excited State  59:      Singlet-A     21.3786 eV   57.99 nm  f=0.0000  <S**2>=0.000
       3 -> 23        -0.26885
       3 -> 24         0.14839
       3 -> 25        -0.11451
       4 -> 24        -0.34811
       5 -> 23         0.12339
       5 -> 25         0.48754

 Excited State  60:      Singlet-A     21.3787 eV   57.99 nm  f=0.0000  <S**2>=0.000
       3 -> 23         0.43213
       3 -> 24         0.16572
       4 -> 23         0.17453
       4 -> 24        -0.33268
       4 -> 25        -0.25472
       5 -> 23         0.15194
       5 -> 24         0.19300

 Excited State  61:      Singlet-A     21.7910 eV   56.90 nm  f=0.0079  <S**2>=0.000
       2 ->  7         0.47318
       2 ->  8         0.45604
       5 -> 27        -0.10876

 Excited State  62:      Singlet-A     21.7910 eV   56.90 nm  f=0.0079  <S**2>=0.000
       2 ->  7        -0.44114
       2 ->  8         0.48228
       2 ->  9         0.11737
       4 -> 27        -0.11317
       5 -> 23         0.10015

 Excited State  63:      Singlet-A     21.7910 eV   56.90 nm  f=0.0079  <S**2>=0.000
       2 ->  7         0.14989
       2 ->  9         0.64660
       3 -> 26         0.11962

 Excited State  64:      Singlet-A     22.4431 eV   55.24 nm  f=0.0000  <S**2>=0.000
       2 ->  6         0.15697
       2 -> 15         0.16784
       3 -> 22         0.15933
       3 -> 23         0.20201
       3 -> 25        -0.26478
       4 -> 21         0.15697
       4 -> 23         0.13294
       4 -> 24         0.27543
       4 -> 25         0.13588
       5 -> 20         0.16300
       5 -> 23         0.23132
       5 -> 24        -0.18718
       5 -> 25         0.15310

 Excited State  65:      Singlet-A     22.5442 eV   55.00 nm  f=0.0373  <S**2>=0.000
       2 -> 10         0.65038
       2 -> 11         0.15640
       2 -> 12        -0.12367

 Excited State  66:      Singlet-A     22.5442 eV   55.00 nm  f=0.0373  <S**2>=0.000
       2 -> 10        -0.15672
       2 -> 11         0.66184

 Excited State  67:      Singlet-A     22.5442 eV   55.00 nm  f=0.0373  <S**2>=0.000
       2 -> 10         0.12327
       2 -> 12         0.66880

 Excited State  68:      Singlet-A     22.8214 eV   54.33 nm  f=0.0000  <S**2>=0.000
       3 -> 26        -0.30919
       3 -> 27        -0.11548
       4 -> 26         0.26603
       5 -> 26         0.44875
       5 -> 27         0.33860

 Excited State  69:      Singlet-A     22.8215 eV   54.33 nm  f=0.0000  <S**2>=0.000
       3 -> 27         0.23057
       4 -> 26         0.49697
       4 -> 27        -0.27264
       5 -> 26        -0.33761

 Excited State  70:      Singlet-A     22.8215 eV   54.33 nm  f=0.0000  <S**2>=0.000
       3 -> 27         0.57414
       4 -> 27         0.30711
       5 -> 27         0.24682

 The electronic state is 1-A.
 Alpha  occ. eigenvalues --  -10.28518  -0.78220  -0.47489  -0.47488  -0.47488
 Alpha virt. eigenvalues --    0.09483   0.19970   0.19970   0.19970   0.23323
 Alpha virt. eigenvalues --    0.23323   0.23323   0.25559   0.25560   0.35231
 Alpha virt. eigenvalues --    0.41657   0.43336   0.43336   0.43336   0.44800

 Mulliken charges:
               1
     1  C    0.078806
     2  H   -0.019706
     3  H   -0.019690
     4  H   -0.019703
     5  H   -0.019707
 Sum of Mulliken charges =  -0.00000

 Dipole moment (field-independent basis, Debye):
    X=              0.0000    Y=             -0.0000    Z=             -0.0000  Tot=              0.0000
 Quadrupole moment (field-independent basis, Debye-Ang):
   XX=             -8.3723   YY=             -8.3723   ZZ=             -8.3724
   XY=              0.0000   XZ=             -0.0000   YZ=              0.0000

 Normal termination of Gaussian 16 at Sat Feb 12 22:25:12 2022.
