 Gaussian 16, Revision C.01,
 Gaussian 16:  EM64L-G16RevC.01  3-Jul-2019

 ----------------------------------------------------------------------
 #P TD(Nstates=10000) wB97XD/Gen SCF(maxcycles=100) Int(Grid=ultrafine)
 ----------------------------------------------------------------------

 ---------------------
 xGDB7_00001_tier4.com
 ---------------------
 Symbolic Z-matrix:
 Charge =  0 Multiplicity = 1

                         Standard orientation:
 ---------------------------------------------------------------------
 Center     Atomic      Atomic             Coordinates (Angstroms)
 Number     Number       Type             X           Y           Z
 ---------------------------------------------------------------------
      1          9           0        0.000000    1.096529   -0.287503
      2          6           0       -0.000000   -0.000000    0.492273
      3          9           0       -0.000000   -1.096529   -0.287503
      4          1           0       -0.913384    0.000000    1.110708
      5          1           0        0.913384   -0.000000    1.110708
 ---------------------------------------------------------------------

 SCF Done:  E(RwB97XD) =  -238.752896576     A.U. after   11 cycles

 Excitation energies and oscillator strengths:

 Excited State   1:      Singlet-B1     9.6273 eV  128.78 nm  f=0.0386  <S**2>=0.000
      13 -> 14         0.69419
 This state for optimization and/or second-order correction.
 Total Energy, E(TD-HF/TD-DFT) =  -238.399098679
 Copying the excited state density for this state as the 1-particle RhoCI density.

 Excited State   2:      Singlet-A2    10.4058 eV  119.15 nm  f=0.0000  <S**2>=0.000
      13 -> 15         0.66853
      13 -> 19        -0.18060

 Excited State   3:      Singlet-B1    10.9760 eV  112.96 nm  f=0.0207  <S**2>=0.000
      13 -> 17         0.65779
      13 -> 18         0.22281

 Excited State   4:      Singlet-A1    11.2765 eV  109.95 nm  f=0.0885  <S**2>=0.000
      13 -> 16         0.69824

 Excited State   5:      Singlet-B2    11.6506 eV  106.42 nm  f=0.0295  <S**2>=0.000
      11 -> 15        -0.18334
      12 -> 14         0.66250
      12 -> 17        -0.12105

 Excited State   6:      Singlet-A1    11.8641 eV  104.50 nm  f=0.0042  <S**2>=0.000
      11 -> 14         0.65071
      12 -> 15        -0.24411

 Excited State   7:      Singlet-A2    12.2313 eV  101.37 nm  f=0.0000  <S**2>=0.000
      10 -> 14         0.65816
      10 -> 17        -0.14255
      13 -> 19        -0.15133

 Excited State   8:      Singlet-A1    12.5461 eV   98.82 nm  f=0.0236  <S**2>=0.000
      11 -> 14         0.23675
      12 -> 15         0.60888
      12 -> 19        -0.13595
      12 -> 23        -0.11983
      13 -> 22         0.14365

 Excited State   9:      Singlet-B1    12.5500 eV   98.79 nm  f=0.1152  <S**2>=0.000
      13 -> 17        -0.22712
      13 -> 18         0.64803

 Excited State  10:      Singlet-B2    12.7661 eV   97.12 nm  f=0.0370  <S**2>=0.000
      11 -> 15         0.49168
      12 -> 14         0.22197
      12 -> 17         0.42009

 Excited State  11:      Singlet-B1    12.9510 eV   95.73 nm  f=0.0335  <S**2>=0.000
      10 -> 15         0.62520
      10 -> 19        -0.12702
      13 -> 21        -0.26814

 Excited State  12:      Singlet-A1    13.0954 eV   94.68 nm  f=0.1494  <S**2>=0.000
      11 -> 17         0.66346
      11 -> 18         0.17094

 Excited State  13:      Singlet-A2    13.1797 eV   94.07 nm  f=0.0000  <S**2>=0.000
      12 -> 16         0.68646
      13 -> 19         0.10442

 Excited State  14:      Singlet-A2    13.2209 eV   93.78 nm  f=0.0000  <S**2>=0.000
      10 -> 14         0.17919
      10 -> 17         0.22976
      12 -> 16        -0.12499
      13 -> 15         0.17857
      13 -> 19         0.58158
      13 -> 23         0.10266

 Excited State  15:      Singlet-B2    13.2592 eV   93.51 nm  f=0.0630  <S**2>=0.000
      10 -> 16        -0.23906
      11 -> 15        -0.28101
      12 -> 17         0.35814
      13 -> 20         0.45894

 Excited State  16:      Singlet-B1    13.2829 eV   93.34 nm  f=0.0568  <S**2>=0.000
      11 -> 16         0.69433

 Excited State  17:      Singlet-A2    13.4889 eV   91.92 nm  f=0.0000  <S**2>=0.000
      10 -> 17         0.57457
      10 -> 18         0.17324
      10 -> 25         0.11300
      13 -> 15        -0.10281
      13 -> 19        -0.14046
      13 -> 23        -0.27557

 Excited State  18:      Singlet-B2    13.5281 eV   91.65 nm  f=0.0230  <S**2>=0.000
      10 -> 16         0.37962
      11 -> 15        -0.31072
      12 -> 17         0.38050
      13 -> 20        -0.31157

 Excited State  19:      Singlet-B1    13.7232 eV   90.35 nm  f=0.0017  <S**2>=0.000
      10 -> 15         0.23776
      10 -> 19        -0.11936
      13 -> 21         0.63698

 Excited State  20:      Singlet-A1    13.8218 eV   89.70 nm  f=0.0652  <S**2>=0.000
      12 -> 15        -0.11601
      13 -> 22         0.66904

 Excited State  21:      Singlet-B2    14.0314 eV   88.36 nm  f=0.0685  <S**2>=0.000
      10 -> 16         0.53687
      12 -> 17        -0.11268
      13 -> 20         0.41275

 Excited State  22:      Singlet-B2    14.2026 eV   87.30 nm  f=0.0051  <S**2>=0.000
      11 -> 19        -0.17674
      12 -> 18         0.64462

 Excited State  23:      Singlet-A2    14.3401 eV   86.46 nm  f=0.0000  <S**2>=0.000
      10 -> 17         0.18809
      10 -> 18         0.16686
      13 -> 19        -0.20149
      13 -> 23         0.60228
      13 -> 29         0.10273

 Excited State  24:      Singlet-A1    14.3975 eV   86.12 nm  f=0.0054  <S**2>=0.000
      11 -> 17        -0.13338
      11 -> 18         0.58073
      12 -> 19        -0.33017

 Excited State  25:      Singlet-A2    14.8646 eV   83.41 nm  f=0.0000  <S**2>=0.000
      10 -> 17        -0.20718
      10 -> 18         0.61460
      10 -> 21        -0.12711
      10 -> 24         0.11455
      13 -> 19         0.15771

 Excited State  26:      Singlet-B1    14.8910 eV   83.26 nm  f=0.0083  <S**2>=0.000
       7 -> 14        -0.13094
      10 -> 19        -0.11548
      10 -> 23        -0.12323
      11 -> 22         0.10523
      13 -> 18        -0.10214
      13 -> 24         0.46897
      13 -> 25         0.42294

 Excited State  27:      Singlet-A1    15.0139 eV   82.58 nm  f=0.0148  <S**2>=0.000
       8 -> 14         0.11852
      11 -> 17        -0.12724
      11 -> 18         0.29962
      11 -> 21        -0.14851
      12 -> 15         0.15525
      12 -> 19         0.52999
      12 -> 23         0.14457

 Excited State  28:      Singlet-B2    15.0738 eV   82.25 nm  f=0.1454  <S**2>=0.000
       8 -> 15         0.11900
      11 -> 19        -0.37507
      11 -> 23        -0.15242
      12 -> 21         0.55228

 Excited State  29:      Singlet-A2    15.1266 eV   81.96 nm  f=0.0000  <S**2>=0.000
      11 -> 20        -0.30187
      12 -> 22         0.62610

 Excited State  30:      Singlet-B1    15.1431 eV   81.88 nm  f=0.0163  <S**2>=0.000
       8 -> 16         0.12153
      11 -> 22        -0.46063
      12 -> 20         0.50365

 Excited State  31:      Singlet-B1    15.3676 eV   80.68 nm  f=0.0293  <S**2>=0.000
       7 -> 14         0.43706
      10 -> 19         0.42691
      13 -> 24         0.27470

 Excited State  32:      Singlet-B2    15.3982 eV   80.52 nm  f=0.0416  <S**2>=0.000
       8 -> 15         0.13079
       9 -> 14         0.43753
       9 -> 17        -0.14240
      10 -> 22        -0.15596
      11 -> 19         0.31748
      12 -> 18         0.16319
      12 -> 21         0.28150

 Excited State  33:      Singlet-A1    15.6120 eV   79.42 nm  f=0.0028  <S**2>=0.000
       8 -> 14         0.36549
      10 -> 20         0.11676
      11 -> 21         0.56292

 Excited State  34:      Singlet-B1    15.6272 eV   79.34 nm  f=0.1711  <S**2>=0.000
       7 -> 14         0.47134
      10 -> 15        -0.11693
      10 -> 19        -0.36596
      11 -> 22         0.14895
      12 -> 20         0.19218
      13 -> 24        -0.14334
      13 -> 25         0.15259

 Excited State  35:      Singlet-B2    15.6699 eV   79.12 nm  f=0.0075  <S**2>=0.000
       9 -> 14         0.50625
      10 -> 22         0.14107
      11 -> 15        -0.12227
      11 -> 19        -0.35278
      12 -> 21        -0.19672

 Excited State  36:      Singlet-A2    15.6929 eV   79.01 nm  f=0.0000  <S**2>=0.000
       7 -> 15         0.26768
      10 -> 21         0.39490
      11 -> 20         0.41995
      12 -> 22         0.23183
      13 -> 29         0.10651

 Excited State  37:      Singlet-B1    15.7289 eV   78.83 nm  f=0.0011  <S**2>=0.000
       7 -> 14        -0.19779
      10 -> 19         0.11833
      11 -> 22         0.47813
      12 -> 20         0.42417
      13 -> 25        -0.11255

 Excited State  38:      Singlet-A1    15.7296 eV   78.82 nm  f=0.0525  <S**2>=0.000
       8 -> 14         0.51920
      10 -> 20        -0.22287
      11 -> 21        -0.23998
      12 -> 19        -0.20364
      12 -> 23         0.18335

 Excited State  39:      Singlet-A2    15.8027 eV   78.46 nm  f=0.0000  <S**2>=0.000
       7 -> 15        -0.22418
      10 -> 21        -0.40970
      11 -> 20         0.45198
      12 -> 22         0.19301

 Excited State  40:      Singlet-B2    16.0873 eV   77.07 nm  f=0.0401  <S**2>=0.000
       9 -> 17        -0.17616
      10 -> 22         0.59164
      11 -> 19         0.16671
      11 -> 23        -0.11917
      12 -> 25        -0.11252
      13 -> 26         0.13324

 Excited State  41:      Singlet-A1    16.0876 eV   77.07 nm  f=0.0034  <S**2>=0.000
       7 -> 16         0.11673
       8 -> 14         0.21308
       8 -> 17        -0.16224
       9 -> 15        -0.16497
      10 -> 20         0.41538
      11 -> 21        -0.19363
      11 -> 24         0.11788
      12 -> 23        -0.34017
      13 -> 27         0.10606

 Excited State  42:      Singlet-B2    16.2370 eV   76.36 nm  f=0.0034  <S**2>=0.000
       8 -> 15         0.22953
       9 -> 17         0.13783
      11 -> 19        -0.11798
      11 -> 23         0.56538
      12 -> 24        -0.15833
      13 -> 26         0.11228

 Excited State  43:      Singlet-B1    16.2545 eV   76.28 nm  f=0.0830  <S**2>=0.000
      10 -> 19         0.25069
      10 -> 23         0.17902
      13 -> 24        -0.34011
      13 -> 25         0.50593

 Excited State  44:      Singlet-A1    16.3045 eV   76.04 nm  f=0.0003  <S**2>=0.000
       9 -> 15         0.23203
       9 -> 19        -0.11020
      10 -> 20         0.45149
      11 -> 21        -0.10861
      12 -> 19        -0.11102
      12 -> 23         0.41805

 Excited State  45:      Singlet-A2    16.4080 eV   75.56 nm  f=0.0000  <S**2>=0.000
       7 -> 15         0.55686
       7 -> 19        -0.19996
       7 -> 23        -0.12606
      10 -> 21        -0.32861

 Excited State  46:      Singlet-B2    16.4759 eV   75.25 nm  f=0.0919  <S**2>=0.000
       8 -> 15         0.57967
       8 -> 19        -0.15258
       9 -> 17        -0.13978
      11 -> 23        -0.13348
      12 -> 21        -0.17807
      12 -> 24         0.12354
      13 -> 26        -0.13333

 Excited State  47:      Singlet-A1    16.5838 eV   74.76 nm  f=0.1141  <S**2>=0.000
       7 -> 16        -0.17808
       9 -> 15         0.55522
      11 -> 21        -0.12914
      12 -> 23        -0.23653
      13 -> 27        -0.12258

 Excited State  48:      Singlet-B1    16.7490 eV   74.02 nm  f=0.0202  <S**2>=0.000
       7 -> 17         0.32121
       8 -> 16         0.12467
      10 -> 19        -0.12993
      10 -> 23         0.52652
      13 -> 24         0.19234
      13 -> 28         0.10466

 Excited State  49:      Singlet-A1    16.8738 eV   73.48 nm  f=0.0858  <S**2>=0.000
       8 -> 17         0.57013
       8 -> 18         0.19992
      11 -> 25        -0.17268
      12 -> 23        -0.21822

 Excited State  50:      Singlet-B2    16.9302 eV   73.23 nm  f=0.0887  <S**2>=0.000
       9 -> 14         0.12517
       9 -> 17         0.52848
      10 -> 22         0.13409
      11 -> 23        -0.14961
      12 -> 25        -0.17092
      13 -> 26        -0.29989

 Excited State  51:      Singlet-B1    16.9939 eV   72.96 nm  f=0.0317  <S**2>=0.000
       7 -> 17         0.12747
       8 -> 16         0.62351
      10 -> 23        -0.21861
      12 -> 20        -0.10303

 Excited State  52:      Singlet-B2    17.0390 eV   72.77 nm  f=0.0973  <S**2>=0.000
       8 -> 15         0.11974
       9 -> 17         0.26601
      11 -> 23        -0.16543
      12 -> 24         0.10914
      13 -> 26         0.57769

 Excited State  53:      Singlet-A2    17.0540 eV   72.70 nm  f=0.0000  <S**2>=0.000
       9 -> 16         0.68849

 Excited State  54:      Singlet-A1    17.0798 eV   72.59 nm  f=0.0035  <S**2>=0.000
       7 -> 16         0.41172
       8 -> 17         0.14423
       9 -> 15         0.12960
      10 -> 20        -0.13502
      11 -> 24         0.34334
      11 -> 25         0.28013
      13 -> 27         0.20031

 Excited State  55:      Singlet-B1    17.1673 eV   72.22 nm  f=0.0254  <S**2>=0.000
       7 -> 17         0.50717
       7 -> 18         0.13373
       8 -> 16        -0.17026
      10 -> 19         0.13957
      10 -> 23        -0.17406
      13 -> 28        -0.35917

 Excited State  56:      Singlet-B1    17.3433 eV   71.49 nm  f=0.0427  <S**2>=0.000
       7 -> 17         0.23506
       8 -> 16        -0.17892
      10 -> 23        -0.23742
      13 -> 28         0.57469

 Excited State  57:      Singlet-A1    17.4053 eV   71.23 nm  f=0.0554  <S**2>=0.000
       7 -> 16        -0.41700
      11 -> 25         0.14615
      13 -> 27         0.50021
      13 -> 30        -0.14951

 Excited State  58:      Singlet-A1    17.4816 eV   70.92 nm  f=0.0155  <S**2>=0.000
       7 -> 16        -0.24045
       8 -> 17         0.17534
       9 -> 15        -0.16595
      10 -> 20         0.10245
      11 -> 24         0.40249
      11 -> 25         0.12717
      13 -> 27        -0.37531
      13 -> 30        -0.12281

 Excited State  59:      Singlet-B2    17.5147 eV   70.79 nm  f=0.0414  <S**2>=0.000
       9 -> 17         0.12603
       9 -> 18        -0.21781
      10 -> 22         0.11756
      11 -> 23         0.17131
      12 -> 21         0.12810
      12 -> 24         0.57187

 Excited State  60:      Singlet-A2    17.5296 eV   70.73 nm  f=0.0000  <S**2>=0.000
      10 -> 21        -0.14003
      13 -> 23        -0.14356
      13 -> 29         0.66184

 Excited State  61:      Singlet-A2    17.6786 eV   70.13 nm  f=0.0000  <S**2>=0.000
      10 -> 18        -0.15011
      10 -> 21         0.10369
      10 -> 24         0.53008
      10 -> 25         0.38092
      10 -> 28        -0.11707

 Excited State  62:      Singlet-B2    17.9545 eV   69.05 nm  f=0.0334  <S**2>=0.000
       9 -> 17         0.15377
       9 -> 18        -0.22965
       9 -> 21         0.10185
      11 -> 19         0.13831
      12 -> 24        -0.26053
      12 -> 25         0.53364

 Excited State  63:      Singlet-A1    18.0365 eV   68.74 nm  f=0.0300  <S**2>=0.000
       8 -> 17         0.11692
       8 -> 18        -0.16122
      11 -> 24        -0.27612
      11 -> 25         0.46343
      13 -> 27        -0.10972
      13 -> 30         0.34105

 Excited State  64:      Singlet-B1    18.3716 eV   67.49 nm  f=0.0647  <S**2>=0.000
       7 -> 17        -0.18522
       7 -> 18         0.62876
       7 -> 24         0.10102
      11 -> 27        -0.10337

 Excited State  65:      Singlet-A2    18.3818 eV   67.45 nm  f=0.0000  <S**2>=0.000
       7 -> 15         0.10320
       7 -> 19         0.19957
      10 -> 24        -0.40918
      10 -> 25         0.51162

 Excited State  66:      Singlet-A1    18.4102 eV   67.35 nm  f=0.0031  <S**2>=0.000
       7 -> 16        -0.12153
       7 -> 22        -0.10163
       8 -> 17        -0.17052
       8 -> 18         0.45531
      11 -> 24         0.18865
      13 -> 30         0.39607

 Excited State  67:      Singlet-A1    18.4479 eV   67.21 nm  f=0.0727  <S**2>=0.000
       8 -> 18         0.38836
       8 -> 21        -0.13034
      11 -> 24        -0.20848
      11 -> 25         0.30179
      13 -> 30        -0.35295

 Excited State  68:      Singlet-B2    18.5242 eV   66.93 nm  f=0.0808  <S**2>=0.000
       9 -> 18         0.56504
       9 -> 21         0.13435
      10 -> 22         0.12021
      11 -> 23         0.12037
      11 -> 29        -0.17601
      12 -> 25         0.19760

 Excited State  69:      Singlet-B1    18.9208 eV   65.53 nm  f=0.0363  <S**2>=0.000
       8 -> 22        -0.34664
       9 -> 20        -0.19238
      12 -> 26         0.55753

 Excited State  70:      Singlet-A2    18.9542 eV   65.41 nm  f=0.0000  <S**2>=0.000
       9 -> 22        -0.40018
      11 -> 26         0.54246
      12 -> 27        -0.14928

 Excited State  71:      Singlet-B2    18.9875 eV   65.30 nm  f=0.0855  <S**2>=0.000
       8 -> 15         0.12186
       8 -> 19         0.42536
       8 -> 23         0.18245
       9 -> 21         0.33691
      11 -> 29        -0.13229
      12 -> 25        -0.21855
      12 -> 28        -0.24337

 Excited State  72:      Singlet-A2    19.0308 eV   65.15 nm  f=0.0000  <S**2>=0.000
       8 -> 20         0.38502
       9 -> 22         0.42071
      11 -> 26         0.15236
      12 -> 27        -0.36331

 Excited State  73:      Singlet-B1    19.1217 eV   64.84 nm  f=0.0002  <S**2>=0.000
       8 -> 22         0.27275
       9 -> 20         0.45543
      11 -> 27        -0.28142
      12 -> 26         0.34082

 Excited State  74:      Singlet-A1    19.1584 eV   64.72 nm  f=0.0005  <S**2>=0.000
       8 -> 18        -0.13261
       8 -> 21        -0.45161
      11 -> 28         0.10360
      12 -> 29         0.45990

 Excited State  75:      Singlet-A2    19.2050 eV   64.56 nm  f=0.0000  <S**2>=0.000
       7 -> 15         0.20273
       7 -> 19         0.54049
       7 -> 23         0.23195
      10 -> 25        -0.22506
      10 -> 28        -0.11535
      11 -> 26        -0.10152

 Excited State  76:      Singlet-A1    19.2262 eV   64.49 nm  f=0.1415  <S**2>=0.000
       7 -> 22         0.46552
       9 -> 19        -0.39764
      13 -> 30         0.18225
      13 -> 31         0.21184

 Excited State  77:      Singlet-B1    19.3289 eV   64.14 nm  f=0.0161  <S**2>=0.000
       7 -> 21         0.53957
       8 -> 22        -0.22177
      10 -> 29        -0.23118
      11 -> 27        -0.17406
      12 -> 26        -0.16609
      13 -> 32        -0.10716

 Excited State  78:      Singlet-B2    19.3291 eV   64.14 nm  f=0.0072  <S**2>=0.000
       7 -> 20         0.21722
       9 -> 21         0.33939
      12 -> 28         0.54936

 Excited State  79:      Singlet-A1    19.3795 eV   63.98 nm  f=0.0246  <S**2>=0.000
       7 -> 22         0.37716
       9 -> 19         0.44492
      10 -> 26        -0.32799

 Excited State  80:      Singlet-A2    19.3976 eV   63.92 nm  f=0.0000  <S**2>=0.000
       9 -> 22         0.30561
      11 -> 26         0.35804
      12 -> 27         0.49470

 Excited State  81:      Singlet-B2    19.4172 eV   63.85 nm  f=0.0338  <S**2>=0.000
       7 -> 20         0.60808
       9 -> 21        -0.12400
      10 -> 27        -0.25273
      12 -> 28        -0.15545

 Excited State  82:      Singlet-B1    19.4420 eV   63.77 nm  f=0.0545  <S**2>=0.000
       7 -> 18         0.10053
       7 -> 21         0.30527
       8 -> 22         0.44741
       9 -> 20        -0.33364
      11 -> 27         0.15262
      12 -> 26         0.16578

 Excited State  83:      Singlet-A1    19.4525 eV   63.74 nm  f=0.0122  <S**2>=0.000
       6 -> 14         0.13707
       8 -> 21         0.16872
      10 -> 26         0.18188
      11 -> 28         0.58066
      13 -> 31         0.19816

 Excited State  84:      Singlet-B2    19.4607 eV   63.71 nm  f=0.0653  <S**2>=0.000
       8 -> 15         0.14757
       8 -> 19         0.45022
       9 -> 21        -0.41573
      12 -> 28         0.23472

 Excited State  85:      Singlet-A2    19.6142 eV   63.21 nm  f=0.0000  <S**2>=0.000
       8 -> 20         0.57020
       9 -> 22        -0.20020
      11 -> 26        -0.16517
      12 -> 27         0.28936

 Excited State  86:      Singlet-B1    19.6199 eV   63.19 nm  f=0.0079  <S**2>=0.000
       7 -> 21         0.10323
       9 -> 20         0.33770
      11 -> 27         0.56872
      13 -> 32         0.11060

 Excited State  87:      Singlet-A1    19.6717 eV   63.03 nm  f=0.0026  <S**2>=0.000
       9 -> 19         0.17274
      10 -> 26         0.16601
      11 -> 28        -0.27488
      13 -> 31         0.57567

 Excited State  88:      Singlet-A1    19.7324 eV   62.83 nm  f=0.0503  <S**2>=0.000
       6 -> 14         0.15204
       7 -> 22         0.24259
       8 -> 21         0.12143
       9 -> 19         0.10072
      10 -> 26         0.51800
      11 -> 28        -0.13959
      12 -> 29         0.17000
      13 -> 31        -0.24138

 Excited State  89:      Singlet-A1    19.7871 eV   62.66 nm  f=0.0007  <S**2>=0.000
       7 -> 22        -0.10402
       8 -> 21         0.42743
       9 -> 19        -0.11532
       9 -> 23         0.12884
      10 -> 26        -0.15819
      12 -> 29         0.46776

 Excited State  90:      Singlet-B1    19.7997 eV   62.62 nm  f=0.0020  <S**2>=0.000
      11 -> 27        -0.13413
      13 -> 32         0.65690
      13 -> 33         0.14407

 Excited State  91:      Singlet-A2    19.8338 eV   62.51 nm  f=0.0000  <S**2>=0.000
       7 -> 19         0.23082
       7 -> 23        -0.20525
      10 -> 24         0.13155
      10 -> 28         0.58068
      13 -> 34         0.10886
      13 -> 35        -0.12454

 Excited State  92:      Singlet-B2    19.8691 eV   62.40 nm  f=0.0127  <S**2>=0.000
       7 -> 20        -0.14668
       9 -> 21         0.10943
      10 -> 27        -0.39768
      11 -> 29         0.50767

 Excited State  93:      Singlet-A1    19.9529 eV   62.14 nm  f=0.0011  <S**2>=0.000
       6 -> 14         0.62391
       9 -> 15         0.10185
       9 -> 23         0.18959
      10 -> 26        -0.11682

 Excited State  94:      Singlet-B2    20.0300 eV   61.90 nm  f=0.0171  <S**2>=0.000
       7 -> 20         0.17942

 The electronic state is 1-A1.
 Alpha  occ. eigenvalues --  -24.84393 -24.84392 -10.46951  -1.35908  -1.29798
 Alpha  occ. eigenvalues --   -0.80500  -0.65347  -0.65335  -0.65138  -0.53102
 Alpha  occ. eigenvalues --   -0.51569  -0.50887  -0.43919
 Alpha virt. eigenvalues --    0.08976   0.13871   0.14809   0.14811   0.19944
 Alpha virt. eigenvalues --    0.21721   0.22440   0.22790   0.23462   0.27159
 Alpha virt. eigenvalues --    0.31564   0.33122   0.36385   0.37693   0.37822

 Mulliken charges:
               1
     1  F   -0.412625
     2  C    1.024834
     3  F   -0.412625
     4  H   -0.099792
     5  H   -0.099792
 Sum of Mulliken charges =  -0.00000

 Dipole moment (field-independent basis, Debye):
    X=              0.0000    Y=             -0.0000    Z=              1.9320  Tot=              1.9320
 Quadrupole moment (field-independent basis, Debye-Ang):
   XX=            -15.3814   YY=            -19.1564   ZZ=            -15.4104
   XY=             -0.0000   XZ=              0.0000   YZ=              0.0000

 Normal termination of Gaussian 16 at Sat Feb 12 22:23:01 2022.
