 Gaussian 16, Revision C.01,
 Gaussian 16:  EM64L-G16RevC.01  3-Jul-2019

 ----------------------------------------------------------------------
 #P TD(Nstates=10000) wB97XD/Gen SCF(maxcycles=100) Int(Grid=ultrafine)
 ----------------------------------------------------------------------

 ---------------------
 xGDB7_00001_tier4.com
 ---------------------
 Symbolic Z-matrix:
 Charge =  0 Multiplicity = 1

                         Standard orientation:
 ---------------------------------------------------------------------
 Center     Atomic      Atomic             Coordinates (Angstroms)
 Number     Number       Type             X           Y           Z
 ---------------------------------------------------------------------
      1          6           0        0.741313   -0.391085    0.023666
      2          6           0       -0.741313   -0.391085    0.023666
      3          7           0       -0.000000    0.845504   -0.173581
      4          1           0        1.290256   -0.754997   -0.850673
      5          1           0        1.252174   -0.560923    0.978054
      6          1           0       -1.252174   -0.560924    0.978054
      7          1           0       -1.290256   -0.754999   -0.850673
      8          1           0       -0.000001    1.406334    0.676315
 ---------------------------------------------------------------------

 SCF Done:  E(RwB97XD) =  -133.791424562     A.U. after   15 cycles

 Excitation energies and oscillator strengths:

 Excited State   1:      Singlet-A      7.0767 eV  175.20 nm  f=0.0015  <S**2>=0.000
      12 -> 13         0.62387
      12 -> 15         0.31674
 This state for optimization and/or second-order correction.
 Total Energy, E(TD-HF/TD-DFT) =  -133.531360840
 Copying the excited state density for this state as the 1-particle RhoCI density.

 Excited State   2:      Singlet-A      7.9771 eV  155.43 nm  f=0.0387  <S**2>=0.000
      12 -> 13        -0.31194
      12 -> 15         0.61733
      12 -> 18        -0.10070

 Excited State   3:      Singlet-A      8.0383 eV  154.24 nm  f=0.0090  <S**2>=0.000
      12 -> 14         0.69256

 Excited State   4:      Singlet-A      8.6229 eV  143.79 nm  f=0.0889  <S**2>=0.000
      12 -> 16         0.68646

 Excited State   5:      Singlet-A      9.0441 eV  137.09 nm  f=0.0456  <S**2>=0.000
      12 -> 17         0.67931

 Excited State   6:      Singlet-A      9.3286 eV  132.91 nm  f=0.0215  <S**2>=0.000
      11 -> 13         0.65362
      11 -> 15         0.21000

 Excited State   7:      Singlet-A      9.7925 eV  126.61 nm  f=0.0087  <S**2>=0.000
      11 -> 13         0.14414
      11 -> 15        -0.17581
      12 -> 18         0.64936

 Excited State   8:      Singlet-A      9.8055 eV  126.44 nm  f=0.0005  <S**2>=0.000
      10 -> 13         0.64390
      10 -> 15         0.25965

 Excited State   9:      Singlet-A     10.1364 eV  122.32 nm  f=0.0595  <S**2>=0.000
       9 -> 13         0.33773
      10 -> 15         0.13270
      11 -> 14         0.59025

 Excited State  10:      Singlet-A     10.1674 eV  121.94 nm  f=0.0639  <S**2>=0.000
      11 -> 13        -0.17447
      11 -> 15         0.63095
      12 -> 18         0.21149

 Excited State  11:      Singlet-A     10.4519 eV  118.62 nm  f=0.0085  <S**2>=0.000
       9 -> 13         0.58394
      11 -> 14        -0.35074

 Excited State  12:      Singlet-A     10.6247 eV  116.69 nm  f=0.1225  <S**2>=0.000
       9 -> 13        -0.12419
      10 -> 13        -0.23465
      10 -> 15         0.62553
      11 -> 14        -0.10197

 Excited State  13:      Singlet-A     10.6539 eV  116.37 nm  f=0.0284  <S**2>=0.000
      12 -> 19         0.67846
      12 -> 21        -0.10222

 Excited State  14:      Singlet-A     10.7200 eV  115.66 nm  f=0.0121  <S**2>=0.000
       9 -> 14        -0.10437
      10 -> 14        -0.31825
      11 -> 15        -0.10443
      11 -> 16         0.12125
      12 -> 20         0.58229

 Excited State  15:      Singlet-A     10.7304 eV  115.54 nm  f=0.0334  <S**2>=0.000
      10 -> 14         0.61470
      12 -> 20         0.29907

 Excited State  16:      Singlet-A     10.8436 eV  114.34 nm  f=0.0330  <S**2>=0.000
      11 -> 16         0.66970
      12 -> 20        -0.14300

 Excited State  17:      Singlet-A     11.0903 eV  111.79 nm  f=0.0320  <S**2>=0.000
       9 -> 15         0.51997
      10 -> 16         0.34957
      11 -> 17         0.23796
      12 -> 21        -0.12829

 Excited State  18:      Singlet-A     11.2116 eV  110.59 nm  f=0.0918  <S**2>=0.000
       9 -> 14         0.65451
       9 -> 17         0.10852
      12 -> 20         0.11631

 Excited State  19:      Singlet-A     11.2392 eV  110.31 nm  f=0.0147  <S**2>=0.000
       9 -> 15        -0.23545
      10 -> 16         0.33212
      11 -> 17         0.28519
      12 -> 21         0.45052
      12 -> 22         0.11234

 Excited State  20:      Singlet-A     11.4126 eV  108.64 nm  f=0.0330  <S**2>=0.000
       9 -> 15        -0.34278
      10 -> 16         0.41785
      12 -> 21        -0.38812
      12 -> 22        -0.14601

 Excited State  21:      Singlet-A     11.6103 eV  106.79 nm  f=0.1271  <S**2>=0.000
       9 -> 15        -0.11972
       9 -> 16        -0.13705
      10 -> 16        -0.25643
      11 -> 17         0.50619
      12 -> 21        -0.14381
      12 -> 22        -0.29268

 Excited State  22:      Singlet-A     11.7216 eV  105.77 nm  f=0.0568  <S**2>=0.000
      10 -> 17         0.46784
      12 -> 23         0.41608
      12 -> 24         0.24474

 Excited State  23:      Singlet-A     11.8357 eV  104.75 nm  f=0.0014  <S**2>=0.000
       9 -> 15        -0.10417
      11 -> 17         0.19932
      12 -> 21        -0.26279
      12 -> 22         0.59023

 Excited State  24:      Singlet-A     11.9034 eV  104.16 nm  f=0.0309  <S**2>=0.000
      10 -> 17        -0.19395
      11 -> 18        -0.36094
      12 -> 23         0.43530
      12 -> 24        -0.31050

 Excited State  25:      Singlet-A     12.0528 eV  102.87 nm  f=0.0002  <S**2>=0.000
       9 -> 17         0.55737
      11 -> 18         0.33875
      12 -> 23         0.12261
      12 -> 25        -0.14563

 Excited State  26:      Singlet-A     12.0531 eV  102.87 nm  f=0.1089  <S**2>=0.000
       9 -> 16         0.65966
      12 -> 22        -0.10831

 Excited State  27:      Singlet-A     12.1233 eV  102.27 nm  f=0.0274  <S**2>=0.000
       9 -> 17        -0.37105
      11 -> 18         0.43417
      12 -> 23         0.20243
      12 -> 24        -0.30680

 Excited State  28:      Singlet-A     12.4257 eV   99.78 nm  f=0.0084  <S**2>=0.000
      11 -> 18         0.12125
      11 -> 20         0.13878
      12 -> 25         0.65244

 Excited State  29:      Singlet-A     12.4684 eV   99.44 nm  f=0.0306  <S**2>=0.000
       8 -> 13        -0.11108
      10 -> 17        -0.33309
      11 -> 18         0.12983
      11 -> 20         0.26094
      12 -> 23         0.16537
      12 -> 24         0.41408
      12 -> 27         0.19902

 Excited State  30:      Singlet-A     12.4728 eV   99.40 nm  f=0.0124  <S**2>=0.000
      10 -> 18         0.68124

 Excited State  31:      Singlet-A     12.7483 eV   97.26 nm  f=0.0016  <S**2>=0.000
       9 -> 18        -0.11653
      11 -> 19         0.67170

 Excited State  32:      Singlet-A     13.0341 eV   95.12 nm  f=0.0016  <S**2>=0.000
       8 -> 14         0.13863
       9 -> 18         0.62112
      11 -> 19         0.14674
      12 -> 26         0.16009

 Excited State  33:      Singlet-A     13.1710 eV   94.13 nm  f=0.0621  <S**2>=0.000
       8 -> 15        -0.14298
       9 -> 19         0.13737
      10 -> 19        -0.22618
      10 -> 21         0.12718
      11 -> 20         0.46645
      12 -> 25        -0.12819
      12 -> 27        -0.28377
      12 -> 28         0.17131

 Excited State  34:      Singlet-A     13.1741 eV   94.11 nm  f=0.0579  <S**2>=0.000
       9 -> 18        -0.15440
      12 -> 26         0.65720

 Excited State  35:      Singlet-A     13.2538 eV   93.55 nm  f=0.0035  <S**2>=0.000
       8 -> 13         0.32721
      10 -> 19         0.53361
      11 -> 20         0.15932
      12 -> 27        -0.19632

 Excited State  36:      Singlet-A     13.3218 eV   93.07 nm  f=0.0003  <S**2>=0.000
      10 -> 20         0.67345

 Excited State  37:      Singlet-A     13.3480 eV   92.89 nm  f=0.0334  <S**2>=0.000
       8 -> 13         0.52738
       8 -> 15         0.14095
       9 -> 19        -0.14332
      10 -> 19        -0.34907
      12 -> 28        -0.12589

 Excited State  38:      Singlet-A     13.4749 eV   92.01 nm  f=0.1586  <S**2>=0.000
       8 -> 13         0.13611
      10 -> 17         0.17427
      11 -> 20         0.21010
      11 -> 23         0.10407
      11 -> 25         0.10508
      12 -> 23        -0.10480
      12 -> 24        -0.10902
      12 -> 27         0.52284
      12 -> 28         0.19002

 Excited State  39:      Singlet-A     13.5458 eV   91.53 nm  f=0.0011  <S**2>=0.000
       9 -> 20        -0.12091
      11 -> 21         0.60023
      11 -> 22         0.29529

 Excited State  40:      Singlet-A     13.7794 eV   89.98 nm  f=0.1018  <S**2>=0.000
       8 -> 13         0.13872
       8 -> 15        -0.11644
      10 -> 17        -0.13962
      10 -> 19        -0.12277
      10 -> 21        -0.18378
      11 -> 20        -0.21404
      11 -> 24        -0.10293
      12 -> 24         0.10784
      12 -> 28         0.51748

 Excited State  41:      Singlet-A     13.8653 eV   89.42 nm  f=0.0335  <S**2>=0.000
       9 -> 19         0.48722
      10 -> 21        -0.35166
      11 -> 23        -0.20677
      11 -> 24         0.11883
      12 -> 28        -0.18209

 Excited State  42:      Singlet-A     13.9218 eV   89.06 nm  f=0.0001  <S**2>=0.000
       8 -> 14         0.20197
       9 -> 18        -0.17855
       9 -> 20         0.40325
      11 -> 21        -0.12054
      11 -> 22         0.43759
      12 -> 29        -0.13074

 Excited State  43:      Singlet-A     13.9541 eV   88.85 nm  f=0.1022  <S**2>=0.000
       8 -> 14        -0.37039
       9 -> 20        -0.22759
      11 -> 21        -0.25330
      11 -> 22         0.41045
      12 -> 29         0.14128

 Excited State  44:      Singlet-A     13.9940 eV   88.60 nm  f=0.0580  <S**2>=0.000
       8 -> 13        -0.10191
       8 -> 15         0.57064
       9 -> 19         0.11128
       9 -> 21         0.15049
      11 -> 23         0.22296
      11 -> 24         0.13460
      12 -> 28         0.12738

 Excited State  45:      Singlet-A     14.0110 eV   88.49 nm  f=0.0640  <S**2>=0.000
       8 -> 13         0.11793
       8 -> 15        -0.15981
       9 -> 19         0.14033
      11 -> 23         0.58317
      11 -> 24        -0.11502
      12 -> 28        -0.21570

 Excited State  46:      Singlet-A     14.1286 eV   87.75 nm  f=0.0011  <S**2>=0.000
       9 -> 20         0.20617
      12 -> 29         0.63461

 Excited State  47:      Singlet-A     14.2476 eV   87.02 nm  f=0.0108  <S**2>=0.000
       7 -> 13        -0.22364
       8 -> 15        -0.11757
       9 -> 19         0.14843
      10 -> 21         0.27156
      10 -> 22         0.25742
      11 -> 20        -0.12412
      11 -> 24         0.44961

 Excited State  48:      Singlet-A     14.2570 eV   86.96 nm  f=0.0669  <S**2>=0.000
       8 -> 14         0.48771
       9 -> 20        -0.38563
      10 -> 23        -0.18819
      11 -> 21        -0.11631
      11 -> 22         0.12799

 Excited State  49:      Singlet-A     14.4009 eV   86.09 nm  f=0.0030  <S**2>=0.000
       7 -> 13         0.21307
       8 -> 15        -0.12815
       8 -> 16         0.11633
       9 -> 19        -0.33138
      10 -> 21        -0.34390
      10 -> 22         0.10389
      11 -> 24         0.36408
      11 -> 25        -0.10316

 Excited State  50:      Singlet-A     14.4831 eV   85.61 nm  f=0.0055  <S**2>=0.000
       8 -> 14         0.11257
       9 -> 20        -0.14092
      10 -> 23         0.65823

 Excited State  51:      Singlet-A     14.4874 eV   85.58 nm  f=0.0135  <S**2>=0.000
       7 -> 13         0.10298
      10 -> 22         0.61501
      11 -> 24        -0.22880

 Excited State  52:      Singlet-A     14.6911 eV   84.39 nm  f=0.1309  <S**2>=0.000
       7 -> 13        -0.27542
       7 -> 15        -0.16756
       8 -> 15        -0.11124
       8 -> 16         0.33818
       9 -> 21         0.43228
       9 -> 22         0.15050

 Excited State  53:      Singlet-A     14.6984 eV   84.35 nm  f=0.0704  <S**2>=0.000
       8 -> 17         0.30039
      10 -> 23        -0.10610
      10 -> 24         0.59842

 Excited State  54:      Singlet-A     14.8040 eV   83.75 nm  f=0.1394  <S**2>=0.000
       7 -> 15         0.12244
      11 -> 25         0.55200
      12 -> 30         0.36414

 Excited State  55:      Singlet-A     14.8574 eV   83.45 nm  f=0.0000  <S**2>=0.000
       8 -> 14        -0.13636
       8 -> 17         0.56633
      10 -> 24        -0.31073
      10 -> 25        -0.12309

 Excited State  56:      Singlet-A     14.8864 eV   83.29 nm  f=0.0881  <S**2>=0.000
       9 -> 22         0.11321
      11 -> 25        -0.31143
      12 -> 30         0.56192

 Excited State  57:      Singlet-A     14.9348 eV   83.02 nm  f=0.0178  <S**2>=0.000
       9 -> 23         0.54161
      10 -> 25         0.40131

 Excited State  58:      Singlet-A     14.9359 eV   83.01 nm  f=0.2134  <S**2>=0.000
       7 -> 13         0.36666
       8 -> 15        -0.11260
       8 -> 16        -0.30852
       9 -> 21         0.42424
      12 -> 32        -0.12482

 Excited State  59:      Singlet-A     15.0677 eV   82.28 nm  f=0.0692  <S**2>=0.000
       7 -> 13        -0.22902
       8 -> 16        -0.36155
       8 -> 18        -0.14193
       9 -> 22         0.36563
      10 -> 21        -0.18343
      10 -> 26        -0.17660
      11 -> 25         0.11128
      11 -> 27        -0.14565
      12 -> 30        -0.11720

 Excited State  60:      Singlet-A     15.1419 eV   81.88 nm  f=0.3486  <S**2>=0.000
       7 -> 13         0.26847
       8 -> 16         0.22162
       9 -> 21        -0.11785
       9 -> 22         0.49372
      10 -> 21         0.18551

 Excited State  61:      Singlet-A     15.2508 eV   81.30 nm  f=0.0806  <S**2>=0.000
       7 -> 14         0.20386
       9 -> 23        -0.27925
       9 -> 24        -0.29787
      10 -> 25         0.39856
      11 -> 26        -0.29490

 Excited State  62:      Singlet-A     15.4070 eV   80.47 nm  f=0.2062  <S**2>=0.000
       8 -> 17         0.11979
       9 -> 24         0.54697
       9 -> 25        -0.16351
      10 -> 25         0.16062
      11 -> 26        -0.23930
      12 -> 31         0.16870

 Excited State  63:      Singlet-A     15.4655 eV   80.17 nm  f=0.1370  <S**2>=0.000
       7 -> 14        -0.30373
       7 -> 17        -0.10653
       9 -> 23        -0.27013
      10 -> 25         0.29588
      11 -> 26         0.43541

 Excited State  64:      Singlet-A     15.4846 eV   80.07 nm  f=0.1089  <S**2>=0.000
       7 -> 15         0.47208
       9 -> 21         0.21411
      11 -> 27        -0.36196
      12 -> 32         0.16719

 Excited State  65:      Singlet-A     15.5622 eV   79.67 nm  f=0.0313  <S**2>=0.000
       7 -> 14         0.26135
       9 -> 25         0.13724
      10 -> 27        -0.11995
      11 -> 26         0.17036
      12 -> 31         0.56412

 Excited State  66:      Singlet-A     15.5906 eV   79.52 nm  f=0.1550  <S**2>=0.000
       7 -> 13         0.11276
       7 -> 15        -0.32176
       8 -> 18        -0.14454
       9 -> 22        -0.11818
      10 -> 26        -0.10650
      11 -> 27        -0.20256
      12 -> 32         0.48182
      12 -> 33         0.14898

 Excited State  67:      Singlet-A     15.6395 eV   79.28 nm  f=0.1080  <S**2>=0.000
       7 -> 14         0.47356
       7 -> 17         0.15280
       9 -> 24         0.13525
       9 -> 25        -0.16467
      11 -> 26         0.32613
      12 -> 31        -0.24905

 Excited State  68:      Singlet-A     15.6431 eV   79.26 nm  f=0.0917  <S**2>=0.000
       7 -> 15         0.23002
      10 -> 26        -0.19586
      11 -> 27         0.46977
      12 -> 32         0.33778

 Excited State  69:      Singlet-A     15.7996 eV   78.47 nm  f=0.0568  <S**2>=0.000
       7 -> 14         0.14533
       9 -> 24         0.16353
       9 -> 25         0.50412
      10 -> 27         0.34766
      10 -> 28        -0.12736

 Excited State  70:      Singlet-A     15.8951 eV   78.00 nm  f=0.0240  <S**2>=0.000
       7 -> 16        -0.22516
       8 -> 16        -0.11738
       8 -> 18         0.34836
       9 -> 22         0.11719
       9 -> 26        -0.13284
      10 -> 26         0.40166
      11 -> 28         0.16562
      12 -> 32         0.19495
      12 -> 33        -0.15066

 Excited State  71:      Singlet-A     15.9490 eV   77.74 nm  f=0.0058  <S**2>=0.000
       7 -> 17         0.25241
       9 -> 25        -0.22081
      10 -> 27         0.44586
      10 -> 28        -0.15795
      11 -> 29         0.26642
      12 -> 31         0.17810

 Excited State  72:      Singlet-A     16.0013 eV   77.48 nm  f=0.1304  <S**2>=0.000
       7 -> 16        -0.14122
       8 -> 18         0.45740
      10 -> 26        -0.29219
      12 -> 33         0.34149

 Excited State  73:      Singlet-A     16.1065 eV   76.98 nm  f=0.0470  <S**2>=0.000
       7 -> 14        -0.12288
       7 -> 17         0.41482
       9 -> 25         0.26598
      10 -> 27        -0.30664
      10 -> 28        -0.10827
      11 -> 29         0.29038

 Excited State  74:      Singlet-A     16.1863 eV   76.60 nm  f=0.0869  <S**2>=0.000
      10 -> 26        -0.27746
      11 -> 28         0.49137
      12 -> 33        -0.32502

 Excited State  75:      Singlet-A     16.2755 eV   76.18 nm  f=0.2246  <S**2>=0.000
       7 -> 16        -0.15262
       8 -> 18        -0.21716
      10 -> 26         0.11661
      10 -> 29         0.11007
      11 -> 27         0.19141
      11 -> 28         0.36319
      11 -> 30         0.10147
      12 -> 33         0.41685

 Excited State  76:      Singlet-A     16.3981 eV   75.61 nm  f=0.0089  <S**2>=0.000
       7 -> 16         0.51601
       8 -> 18         0.14566
       9 -> 26         0.27272
      10 -> 26         0.17569
      11 -> 28         0.13022
      12 -> 33         0.11181

 Excited State  77:      Singlet-A     16.4453 eV   75.39 nm  f=0.0187  <S**2>=0.000
       7 -> 17        -0.41807
       8 -> 19        -0.19445
      10 -> 28        -0.16030
      11 -> 29         0.45244

 Excited State  78:      Singlet-A     16.5354 eV   74.98 nm  f=0.2746  <S**2>=0.000
       7 -> 16        -0.29282
       8 -> 20         0.16092
       9 -> 26         0.55415
      10 -> 26         0.10287

 Excited State  79:      Singlet-A     16.5464 eV   74.93 nm  f=0.0687  <S**2>=0.000
       8 -> 19        -0.34740
       9 -> 27         0.19633
      10 -> 27         0.15448
      10 -> 28         0.49918
      11 -> 29         0.10334

 Excited State  80:      Singlet-A     16.6546 eV   74.44 nm  f=0.0123  <S**2>=0.000
       6 -> 13         0.11827
       8 -> 19         0.36485
       9 -> 25         0.10247
       9 -> 27         0.48280
       9 -> 28        -0.12805
      11 -> 29         0.10420

 Excited State  81:      Singlet-A     16.7095 eV   74.20 nm  f=0.0478  <S**2>=0.000
       8 -> 19         0.33404
       9 -> 27        -0.29682
       9 -> 28         0.11970
      10 -> 28         0.21813
      11 -> 29         0.22365
      11 -> 31        -0.11891
      12 -> 34         0.29074
      12 -> 35        -0.13180

 Excited State  82:      Singlet-A     16.7834 eV   73.87 nm  f=0.1165  <S**2>=0.000
       9 -> 27         0.19417
       9 -> 28        -0.12199
      10 -> 28        -0.17031
      12 -> 34         0.59124
      12 -> 36         0.11451

 Excited State  83:      Singlet-A     16.7970 eV   73.81 nm  f=0.0168  <S**2>=0.000
       8 -> 20         0.56387
       9 -> 26        -0.20042
      10 -> 29        -0.28456

 Excited State  84:      Singlet-A     16.9504 eV   73.15 nm  f=0.0051  <S**2>=0.000
      11 -> 28        -0.11032
      11 -> 30         0.56925
      12 -> 37        -0.34403

 Excited State  85:      Singlet-A     17.0424 eV   72.75 nm  f=0.0045  <S**2>=0.000
       8 -> 19         0.11059
       9 -> 30        -0.11338
      10 -> 28         0.12589
      10 -> 30        -0.10109
      12 -> 35         0.54436
      12 -> 36         0.31031

 Excited State  86:      Singlet-A     17.1292 eV   72.38 nm  f=0.1576  <S**2>=0.000
       8 -> 20         0.28133
      10 -> 29         0.49698
      10 -> 31         0.10848
      11 -> 30        -0.20018
      12 -> 37        -0.21919

 Excited State  87:      Singlet-A     17.2293 eV   71.96 nm  f=0.0702  <S**2>=0.000
       7 -> 18         0.13307
      10 -> 29         0.28836
      11 -> 30         0.26409
      12 -> 37         0.49197

 Excited State  88:      Singlet-A     17.3194 eV   71.59 nm  f=0.0040  <S**2>=0.000
       6 -> 13         0.43693
       6 -> 15         0.17347
       8 -> 21        -0.11413
       9 -> 28         0.28684
      10 -> 28        -0.10230
      10 -> 30         0.33195
      12 -> 35         0.10599

 Excited State  89:      Singlet-A     17.3764 eV   71.35 nm  f=0.0988  <S**2>=0.000
       6 -> 14        -0.10940
       7 -> 18         0.62278
       8 -> 24        -0.12586
       9 -> 29         0.14326
      12 -> 37        -0.11327

 Excited State  90:      Singlet-A     17.4008 eV   71.25 nm  f=0.0033  <S**2>=0.000
       6 -> 13        -0.37958
       9 -> 27         0.15085
       9 -> 28         0.39462
      11 -> 31        -0.24156
      12 -> 35         0.16435
      12 -> 36        -0.16930

 Excited State  91:      Singlet-A     17.4614 eV   71.00 nm  f=0.0254  <S**2>=0.000
       6 -> 13        -0.10630
       6 -> 15         0.11690
       8 -> 21        -0.35587
      10 -> 30         0.11187
      11 -> 31        -0.14877
      12 -> 35        -0.22353
      12 -> 36         0.45625

 Excited State  92:      Singlet-A     17.4655 eV   70.99 nm  f=0.0210  <S**2>=0.000
       8 -> 24         0.10899
       9 -> 29         0.62512
      12 -> 38         0.12147

 Excited State  93:      Singlet-A     17.4918 eV   70.88 nm  f=0.0245  <S**2>=0.000
       6 -> 15        -0.10645
       8 -> 21         0.21840
       9 -> 27         0.15156

 The electronic state is 1-A.
 Alpha  occ. eigenvalues --  -14.44404 -10.32858 -10.32834  -1.05755  -0.74616
 Alpha  occ. eigenvalues --   -0.70471  -0.61240  -0.55877  -0.45670  -0.43697
 Alpha  occ. eigenvalues --   -0.41985  -0.33587
 Alpha virt. eigenvalues --    0.09519   0.11536   0.12685   0.15792   0.18922
 Alpha virt. eigenvalues --    0.19485   0.21403   0.23265   0.26019   0.26522
 Alpha virt. eigenvalues --    0.26988   0.28265   0.29831   0.32242   0.33381

 Mulliken charges:
               1
     1  C    0.483775
     2  C    0.483775
     3  N   -0.420647
     4  H   -0.170442
     5  H   -0.103317
     6  H   -0.103317
     7  H   -0.170442
     8  H    0.000616
 Sum of Mulliken charges =  -0.00000

 Dipole moment (field-independent basis, Debye):
    X=              0.0000    Y=             -0.8493    Z=              1.4813  Tot=              1.7075
 Quadrupole moment (field-independent basis, Debye-Ang):
   XX=            -18.5620   YY=            -20.4431   ZZ=            -18.5151
   XY=             -0.0000   XZ=             -0.0000   YZ=              2.5877

 Normal termination of Gaussian 16 at Sat Feb 12 21:42:47 2022.
