 Gaussian 16, Revision C.01,
 Gaussian 16:  EM64L-G16RevC.01  3-Jul-2019

 ----------------------------------------------------------------------
 #P TD(Nstates=10000) wB97XD/Gen SCF(maxcycles=100) Int(Grid=ultrafine)
 ----------------------------------------------------------------------

 ---------------------
 xGDB7_00001_tier4.com
 ---------------------
 Symbolic Z-matrix:
 Charge =  0 Multiplicity = 1

                         Standard orientation:
 ---------------------------------------------------------------------
 Center     Atomic      Atomic             Coordinates (Angstroms)
 Number     Number       Type             X           Y           Z
 ---------------------------------------------------------------------
      1          8           0       -1.024468   -0.434082   -0.000000
      2          6           0        0.000000    0.418387    0.000000
      3          8           0        1.153588    0.104048    0.000000
      4          1           0       -0.655273   -1.330952   -0.000000
      5          1           0       -0.377689    1.460904    0.000000
 ---------------------------------------------------------------------

 SCF Done:  E(RwB97XD) =  -189.575810661     A.U. after   15 cycles

 Excitation energies and oscillator strengths:

 Excited State   1:      Singlet-A"     5.9214 eV  209.38 nm  f=0.0009  <S**2>=0.000
      12 -> 13         0.70426
 This state for optimization and/or second-order correction.
 Total Energy, E(TD-HF/TD-DFT) =  -189.358204697
 Copying the excited state density for this state as the 1-particle RhoCI density.

 Excited State   2:      Singlet-A'     8.2226 eV  150.78 nm  f=0.0313  <S**2>=0.000
      11 -> 13        -0.36203
      12 -> 14         0.58639

 Excited State   3:      Singlet-A'     8.9513 eV  138.51 nm  f=0.1681  <S**2>=0.000
      11 -> 13         0.39273
      12 -> 14         0.27049
      12 -> 15         0.47165
      12 -> 16         0.16788

 Excited State   4:      Singlet-A'     9.0058 eV  137.67 nm  f=0.1231  <S**2>=0.000
      11 -> 13        -0.41483
      12 -> 14        -0.22353
      12 -> 15         0.50708

 Excited State   5:      Singlet-A"     9.0736 eV  136.64 nm  f=0.0030  <S**2>=0.000
      11 -> 14         0.68204
      11 -> 15        -0.10316

 Excited State   6:      Singlet-A"     9.4273 eV  131.52 nm  f=0.0001  <S**2>=0.000
      10 -> 13         0.70164

 Excited State   7:      Singlet-A"    10.1854 eV  121.73 nm  f=0.0004  <S**2>=0.000
      11 -> 14         0.10180
      11 -> 15         0.67083
      12 -> 17        -0.16399

 Excited State   8:      Singlet-A"    10.2333 eV  121.16 nm  f=0.0161  <S**2>=0.000
      11 -> 15         0.16546
      12 -> 17         0.66668
      12 -> 21         0.15158

 Excited State   9:      Singlet-A'    10.2714 eV  120.71 nm  f=0.0971  <S**2>=0.000
      12 -> 14        -0.11435
      12 -> 16         0.62451
      12 -> 18         0.20561
      12 -> 19         0.11280

 Excited State  10:      Singlet-A'    11.1233 eV  111.46 nm  f=0.0281  <S**2>=0.000
      10 -> 14         0.16752
      12 -> 16        -0.17926
      12 -> 18         0.48730
      12 -> 20         0.41625

 Excited State  11:      Singlet-A'    11.2058 eV  110.64 nm  f=0.0537  <S**2>=0.000
      10 -> 14         0.61655
      11 -> 17        -0.22160
      12 -> 20        -0.13325

 Excited State  12:      Singlet-A"    11.2883 eV  109.83 nm  f=0.0513  <S**2>=0.000
       9 -> 14        -0.12791
      11 -> 16         0.66173
      11 -> 20         0.13206

 Excited State  13:      Singlet-A'    11.3385 eV  109.35 nm  f=0.0198  <S**2>=0.000
       9 -> 13        -0.13425
      10 -> 14         0.15852
      11 -> 17         0.52643
      12 -> 19        -0.37256
      12 -> 20        -0.10360

 Excited State  14:      Singlet-A'    11.4847 eV  107.96 nm  f=0.0012  <S**2>=0.000
       9 -> 13         0.18657
      10 -> 14         0.10421
      11 -> 17         0.32288
      12 -> 18         0.12976
      12 -> 19         0.49146
      12 -> 20        -0.23720

 Excited State  15:      Singlet-A'    11.6342 eV  106.57 nm  f=0.0239  <S**2>=0.000
      10 -> 14         0.12467
      11 -> 17         0.22380
      12 -> 18        -0.39089
      12 -> 19         0.12291
      12 -> 20         0.45997
      12 -> 22         0.16593

 Excited State  16:      Singlet-A"    11.8437 eV  104.68 nm  f=0.0043  <S**2>=0.000
       8 -> 13         0.51051
      11 -> 18        -0.36423
      11 -> 20        -0.24921

 Excited State  17:      Singlet-A"    11.9243 eV  103.98 nm  f=0.0046  <S**2>=0.000
       7 -> 13         0.13048
       8 -> 13         0.28855
      11 -> 16        -0.10195
      11 -> 18         0.34327
      11 -> 20         0.16636
      12 -> 21         0.45375

 Excited State  18:      Singlet-A'    11.9914 eV  103.39 nm  f=0.1708  <S**2>=0.000
       9 -> 13         0.53594
      10 -> 15         0.29519
      11 -> 21         0.10628
      12 -> 19        -0.24901

 Excited State  19:      Singlet-A"    12.0202 eV  103.15 nm  f=0.0098  <S**2>=0.000
       8 -> 13        -0.35501
      11 -> 18        -0.27166
      11 -> 20        -0.10061
      12 -> 17        -0.12053
      12 -> 21         0.49983

 Excited State  20:      Singlet-A'    12.2793 eV  100.97 nm  f=0.0241  <S**2>=0.000
       9 -> 13        -0.31393
      10 -> 15         0.61152

 Excited State  21:      Singlet-A"    12.3618 eV  100.30 nm  f=0.0011  <S**2>=0.000
       7 -> 13         0.22992
       9 -> 14        -0.33462
       9 -> 15         0.19211
      11 -> 18        -0.24733
      11 -> 19         0.43637
      11 -> 20         0.16834

 Excited State  22:      Singlet-A"    12.4565 eV   99.53 nm  f=0.0136  <S**2>=0.000
       7 -> 13         0.63596
      11 -> 19        -0.24034

 Excited State  23:      Singlet-A'    12.6040 eV   98.37 nm  f=0.0530  <S**2>=0.000
      12 -> 20        -0.11885
      12 -> 22         0.66490

 Excited State  24:      Singlet-A"    12.6859 eV   97.73 nm  f=0.0250  <S**2>=0.000
       9 -> 14         0.43881
      11 -> 14        -0.10795
      11 -> 18        -0.24154
      11 -> 20         0.45474

 Excited State  25:      Singlet-A"    12.8345 eV   96.60 nm  f=0.0232  <S**2>=0.000
       9 -> 14         0.36218
      11 -> 16         0.10958
      11 -> 18         0.10433
      11 -> 19         0.43521
      11 -> 20        -0.34397

 Excited State  26:      Singlet-A"    13.1344 eV   94.40 nm  f=0.0006  <S**2>=0.000
      10 -> 17        -0.20764
      12 -> 23         0.65582

 Excited State  27:      Singlet-A'    13.1524 eV   94.27 nm  f=0.0047  <S**2>=0.000
       8 -> 14         0.25014
       9 -> 17        -0.10448
      10 -> 16         0.43775
      11 -> 21         0.44982

 Excited State  28:      Singlet-A'    13.2719 eV   93.42 nm  f=0.0226  <S**2>=0.000
       8 -> 14        -0.29379
      10 -> 16        -0.30673
      10 -> 20        -0.13028
      11 -> 21         0.47212
      12 -> 24         0.13899

 Excited State  29:      Singlet-A"    13.3677 eV   92.75 nm  f=0.0054  <S**2>=0.000
      10 -> 17         0.66151
      12 -> 23         0.20590

 Excited State  30:      Singlet-A"    13.5576 eV   91.45 nm  f=0.0234  <S**2>=0.000
       9 -> 15         0.57389
      11 -> 19        -0.16807
      11 -> 22         0.32514

 Excited State  31:      Singlet-A'    13.6648 eV   90.73 nm  f=0.0295  <S**2>=0.000
      10 -> 16         0.11248
      12 -> 16        -0.10758
      12 -> 24         0.63160

 Excited State  32:      Singlet-A"    13.6938 eV   90.54 nm  f=0.0003  <S**2>=0.000
       9 -> 15        -0.33026
       9 -> 18         0.11561
      11 -> 22         0.58465

 Excited State  33:      Singlet-A'    13.7991 eV   89.85 nm  f=0.0197  <S**2>=0.000
       8 -> 14         0.48987
       8 -> 15        -0.20991
      10 -> 16        -0.30106
      10 -> 18        -0.24657
      10 -> 19         0.13915

 Excited State  34:      Singlet-A'    14.1302 eV   87.74 nm  f=0.0884  <S**2>=0.000
       8 -> 16         0.14639
       9 -> 17         0.10315
      10 -> 16        -0.17426
      10 -> 18         0.52473
      10 -> 19         0.14023
      10 -> 20         0.13602
      11 -> 21         0.14935
      11 -> 23        -0.22895

 Excited State  35:      Singlet-A'    14.3654 eV   86.31 nm  f=0.0143  <S**2>=0.000
       7 -> 14         0.16678
       8 -> 14         0.17816
       8 -> 15         0.26782
      10 -> 16        -0.15222
      10 -> 18         0.20600
      10 -> 19        -0.24638
      10 -> 20        -0.14153
      11 -> 23         0.40209
      12 -> 25        -0.13654
      12 -> 27        -0.13191

 Excited State  36:      Singlet-A'    14.4421 eV   85.85 nm  f=0.0365  <S**2>=0.000
       7 -> 14         0.18064
       8 -> 14        -0.12102
       8 -> 15        -0.28991
      10 -> 19         0.29994
      10 -> 20         0.23953
      11 -> 23         0.43419

 Excited State  37:      Singlet-A"    14.5396 eV   85.27 nm  f=0.0319  <S**2>=0.000
       9 -> 16        -0.29650
      11 -> 24         0.58898
      11 -> 27         0.11862

 Excited State  38:      Singlet-A'    14.6319 eV   84.74 nm  f=0.0615  <S**2>=0.000
       7 -> 14         0.50865
       9 -> 17        -0.14392
      11 -> 23        -0.10089
      12 -> 25         0.37921

 Excited State  39:      Singlet-A'    14.7233 eV   84.21 nm  f=0.1183  <S**2>=0.000
       7 -> 14        -0.21388
       8 -> 14         0.11553
       8 -> 15         0.18657
       8 -> 16        -0.14577
       9 -> 17         0.25030
      10 -> 19        -0.14611
      10 -> 20         0.37998
      12 -> 25         0.30788

 Excited State  40:      Singlet-A'    14.8085 eV   83.72 nm  f=0.0444  <S**2>=0.000
       8 -> 15         0.41603
       8 -> 16         0.13049
       9 -> 17        -0.13840
      10 -> 19         0.45101
      10 -> 22        -0.12134
      12 -> 27        -0.12553

 Excited State  41:      Singlet-A'    14.8545 eV   83.47 nm  f=0.0739  <S**2>=0.000
       7 -> 14        -0.20973
       7 -> 15         0.11953
       8 -> 15        -0.22851
       8 -> 16         0.10561
       9 -> 17        -0.17177
      10 -> 18         0.17556
      10 -> 20        -0.23586
      11 -> 23         0.12813
      12 -> 24         0.12928
      12 -> 25         0.43271
      12 -> 27        -0.10941

 Excited State  42:      Singlet-A"    14.9182 eV   83.11 nm  f=0.0271  <S**2>=0.000
       8 -> 17         0.34967
      10 -> 21         0.59595

 Excited State  43:      Singlet-A'    14.9723 eV   82.81 nm  f=0.0194  <S**2>=0.000
       7 -> 15        -0.23027
       9 -> 17         0.52767
      10 -> 16         0.11075
      10 -> 20        -0.31714
      12 -> 25         0.11852

 Excited State  44:      Singlet-A"    14.9960 eV   82.68 nm  f=0.0272  <S**2>=0.000
       9 -> 16         0.56447
       9 -> 18         0.10271
       9 -> 20         0.15449
      11 -> 24         0.31549

 Excited State  45:      Singlet-A'    15.3662 eV   80.69 nm  f=0.0562  <S**2>=0.000
       7 -> 14         0.15648
       7 -> 15         0.61714
       9 -> 17         0.17904
      10 -> 19         0.12745

 Excited State  46:      Singlet-A"    15.3921 eV   80.55 nm  f=0.0500  <S**2>=0.000
       6 -> 13        -0.14253
       9 -> 16        -0.16737
       9 -> 18         0.40562
       9 -> 19         0.15143
       9 -> 20         0.29967
      11 -> 25        -0.32569
      12 -> 26         0.13668

 Excited State  47:      Singlet-A'    15.5989 eV   79.48 nm  f=0.1143  <S**2>=0.000
       7 -> 14        -0.10962
       8 -> 15         0.10827
       8 -> 16        -0.17694
       8 -> 18        -0.11027
      10 -> 19         0.12558
      10 -> 20        -0.12060
      10 -> 22         0.42563
      11 -> 23         0.10019
      12 -> 27         0.38903

 Excited State  48:      Singlet-A"    15.6681 eV   79.13 nm  f=0.0128  <S**2>=0.000
       9 -> 18         0.12398
      10 -> 23        -0.14251
      11 -> 25         0.42857
      12 -> 26         0.50943

 Excited State  49:      Singlet-A'    15.6792 eV   79.08 nm  f=0.0503  <S**2>=0.000
       8 -> 16         0.14266
       8 -> 18         0.22056
      10 -> 22        -0.37296
      12 -> 27         0.47278

 Excited State  50:      Singlet-A"    15.7015 eV   78.96 nm  f=0.0042  <S**2>=0.000
       9 -> 18        -0.31754
       9 -> 20        -0.11955
      11 -> 25        -0.41334
      12 -> 26         0.42941

 Excited State  51:      Singlet-A"    15.9484 eV   77.74 nm  f=0.0575  <S**2>=0.000
       6 -> 13        -0.11720
       9 -> 18        -0.22835
       9 -> 19         0.43116
       9 -> 20         0.23418
      11 -> 24        -0.11566
      11 -> 27         0.37265

 Excited State  52:      Singlet-A'    16.0248 eV   77.37 nm  f=0.0129  <S**2>=0.000
       8 -> 16         0.52514
       8 -> 20         0.19686
      10 -> 18        -0.16869
      10 -> 20         0.13343
      10 -> 22         0.28060

 Excited State  53:      Singlet-A"    16.0460 eV   77.27 nm  f=0.0023  <S**2>=0.000
       8 -> 17         0.59335
      10 -> 21        -0.35007

 Excited State  54:      Singlet-A"    16.1544 eV   76.75 nm  f=0.0043  <S**2>=0.000
       7 -> 17         0.10128
       9 -> 18         0.18322
       9 -> 19        -0.26011
       9 -> 20        -0.12590
      10 -> 23         0.31523
      11 -> 27         0.44402
      11 -> 32        -0.13551

 Excited State  55:      Singlet-A"    16.2587 eV   76.26 nm  f=0.0004  <S**2>=0.000
       7 -> 17         0.24376
       9 -> 18        -0.10046
       9 -> 19         0.11000
       9 -> 20         0.10665
      10 -> 23         0.52932
      11 -> 27        -0.25361
      12 -> 26         0.13213

 Excited State  56:      Singlet-A'    16.2790 eV   76.16 nm  f=0.0001  <S**2>=0.000
       7 -> 16         0.10638
       8 -> 18         0.11099
       8 -> 20         0.10996
       9 -> 21        -0.15213
      12 -> 28         0.60956
      12 -> 30         0.14002

 Excited State  57:      Singlet-A"    16.4530 eV   75.36 nm  f=0.0208  <S**2>=0.000
       6 -> 13        -0.14013
       9 -> 18        -0.22756
       9 -> 19        -0.42456
       9 -> 20         0.45231

 Excited State  58:      Singlet-A'    16.5217 eV   75.04 nm  f=0.0148  <S**2>=0.000
       7 -> 16         0.22908
       8 -> 18        -0.24374
       8 -> 19        -0.19019
       9 -> 21        -0.18798
      10 -> 24         0.47751
      11 -> 26        -0.19124

 Excited State  59:      Singlet-A'    16.6107 eV   74.64 nm  f=0.0466  <S**2>=0.000
       7 -> 16         0.19512
       8 -> 20         0.14251
       9 -> 21         0.54049
      10 -> 24         0.22012
      11 -> 26         0.24555

 Excited State  60:      Singlet-A"    16.6333 eV   74.54 nm  f=0.0133  <S**2>=0.000
       7 -> 17         0.63546
      10 -> 23        -0.26896

 Excited State  61:      Singlet-A'    16.6796 eV   74.33 nm  f=0.0029  <S**2>=0.000
       7 -> 16         0.36335
       7 -> 18         0.14879
       7 -> 20         0.17326
       8 -> 16        -0.10983
       8 -> 18         0.21191
       8 -> 19         0.22296
       8 -> 20         0.21948
      10 -> 24        -0.11894
      11 -> 26        -0.21540
      12 -> 28        -0.19557

 Excited State  62:      Singlet-A'    16.7696 eV   73.93 nm  f=0.0012  <S**2>=0.000
       7 -> 16         0.36106
       8 -> 16         0.10733
       8 -> 18        -0.13869
       8 -> 20        -0.14894
       9 -> 21        -0.20302
       9 -> 23        -0.10524
      10 -> 24        -0.15881
      11 -> 26         0.42108

 Excited State  63:      Singlet-A'    16.8905 eV   73.40 nm  f=0.0473  <S**2>=0.000
       7 -> 16        -0.11623
       7 -> 18         0.11488
       8 -> 16        -0.11534
       8 -> 18         0.28241
       8 -> 19        -0.21762
       8 -> 20         0.21529
       9 -> 21        -0.26318
      10 -> 24         0.15371
      11 -> 26         0.32630
      12 -> 30        -0.10061

 Excited State  64:      Singlet-A'    17.0711 eV   72.63 nm  f=0.0706  <S**2>=0.000
       7 -> 16        -0.21914
       7 -> 18         0.15553
       7 -> 19         0.11200
       7 -> 20         0.11290
       8 -> 18        -0.22269
       8 -> 19         0.39972
       8 -> 20         0.18071
      10 -> 22        -0.15250
      10 -> 24         0.17900
      11 -> 26         0.14301
      12 -> 30         0.16409
      12 -> 32        -0.11034

 Excited State  65:      Singlet-A'    17.0988 eV   72.51 nm  f=0.0098  <S**2>=0.000
       7 -> 20        -0.12549
       8 -> 18        -0.13362
       8 -> 20         0.19350
      12 -> 29         0.58115
      12 -> 30        -0.20152

 Excited State  66:      Singlet-A"    17.1120 eV   72.45 nm  f=0.0790  <S**2>=0.000
       6 -> 13         0.55417
       9 -> 20         0.17579
      12 -> 31        -0.33383

 Excited State  67:      Singlet-A"    17.1982 eV   72.09 nm  f=0.0070  <S**2>=0.000
       9 -> 18        -0.11255
       9 -> 22         0.60704
      11 -> 28         0.25418

 Excited State  68:      Singlet-A'    17.2762 eV   71.77 nm  f=0.0414  <S**2>=0.000
       7 -> 18        -0.16977
       7 -> 20        -0.11815
       8 -> 18        -0.25391
       8 -> 19        -0.14805
       8 -> 20         0.40660
      10 -> 24        -0.14691
      12 -> 29        -0.30866
      12 -> 30        -0.16641

 Excited State  69:      Singlet-A'    17.3303 eV   71.54 nm  f=0.0161  <S**2>=0.000
       7 -> 16        -0.11671
       7 -> 18         0.39827
       7 -> 20         0.18623
      12 -> 27         0.13264
      12 -> 28         0.17134
      12 -> 30        -0.35918
      12 -> 32         0.21553

 Excited State  70:      Singlet-A"    17.4566 eV   71.02 nm  f=0.0493  <S**2>=0.000
       6 -> 13         0.14231
       8 -> 21         0.62648
      12 -> 31         0.18745

 Excited State  71:      Singlet-A'    17.4570 eV   71.02 nm  f=0.0274  <S**2>=0.000
       7 -> 18         0.25623
       7 -> 19         0.11348
       7 -> 20         0.13514
       8 -> 18        -0.16319
       8 -> 19        -0.28720
       8 -> 20         0.13827
       9 -> 23        -0.16408
      10 -> 24        -0.19425
      10 -> 25        -0.11935
      12 -> 29         0.13882
      12 -> 30         0.33909

 Excited State  72:      Singlet-A"    17.5322 eV   70.72 nm  f=0.0040  <S**2>=0.000
       6 -> 13         0.20090
       9 -> 20         0.11501
       9 -> 22        -0.21502
      11 -> 28         0.51014
      12 -> 31         0.30159

 Excited State  73:      Singlet-A"    17.5878 eV   70.49 nm  f=0.1652  <S**2>=0.000
       6 -> 13         0.17157
       8 -> 21        -0.25276
       9 -> 22         0.10694
       9 -> 24         0.16959
      11 -> 28        -0.31575
      12 -> 31         0.47900

 Excited State  74:      Singlet-A'    17.6649 eV   70.19 nm  f=0.0305  <S**2>=0.000
       8 -> 19        -0.20045
       8 -> 22         0.14928
       9 -> 23         0.43505
      10 -> 25         0.37996
      11 -> 26         0.13738
      11 -> 31        -0.11247
      12 -> 32        -0.14195

 Excited State  75:      Singlet-A'    17.7905 eV   69.69 nm  f=0.0629  <S**2>=0.000
       7 -> 18        -0.19858
       7 -> 19         0.39957
       7 -> 20         0.23707
       8 -> 22        -0.17747
       9 -> 23         0.25225
      10 -> 25        -0.30400
      12 -> 30        -0.10089

 Excited State  76:      Singlet-A'    17.8955 eV   69.28 nm  f=0.0744  <S**2>=0.000
       7 -> 18        -0.16645
       7 -> 19         0.29680
       7 -> 20         0.16611
       9 -> 23        -0.34400
      10 -> 25         0.40963
      12 -> 32         0.13727

 Excited State  77:      Singlet-A"    18.0028 eV   68.87 nm  f=0.0316  <S**2>=0.000
       9 -> 24         0.53627
       9 -> 27         0.10691
      11 -> 29         0.11439
      11 -> 30         0.32218
      12 -> 31        -0.10709

 Excited State  78:      Singlet-A'    18.0096 eV   68.84 nm  f=0.0046  <S**2>=0.000
       7 -> 19        -0.17238
       8 -> 22        -0.32783
       9 -> 23         0.16607
      10 -> 25         0.11678
      10 -> 27         0.28078
      10 -> 28         0.10242
      12 -> 30         0.17906
      12 -> 32         0.36105

 Excited State  79:      Singlet-A"    18.2445 eV   67.96 nm  f=0.0004  <S**2>=0.000
       9 -> 24        -0.30871
      11 -> 27        -0.10284
      11 -> 28        -0.14659
      11 -> 29         0.32213
      11 -> 30         0.36309
      11 -> 32        -0.32566

 Excited State  80:      Singlet-A'    18.2959 eV   67.77 nm  f=0.0609  <S**2>=0.000
       6 -> 14         0.24173
       8 -> 22         0.39181
       8 -> 24         0.11164
      10 -> 25        -0.10790
      12 -> 30         0.17171
      12 -> 32         0.37355

 Excited State  81:      Singlet-A'    18.3145 eV   67.70 nm  f=0.0517  <S**2>=0.000
       6 -> 14        -0.19267
       7 -> 18         0.13562
       7 -> 19         0.27794
       7 -> 20        -0.26252
       8 -> 22         0.19819
      10 -> 27         0.42975
      10 -> 32        -0.10733

 Excited State  82:      Singlet-A'    18.3777 eV   67.46 nm  f=0.0642  <S**2>=0.000
       6 -> 14        -0.19887
       7 -> 18        -0.22087
       7 -> 19        -0.24068
       7 -> 20         0.39980
       8 -> 22         0.28634
      10 -> 27         0.20982

 Excited State  83:      Singlet-A"    18.3980 eV   67.39 nm  f=0.0010  <S**2>=0.000
       9 -> 24         0.10026
      11 -> 29         0.54671
      11 -> 30        -0.38821

 Excited State  84:      Singlet-A"    18.4599 eV   67.16 nm  f=0.0000  <S**2>=0.000
       7 -> 21         0.67695

 Excited State  85:      Singlet-A'    18.5521 eV   66.83 nm  f=0.0628  <S**2>=0.000
       6 -> 14         0.47196
      10 -> 27         0.15312
      11 -> 31        -0.43063

 Excited State  86:      Singlet-A"    18.6521 eV   66.47 nm  f=0.1545  <S**2>=0.000
       7 -> 21        -0.11534
       7 -> 23         0.10788
       8 -> 23         0.36991

 The electronic state is 1-A'.
 Alpha  occ. eigenvalues --  -19.33506 -19.27605 -10.45174  -1.22662  -1.13392
 Alpha  occ. eigenvalues --   -0.77162  -0.62587  -0.59208  -0.55980  -0.50786
 Alpha  occ. eigenvalues --   -0.43380  -0.39100
 Alpha virt. eigenvalues --    0.05930   0.07955   0.10329   0.14807   0.15264
 Alpha virt. eigenvalues --    0.18183   0.19088   0.20617   0.20694   0.23490
 Alpha virt. eigenvalues --    0.27643   0.28454   0.31586   0.35505   0.35737

 Mulliken charges:
               1
     1  O   -0.262093
     2  C    0.578336
     3  O   -0.341524
     4  H    0.188912
     5  H   -0.163630
 Sum of Mulliken charges =   0.00000

 Dipole moment (field-independent basis, Debye):
    X=             -1.5900    Y=             -0.2914    Z=              0.0000  Tot=              1.6165
 Quadrupole moment (field-independent basis, Debye-Ang):
   XX=            -22.3245   YY=            -12.8432   ZZ=            -17.1093
   XY=             -0.0023   XZ=             -0.0000   YZ=              0.0000

 Normal termination of Gaussian 16 at Sat Feb 12 22:18:42 2022.
