 Gaussian 16, Revision C.01,
 Gaussian 16:  EM64L-G16RevC.01  3-Jul-2019

 ----------------------------------------------------------------------
 #P TD(Nstates=10000) wB97XD/Gen SCF(maxcycles=100) Int(Grid=ultrafine)
 ----------------------------------------------------------------------

 ---------------------
 xGDB7_00001_tier4.com
 ---------------------
 Symbolic Z-matrix:
 Charge =  0 Multiplicity = 1

                         Standard orientation:
 ---------------------------------------------------------------------
 Center     Atomic      Atomic             Coordinates (Angstroms)
 Number     Number       Type             X           Y           Z
 ---------------------------------------------------------------------
      1          9           0        0.000000    0.000000    0.091898
      2          1           0        0.000000    0.000000   -0.827078
 ---------------------------------------------------------------------

 SCF Done:  E(RwB97XD) =  -100.349020285     A.U. after   11 cycles

 Excitation energies and oscillator strengths:

 Excited state symmetry could not be determined.
 Excited State   1:      Singlet-?Sym   10.5232 eV  117.82 nm  f=0.0336  <S**2>=0.000
       4 ->  6         0.59178
       5 ->  6         0.37430
 This state for optimization and/or second-order correction.
 Total Energy, E(TD-HF/TD-DFT) =  -99.9622982926
 Copying the excited state density for this state as the 1-particle RhoCI density.

 Excited state symmetry could not be determined.
 Excited State   2:      Singlet-?Sym   10.5232 eV  117.82 nm  f=0.0336  <S**2>=0.000
       4 ->  6        -0.37430
       5 ->  6         0.59178

 Excited State   3:      Singlet-SG    14.3302 eV   86.52 nm  f=0.1443  <S**2>=0.000
       3 ->  6         0.63037
       4 ->  9         0.21739
       5 ->  8         0.21739

 Excited state symmetry could not be determined.
 Excited State   4:      Singlet-?Sym   14.4975 eV   85.52 nm  f=0.0000  <S**2>=0.000
       4 ->  8         0.49742
       5 ->  9         0.49742

 Excited state symmetry could not be determined.
 Excited State   5:      Singlet-?Sym   14.4975 eV   85.52 nm  f=0.0000  <S**2>=0.000
       4 ->  9        -0.49742
       5 ->  8         0.49742

 Excited state symmetry could not be determined.
 Excited State   6:      Singlet-?Sym   14.5280 eV   85.34 nm  f=0.0268  <S**2>=0.000
       4 ->  7         0.69002
       4 -> 10         0.14820

 Excited state symmetry could not be determined.
 Excited State   7:      Singlet-?Sym   14.5280 eV   85.34 nm  f=0.0268  <S**2>=0.000
       5 ->  7         0.69002
       5 -> 10         0.14820

 Excited state symmetry could not be determined.
 Excited State   8:      Singlet-?Sym   14.5583 eV   85.16 nm  f=0.0000  <S**2>=0.000
       4 ->  8        -0.49728
       5 ->  9         0.49728

 Excited state symmetry could not be determined.
 Excited State   9:      Singlet-?Sym   16.0954 eV   77.03 nm  f=0.0217  <S**2>=0.000
       3 ->  6        -0.27922
       3 ->  7        -0.17054
       3 -> 10        -0.12291
       4 ->  9         0.42686
       5 ->  8         0.42686

 Excited state symmetry could not be determined.
 Excited State  10:      Singlet-?Sym   16.3219 eV   75.96 nm  f=0.0759  <S**2>=0.000
       4 ->  7        -0.11751
       4 -> 10         0.55827
       5 -> 10         0.39794

 Excited state symmetry could not be determined.
 Excited State  11:      Singlet-?Sym   16.3219 eV   75.96 nm  f=0.0759  <S**2>=0.000
       4 -> 10        -0.39794
       5 ->  7        -0.11751
       5 -> 10         0.55827

 Excited state symmetry could not be determined.
 Excited State  12:      Singlet-?Sym   17.3085 eV   71.63 nm  f=0.0000  <S**2>=0.000
       4 -> 11        -0.49674
       5 -> 12         0.49674

 Excited state symmetry could not be determined.
 Excited State  13:      Singlet-?Sym   17.3085 eV   71.63 nm  f=0.0000  <S**2>=0.000
       4 -> 12         0.49674
       5 -> 11         0.49674

 Excited state symmetry could not be determined.
 Excited State  14:      Singlet-?Sym   17.4326 eV   71.12 nm  f=0.0000  <S**2>=0.000
       4 -> 12        -0.49687
       5 -> 11         0.49687

 Excited state symmetry could not be determined.
 Excited State  15:      Singlet-?Sym   17.4774 eV   70.94 nm  f=0.1963  <S**2>=0.000
       3 ->  7        -0.12214
       3 -> 10        -0.13717
       4 -> 11         0.47846
       5 -> 12         0.47846

 Excited state symmetry could not be determined.
 Excited State  16:      Singlet-?Sym   18.2687 eV   67.87 nm  f=0.0003  <S**2>=0.000
       3 ->  9         0.70235

 Excited state symmetry could not be determined.
 Excited State  17:      Singlet-?Sym   18.2687 eV   67.87 nm  f=0.0003  <S**2>=0.000
       3 ->  8         0.70235

 Excited State  18:      Singlet-SG    18.6275 eV   66.56 nm  f=0.0340  <S**2>=0.000
       3 ->  6        -0.11900
       3 ->  7         0.67316

 Excited state symmetry could not be determined.
 Excited State  19:      Singlet-?Sym   19.4440 eV   63.76 nm  f=0.0251  <S**2>=0.000
       4 -> 13         0.64701
       5 -> 13        -0.26791

 Excited state symmetry could not be determined.
 Excited State  20:      Singlet-?Sym   19.4440 eV   63.76 nm  f=0.0251  <S**2>=0.000
       4 -> 13         0.26791
       5 -> 13         0.64701

 Excited state symmetry could not be determined.
 Excited State  21:      Singlet-?Sym   21.0076 eV   59.02 nm  f=0.0726  <S**2>=0.000
       3 -> 11         0.53987
       3 -> 12         0.44693

 Excited state symmetry could not be determined.
 Excited State  22:      Singlet-?Sym   21.0076 eV   59.02 nm  f=0.0726  <S**2>=0.000
       3 -> 11        -0.44693
       3 -> 12         0.53987

 Excited State  23:      Singlet-SG    21.0610 eV   58.87 nm  f=0.1107  <S**2>=0.000
       3 -> 10         0.65924
       3 -> 13         0.18179

 Excited State  24:      Singlet-SG    23.8527 eV   51.98 nm  f=0.0700  <S**2>=0.000
       3 -> 10        -0.15448
       3 -> 13         0.67453

 Excited state symmetry could not be determined.
 Excited State  25:      Singlet-?Sym   24.7482 eV   50.10 nm  f=0.0000  <S**2>=0.000
       4 -> 14         0.35351
       4 -> 15         0.35366
       5 -> 14         0.35366
       5 -> 15        -0.35351

 Excited state symmetry could not be determined.
 Excited State  26:      Singlet-?Sym   24.7482 eV   50.10 nm  f=0.0000  <S**2>=0.000
       4 -> 14         0.35366
       4 -> 15        -0.35351
       5 -> 14        -0.35351
       5 -> 15        -0.35366

 Excited state symmetry could not be determined.
 Excited State  27:      Singlet-?Sym   25.9521 eV   47.77 nm  f=0.4586  <S**2>=0.000
       4 -> 14         0.48662
       4 -> 16        -0.14008
       5 -> 15         0.48662

 Excited state symmetry could not be determined.
 Excited State  28:      Singlet-?Sym   25.9521 eV   47.77 nm  f=0.4586  <S**2>=0.000
       4 -> 15        -0.48662
       5 -> 14         0.48662
       5 -> 16         0.14008

 Excited state symmetry could not be determined.
 Excited State  29:      Singlet-?Sym   27.4057 eV   45.24 nm  f=0.1279  <S**2>=0.000
       4 -> 16         0.68236

 Excited state symmetry could not be determined.
 Excited State  30:      Singlet-?Sym   27.4057 eV   45.24 nm  f=0.1279  <S**2>=0.000
       5 -> 16         0.68236

 Excited state symmetry could not be determined.
 Excited State  31:      Singlet-?Sym   28.7830 eV   43.08 nm  f=0.0000  <S**2>=0.000
       3 -> 14         0.65787
       4 -> 18         0.18267
       5 -> 17        -0.18267

 Excited state symmetry could not be determined.
 Excited State  32:      Singlet-?Sym   28.7830 eV   43.08 nm  f=0.0000  <S**2>=0.000
       3 -> 15         0.65787
       4 -> 17         0.18267
       5 -> 18         0.18267

 Excited state symmetry could not be determined.
 Excited State  33:      Singlet-?Sym   29.4018 eV   42.17 nm  f=0.0000  <S**2>=0.000
       3 -> 14         0.25909
       4 -> 18        -0.46451
       5 -> 17         0.46451

 Excited state symmetry could not be determined.
 Excited State  34:      Singlet-?Sym   29.4018 eV   42.17 nm  f=0.0000  <S**2>=0.000
       3 -> 15        -0.25909
       4 -> 17         0.46451
       5 -> 18         0.46451

 Excited state symmetry could not be determined.
 Excited State  35:      Singlet-?Sym   29.6287 eV   41.85 nm  f=0.0000  <S**2>=0.000
       4 -> 17         0.49934
       5 -> 18        -0.49934

 Excited state symmetry could not be determined.
 Excited State  36:      Singlet-?Sym   29.8509 eV   41.53 nm  f=0.1439  <S**2>=0.000
       3 -> 16         0.33957
       4 -> 18         0.43292
       5 -> 17         0.43292

 Excited State  37:      Singlet-SG    31.9754 eV   38.77 nm  f=0.4489  <S**2>=0.000
       2 ->  6        -0.45026
       3 -> 16         0.48879
       4 -> 18        -0.14990
       5 -> 17        -0.14990

 Excited State  38:      Singlet-SG    32.5135 eV   38.13 nm  f=0.1823  <S**2>=0.000
       2 ->  6         0.53174
       3 -> 16         0.37145
       4 -> 18        -0.18797
       5 -> 17        -0.18797

 Excited state symmetry could not be determined.
 Excited State  39:      Singlet-?Sym   33.5350 eV   36.97 nm  f=0.2920  <S**2>=0.000
       3 -> 17         0.47664
       3 -> 18         0.50381

 Excited state symmetry could not be determined.
 Excited State  40:      Singlet-?Sym   33.5350 eV   36.97 nm  f=0.2920  <S**2>=0.000
       3 -> 17         0.50381
       3 -> 18        -0.47664

 Excited State  41:      Singlet-SG    35.9978 eV   34.44 nm  f=0.0058  <S**2>=0.000
       2 ->  7         0.69240
       2 -> 10         0.10630

 Excited state symmetry could not be determined.
 Excited State  42:      Singlet-?Sym   36.0908 eV   34.35 nm  f=0.0008  <S**2>=0.000
       2 ->  8         0.67905
       2 ->  9        -0.13927

 Excited state symmetry could not be determined.
 Excited State  43:      Singlet-?Sym   36.0908 eV   34.35 nm  f=0.0008  <S**2>=0.000
       2 ->  8         0.13927
       2 ->  9         0.67905

 Excited State  44:      Singlet-SG    37.7578 eV   32.84 nm  f=0.0099  <S**2>=0.000
       2 ->  7        -0.10681
       2 -> 10         0.69674

 Excited state symmetry could not be determined.
 Excited State  45:      Singlet-?Sym   37.8339 eV   32.77 nm  f=0.0043  <S**2>=0.000
       4 -> 19        -0.37559
       5 -> 19         0.58550

 Excited state symmetry could not be determined.
 Excited State  46:      Singlet-?Sym   37.8339 eV   32.77 nm  f=0.0043  <S**2>=0.000
       4 -> 19         0.58550
       5 -> 19         0.37559

 Excited state symmetry could not be determined.
 Excited State  47:      Singlet-?Sym   38.5509 eV   32.16 nm  f=0.0047  <S**2>=0.000
       2 -> 11         0.65700
       2 -> 12        -0.21870
       4 -> 19         0.11074

 Excited state symmetry could not be determined.
 Excited State  48:      Singlet-?Sym   38.5509 eV   32.16 nm  f=0.0047  <S**2>=0.000
       2 -> 11         0.21870
       2 -> 12         0.65700
       5 -> 19         0.11074

 Excited State  49:      Singlet-SG    40.9517 eV   30.28 nm  f=0.0096  <S**2>=0.000
       2 -> 13         0.65361
       3 -> 19         0.25651

 Excited State  50:      Singlet-SG    41.9871 eV   29.53 nm  f=0.0056  <S**2>=0.000
       2 -> 13        -0.23258
       3 -> 19         0.62871
       4 -> 20        -0.15476
       5 -> 21        -0.15476

 Excited state symmetry could not be determined.
 Excited State  51:      Singlet-?Sym   44.5684 eV   27.82 nm  f=0.0000  <S**2>=0.000
       4 -> 21        -0.49974
       5 -> 20         0.49974

 Excited state symmetry could not be determined.
 Excited State  52:      Singlet-?Sym   44.6923 eV   27.74 nm  f=0.0000  <S**2>=0.000
       2 -> 15        -0.10155
       4 -> 21         0.49459
       5 -> 20         0.49459

 Excited state symmetry could not be determined.
 Excited State  53:      Singlet-?Sym   44.6923 eV   27.74 nm  f=0.0000  <S**2>=0.000
       2 -> 14        -0.10155
       4 -> 20         0.49459
       5 -> 21        -0.49459

 Excited state symmetry could not be determined.
 Excited State  54:      Singlet-?Sym   46.5576 eV   26.63 nm  f=0.0000  <S**2>=0.000
       2 -> 15         0.69971

 Excited state symmetry could not be determined.
 Excited State  55:      Singlet-?Sym   46.5576 eV   26.63 nm  f=0.0000  <S**2>=0.000
       2 -> 14         0.69971

 Excited state symmetry could not be determined.
 Excited State  56:      Singlet-?Sym   48.5467 eV   25.54 nm  f=0.0000  <S**2>=0.000
       3 -> 20         0.51194
       3 -> 21        -0.48093

 Excited state symmetry could not be determined.
 Excited State  57:      Singlet-?Sym   48.5467 eV   25.54 nm  f=0.0000  <S**2>=0.000
       3 -> 20         0.48093
       3 -> 21         0.51194

 Excited State  58:      Singlet-SG    48.7863 eV   25.41 nm  f=0.0000  <S**2>=0.000
       2 -> 16         0.69386

 Excited state symmetry could not be determined.
 Excited State  59:      Singlet-?Sym   50.2096 eV   24.69 nm  f=0.0466  <S**2>=0.000
       2 -> 17        -0.10205
       4 -> 22        -0.38457
       5 -> 22         0.57752

 Excited state symmetry could not be determined.
 Excited State  60:      Singlet-?Sym   50.2096 eV   24.69 nm  f=0.0466  <S**2>=0.000
       2 -> 18        -0.10205
       4 -> 22         0.57752
       5 -> 22         0.38457

 Excited state symmetry could not be determined.
 Excited State  61:      Singlet-?Sym   51.0604 eV   24.28 nm  f=0.0113  <S**2>=0.000
       2 -> 17        -0.13670
       2 -> 18         0.67968
       4 -> 22         0.11679

 Excited state symmetry could not be determined.
 Excited State  62:      Singlet-?Sym   51.0604 eV   24.28 nm  f=0.0113  <S**2>=0.000
       2 -> 17         0.67968
       2 -> 18         0.13670
       5 -> 22         0.11679

 Excited State  63:      Singlet-SG    51.2594 eV   24.19 nm  f=0.0920  <S**2>=0.000
       2 -> 16        -0.12462
       3 -> 19        -0.12797
       3 -> 22         0.45721
       4 -> 20        -0.34364
       5 -> 21        -0.34364

 Excited State  64:      Singlet-SG    58.0857 eV   21.35 nm  f=0.0014  <S**2>=0.000
       2 -> 19        -0.32025
       2 -> 22         0.10557
       3 -> 22         0.44538
       4 -> 20         0.21840
       4 -> 24         0.18755
       5 -> 21         0.21840
       5 -> 23         0.18755

 Excited state symmetry could not be determined.
 Excited State  65:      Singlet-?Sym   58.9271 eV   21.04 nm  f=0.0000  <S**2>=0.000
       4 -> 24        -0.49994
       5 -> 23         0.49994

 Excited state symmetry could not be determined.
 Excited State  66:      Singlet-?Sym   58.9271 eV   21.04 nm  f=0.0000  <S**2>=0.000
       4 -> 23         0.49994
       5 -> 24         0.49994

 Excited state symmetry could not be determined.
 Excited State  67:      Singlet-?Sym   59.2485 eV   20.93 nm  f=0.0000  <S**2>=0.000
       4 -> 23         0.49992
       5 -> 24        -0.49992

 Excited State  68:      Singlet-SG    59.5721 eV   20.81 nm  f=0.1453  <S**2>=0.000
       2 -> 19         0.49033
       4 -> 24         0.35660
       5 -> 23         0.35660

 Excited State  69:      Singlet-SG    60.4606 eV   20.51 nm  f=0.0046  <S**2>=0.000
       2 -> 19         0.38553
       2 -> 22         0.12447
       3 -> 22         0.26502
       3 -> 25        -0.19427
       4 -> 20         0.16787
       4 -> 24        -0.28298
       5 -> 21         0.16787
       5 -> 23        -0.28298

 Excited state symmetry could not be determined.
 Excited State  70:      Singlet-?Sym   62.0336 eV   19.99 nm  f=0.0050  <S**2>=0.000
       3 -> 23         0.11804
       3 -> 24        -0.28470
       4 -> 25         0.58676
       5 -> 25        -0.24328

 Excited state symmetry could not be determined.
 Excited State  71:      Singlet-?Sym   62.0336 eV   19.99 nm  f=0.0050  <S**2>=0.000
       3 -> 23        -0.28470
       3 -> 24        -0.11804
       4 -> 25         0.24328
       5 -> 25         0.58676

 Excited state symmetry could not be determined.
 Excited State  72:      Singlet-?Sym   63.1248 eV   19.64 nm  f=0.1796  <S**2>=0.000
       3 -> 23         0.62458
       3 -> 24         0.11560
       5 -> 25         0.30313

 Excited state symmetry could not be determined.
 Excited State  73:      Singlet-?Sym   63.1248 eV   19.64 nm  f=0.1796  <S**2>=0.000
       3 -> 23        -0.11560
       3 -> 24         0.62458
       4 -> 25         0.30313

 Excited state symmetry could not be determined.
 Excited State  74:      Singlet-?Sym   66.5269 eV   18.64 nm  f=0.1835  <S**2>=0.000
       2 -> 20        -0.42823
       2 -> 21         0.56031

 Excited state symmetry could not be determined.
 Excited State  75:      Singlet-?Sym   66.5269 eV   18.64 nm  f=0.1835  <S**2>=0.000
       2 -> 20         0.56031
       2 -> 21         0.42823

 Excited State  76:      Singlet-SG    66.8575 eV   18.54 nm  f=0.0186  <S**2>=0.000
       2 -> 22         0.16161
       3 -> 25         0.66317

 Excited state symmetry could not be determined.
 Excited State  77:      Singlet-?Sym   72.9723 eV   16.99 nm  f=0.0187  <S**2>=0.000
       4 -> 26         0.66580
       5 -> 26         0.23084

 Excited state symmetry could not be determined.
 Excited State  78:      Singlet-?Sym   72.9723 eV   16.99 nm  f=0.0187  <S**2>=0.000
       4 -> 26        -0.23084
       5 -> 26         0.66580

 Excited State  79:      Singlet-SG    73.4375 eV   16.88 nm  f=0.0764  <S**2>=0.000
       2 -> 22         0.64289
       2 -> 25         0.12172
       3 -> 25        -0.11411
       3 -> 26        -0.16658

 Excited State  80:      Singlet-SG    77.7184 eV   15.95 nm  f=0.0214  <S**2>=0.000
       2 -> 22         0.14019
       3 -> 26         0.67695

 Excited state symmetry could not be determined.
 Excited State  81:      Singlet-?Sym   80.2632 eV   15.45 nm  f=0.0010  <S**2>=0.000
       2 -> 23         0.69957
       2 -> 24        -0.10007

 Excited state symmetry could not be determined.
 Excited State  82:      Singlet-?Sym   80.2632 eV   15.45 nm  f=0.0010  <S**2>=0.000
       2 -> 23         0.10007
       2 -> 24         0.69957

 Excited State  83:      Singlet-SG    85.5105 eV   14.50 nm  f=0.0401  <S**2>=0.000
       2 -> 22        -0.10243
       2 -> 25         0.68421

 Excited State  84:      Singlet-SG    94.7866 eV   13.08 nm  f=0.0185  <S**2>=0.000
       2 -> 26         0.70526

 Excited state symmetry could not be determined.
 Excited State  85:      Singlet-?Sym   97.2367 eV   12.75 nm  f=0.0000  <S**2>=0.000
       4 -> 27         0.50000
       5 -> 28        -0.50000

 Excited state symmetry could not be determined.
 Excited State  86:      Singlet-?Sym   97.2367 eV   12.75 nm  f=0.0000  <S**2>=0.000
       4 -> 28         0.50000
       5 -> 27         0.50000

 Excited state symmetry could not be determined.
 Excited State  87:      Singlet-?Sym  101.3220 eV   12.24 nm  f=0.0000  <S**2>=0.000
       3 -> 27         0.70527

 Excited state symmetry could not be determined.
 Excited State  88:      Singlet-?Sym  101.3220 eV   12.24 nm  f=0.0000  <S**2>=0.000
       3 -> 28         0.70527

 Excited state symmetry could not be determined.
 Excited State  89:      Singlet-?Sym  101.6610 eV   12.20 nm  f=0.2817  <S**2>=0.000
       3 -> 29        -0.29419
       3 -> 30         0.20376
       4 -> 27        -0.24477
       4 -> 28         0.35341
       5 -> 27        -0.35341
       5 -> 28        -0.24477

 Excited state symmetry could not be determined.
 Excited State  90:      Singlet-?Sym  101.6610 eV   12.20 nm  f=0.2817  <S**2>=0.000
       3 -> 29        -0.20376
       3 -> 30        -0.29419
       4 -> 27         0.35341
       4 -> 28         0.24477
       5 -> 27        -0.24477
       5 -> 28         0.35341

 Excited state symmetry could not be determined.
 Excited State  91:      Singlet-?Sym  102.0859 eV   12.15 nm  f=0.0000  <S**2>=0.000
       4 -> 29         0.49876
       5 -> 30         0.49876

 Excited state symmetry could not be determined.
 Excited State  92:      Singlet-?Sym  102.0859 eV   12.15 nm  f=0.0000  <S**2>=0.000
       4 -> 30        -0.49876
       5 -> 29         0.49876

 Excited state symmetry could not be determined.
 Excited State  93:      Singlet-?Sym  102.1529 eV   12.14 nm  f=0.0000  <S**2>=0.000
       4 -> 29         0.49997
       5 -> 30        -0.49997

 Excited state symmetry could not be determined.
 Excited State  94:      Singlet-?Sym  107.9366 eV   11.49 nm  f=0.5539  <S**2>=0.000
       4 -> 30         0.49240
       5 -> 29         0.49240

 Excited state symmetry could not be determined.
 Excited State  95:      Singlet-?Sym  110.4112 eV   11.23 nm  f=0.6520  <S**2>=0.000
       3 -> 29         0.53357
       3 -> 30         0.28839
       4 -> 27         0.11771
       4 -> 28         0.21778
       5 -> 27        -0.21778
       5 -> 28         0.11771

 Excited state symmetry could not be determined.
 Excited State  96:      Singlet-?Sym  110.4112 eV   11.23 nm  f=0.6520  <S**2>=0.000
       3 -> 29        -0.28839
       3 -> 30         0.53357
       4 -> 27         0.21778
       4 -> 28        -0.11771
       5 -> 27         0.11771
       5 -> 28         0.21778

 Excited state symmetry could not be determined.
 Excited State  97:      Singlet-?Sym  120.1537 eV   10.32 nm  f=0.0000  <S**2>=0.000
       2 -> 27         0.70701

 Excited state symmetry could not be determined.
 Excited State  98:      Singlet-?Sym  120.1537 eV   10.32 nm  f=0.0000  <S**2>=0.000
       2 -> 28         0.70701

 Excited state symmetry could not be determined.
 Excited State  99:      Singlet-?Sym  124.9199 eV    9.93 nm  f=0.0104  <S**2>=0.000
       2 -> 29         0.70620

 Excited state symmetry could not be determined.
 Excited State 100:      Singlet-?Sym  124.9199 eV    9.93 nm  f=0.0104  <S**2>=0.000
       2 -> 30         0.70620

 Excited state symmetry could not be determined.
 Excited State 101:      Singlet-?Sym  128.2822 eV    9.66 nm  f=0.1092  <S**2>=0.000
       4 -> 31        -0.48939
       5 -> 31         0.50173

 Excited state symmetry could not be determined.
 Excited State 102:      Singlet-?Sym  128.2822 eV    9.66 nm  f=0.1092  <S**2>=0.000
       4 -> 31         0.50173
       5 -> 31         0.48939

 Excited State 103:      Singlet-SG   133.2999 eV    9.30 nm  f=0.2266  <S**2>=0.000
       3 -> 31         0.70019

 Excited State 104:      Singlet-SG   149.4418 eV    8.30 nm  f=0.0002  <S**2>=0.000
       2 -> 31         0.70698

 The electronic state is 1-SG.
 Alpha  occ. eigenvalues --  -24.82442  -1.29214  -0.64809  -0.51329  -0.51329
 Alpha virt. eigenvalues --    0.08525   0.22092   0.22985   0.22985   0.30602
 Alpha virt. eigenvalues --    0.32419   0.32419   0.41362   0.65610   0.65610
 Alpha virt. eigenvalues --    0.72200   0.81102   0.81102   1.13330   1.42305

 Mulliken charges:
               1
     1  F   -0.272127
     2  H    0.272127
 Sum of Mulliken charges =  -0.00000

 Dipole moment (field-independent basis, Debye):
    X=              0.0000    Y=              0.0000    Z=             -1.8449  Tot=              1.8449
 Quadrupole moment (field-independent basis, Debye-Ang):
   XX=             -5.8575   YY=             -5.8575   ZZ=             -3.7324
   XY=              0.0000   XZ=              0.0000   YZ=              0.0000

 Normal termination of Gaussian 16 at Sat Feb 12 22:25:06 2022.
