 Gaussian 16, Revision C.01,
 Gaussian 16:  EM64L-G16RevC.01  3-Jul-2019

 ----------------------------------------------------------------------
 #P TD(Nstates=10000) wB97XD/Gen SCF(maxcycles=100) Int(Grid=ultrafine)
 ----------------------------------------------------------------------

 ---------------------
 xGDB7_00001_tier4.com
 ---------------------
 Symbolic Z-matrix:
 Charge =  0 Multiplicity = 1

                         Standard orientation:
 ---------------------------------------------------------------------
 Center     Atomic      Atomic             Coordinates (Angstroms)
 Number     Number       Type             X           Y           Z
 ---------------------------------------------------------------------
      1          8           0        0.000000   -0.000000    0.119106
      2          1           0        0.000000    0.754930   -0.476424
      3          1           0       -0.000000   -0.754930   -0.476424
 ---------------------------------------------------------------------

 SCF Done:  E(RwB97XD) =  -76.3554582381     A.U. after   11 cycles

 Excitation energies and oscillator strengths:

 Excited State   1:      Singlet-B1     7.8201 eV  158.54 nm  f=0.0575  <S**2>=0.000
       5 ->  6         0.70204
 This state for optimization and/or second-order correction.
 Total Energy, E(TD-HF/TD-DFT) =  -76.0680737777
 Copying the excited state density for this state as the 1-particle RhoCI density.

 Excited State   2:      Singlet-A2     9.6353 eV  128.68 nm  f=0.0000  <S**2>=0.000
       5 ->  7         0.68756
       5 -> 10         0.13976

 Excited State   3:      Singlet-A1    10.0085 eV  123.88 nm  f=0.1059  <S**2>=0.000
       4 ->  6         0.68735
       5 ->  8         0.13196

 Excited State   4:      Singlet-B1    11.0907 eV  111.79 nm  f=0.0067  <S**2>=0.000
       5 ->  9         0.69945

 Excited State   5:      Singlet-A1    11.4387 eV  108.39 nm  f=0.0019  <S**2>=0.000
       4 ->  6        -0.11704
       4 ->  9        -0.14528
       5 ->  8         0.67355

 Excited State   6:      Singlet-B2    11.8570 eV  104.57 nm  f=0.0148  <S**2>=0.000
       4 ->  7         0.69738

 Excited State   7:      Singlet-A2    12.0622 eV  102.79 nm  f=0.0000  <S**2>=0.000
       5 ->  7        -0.14467
       5 -> 10         0.68748

 Excited State   8:      Singlet-B1    12.9947 eV   95.41 nm  f=0.0488  <S**2>=0.000
       4 ->  8         0.38449
       5 -> 11         0.58557

 Excited State   9:      Singlet-B1    13.1575 eV   94.23 nm  f=0.0077  <S**2>=0.000
       4 ->  8         0.58742
       5 -> 11        -0.38755

 Excited State  10:      Singlet-A1    13.4351 eV   92.28 nm  f=0.0407  <S**2>=0.000
       3 ->  7         0.12490
       4 ->  9         0.67123
       5 ->  8         0.11935

 Excited State  11:      Singlet-B2    13.7036 eV   90.48 nm  f=0.1105  <S**2>=0.000
       3 ->  6         0.69383

 Excited State  12:      Singlet-B2    14.1375 eV   87.70 nm  f=0.0092  <S**2>=0.000
       4 -> 10        -0.36245
       5 -> 12         0.59929

 Excited State  13:      Singlet-B1    14.2953 eV   86.73 nm  f=0.0557  <S**2>=0.000
       5 -> 13         0.69312

 Excited State  14:      Singlet-B2    14.6140 eV   84.84 nm  f=0.3182  <S**2>=0.000
       3 ->  6         0.11573
       4 -> 10         0.58770
       5 -> 12         0.36364

 Excited State  15:      Singlet-A1    15.0572 eV   82.34 nm  f=0.0812  <S**2>=0.000
       4 -> 11         0.52523
       5 -> 14         0.44876

 Excited State  16:      Singlet-A1    15.2267 eV   81.43 nm  f=0.0000  <S**2>=0.000
       3 ->  7        -0.24780
       4 -> 11        -0.45400
       5 -> 14         0.46690

 Excited State  17:      Singlet-A1    15.9846 eV   77.56 nm  f=0.0003  <S**2>=0.000
       3 ->  7         0.50603
       4 ->  9        -0.12350
       4 -> 11        -0.10392
       4 -> 13         0.43442
       5 -> 14         0.13048

 Excited State  18:      Singlet-A2    16.3512 eV   75.83 nm  f=0.0000  <S**2>=0.000
       4 -> 12         0.70281

 Excited State  19:      Singlet-A2    16.9277 eV   73.24 nm  f=0.0000  <S**2>=0.000
       3 ->  8         0.69840

 Excited State  20:      Singlet-B1    17.0449 eV   72.74 nm  f=0.0635  <S**2>=0.000
       4 -> 14         0.21147
       5 -> 15         0.67064

 Excited State  21:      Singlet-B2    17.0878 eV   72.56 nm  f=0.0415  <S**2>=0.000
       3 ->  9         0.69738
       3 -> 13         0.10869

 Excited State  22:      Singlet-A1    17.2630 eV   71.82 nm  f=0.0395  <S**2>=0.000
       3 ->  7        -0.38133
       3 -> 10         0.30565
       4 -> 13         0.46907
       5 -> 14        -0.16136

 Excited State  23:      Singlet-A2    17.3943 eV   71.28 nm  f=0.0000  <S**2>=0.000
       5 -> 16         0.62896
       5 -> 17        -0.30731

 Excited State  24:      Singlet-B1    17.4272 eV   71.14 nm  f=0.1825  <S**2>=0.000
       4 -> 14         0.66758
       5 -> 15        -0.21383

 Excited State  25:      Singlet-A2    18.3533 eV   67.55 nm  f=0.0000  <S**2>=0.000
       5 -> 16         0.31405
       5 -> 17         0.63019

 Excited State  26:      Singlet-A1    18.8105 eV   65.91 nm  f=0.3250  <S**2>=0.000
       3 -> 10         0.60261
       4 -> 13        -0.25249
       4 -> 15         0.16000
       5 -> 14         0.14071

 Excited State  27:      Singlet-B2    19.0670 eV   65.03 nm  f=0.2253  <S**2>=0.000
       3 -> 11         0.67988
       4 -> 17        -0.15256

 Excited State  28:      Singlet-A1    19.1957 eV   64.59 nm  f=0.0337  <S**2>=0.000
       3 -> 10        -0.14283
       4 -> 15         0.68505

 Excited State  29:      Singlet-B2    19.6251 eV   63.18 nm  f=0.0031  <S**2>=0.000
       4 -> 16         0.67180
       4 -> 17        -0.16071

 Excited State  30:      Singlet-B1    20.0636 eV   61.80 nm  f=0.1032  <S**2>=0.000
       3 -> 12         0.70036

 Excited State  31:      Singlet-B2    20.1227 eV   61.61 nm  f=0.0021  <S**2>=0.000
       3 ->  9        -0.10532
       3 -> 13         0.68856

 Excited State  32:      Singlet-B2    20.6475 eV   60.05 nm  f=0.0227  <S**2>=0.000
       3 -> 11         0.12724
       4 -> 16         0.18165
       4 -> 17         0.66069

 Excited State  33:      Singlet-A2    20.9507 eV   59.18 nm  f=0.0000  <S**2>=0.000
       3 -> 14         0.69705

 Excited State  34:      Singlet-A2    21.4666 eV   57.76 nm  f=0.0000  <S**2>=0.000
       5 -> 18         0.70116

 Excited State  35:      Singlet-B1    22.2490 eV   55.73 nm  f=0.1964  <S**2>=0.000
       4 -> 20        -0.12674
       5 -> 19         0.68523

 Excited State  36:      Singlet-B2    22.9600 eV   54.00 nm  f=0.0336  <S**2>=0.000
       3 -> 15         0.70162

 Excited State  37:      Singlet-A1    23.0031 eV   53.90 nm  f=0.0750  <S**2>=0.000
       3 -> 16        -0.13277
       4 -> 19         0.19483
       5 -> 20         0.65100

 Excited State  38:      Singlet-B2    23.5282 eV   52.70 nm  f=0.0055  <S**2>=0.000
       4 -> 18         0.56707
       5 -> 22        -0.41422

 Excited State  39:      Singlet-B1    23.6327 eV   52.46 nm  f=0.0000  <S**2>=0.000
       4 -> 20        -0.10763
       5 -> 21         0.69674

 Excited State  40:      Singlet-A1    23.6603 eV   52.40 nm  f=0.0054  <S**2>=0.000
       3 -> 16         0.58498
       3 -> 17         0.16367
       4 -> 19         0.34499

 Excited State  41:      Singlet-A1    23.9897 eV   51.68 nm  f=0.0406  <S**2>=0.000
       3 -> 16        -0.28342
       3 -> 17        -0.12420
       4 -> 19         0.58023
       5 -> 20        -0.21938

 Excited State  42:      Singlet-B2    24.3618 eV   50.89 nm  f=0.3341  <S**2>=0.000
       3 -> 19        -0.10650
       4 -> 18         0.39483
       5 -> 22         0.55064

 Excited State  43:      Singlet-A1    24.8203 eV   49.95 nm  f=0.0479  <S**2>=0.000
       2 ->  6        -0.15760
       3 -> 16        -0.17548
       3 -> 17         0.64491

 Excited State  44:      Singlet-B1    25.0874 eV   49.42 nm  f=0.2593  <S**2>=0.000
       4 -> 20         0.68256
       5 -> 19         0.12034
       5 -> 21         0.10540

 Excited State  45:      Singlet-A2    25.7732 eV   48.11 nm  f=0.0000  <S**2>=0.000
       4 -> 22         0.70433

 Excited State  46:      Singlet-A1    25.9205 eV   47.83 nm  f=0.2840  <S**2>=0.000
       2 ->  6        -0.13009
       3 -> 17        -0.10631
       3 -> 18        -0.18829
       4 -> 21         0.64949

 Excited State  47:      Singlet-A1    27.4145 eV   45.23 nm  f=0.0477  <S**2>=0.000
       2 ->  6         0.62697
       3 -> 17         0.10988
       3 -> 18        -0.25511

 Excited State  48:      Singlet-B2    27.9725 eV   44.32 nm  f=0.1245  <S**2>=0.000
       3 -> 19         0.68263
       3 -> 21         0.13226

 Excited State  49:      Singlet-A1    28.2177 eV   43.94 nm  f=0.2716  <S**2>=0.000
       2 ->  6         0.22250
       3 -> 18         0.62078
       4 -> 21         0.20288
       5 -> 20        -0.10211

 Excited State  50:      Singlet-A2    28.7928 eV   43.06 nm  f=0.0000  <S**2>=0.000
       3 -> 20         0.70472

 Excited State  51:      Singlet-B2    28.8754 eV   42.94 nm  f=0.0188  <S**2>=0.000
       2 ->  7         0.67733
       2 -> 10         0.11551
       3 -> 21         0.14711

 Excited State  52:      Singlet-B1    29.8662 eV   41.51 nm  f=0.1683  <S**2>=0.000
       2 ->  8         0.42584
       3 -> 22         0.55893

 Excited State  53:      Singlet-A1    30.3107 eV   40.90 nm  f=0.0046  <S**2>=0.000
       2 ->  9         0.69243

 Excited State  54:      Singlet-B2    30.3554 eV   40.84 nm  f=0.2664  <S**2>=0.000
       2 ->  7        -0.13771
       3 -> 19        -0.12327
       3 -> 21         0.66848

 Excited State  55:      Singlet-B1    30.4642 eV   40.70 nm  f=0.0835  <S**2>=0.000
       2 ->  8         0.55045
       3 -> 22        -0.42304

 Excited State  56:      Singlet-B2    31.2788 eV   39.64 nm  f=0.0083  <S**2>=0.000
       2 ->  7        -0.11325
       2 -> 10         0.69382

 Excited State  57:      Singlet-B1    31.6731 eV   39.14 nm  f=0.0007  <S**2>=0.000
       5 -> 23         0.69761

 Excited State  58:      Singlet-A1    32.1574 eV   38.56 nm  f=0.0014  <S**2>=0.000
       2 -> 11         0.70010

 Excited State  59:      Singlet-A2    33.1959 eV   37.35 nm  f=0.0000  <S**2>=0.000
       2 -> 12         0.70169

 Excited State  60:      Singlet-A1    33.4082 eV   37.11 nm  f=0.0047  <S**2>=0.000
       2 -> 13         0.65363
       4 -> 23        -0.24906

 Excited State  61:      Singlet-B1    34.2017 eV   36.25 nm  f=0.0097  <S**2>=0.000
       2 -> 14         0.69961

 Excited State  62:      Singlet-A1    34.2522 eV   36.20 nm  f=0.0279  <S**2>=0.000
       2 -> 13         0.23329
       2 -> 15        -0.12452
       4 -> 23         0.63869
       5 -> 25         0.10771

 Excited State  63:      Singlet-A2    34.5391 eV   35.90 nm  f=0.0000  <S**2>=0.000
       5 -> 24         0.70211

 Excited State  64:      Singlet-A1    36.4469 eV   34.02 nm  f=0.0066  <S**2>=0.000
       2 -> 15         0.67443
       5 -> 25         0.16728

 Excited State  65:      Singlet-B2    36.5404 eV   33.93 nm  f=0.0048  <S**2>=0.000
       2 -> 16         0.57494
       2 -> 17        -0.10586
       3 -> 23         0.16720
       4 -> 24        -0.35595

 Excited State  66:      Singlet-B2    36.9548 eV   33.55 nm  f=0.0019  <S**2>=0.000
       2 -> 16         0.34831
       2 -> 17        -0.13619
       4 -> 24         0.59447

 Excited State  67:      Singlet-B2    37.4232 eV   33.13 nm  f=0.0001  <S**2>=0.000
       2 -> 16         0.19531
       2 -> 17         0.65011
       3 -> 23        -0.18620

 Excited State  68:      Singlet-B2    38.1314 eV   32.51 nm  f=0.0733  <S**2>=0.000
       2 -> 17         0.20917
       3 -> 23         0.65482
       4 -> 24         0.12141

 Excited State  69:      Singlet-B1    39.2618 eV   31.58 nm  f=0.0101  <S**2>=0.000
       5 -> 26         0.70384

 Excited State  70:      Singlet-A1    39.7113 eV   31.22 nm  f=0.0078  <S**2>=0.000
       2 -> 19        -0.12519
       3 -> 24         0.32249
       4 -> 26        -0.28671
       5 -> 25         0.53213

 Excited State  71:      Singlet-B1    40.7865 eV   30.40 nm  f=0.0017  <S**2>=0.000
       4 -> 25         0.70412

 Excited State  72:      Singlet-B2    40.8640 eV   30.34 nm  f=0.0000  <S**2>=0.000
       2 -> 18         0.70354

 Excited State  73:      Singlet-A1    40.9621 eV   30.27 nm  f=0.0231  <S**2>=0.000
       2 -> 19         0.42717
       3 -> 24         0.48224
       4 -> 26         0.28333

 Excited State  74:      Singlet-A1    41.0676 eV   30.19 nm  f=0.0108  <S**2>=0.000
       2 -> 19         0.54570
       3 -> 24        -0.28254
       4 -> 26        -0.32162
       5 -> 25         0.11493

 Excited State  75:      Singlet-B1    42.1573 eV   29.41 nm  f=0.0002  <S**2>=0.000
       2 -> 20         0.70443

 Excited State  76:      Singlet-A2    42.9388 eV   28.87 nm  f=0.0000  <S**2>=0.000
       2 -> 22         0.70128

 Excited State  77:      Singlet-A1    43.0854 eV   28.78 nm  f=0.0078  <S**2>=0.000
       2 -> 21         0.70358

 Excited State  78:      Singlet-A2    44.5169 eV   27.85 nm  f=0.0000  <S**2>=0.000
       3 -> 25         0.70192

 Excited State  79:      Singlet-B2    45.3777 eV   27.32 nm  f=0.0714  <S**2>=0.000
       3 -> 26         0.70260

 Excited State  80:      Singlet-A1    47.3672 eV   26.18 nm  f=0.0151  <S**2>=0.000
       2 -> 15        -0.10819
       2 -> 23        -0.22960
       3 -> 24        -0.25209
       3 -> 27         0.17978
       4 -> 26         0.43796
       5 -> 25         0.33950

 Excited State  81:      Singlet-A2    47.6696 eV   26.01 nm  f=0.0000  <S**2>=0.000
       5 -> 27         0.70633

 Excited State  82:      Singlet-B2    49.8877 eV   24.85 nm  f=0.0393  <S**2>=0.000
       4 -> 27         0.68767
       5 -> 29         0.15573

 Excited State  83:      Singlet-B1    50.6276 eV   24.49 nm  f=0.1109  <S**2>=0.000
       5 -> 28         0.70488

 Excited State  84:      Singlet-A1    51.4922 eV   24.08 nm  f=0.0937  <S**2>=0.000
       2 -> 23         0.64563
       3 -> 27         0.22233

 Excited State  85:      Singlet-B2    52.0834 eV   23.80 nm  f=0.1313  <S**2>=0.000
       4 -> 27        -0.14608
       5 -> 29         0.68040

 Excited State  86:      Singlet-A1    52.6325 eV   23.56 nm  f=0.0263  <S**2>=0.000
       3 -> 27         0.13111
       4 -> 28         0.69299

 Excited State  87:      Singlet-A2    53.7816 eV   23.05 nm  f=0.0000  <S**2>=0.000
       4 -> 29         0.70663

 Excited State  88:      Singlet-B2    53.9786 eV   22.97 nm  f=0.0429  <S**2>=0.000
       2 -> 24         0.70578

 Excited State  89:      Singlet-A1    55.6369 eV   22.28 nm  f=0.0072  <S**2>=0.000
       2 -> 23        -0.13498
       2 -> 26         0.13431
       3 -> 27         0.49328
       4 -> 26        -0.11529
       4 -> 28        -0.11206
       5 -> 25        -0.12000
       5 -> 30         0.40171

 Excited State  90:      Singlet-A1    56.3507 eV   22.00 nm  f=0.0567  <S**2>=0.000
       3 -> 27        -0.36636
       4 -> 31        -0.12557
       5 -> 30         0.57025

 Excited State  91:      Singlet-B2    56.7988 eV   21.83 nm  f=0.0147  <S**2>=0.000
       3 -> 28         0.69747

 Excited State  92:      Singlet-B1    57.7610 eV   21.47 nm  f=0.0224  <S**2>=0.000
       3 -> 29         0.59083
       4 -> 30        -0.37473

 Excited State  93:      Singlet-B1    57.8773 eV   21.42 nm  f=0.2581  <S**2>=0.000
       2 -> 25         0.68180
       3 -> 29         0.14956

 Excited State  94:      Singlet-B1    58.2089 eV   21.30 nm  f=0.0660  <S**2>=0.000
       2 -> 25        -0.15931
       3 -> 29         0.26529
       4 -> 30         0.50897
       5 -> 31         0.37658

 Excited State  95:      Singlet-A1    58.7856 eV   21.09 nm  f=0.0931  <S**2>=0.000
       2 -> 26         0.68839

 Excited State  96:      Singlet-B1    59.3167 eV   20.90 nm  f=0.1792  <S**2>=0.000
       3 -> 29        -0.23093
       4 -> 30        -0.29802
       5 -> 31         0.59295

 Excited State  97:      Singlet-A2    59.3601 eV   20.89 nm  f=0.0000  <S**2>=0.000
       5 -> 32         0.70366

 Excited State  98:      Singlet-B2    61.6187 eV   20.12 nm  f=0.0190  <S**2>=0.000
       4 -> 32         0.70381

 Excited State  99:      Singlet-A2    61.6671 eV   20.11 nm  f=0.0000  <S**2>=0.000
       3 -> 30         0.70245

 Excited State 100:      Singlet-A1    61.7659 eV   20.07 nm  f=0.2245  <S**2>=0.000
       4 -> 31         0.68575

 Excited State 101:      Singlet-B2    64.9529 eV   19.09 nm  f=0.1043  <S**2>=0.000
       3 -> 31         0.69539

 Excited State 102:      Singlet-A1    65.4523 eV   18.94 nm  f=0.0000  <S**2>=0.000
       3 -> 32         0.69676

 Excited State 103:      Singlet-A2    66.8683 eV   18.54 nm  f=0.0000  <S**2>=0.000
       5 -> 33         0.70567

 Excited State 104:      Singlet-B2    67.1356 eV   18.47 nm  f=0.0471  <S**2>=0.000
       2 -> 27         0.69797

 Excited State 105:      Singlet-B2    69.7023 eV   17.79 nm  f=0.0098  <S**2>=0.000
       4 -> 33         0.69965

 Excited State 106:      Singlet-A2    70.7485 eV   17.52 nm  f=0.0000  <S**2>=0.000
       2 -> 29         0.70646

 Excited State 107:      Singlet-A1    71.1383 eV   17.43 nm  f=0.0028  <S**2>=0.000
       2 -> 28         0.65942
       3 -> 33        -0.17533
       4 -> 34        -0.13274

 Excited State 108:      Singlet-B1    71.7380 eV   17.28 nm  f=0.1498  <S**2>=0.000
       5 -> 34         0.69781

 Excited State 109:      Singlet-A1    72.5082 eV   17.10 nm  f=0.0045  <S**2>=0.000
       3 -> 33        -0.26389
       4 -> 34         0.65282

 Excited State 110:      Singlet-A1    74.5315 eV   16.64 nm  f=0.0332  <S**2>=0.000
       2 -> 28         0.20160
       3 -> 33         0.62272
       4 -> 34         0.23131

 Excited State 111:      Singlet-B1    74.8318 eV   16.57 nm  f=0.0251  <S**2>=0.000
       2 -> 30         0.70524

 Excited State 112:      Singlet-B2    76.5914 eV   16.19 nm  f=0.0145  <S**2>=0.000
       3 -> 34         0.69653

 Excited State 113:      Singlet-B2    78.1599 eV   15.86 nm  f=0.0000  <S**2>=0.000
       2 -> 32         0.70122

 Excited State 114:      Singlet-A1    78.2943 eV   15.84 nm  f=0.0026  <S**2>=0.000
       2 -> 31         0.70545

 Excited State 115:      Singlet-B2    86.4393 eV   14.34 nm  f=0.0173  <S**2>=0.000
       2 -> 33         0.70441

 Excited State 116:      Singlet-A1    88.7386 eV   13.97 nm  f=0.1613  <S**2>=0.000
       4 -> 37        -0.20150
       5 -> 35         0.67335

 Excited State 117:      Singlet-A1    90.2356 eV   13.74 nm  f=0.0161  <S**2>=0.000
       2 -> 34         0.70500

 Excited State 118:      Singlet-B1    90.3573 eV   13.72 nm  f=0.0833  <S**2>=0.000
       3 -> 36        -0.19300
       4 -> 35         0.65911
       5 -> 37         0.15095

 Excited State 119:      Singlet-B2    90.3666 eV   13.72 nm  f=0.2051  <S**2>=0.000
       3 -> 37         0.12491
       5 -> 36         0.68784

 Excited State 120:      Singlet-A2    90.4848 eV   13.70 nm  f=0.0000  <S**2>=0.000
       4 -> 36         0.70628

 Excited State 121:      Singlet-B1    92.5691 eV   13.39 nm  f=0.0088  <S**2>=0.000
       3 -> 36         0.16951
       4 -> 35        -0.10266
       5 -> 37         0.67809

 Excited State 122:      Singlet-A2    92.8146 eV   13.36 nm  f=0.0000  <S**2>=0.000
       3 -> 35         0.70647

 Excited State 123:      Singlet-B1    96.1779 eV   12.89 nm  f=0.1802  <S**2>=0.000
       3 -> 36         0.64008
       4 -> 35         0.19499
       5 -> 37        -0.12263
       5 -> 38         0.18100

 Excited State 124:      Singlet-A1    97.3883 eV   12.73 nm  f=0.2765  <S**2>=0.000
       4 -> 37         0.67381
       5 -> 35         0.19286

 Excited State 125:      Singlet-B2    99.3938 eV   12.47 nm  f=0.0844  <S**2>=0.000
       3 -> 37         0.69171
       5 -> 36        -0.11308

 Excited State 126:      Singlet-B1   105.9695 eV   11.70 nm  f=0.2534  <S**2>=0.000
       2 -> 35        -0.24007
       3 -> 36        -0.13222
       4 -> 35        -0.10269
       5 -> 38         0.64115

 Excited State 127:      Singlet-A1   106.2907 eV   11.66 nm  f=0.0182  <S**2>=0.000
       4 -> 38         0.70492

 Excited State 128:      Singlet-B1   107.1174 eV   11.57 nm  f=0.0722  <S**2>=0.000
       2 -> 35         0.66468
       5 -> 38         0.22654

 Excited State 129:      Singlet-A2   108.1784 eV   11.46 nm  f=0.0000  <S**2>=0.000
       2 -> 36         0.70649

 Excited State 130:      Singlet-B2   110.4282 eV   11.23 nm  f=0.0562  <S**2>=0.000
       3 -> 38         0.69855

 Excited State 131:      Singlet-A1   112.3675 eV   11.03 nm  f=0.0068  <S**2>=0.000
       2 -> 37         0.70591

 Excited State 132:      Singlet-A2   115.2102 eV   10.76 nm  f=0.0000  <S**2>=0.000
       5 -> 39         0.70671

 Excited State 133:      Singlet-B2   118.7037 eV   10.44 nm  f=0.1541  <S**2>=0.000
       4 -> 39         0.69867

 Excited State 134:      Singlet-A1   122.3505 eV   10.13 nm  f=0.0905  <S**2>=0.000
       3 -> 39         0.70231

 Excited State 135:      Singlet-A1   123.3870 eV   10.05 nm  f=0.0120  <S**2>=0.000
       2 -> 38         0.70539

 Excited State 136:      Singlet-B2   134.8137 eV    9.20 nm  f=0.0021  <S**2>=0.000
       2 -> 39         0.70700

 The electronic state is 1-A1.
 Alpha  occ. eigenvalues --  -19.27424  -1.10733  -0.62513  -0.48613  -0.41002
 Alpha virt. eigenvalues --    0.07600   0.13556   0.18436   0.18564   0.23517
 Alpha virt. eigenvalues --    0.26850   0.31048   0.32039   0.35147   0.42204
 Alpha virt. eigenvalues --    0.43746   0.46276   0.59839   0.61188   0.65403

 Mulliken charges:
               1
     1  O   -0.302743
     2  H    0.151371
     3  H    0.151371
 Sum of Mulliken charges =   0.00000

 Dipole moment (field-independent basis, Debye):
    X=             -0.0000    Y=             -0.0000    Z=             -1.9361  Tot=              1.9361
 Quadrupole moment (field-independent basis, Debye-Ang):
   XX=             -7.7422   YY=             -4.4816   ZZ=             -6.3726
   XY=              0.0000   XZ=              0.0000   YZ=              0.0000

 Normal termination of Gaussian 16 at Sat Feb 12 22:25:06 2022.
