 Gaussian 16, Revision C.01,
 Gaussian 16:  EM64L-G16RevC.01  3-Jul-2019

 ----------------------------------------------------------------------
 #P TD(Nstates=10000) wB97XD/Gen SCF(maxcycles=100) Int(Grid=ultrafine)
 ----------------------------------------------------------------------

 ---------------------
 xGDB7_00001_tier4.com
 ---------------------
 Symbolic Z-matrix:
 Charge =  0 Multiplicity = 1

                         Standard orientation:
 ---------------------------------------------------------------------
 Center     Atomic      Atomic             Coordinates (Angstroms)
 Number     Number       Type             X           Y           Z
 ---------------------------------------------------------------------
      1          6           0        0.000000    0.000000    0.761748
      2          6           0        0.000000    0.000000   -0.761748
      3          1           0       -1.024459    0.000000    1.164419
      4          1           0        0.512230    0.887208    1.164419
      5          1           0        0.512229   -0.887208    1.164419
      6          1           0       -0.512229    0.887208   -1.164419
      7          1           0       -0.512230   -0.887208   -1.164419
      8          1           0        1.024459   -0.000000   -1.164419
 ---------------------------------------------------------------------

 SCF Done:  E(RwB97XD) =  -79.7492926060     A.U. after   12 cycles

 Excitation energies and oscillator strengths:

 Excited State   1:      Singlet-EG     9.4463 eV  131.25 nm  f=0.0000  <S**2>=0.000
       9 -> 10         0.69593
 This state for optimization and/or second-order correction.
 Total Energy, E(TD-HF/TD-DFT) =  -79.4021478051
 Copying the excited state density for this state as the 1-particle RhoCI density.

 Excited State   2:      Singlet-EG     9.4463 eV  131.25 nm  f=0.0000  <S**2>=0.000
       8 -> 10         0.69593

 Excited State   3:      Singlet-AG    10.3848 eV  119.39 nm  f=0.0000  <S**2>=0.000
       7 -> 10         0.69838

 Excited State   4:      Singlet-EU    10.4234 eV  118.95 nm  f=0.1522  <S**2>=0.000
       6 -> 10         0.13534
       8 -> 11         0.68281

 Excited State   5:      Singlet-EU    10.4234 eV  118.95 nm  f=0.1522  <S**2>=0.000
       5 -> 10         0.13534
       9 -> 11         0.68281

 Excited State   6:      Singlet-AU    11.2665 eV  110.05 nm  f=0.3179  <S**2>=0.000
       7 -> 11         0.69916

 Excited State   7:      Singlet-AU    11.4489 eV  108.29 nm  f=0.0846  <S**2>=0.000
       8 -> 12        -0.22208
       8 -> 13        -0.43632
       9 -> 12         0.43637
       9 -> 13        -0.22210

 Excited State   8:      Singlet-AU    11.4489 eV  108.29 nm  f=0.0846  <S**2>=0.000
       8 -> 12         0.43634
       8 -> 13        -0.22209
       9 -> 12         0.22209
       9 -> 13         0.43634

 Excited State   9:      Singlet-AU    11.5036 eV  107.78 nm  f=0.0000  <S**2>=0.000
       8 -> 12         0.17919
       8 -> 13         0.45964
       9 -> 12         0.45959
       9 -> 13        -0.17916

 Excited State  10:      Singlet-AG    11.7593 eV  105.43 nm  f=0.0000  <S**2>=0.000
       8 -> 15         0.48942
       9 -> 14         0.48943

 Excited State  11:      Singlet-AU    11.7697 eV  105.34 nm  f=0.2860  <S**2>=0.000
       8 -> 12        -0.45985
       8 -> 13         0.17926
       9 -> 12         0.17927
       9 -> 13         0.45985

 Excited State  12:      Singlet-AG    12.0173 eV  103.17 nm  f=0.0000  <S**2>=0.000
       8 -> 14        -0.48176
       9 -> 15         0.48195

 Excited State  13:      Singlet-AG    12.0232 eV  103.12 nm  f=0.0000  <S**2>=0.000
       8 -> 15         0.49002
       9 -> 14        -0.49001

 Excited State  14:      Singlet-AG    12.0232 eV  103.12 nm  f=0.0000  <S**2>=0.000
       8 -> 14         0.49011
       9 -> 15         0.48993

 Excited State  15:      Singlet-EU    12.1782 eV  101.81 nm  f=0.0589  <S**2>=0.000
       5 -> 10         0.59089
       6 -> 10        -0.25499
       7 -> 13         0.18369
       9 -> 11        -0.11073

 Excited State  16:      Singlet-EU    12.1782 eV  101.81 nm  f=0.0589  <S**2>=0.000
       5 -> 10         0.25499
       6 -> 10         0.59088
       7 -> 12        -0.18371
       8 -> 11        -0.11073

 Excited State  17:      Singlet-EU    12.2863 eV  100.91 nm  f=0.0979  <S**2>=0.000
       5 -> 10        -0.17924
       7 -> 12         0.27173
       7 -> 13         0.60643

 Excited State  18:      Singlet-EU    12.2863 eV  100.91 nm  f=0.0979  <S**2>=0.000
       6 -> 10         0.17926
       7 -> 12         0.60643
       7 -> 13        -0.27173

 Excited State  19:      Singlet-EG    12.5376 eV   98.89 nm  f=0.0000  <S**2>=0.000
       5 -> 11         0.11479
       6 -> 11         0.26602
       7 -> 14         0.46065
       8 -> 16         0.41602

 Excited State  20:      Singlet-EG    12.5376 eV   98.89 nm  f=0.0000  <S**2>=0.000
       5 -> 11        -0.26601
       6 -> 11         0.11479
       7 -> 15         0.46066
       9 -> 16        -0.41601

 Excited State  21:      Singlet-EG    12.5877 eV   98.50 nm  f=0.0000  <S**2>=0.000
       5 -> 11         0.24601
       6 -> 11        -0.10616
       7 -> 15         0.51122
       9 -> 16         0.38722

 Excited State  22:      Singlet-EG    12.5877 eV   98.50 nm  f=0.0000  <S**2>=0.000
       5 -> 11        -0.10616
       6 -> 11        -0.24600
       7 -> 14         0.51123
       8 -> 16        -0.38721

 Excited State  23:      Singlet-AG    13.1739 eV   94.11 nm  f=0.0000  <S**2>=0.000
       5 -> 12         0.15227
       5 -> 13        -0.16604
       6 -> 12        -0.16604
       6 -> 13        -0.15226
       7 -> 15         0.12108
       8 -> 18         0.42550
       9 -> 16        -0.10065
       9 -> 17         0.42552

 Excited State  24:      Singlet-AG    13.1739 eV   94.11 nm  f=0.0000  <S**2>=0.000
       5 -> 12         0.16604
       5 -> 13         0.15226
       6 -> 12         0.15226
       6 -> 13        -0.16604
       7 -> 14         0.12109
       8 -> 16         0.10065
       8 -> 17         0.42552
       9 -> 18        -0.42551

 Excited State  25:      Singlet-AG    13.2250 eV   93.75 nm  f=0.0000  <S**2>=0.000
       5 -> 12        -0.22581
       6 -> 13        -0.22582
       8 -> 18         0.43529
       9 -> 17        -0.43527

 Excited State  26:      Singlet-AU    13.4427 eV   92.23 nm  f=0.0000  <S**2>=0.000
       5 -> 14        -0.20711
       6 -> 15        -0.20710
       8 -> 19         0.16000
       8 -> 20         0.40999
       9 -> 19         0.41001
       9 -> 20        -0.16001

 Excited State  27:      Singlet-EG    13.5508 eV   91.50 nm  f=0.0000  <S**2>=0.000
       5 -> 11         0.22601
       6 -> 11         0.52374
       8 -> 16        -0.38751

 Excited State  28:      Singlet-EG    13.5508 eV   91.50 nm  f=0.0000  <S**2>=0.000
       5 -> 11         0.52374
       6 -> 11        -0.22601
       9 -> 16        -0.38751

 Excited State  29:      Singlet-AG    13.6167 eV   91.05 nm  f=0.0000  <S**2>=0.000
       5 -> 13         0.12610
       6 -> 12        -0.12610
       7 -> 16         0.56517
       8 -> 17        -0.26262
       9 -> 18        -0.26263

 Excited State  30:      Singlet-EU    13.6716 eV   90.69 nm  f=0.0001  <S**2>=0.000
       5 -> 10        -0.10154
       8 -> 19        -0.10723
       8 -> 20        -0.21050
       9 -> 19         0.21045
       9 -> 20        -0.10721
       9 -> 21         0.58434

 Excited State  31:      Singlet-EU    13.6717 eV   90.69 nm  f=0.0001  <S**2>=0.000
       6 -> 10        -0.10153
       8 -> 19        -0.21050
       8 -> 20         0.10723
       8 -> 21         0.58433
       9 -> 19        -0.10723
       9 -> 20        -0.21049

 Excited State  32:      Singlet-AU    13.9995 eV   88.56 nm  f=0.1510  <S**2>=0.000
       5 -> 15        -0.19883
       6 -> 14         0.19883
       7 -> 21         0.14143
       8 -> 19        -0.40512
       8 -> 20         0.15810
       9 -> 19         0.15811
       9 -> 20         0.40514

 Excited State  33:      Singlet-AG    14.0265 eV   88.39 nm  f=0.0000  <S**2>=0.000
       5 -> 13         0.19427
       6 -> 12        -0.19427
       7 -> 16         0.28539
       8 -> 17         0.39178
       9 -> 18         0.39178

 Excited State  34:      Singlet-AU    14.0390 eV   88.31 nm  f=0.1865  <S**2>=0.000
       7 -> 19         0.14256
       7 -> 20         0.31785
       8 -> 19        -0.16593
       8 -> 20        -0.32572
       9 -> 19         0.32573
       9 -> 20        -0.16594
       9 -> 21        -0.28664

 Excited State  35:      Singlet-AU    14.0390 eV   88.31 nm  f=0.1865  <S**2>=0.000
       7 -> 19         0.31785
       7 -> 20        -0.14256
       8 -> 19         0.32572
       8 -> 20        -0.16593
       8 -> 21         0.28668
       9 -> 19         0.16592
       9 -> 20         0.32570

 Excited State  36:      Singlet-EG    14.1853 eV   87.40 nm  f=0.0000  <S**2>=0.000
       7 -> 18         0.69448

 Excited State  37:      Singlet-EG    14.1853 eV   87.40 nm  f=0.0000  <S**2>=0.000
       7 -> 17         0.69448

 Excited State  38:      Singlet-AU    14.3581 eV   86.35 nm  f=0.0067  <S**2>=0.000
       5 -> 14        -0.12836
       5 -> 15         0.34677
       6 -> 14        -0.34679
       6 -> 15        -0.12835
       7 -> 21         0.36375
       8 -> 19        -0.12218
       8 -> 23        -0.13480
       9 -> 20         0.12216
       9 -> 22         0.13479

 Excited State  39:      Singlet-AG    14.3646 eV   86.31 nm  f=0.0000  <S**2>=0.000
       5 -> 12         0.43893
       6 -> 13         0.43889
       8 -> 18         0.21893
       9 -> 17        -0.21896

 Excited State  40:      Singlet-AG    14.3988 eV   86.11 nm  f=0.0000  <S**2>=0.000
       5 -> 12        -0.29434
       5 -> 13         0.32100
       6 -> 12         0.32100
       6 -> 13         0.29439
       8 -> 18         0.23251
       9 -> 17         0.23248

 Excited State  41:      Singlet-AG    14.3988 eV   86.11 nm  f=0.0000  <S**2>=0.000
       5 -> 12         0.32100
       5 -> 13         0.29437
       6 -> 12         0.29437
       6 -> 13        -0.32100
       8 -> 17        -0.23249
       9 -> 18         0.23249

 Excited State  42:      Singlet-EU    14.4672 eV   85.70 nm  f=0.0423  <S**2>=0.000
       5 -> 14        -0.12986
       5 -> 15        -0.26193
       6 -> 14        -0.26192
       6 -> 15         0.12987
       7 -> 19         0.42164
       7 -> 20        -0.18911
       8 -> 19        -0.13707
       8 -> 23        -0.13122
       9 -> 20        -0.13707
       9 -> 22        -0.13123

 Excited State  43:      Singlet-EU    14.4672 eV   85.70 nm  f=0.0423  <S**2>=0.000
       5 -> 14        -0.26192
       5 -> 15         0.12986
       6 -> 14         0.12986
       6 -> 15         0.26192
       7 -> 19         0.18912
       7 -> 20         0.42165
       8 -> 20         0.13707
       8 -> 22         0.13122
       9 -> 19        -0.13707
       9 -> 23        -0.13122

 Excited State  44:      Singlet-AU    14.5798 eV   85.04 nm  f=0.0000  <S**2>=0.000
       5 -> 14         0.39976
       5 -> 15         0.14796
       6 -> 14        -0.14796
       6 -> 15         0.39976
       8 -> 20         0.21085
       8 -> 22         0.10966
       9 -> 19         0.21085
       9 -> 23         0.10965

 Excited State  45:      Singlet-AU    14.9655 eV   82.85 nm  f=0.3683  <S**2>=0.000
       5 -> 14        -0.34605
       5 -> 15         0.17157
       6 -> 14         0.17157
       6 -> 15         0.34605
       7 -> 19        -0.13533
       7 -> 20        -0.30173
       9 -> 21        -0.16604

 Excited State  46:      Singlet-AU    14.9655 eV   82.85 nm  f=0.3683  <S**2>=0.000
       5 -> 14         0.17157
       5 -> 15         0.34605
       6 -> 14         0.34605
       6 -> 15        -0.17157
       7 -> 19         0.30173
       7 -> 20        -0.13533
       8 -> 21        -0.16603

 Excited State  47:      Singlet-AG    15.1138 eV   82.03 nm  f=0.0000  <S**2>=0.000
       5 -> 13        -0.42448
       6 -> 12         0.42448
       7 -> 16         0.27878

 Excited State  48:      Singlet-AU    15.2434 eV   81.34 nm  f=0.3899  <S**2>=0.000
       5 -> 15        -0.19243
       5 -> 18        -0.10499
       6 -> 14         0.19243
       6 -> 17        -0.10499
       7 -> 21         0.53289
       8 -> 19         0.17345
       9 -> 20        -0.17345

 Excited State  49:      Singlet-AU    15.3289 eV   80.88 nm  f=0.0000  <S**2>=0.000
       5 -> 14        -0.11583
       5 -> 17        -0.16408
       6 -> 15        -0.11583
       6 -> 18         0.16409
       8 -> 22         0.44327
       9 -> 23         0.44325

 Excited State  50:      Singlet-AU    15.4564 eV   80.22 nm  f=0.2603  <S**2>=0.000
       5 -> 17        -0.12445
       6 -> 18        -0.12445
       7 -> 20         0.16254
       8 -> 20         0.10745
       8 -> 22        -0.43517
       9 -> 19        -0.10746
       9 -> 23         0.43518

 Excited State  51:      Singlet-AU    15.4564 eV   80.22 nm  f=0.2603  <S**2>=0.000
       5 -> 18         0.12445
       6 -> 17        -0.12445
       7 -> 19         0.16254
       8 -> 19        -0.10745
       8 -> 23         0.43517
       9 -> 20        -0.10746
       9 -> 22         0.43519

 Excited State  52:      Singlet-AU    15.5496 eV   79.73 nm  f=0.5748  <S**2>=0.000
       5 -> 15         0.11301
       5 -> 18        -0.15767
       6 -> 14        -0.11301
       6 -> 17        -0.15768
       7 -> 21         0.14211
       8 -> 23         0.43182
       9 -> 22        -0.43180

 Excited State  53:      Singlet-EU    15.6615 eV   79.16 nm  f=0.0697  <S**2>=0.000
       5 -> 16         0.59667
       6 -> 16        -0.25748
       7 -> 22         0.17368

 Excited State  54:      Singlet-EU    15.6615 eV   79.16 nm  f=0.0697  <S**2>=0.000
       5 -> 16         0.25748
       6 -> 16         0.59667
       7 -> 23        -0.17368

 Excited State  55:      Singlet-EU    16.2998 eV   76.07 nm  f=0.0884  <S**2>=0.000
       5 -> 16        -0.10037
       5 -> 17         0.25146
       6 -> 18         0.25146
       7 -> 22         0.55624

 Excited State  56:      Singlet-EU    16.2998 eV   76.07 nm  f=0.0885  <S**2>=0.000
       5 -> 18        -0.25145
       6 -> 16         0.10038
       6 -> 17         0.25144
       7 -> 23         0.55627

 Excited State  57:      Singlet-EG    16.3174 eV   75.98 nm  f=0.0000  <S**2>=0.000
       5 -> 19         0.16031
       5 -> 20        -0.17459
       5 -> 21         0.54621
       6 -> 19        -0.17458
       6 -> 20        -0.15965
       6 -> 21        -0.23571

 Excited State  58:      Singlet-EG    16.3175 eV   75.98 nm  f=0.0000  <S**2>=0.000
       5 -> 19        -0.17461
       5 -> 20        -0.15999
       5 -> 21         0.23570
       6 -> 19        -0.16002
       6 -> 20         0.17461
       6 -> 21         0.54620

 Excited State  59:      Singlet-AG    16.3310 eV   75.92 nm  f=0.0000  <S**2>=0.000
       5 -> 19         0.48670
       6 -> 20         0.48692

 Excited State  60:      Singlet-EU    16.3539 eV   75.81 nm  f=0.1018  <S**2>=0.000
       5 -> 16        -0.11923
       5 -> 17        -0.33721
       5 -> 18        -0.11827
       6 -> 17         0.11825
       6 -> 18        -0.33724
       7 -> 22         0.35778
       8 -> 22         0.12336
       9 -> 23        -0.12335
       9 -> 24         0.18363

 Excited State  61:      Singlet-EU    16.3539 eV   75.81 nm  f=0.1018  <S**2>=0.000
       5 -> 17        -0.11827
       5 -> 18         0.33724
       6 -> 16         0.11922
       6 -> 17        -0.33725
       6 -> 18        -0.11827
       7 -> 23         0.35774
       8 -> 23        -0.12337
       8 -> 24        -0.18362
       9 -> 22        -0.12336

 Excited State  62:      Singlet-AU    16.3583 eV   75.79 nm  f=0.0000  <S**2>=0.000
       5 -> 17         0.40298
       5 -> 18        -0.20851
       6 -> 17        -0.20851
       6 -> 18        -0.40295
       8 -> 22         0.19535
       9 -> 23         0.19536

 Excited State  63:      Singlet-AU    16.4270 eV   75.48 nm  f=0.0001  <S**2>=0.000
       5 -> 17         0.19509
       5 -> 18         0.37701
       6 -> 17         0.37703
       6 -> 18        -0.19508
       7 -> 21         0.13879
       7 -> 24        -0.19787
       8 -> 23         0.15501
       9 -> 22        -0.15500

 Excited State  64:      Singlet-AG    16.4758 eV   75.25 nm  f=0.0000  <S**2>=0.000
       5 -> 20         0.48646
       6 -> 19        -0.48644

 Excited State  65:      Singlet-EU    16.5240 eV   75.03 nm  f=0.0991  <S**2>=0.000
       5 -> 17         0.10081
       6 -> 18         0.10081
       9 -> 24         0.66366

 Excited State  66:      Singlet-EU    16.5240 eV   75.03 nm  f=0.0991  <S**2>=0.000
       5 -> 18         0.10083
       6 -> 17        -0.10076
       8 -> 24         0.66367

 Excited State  67:      Singlet-AG    16.5780 eV   74.79 nm  f=0.0000  <S**2>=0.000
       5 -> 19        -0.28527
       5 -> 20         0.31129
       5 -> 21         0.30377
       6 -> 19         0.31129
       6 -> 20         0.28525
       6 -> 21        -0.13109

 Excited State  68:      Singlet-AG    16.5780 eV   74.79 nm  f=0.0000  <S**2>=0.000
       5 -> 19         0.31128
       5 -> 20         0.28523
       5 -> 21         0.13110
       6 -> 19         0.28526
       6 -> 20        -0.31128
       6 -> 21         0.30380

 Excited State  69:      Singlet-EG    16.9696 eV   73.06 nm  f=0.0000  <S**2>=0.000
       9 -> 25         0.69065

 Excited State  70:      Singlet-EG    16.9696 eV   73.06 nm  f=0.0000  <S**2>=0.000
       8 -> 25         0.69065

 Excited State  71:      Singlet-AU    17.2228 eV   71.99 nm  f=0.0823  <S**2>=0.000
       4 -> 10         0.58284
       7 -> 24        -0.37186

 Excited State  72:      Singlet-EU    17.5704 eV   70.56 nm  f=0.0066  <S**2>=0.000
       8 -> 26         0.69312

 Excited State  73:      Singlet-EU    17.5704 eV   70.56 nm  f=0.0066  <S**2>=0.000
       9 -> 26         0.69312

 Excited State  74:      Singlet-AU    17.6600 eV   70.21 nm  f=0.2976  <S**2>=0.000
       4 -> 10         0.35667
       7 -> 24         0.54765
       7 -> 35        -0.11456

 Excited State  75:      Singlet-AG    17.7551 eV   69.83 nm  f=0.0000  <S**2>=0.000
       5 -> 22        -0.12650
       6 -> 23         0.12650
       7 -> 25         0.64063
       8 -> 27        -0.10751
       9 -> 28         0.10751

 Excited State  76:      Singlet-AG    17.9961 eV   68.90 nm  f=0.0000  <S**2>=0.000
       5 -> 22        -0.20054
       5 -> 23         0.40518
       6 -> 22        -0.40517
       6 -> 23        -0.20054
       8 -> 28        -0.17188
       9 -> 27         0.17189

 Excited State  77:      Singlet-AG    17.9961 eV   68.90 nm  f=0.0000  <S**2>=0.000
       5 -> 22         0.40518
       5 -> 23         0.20054
       6 -> 22        -0.20054
       6 -> 23         0.40517
       8 -> 27         0.17188
       9 -> 28         0.17189

 Excited State  78:      Singlet-AG    18.0590 eV   68.65 nm  f=0.0000  <S**2>=0.000
       5 -> 22         0.15418
       5 -> 23         0.41566
       6 -> 22         0.41567
       6 -> 23        -0.15418
       8 -> 28         0.19995
       9 -> 27         0.19995

 Excited State  79:      Singlet-AG    18.1251 eV   68.40 nm  f=0.0000  <S**2>=0.000
       4 -> 11         0.40492
       5 -> 22        -0.29418
       5 -> 23         0.10912
       6 -> 22         0.10912
       6 -> 23         0.29418
       8 -> 27         0.24913
       9 -> 28        -0.24912

 Excited State  80:      Singlet-AG    18.1705 eV   68.23 nm  f=0.0000  <S**2>=0.000
       4 -> 11         0.49305
       5 -> 22         0.29249
       5 -> 23        -0.10849
       6 -> 22        -0.10849
       6 -> 23        -0.29249
       7 -> 25         0.20059

 Excited State  81:      Singlet-AG    18.3283 eV   67.65 nm  f=0.0000  <S**2>=0.000
       5 -> 23        -0.19528
       6 -> 22        -0.19527
       8 -> 28         0.44232
       9 -> 27         0.44233

 Excited State  82:      Singlet-EU    18.3653 eV   67.51 nm  f=0.0852  <S**2>=0.000
       4 -> 15        -0.10238
       5 -> 25         0.17836
       8 -> 31        -0.12983
       9 -> 29         0.63161
       9 -> 30        -0.12987

 Excited State  83:      Singlet-EU    18.3654 eV   67.51 nm  f=0.0852  <S**2>=0.000
       4 -> 14         0.10239
       6 -> 25         0.17835
       8 -> 29         0.63162
       8 -> 30         0.12982
       9 -> 31        -0.12983

 Excited State  84:      Singlet-AU    18.4354 eV   67.25 nm  f=0.0000  <S**2>=0.000
       7 -> 26         0.68105
       8 -> 31         0.12263
       9 -> 30        -0.12262

 Excited State  85:      Singlet-AU    18.5572 eV   66.81 nm  f=0.0000  <S**2>=0.000
       7 -> 26         0.18355
       8 -> 30        -0.11805
       8 -> 31        -0.45938
       9 -> 30         0.45940
       9 -> 31        -0.11805

 Excited State  86:      Singlet-AG    18.6125 eV   66.61 nm  f=0.0000  <S**2>=0.000
       5 -> 22        -0.14403
       6 -> 23        -0.14404
       7 -> 27         0.13619
       8 -> 27         0.39906
       8 -> 32        -0.24688
       9 -> 28         0.39906

 Excited State  87:      Singlet-AG    18.6125 eV   66.61 nm  f=0.0000  <S**2>=0.000
       5 -> 23         0.14403
       6 -> 22        -0.14404
       7 -> 28        -0.13619
       8 -> 28         0.39906
       9 -> 27        -0.39905
       9 -> 32        -0.24688

 Excited State  88:      Singlet-AU    18.7429 eV   66.15 nm  f=0.1454  <S**2>=0.000
       7 -> 31        -0.13045
       8 -> 31         0.45077
       9 -> 29         0.19315
       9 -> 30         0.45074

 Excited State  89:      Singlet-AU    18.7429 eV   66.15 nm  f=0.1454  <S**2>=0.000
       7 -> 30        -0.13047
       8 -> 29         0.19311
       8 -> 30        -0.45076
       9 -> 31         0.45077

 Excited State  90:      Singlet-EG    18.7912 eV   65.98 nm  f=0.0000  <S**2>=0.000
       4 -> 13        -0.12747
       5 -> 24         0.34356
       6 -> 24        -0.14826
       7 -> 28         0.39605
       9 -> 32        -0.39268

 The electronic state is 1-AG.
 Alpha  occ. eigenvalues --  -10.28830 -10.28818  -0.84411  -0.70158  -0.51995
 Alpha  occ. eigenvalues --   -0.51995  -0.45354  -0.42247  -0.42247
 Alpha virt. eigenvalues --    0.09388   0.12277   0.17449   0.17449   0.19323
 Alpha virt. eigenvalues --    0.19323   0.22930   0.23837   0.23837   0.26481
 Alpha virt. eigenvalues --    0.26481   0.27041   0.31739   0.31739   0.35862

 Mulliken charges:
               1
     1  C   -0.017844
     2  C   -0.017844
     3  H    0.005948
     4  H    0.005948
     5  H    0.005948
     6  H    0.005948
     7  H    0.005948
     8  H    0.005948
 Sum of Mulliken charges =  -0.00000

 Dipole moment (field-independent basis, Debye):
    X=             -0.0000    Y=             -0.0000    Z=              0.0000  Tot=              0.0000
 Quadrupole moment (field-independent basis, Debye-Ang):
   XX=            -14.8719   YY=            -14.8719   ZZ=            -15.5381
   XY=              0.0000   XZ=             -0.0000   YZ=             -0.0000

 Normal termination of Gaussian 16 at Sat Feb 12 22:25:44 2022.
