 Gaussian 16, Revision C.01,
 Gaussian 16:  EM64L-G16RevC.01  3-Jul-2019

 ----------------------------------------------------------------------
 #P TD(Nstates=10000) wB97XD/Gen SCF(maxcycles=100) Int(Grid=ultrafine)
 ----------------------------------------------------------------------

 ---------------------
 xGDB7_00001_tier4.com
 ---------------------
 Symbolic Z-matrix:
 Charge =  0 Multiplicity = 1

                         Standard orientation:
 ---------------------------------------------------------------------
 Center     Atomic      Atomic             Coordinates (Angstroms)
 Number     Number       Type             X           Y           Z
 ---------------------------------------------------------------------
      1          6           0        0.000000    1.163245   -0.188096
      2          8           0       -0.000000   -0.000000    0.577210
      3          6           0       -0.000000   -1.163245   -0.188096
      4          1           0        0.000000    2.022023    0.496924
      5          1           0       -0.895343    1.233464   -0.838594
      6          1           0        0.895343    1.233464   -0.838594
      7          1           0       -0.000000   -2.022023    0.496924
      8          1           0        0.895343   -1.233464   -0.838594
      9          1           0       -0.895343   -1.233464   -0.838594
 ---------------------------------------------------------------------

 SCF Done:  E(RwB97XD) =  -154.872230773     A.U. after   12 cycles

 Excitation energies and oscillator strengths:

 Excited State   1:      Singlet-B1     7.3587 eV  168.49 nm  f=0.0337  <S**2>=0.000
      13 -> 14         0.67266
      13 -> 16        -0.13398
      13 -> 18        -0.15269
 This state for optimization and/or second-order correction.
 Total Energy, E(TD-HF/TD-DFT) =  -154.601804372
 Copying the excited state density for this state as the 1-particle RhoCI density.

 Excited State   2:      Singlet-A2     8.4485 eV  146.75 nm  f=0.0000  <S**2>=0.000
      13 -> 15         0.69469

 Excited State   3:      Singlet-B1     8.5021 eV  145.83 nm  f=0.0377  <S**2>=0.000
      13 -> 14         0.18114
      13 -> 16         0.62279
      13 -> 18         0.25375

 Excited State   4:      Singlet-A1     9.0404 eV  137.14 nm  f=0.0298  <S**2>=0.000
      12 -> 14        -0.26352
      13 -> 17         0.64180

 Excited State   5:      Singlet-B1     9.0676 eV  136.73 nm  f=0.0299  <S**2>=0.000
      13 -> 16        -0.28526
      13 -> 18         0.63002

 Excited State   6:      Singlet-A1     9.0875 eV  136.43 nm  f=0.0551  <S**2>=0.000
      12 -> 14         0.60623
      12 -> 16        -0.17235
      13 -> 17         0.28219

 Excited State   7:      Singlet-A2     9.8283 eV  126.15 nm  f=0.0000  <S**2>=0.000
      13 -> 19         0.68816

 Excited State   8:      Singlet-B2     9.9610 eV  124.47 nm  f=0.0022  <S**2>=0.000
      11 -> 14         0.33212
      12 -> 15         0.61115

 Excited State   9:      Singlet-B1    10.0048 eV  123.93 nm  f=0.0015  <S**2>=0.000
      13 -> 21         0.69071

 Excited State  10:      Singlet-A1    10.0760 eV  123.05 nm  f=0.0464  <S**2>=0.000
      12 -> 14         0.17972
      12 -> 16         0.58107
      12 -> 18         0.18305
      13 -> 20         0.27184

 Excited State  11:      Singlet-A1    10.3209 eV  120.13 nm  f=0.0902  <S**2>=0.000
      12 -> 16        -0.23826
      13 -> 20         0.63944

 Excited State  12:      Singlet-B2    10.6304 eV  116.63 nm  f=0.0859  <S**2>=0.000
      11 -> 14        -0.11004
      12 -> 15         0.11729
      13 -> 22         0.66368
      13 -> 25        -0.11735

 Excited State  13:      Singlet-B1    10.7381 eV  115.46 nm  f=0.0650  <S**2>=0.000
      12 -> 17         0.69924

 Excited State  14:      Singlet-A1    10.7753 eV  115.06 nm  f=0.0028  <S**2>=0.000
      11 -> 15         0.11135
      12 -> 16        -0.22369
      12 -> 18         0.64822

 Excited State  15:      Singlet-B2    10.7812 eV  115.00 nm  f=0.1152  <S**2>=0.000
      11 -> 14         0.56716
      11 -> 16        -0.13201
      11 -> 18        -0.18224
      12 -> 15        -0.29803
      13 -> 22         0.16297

 Excited State  16:      Singlet-A2    10.9040 eV  113.71 nm  f=0.0000  <S**2>=0.000
      10 -> 14         0.63726
      10 -> 18        -0.19999
      13 -> 24        -0.14719

 Excited State  17:      Singlet-B1    11.2510 eV  110.20 nm  f=0.0020  <S**2>=0.000
      13 -> 23         0.68587

 Excited State  18:      Singlet-B2    11.3442 eV  109.29 nm  f=0.0382  <S**2>=0.000
      11 -> 14        -0.13136
      11 -> 16        -0.31397
      12 -> 19         0.59003

 Excited State  19:      Singlet-A2    11.3917 eV  108.84 nm  f=0.0000  <S**2>=0.000
      10 -> 14         0.19742
      10 -> 18         0.11439
      13 -> 24         0.64001
      13 -> 27        -0.11932

 Excited State  20:      Singlet-A1    11.6205 eV  106.69 nm  f=0.0203  <S**2>=0.000
       8 -> 14        -0.16497
      11 -> 15         0.63497
      12 -> 14        -0.11677
      12 -> 18        -0.11110
      12 -> 21         0.15203

 Excited State  21:      Singlet-B2    11.6778 eV  106.17 nm  f=0.0079  <S**2>=0.000
      11 -> 16         0.10281
      12 -> 19         0.12585
      13 -> 22         0.11739
      13 -> 25         0.66429

 Excited State  22:      Singlet-B1    11.7129 eV  105.85 nm  f=0.0172  <S**2>=0.000
      12 -> 20         0.69148

 Excited State  23:      Singlet-A1    11.8647 eV  104.50 nm  f=0.0922  <S**2>=0.000
      11 -> 15        -0.12774
      12 -> 21         0.67530

 Excited State  24:      Singlet-B2    11.8835 eV  104.33 nm  f=0.2502  <S**2>=0.000
      11 -> 14         0.14532
      11 -> 16         0.36438
      11 -> 18         0.43125
      12 -> 15        -0.10832
      12 -> 19         0.30400
      12 -> 24         0.11506
      13 -> 25        -0.15057

 Excited State  25:      Singlet-B1    11.9516 eV  103.74 nm  f=0.1476  <S**2>=0.000
       9 -> 14        -0.19200
      10 -> 15         0.65717

 Excited State  26:      Singlet-A2    12.0180 eV  103.17 nm  f=0.0000  <S**2>=0.000
      10 -> 16        -0.11437
      11 -> 17        -0.45626
      12 -> 22         0.48779

 Excited State  27:      Singlet-A2    12.2249 eV  101.42 nm  f=0.0000  <S**2>=0.000
      10 -> 14         0.10839
      10 -> 16         0.54695
      10 -> 18         0.27335
      11 -> 17        -0.19037
      13 -> 24        -0.16428

 Excited State  28:      Singlet-A2    12.2752 eV  101.00 nm  f=0.0000  <S**2>=0.000
      10 -> 16         0.10231
      10 -> 18         0.12359
      10 -> 21         0.11806
      13 -> 24         0.10941
      13 -> 27         0.62303
      13 -> 28         0.15793

 Excited State  29:      Singlet-B2    12.4179 eV   99.84 nm  f=0.1024  <S**2>=0.000
      10 -> 17         0.16446
      11 -> 16        -0.44665
      11 -> 18         0.45460
      12 -> 19        -0.14375
      12 -> 24         0.13230

 Excited State  30:      Singlet-A1    12.5534 eV   98.77 nm  f=0.0237  <S**2>=0.000
      10 -> 22         0.10685
      11 -> 19        -0.13747
      12 -> 23         0.29134
      13 -> 26         0.59699

 Excited State  31:      Singlet-A2    12.5676 eV   98.65 nm  f=0.0000  <S**2>=0.000
      10 -> 16         0.16814
      11 -> 17         0.46191
      12 -> 22         0.43768
      12 -> 25        -0.19178

 Excited State  32:      Singlet-A2    12.8823 eV   96.24 nm  f=0.0000  <S**2>=0.000
      10 -> 14         0.11178
      10 -> 16        -0.30659
      10 -> 18         0.54415
      11 -> 17         0.10929
      11 -> 20        -0.10952
      12 -> 22         0.11961
      13 -> 24        -0.12235

 Excited State  33:      Singlet-B2    12.8943 eV   96.15 nm  f=0.0057  <S**2>=0.000
      10 -> 17         0.64517
      10 -> 20        -0.11175
      11 -> 16         0.14775
      11 -> 18        -0.10704

 Excited State  34:      Singlet-A2    12.9505 eV   95.74 nm  f=0.0000  <S**2>=0.000
      10 -> 21         0.26230
      11 -> 20         0.37048
      12 -> 22        -0.17552
      12 -> 25        -0.36520
      13 -> 28        -0.29578

 Excited State  35:      Singlet-A1    13.1536 eV   94.26 nm  f=0.0956  <S**2>=0.000
       8 -> 14        -0.11776
       8 -> 16         0.15137
      11 -> 19         0.41913
      11 -> 24        -0.10133
      12 -> 23        -0.38236
      13 -> 26         0.29601

 Excited State  36:      Singlet-B2    13.1792 eV   94.08 nm  f=0.0030  <S**2>=0.000
      11 -> 18        -0.15629
      11 -> 21        -0.25051
      12 -> 24         0.61029
      12 -> 27        -0.11981

 Excited State  37:      Singlet-A2    13.2918 eV   93.28 nm  f=0.0000  <S**2>=0.000
      10 -> 18         0.15939
      10 -> 21        -0.17775
      11 -> 20         0.23599
      12 -> 25        -0.27770
      13 -> 27        -0.19494
      13 -> 28         0.49247

 Excited State  38:      Singlet-A1    13.3340 eV   92.98 nm  f=0.0653  <S**2>=0.000
       8 -> 14        -0.25070
       8 -> 16         0.10618
      11 -> 19         0.39557
      12 -> 23         0.47178
      13 -> 26        -0.12342

 Excited State  39:      Singlet-B1    13.3365 eV   92.97 nm  f=0.0455  <S**2>=0.000
       9 -> 14         0.48357
       9 -> 16        -0.20000
       9 -> 18        -0.12851
      10 -> 19        -0.40684

 Excited State  40:      Singlet-B2    13.3934 eV   92.57 nm  f=0.0044  <S**2>=0.000
       7 -> 14        -0.15903
      10 -> 17        -0.10996
      11 -> 21         0.56918
      12 -> 24         0.27004
      12 -> 27         0.19020

 Excited State  41:      Singlet-B1    13.5485 eV   91.51 nm  f=0.0009  <S**2>=0.000
       8 -> 17         0.17769
      11 -> 22         0.58893
      12 -> 26         0.27947
      13 -> 29         0.12023

 Excited State  42:      Singlet-A1    13.5845 eV   91.27 nm  f=0.0017  <S**2>=0.000
       8 -> 14         0.54922
       8 -> 18        -0.21813
      11 -> 15         0.12660
      11 -> 19         0.28813
      11 -> 24         0.11198
      12 -> 23         0.10024

 Excited State  43:      Singlet-B1    13.6097 eV   91.10 nm  f=0.0546  <S**2>=0.000
       9 -> 14         0.40747
       9 -> 16         0.12419
       9 -> 18        -0.17878
      10 -> 15         0.16141
      10 -> 19         0.48477

 Excited State  44:      Singlet-A2    13.6357 eV   90.93 nm  f=0.0000  <S**2>=0.000
      11 -> 17         0.10347
      11 -> 20         0.48637
      12 -> 25         0.47088

 Excited State  45:      Singlet-B2    13.7394 eV   90.24 nm  f=0.0023  <S**2>=0.000
       7 -> 14         0.61827
      10 -> 20         0.20694
      11 -> 21         0.16551
      12 -> 27         0.10420

 Excited State  46:      Singlet-B1    13.7444 eV   90.21 nm  f=0.0091  <S**2>=0.000
      11 -> 22        -0.11558
      13 -> 29         0.57340
      13 -> 30        -0.29893
      13 -> 32         0.10430

 Excited State  47:      Singlet-A2    13.8373 eV   89.60 nm  f=0.0000  <S**2>=0.000
       9 -> 15        -0.11748
      10 -> 21         0.58422
      11 -> 20        -0.17835
      13 -> 27        -0.16457
      13 -> 28         0.23339

 Excited State  48:      Singlet-B2    13.8953 eV   89.23 nm  f=0.0006  <S**2>=0.000
       7 -> 14        -0.24356
      10 -> 17         0.11151
      10 -> 20         0.55956
      12 -> 27         0.24702
      12 -> 28         0.10869

 Excited State  49:      Singlet-B2    14.1265 eV   87.77 nm  f=0.2532  <S**2>=0.000
       8 -> 15        -0.13108
      10 -> 20        -0.28526
      11 -> 21        -0.22300
      11 -> 23        -0.20569
      12 -> 27         0.50847
      12 -> 28         0.11431

 Excited State  50:      Singlet-B1    14.1712 eV   87.49 nm  f=0.0055  <S**2>=0.000
       8 -> 20         0.14464
      10 -> 24         0.10110
      11 -> 22        -0.21530
      11 -> 25         0.36731
      12 -> 26         0.45570
      13 -> 30        -0.21532

 Excited State  51:      Singlet-A1    14.2714 eV   86.88 nm  f=0.0197  <S**2>=0.000
       8 -> 14        -0.24361
       8 -> 16        -0.16648
       8 -> 18        -0.25393
       9 -> 17        -0.10428
      10 -> 22        -0.37341
      11 -> 24         0.38872
      13 -> 26         0.10380

 Excited State  52:      Singlet-B1    14.3930 eV   86.14 nm  f=0.0910  <S**2>=0.000
       9 -> 16        -0.10086
       9 -> 18        -0.10054
      10 -> 24         0.12660
      12 -> 26         0.18128
      13 -> 29         0.33150
      13 -> 30         0.54074

 Excited State  53:      Singlet-A1    14.5192 eV   85.39 nm  f=0.0088  <S**2>=0.000
       7 -> 15         0.43820
       8 -> 16        -0.14923
       8 -> 18        -0.12100
       9 -> 17         0.10965
      10 -> 22         0.40186
      11 -> 19         0.11264
      11 -> 24         0.16343

 Excited State  54:      Singlet-B1    14.5242 eV   85.36 nm  f=0.0191  <S**2>=0.000
       9 -> 14         0.15566
       9 -> 16         0.32154
       9 -> 18         0.29522
      10 -> 24        -0.22019
      11 -> 22        -0.12459
      11 -> 25        -0.22822
      12 -> 26         0.32843

 Excited State  55:      Singlet-A2    14.5482 eV   85.22 nm  f=0.0000  <S**2>=0.000
       9 -> 15         0.61720
      10 -> 21         0.10425
      13 -> 28         0.15888
      13 -> 31        -0.21423

 Excited State  56:      Singlet-B2    14.5778 eV   85.05 nm  f=0.1465  <S**2>=0.000
       7 -> 14         0.10164
       7 -> 16         0.19632
       8 -> 15         0.57554
      11 -> 23         0.19702
      12 -> 27         0.20439

 Excited State  57:      Singlet-A1    14.7300 eV   84.17 nm  f=0.0564  <S**2>=0.000
       7 -> 15         0.43502
       8 -> 14         0.10319
       8 -> 16         0.38285
      10 -> 22        -0.25496
      11 -> 19        -0.15122
      12 -> 23         0.10115
      13 -> 33        -0.14005

 Excited State  58:      Singlet-A2    14.7330 eV   84.15 nm  f=0.0000  <S**2>=0.000
       9 -> 15         0.23533
      10 -> 23         0.32080
      13 -> 28        -0.11727
      13 -> 31         0.53283

 Excited State  59:      Singlet-B2    14.7963 eV   83.79 nm  f=0.1176  <S**2>=0.000
       7 -> 18         0.11112
       8 -> 15        -0.25993
      11 -> 23         0.58402
      12 -> 27         0.12391
      12 -> 28         0.12682

 Excited State  60:      Singlet-B1    14.8016 eV   83.76 nm  f=0.0894  <S**2>=0.000
       8 -> 17         0.20770
       9 -> 16         0.41489
       9 -> 21         0.11036
      10 -> 19        -0.15651
      11 -> 25         0.36506
      12 -> 26        -0.21662
      13 -> 30         0.13861

 Excited State  61:      Singlet-B2    14.8660 eV   83.40 nm  f=0.1899  <S**2>=0.000
       7 -> 16         0.59395
       7 -> 18         0.18182
       8 -> 15        -0.11489
      11 -> 23        -0.15613
      12 -> 27        -0.12047
      12 -> 28         0.14032

 Excited State  62:      Singlet-A1    14.9077 eV   83.17 nm  f=0.0608  <S**2>=0.000
       7 -> 15         0.15318
       8 -> 16        -0.22807
       8 -> 21        -0.11685
       9 -> 17         0.30899
      10 -> 22        -0.19069
      10 -> 25         0.20173
      11 -> 24        -0.27214
      11 -> 27         0.15585
      12 -> 29        -0.10069
      13 -> 33         0.30595

 Excited State  63:      Singlet-B1    14.9635 eV   82.86 nm  f=0.0068  <S**2>=0.000
       9 -> 16        -0.12390
      13 -> 32         0.64509

 Excited State  64:      Singlet-A1    15.0727 eV   82.26 nm  f=0.1120  <S**2>=0.000
       8 -> 16         0.31789
      11 -> 24         0.12184
      13 -> 33         0.58230

 Excited State  65:      Singlet-B1    15.1294 eV   81.95 nm  f=0.2275  <S**2>=0.000
       8 -> 17        -0.30662
       9 -> 16         0.30112
       9 -> 18        -0.25101
      10 -> 19        -0.13486
      10 -> 24         0.34872
      11 -> 25        -0.16783
      13 -> 32         0.12324
      13 -> 34         0.17107

 Excited State  66:      Singlet-A1    15.1977 eV   81.58 nm  f=0.0001  <S**2>=0.000
       7 -> 15        -0.19153
       8 -> 16         0.18654
       9 -> 17         0.53960
       9 -> 20        -0.13660
      11 -> 24         0.14962
      11 -> 27        -0.15538
      13 -> 36        -0.12877
      13 -> 38        -0.10689

 Excited State  67:      Singlet-A2    15.2264 eV   81.43 nm  f=0.0000  <S**2>=0.000
       7 -> 17         0.43289
       9 -> 19         0.12496
      10 -> 23         0.43902
      13 -> 31        -0.23528

 Excited State  68:      Singlet-B2    15.2444 eV   81.33 nm  f=0.0437  <S**2>=0.000
       7 -> 16        -0.21258
       7 -> 18         0.27741
       7 -> 21        -0.10175
       8 -> 15         0.15779
      12 -> 27        -0.15256
      12 -> 28         0.52153

 Excited State  69:      Singlet-A2    15.2448 eV   81.33 nm  f=0.0000  <S**2>=0.000
       7 -> 17         0.52210
       7 -> 20        -0.11270
       9 -> 19        -0.10420
      10 -> 23        -0.34491
      13 -> 31         0.23105

 Excited State  70:      Singlet-B1    15.3009 eV   81.03 nm  f=0.0317  <S**2>=0.000
       8 -> 17         0.53324
       8 -> 20        -0.11743
       9 -> 18        -0.17906
       9 -> 21        -0.10836
      10 -> 27         0.11260
      11 -> 22        -0.18751
      11 -> 25        -0.20091
      13 -> 34         0.14945

 Excited State  71:      Singlet-A1    15.3673 eV   80.68 nm  f=0.1573  <S**2>=0.000
       8 -> 16         0.17192
       8 -> 18        -0.21621
       9 -> 20         0.22075
      10 -> 22         0.10495
      10 -> 25         0.47081
      11 -> 27        -0.18018
      11 -> 28        -0.13986
      12 -> 29         0.13274
      12 -> 30        -0.11070
      13 -> 33        -0.10173

 Excited State  72:      Singlet-A1    15.3939 eV   80.54 nm  f=0.0003  <S**2>=0.000
       8 -> 18         0.39482
       8 -> 21        -0.15031
       9 -> 20         0.12055
      10 -> 25         0.21660
      11 -> 24         0.37979
      11 -> 27         0.24167

 Excited State  73:      Singlet-A1    15.4280 eV   80.36 nm  f=0.0356  <S**2>=0.000
       7 -> 15         0.12860
       8 -> 16        -0.14263
       8 -> 18         0.17969
       9 -> 17         0.11321
      10 -> 22        -0.12669
      10 -> 25        -0.12849
      11 -> 27        -0.24801
      12 -> 29         0.45622
      12 -> 30        -0.20019
      13 -> 33         0.10785
      13 -> 36         0.10779

 Excited State  74:      Singlet-B2    15.4538 eV   80.23 nm  f=0.2432  <S**2>=0.000
       7 -> 16        -0.15010
       7 -> 18         0.55960
       9 -> 22         0.10514
      12 -> 28        -0.32090

 Excited State  75:      Singlet-B1    15.4723 eV   80.13 nm  f=0.0289  <S**2>=0.000
       9 -> 18         0.30962
      10 -> 27         0.10959
      13 -> 34         0.57845

 Excited State  76:      Singlet-B1    15.5943 eV   79.51 nm  f=0.1909  <S**2>=0.000
       8 -> 17         0.13461
       9 -> 18         0.32247
       9 -> 21         0.10242
      10 -> 24         0.47347
      10 -> 27        -0.15533
      11 -> 25        -0.13582
      13 -> 34        -0.21477
      13 -> 35         0.12180

 Excited State  77:      Singlet-A2    15.6082 eV   79.44 nm  f=0.0000  <S**2>=0.000
       8 -> 22        -0.25296
      11 -> 26         0.63425

 Excited State  78:      Singlet-A1    15.7661 eV   78.64 nm  f=0.0507  <S**2>=0.000
       8 -> 18        -0.29354
       8 -> 21        -0.18605
      10 -> 25        -0.13725
      11 -> 27         0.36829
      12 -> 29         0.38562
      13 -> 38        -0.14469

 Excited State  79:      Singlet-B1    15.8013 eV   78.46 nm  f=0.0942  <S**2>=0.000
       9 -> 18        -0.11045
       9 -> 21         0.50487
      10 -> 24        -0.17647
      10 -> 27        -0.19408
      10 -> 28         0.10105
      11 -> 25        -0.12188
      13 -> 32         0.14116
      13 -> 34         0.14756
      13 -> 35         0.24024

 Excited State  80:      Singlet-B2    15.9401 eV   77.78 nm  f=0.1778  <S**2>=0.000
       8 -> 19         0.28107
       9 -> 22        -0.28802
      10 -> 26         0.53388
      13 -> 40         0.12586

 Excited State  81:      Singlet-A1    16.0308 eV   77.34 nm  f=0.0377  <S**2>=0.000
       7 -> 19        -0.20352
      11 -> 27        -0.16021
      12 -> 29         0.18948
      12 -> 30         0.56023
      12 -> 32        -0.12675
      13 -> 36         0.12091
      13 -> 38         0.15033

 Excited State  82:      Singlet-B2    16.0603 eV   77.20 nm  f=0.0801  <S**2>=0.000
       7 -> 21         0.20251
       8 -> 19         0.55903
      10 -> 26        -0.26012

 Excited State  83:      Singlet-B1    16.0630 eV   77.19 nm  f=0.0181  <S**2>=0.000
       9 -> 21        -0.17438
      10 -> 27         0.14455
      11 -> 25         0.10003
      13 -> 35         0.62441

 Excited State  84:      Singlet-A2    16.0741 eV   77.13 nm  f=0.0000  <S**2>=0.000
       9 -> 19         0.64726
      10 -> 23        -0.21522

 Excited State  85:      Singlet-A1    16.0942 eV   77.04 nm  f=0.0024  <S**2>=0.000
       7 -> 19         0.40714
       8 -> 21        -0.13837
       9 -> 17        -0.11227
       9 -> 20        -0.17509
      10 -> 25         0.14884
      11 -> 27        -0.15622
      12 -> 30         0.19455
      13 -> 36        -0.38290

 Excited State  86:      Singlet-B2    16.2070 eV   76.50 nm  f=0.0052  <S**2>=0.000
       7 -> 21         0.60582
       8 -> 19        -0.12216
      13 -> 37        -0.23414

 Excited State  87:      Singlet-A2    16.2780 eV   76.17 nm  f=0.0000  <S**2>=0.000
       7 -> 17         0.15326
       7 -> 20         0.67238

 Excited State  88:      Singlet-B1    16.2879 eV   76.12 nm  f=0.0001  <S**2>=0.000
       9 -> 21         0.28211
       9 -> 23         0.15636
      10 -> 19        -0.10413
      10 -> 27         0.54641
      10 -> 28         0.17754
      13 -> 34        -0.13872

 Excited State  89:      Singlet-A1    16.2944 eV   76.09 nm  f=0.0005  <S**2>=0.000
       7 -> 19         0.46425
       8 -> 21         0.22465
      11 -> 27         0.12357
      13 -> 36         0.37208

 Excited State  90:      Singlet-B1    16.3606 eV   75.78 nm  f=0.0959  <S**2>=0.000
       8 -> 20         0.64339
      10 -> 27         0.12802
      11 -> 25        -0.17516

 Excited State  91:      Singlet-A1    16.3750 eV   75.72 nm  f=0.0035  <S**2>=0.000

 The electronic state is 1-A1.
 Alpha  occ. eigenvalues --  -19.26868 -10.34305 -10.34305  -1.13819  -0.81828
 Alpha  occ. eigenvalues --   -0.72458  -0.57384  -0.56567  -0.56484  -0.47884
 Alpha  occ. eigenvalues --   -0.46198  -0.40680  -0.34598
 Alpha virt. eigenvalues --    0.08879   0.11660   0.14332   0.15220   0.15902
 Alpha virt. eigenvalues --    0.18048   0.19952   0.20202   0.21000   0.23622
 Alpha virt. eigenvalues --    0.24600   0.25175   0.27995   0.28088   0.32758

 Mulliken charges:
               1
     1  C    0.472418
     2  O   -0.790833
     3  C    0.472418
     4  H   -0.121053
     5  H    0.022026
     6  H    0.022026
     7  H   -0.121053
     8  H    0.022026
     9  H    0.022026
 Sum of Mulliken charges =   0.00000

 Dipole moment (field-independent basis, Debye):
    X=              0.0000    Y=              0.0000    Z=             -1.2830  Tot=              1.2830
 Quadrupole moment (field-independent basis, Debye-Ang):
   XX=            -20.2556   YY=            -17.4099   ZZ=            -21.3358
   XY=             -0.0000   XZ=             -0.0000   YZ=             -0.0000

 Normal termination of Gaussian 16 at Sat Feb 12 22:18:58 2022.
