 Gaussian 16, Revision C.01,
 Gaussian 16:  EM64L-G16RevC.01  3-Jul-2019

 ----------------------------------------------------------------------
 #P TD(Nstates=10000) cam-b3lyp/Gen SCF(maxcycles=100) Int(Grid=ultrafi
 ne)
 ----------------------------------------------------------------------

 ---------------------
 xGDB7_00001_tier4.com
 ---------------------
 Symbolic Z-matrix:
 Charge =  0 Multiplicity = 1

                         Standard orientation:
 ---------------------------------------------------------------------
 Center     Atomic      Atomic             Coordinates (Angstroms)
 Number     Number       Type             X           Y           Z
 ---------------------------------------------------------------------
      1          8           0        0.000000   -0.000000    0.116015
      2          1           0        0.000000    0.761895   -0.464058
      3          1           0       -0.000000   -0.761895   -0.464058
 ---------------------------------------------------------------------

 SCF Done:  E(RCAM-B3LYP) =  -76.3523186327     A.U. after   10 cycles

 Excitation energies and oscillator strengths:

 Excited State   1:      Singlet-B1     7.5509 eV  164.20 nm  f=0.0533  <S**2>=0.000
       5 ->  6         0.70237
 This state for optimization and/or second-order correction.
 Total Energy, E(TD-HF/TD-DFT) =  -76.0748279115
 Copying the excited state density for this state as the 1-particle RhoCI density.

 Excited State   2:      Singlet-A2     9.3760 eV  132.24 nm  f=0.0000  <S**2>=0.000
       5 ->  7         0.68981
       5 -> 10         0.12740

 Excited State   3:      Singlet-A1     9.6213 eV  128.86 nm  f=0.0966  <S**2>=0.000
       4 ->  6         0.69173
       5 ->  8         0.11054

 Excited State   4:      Singlet-B1    10.8392 eV  114.38 nm  f=0.0052  <S**2>=0.000
       5 ->  9         0.70037

 Excited State   5:      Singlet-A1    11.2811 eV  109.90 nm  f=0.0013  <S**2>=0.000
       4 ->  9        -0.17469
       5 ->  8         0.67084

 Excited State   6:      Singlet-B2    11.4799 eV  108.00 nm  f=0.0126  <S**2>=0.000
       4 ->  7         0.69843

 Excited State   7:      Singlet-A2    11.9217 eV  104.00 nm  f=0.0000  <S**2>=0.000
       5 ->  7        -0.13255
       5 -> 10         0.68997

 Excited State   8:      Singlet-B1    12.6379 eV   98.10 nm  f=0.0406  <S**2>=0.000
       4 ->  8         0.41545
       5 -> 11         0.56630

 Excited State   9:      Singlet-B1    12.7778 eV   97.03 nm  f=0.0087  <S**2>=0.000
       4 ->  8         0.56745
       5 -> 11        -0.41672

 Excited State  10:      Singlet-A1    13.1861 eV   94.03 nm  f=0.0350  <S**2>=0.000
       3 ->  7         0.13500
       4 ->  9         0.66419
       5 ->  8         0.14856

 Excited State  11:      Singlet-B2    13.5031 eV   91.82 nm  f=0.0671  <S**2>=0.000
       3 ->  6         0.67772
       4 -> 10        -0.12225
       5 -> 12        -0.14210

 Excited State  12:      Singlet-B2    13.8107 eV   89.77 nm  f=0.0225  <S**2>=0.000
       4 -> 10        -0.34999
       5 -> 12         0.60460

 Excited State  13:      Singlet-B1    14.2472 eV   87.02 nm  f=0.0728  <S**2>=0.000
       5 -> 13         0.69528

 Excited State  14:      Singlet-B2    14.3977 eV   86.11 nm  f=0.3464  <S**2>=0.000
       3 ->  6         0.17963
       4 -> 10         0.59282
       5 -> 12         0.32943

 Excited State  15:      Singlet-A1    14.6622 eV   84.56 nm  f=0.0603  <S**2>=0.000
       4 -> 11         0.69479

 Excited State  16:      Singlet-A1    15.0410 eV   82.43 nm  f=0.0291  <S**2>=0.000
       3 ->  7        -0.25277
       5 -> 14         0.64236

 Excited State  17:      Singlet-A2    15.7952 eV   78.49 nm  f=0.0000  <S**2>=0.000
       4 -> 12         0.70476

 Excited State  18:      Singlet-A1    15.8583 eV   78.18 nm  f=0.0004  <S**2>=0.000
       3 ->  7         0.49526
       4 ->  9        -0.11827
       4 -> 13         0.45118
       5 -> 14         0.13002

 Excited State  19:      Singlet-A2    16.7413 eV   74.06 nm  f=0.0000  <S**2>=0.000
       3 ->  8         0.69405

 Excited State  20:      Singlet-B2    16.9095 eV   73.32 nm  f=0.0374  <S**2>=0.000
       3 ->  9         0.69744
       3 -> 13         0.10680

 Excited State  21:      Singlet-B1    16.9888 eV   72.98 nm  f=0.0074  <S**2>=0.000
       4 -> 14         0.57524
       5 -> 15         0.40287

 Excited State  22:      Singlet-A2    17.1929 eV   72.11 nm  f=0.0000  <S**2>=0.000
       5 -> 16         0.64481
       5 -> 17        -0.26223

 Excited State  23:      Singlet-A1    17.2283 eV   71.97 nm  f=0.0437  <S**2>=0.000
       3 ->  7        -0.38845
       3 -> 10         0.30583
       4 -> 13         0.45525
       5 -> 14        -0.17105

 Excited State  24:      Singlet-B1    17.3030 eV   71.65 nm  f=0.2012  <S**2>=0.000
       4 -> 14        -0.39926
       5 -> 15         0.57587

 Excited State  25:      Singlet-A2    18.1704 eV   68.23 nm  f=0.0000  <S**2>=0.000
       5 -> 16         0.27315
       5 -> 17         0.64633

 Excited State  26:      Singlet-A1    18.6748 eV   66.39 nm  f=0.2680  <S**2>=0.000
       3 -> 10         0.56688
       4 -> 13        -0.22984
       4 -> 15         0.29547
       5 -> 14         0.12347

 Excited State  27:      Singlet-B2    18.8652 eV   65.72 nm  f=0.2241  <S**2>=0.000
       3 -> 11         0.67747
       4 -> 17        -0.15358

 Excited State  28:      Singlet-A1    19.1002 eV   64.91 nm  f=0.0824  <S**2>=0.000
       3 -> 10        -0.25643
       4 -> 13         0.10207
       4 -> 15         0.63798

 Excited State  29:      Singlet-B2    19.2210 eV   64.50 nm  f=0.0061  <S**2>=0.000
       3 -> 11        -0.11330
       4 -> 16         0.67220
       4 -> 17        -0.16320

 Excited State  30:      Singlet-B1    19.7933 eV   62.64 nm  f=0.1113  <S**2>=0.000
       3 -> 12         0.69925

 Excited State  31:      Singlet-B2    20.1129 eV   61.64 nm  f=0.0012  <S**2>=0.000
       3 -> 13         0.64215
       4 -> 16        -0.10894
       4 -> 17        -0.24449

 Excited State  32:      Singlet-B2    20.4342 eV   60.67 nm  f=0.0309  <S**2>=0.000
       3 -> 11         0.11757
       3 -> 13         0.26252
       4 -> 16         0.16164
       4 -> 17         0.61597

 Excited State  33:      Singlet-A2    20.8530 eV   59.46 nm  f=0.0000  <S**2>=0.000
       3 -> 14         0.69913

 Excited State  34:      Singlet-A2    21.3463 eV   58.08 nm  f=0.0000  <S**2>=0.000
       5 -> 18         0.70267

 Excited State  35:      Singlet-B1    22.2478 eV   55.73 nm  f=0.2148  <S**2>=0.000
       4 -> 20        -0.13573
       5 -> 19         0.68393

 Excited State  36:      Singlet-A1    22.9724 eV   53.97 nm  f=0.0817  <S**2>=0.000
       3 -> 16        -0.16667
       4 -> 19         0.16709
       4 -> 21         0.10267
       5 -> 20         0.65204

 Excited State  37:      Singlet-B2    23.0183 eV   53.86 nm  f=0.0201  <S**2>=0.000
       3 -> 15         0.69407
       4 -> 18         0.10893

 Excited State  38:      Singlet-B2    23.4674 eV   52.83 nm  f=0.0077  <S**2>=0.000
       4 -> 18         0.57023
       5 -> 22        -0.40708

 Excited State  39:      Singlet-A1    23.5076 eV   52.74 nm  f=0.0056  <S**2>=0.000
       3 -> 16         0.51751
       4 -> 19         0.46978

 Excited State  40:      Singlet-B1    23.5805 eV   52.58 nm  f=0.0010  <S**2>=0.000
       5 -> 21         0.70329

 Excited State  41:      Singlet-A1    23.7987 eV   52.10 nm  f=0.0339  <S**2>=0.000
       3 -> 16        -0.40923
       3 -> 17        -0.15694
       4 -> 19         0.48833
       4 -> 21        -0.11759
       5 -> 20        -0.20757

 Excited State  42:      Singlet-B2    24.5654 eV   50.47 nm  f=0.3395  <S**2>=0.000
       3 -> 19        -0.12859
       4 -> 18         0.37903
       5 -> 22         0.55721

 Excited State  43:      Singlet-A1    24.8743 eV   49.84 nm  f=0.0383  <S**2>=0.000
       2 ->  6        -0.21742
       3 -> 16        -0.11659
       3 -> 17         0.64065

 Excited State  44:      Singlet-B1    24.9496 eV   49.69 nm  f=0.2678  <S**2>=0.000
       4 -> 20         0.68735
       5 -> 19         0.12848

 Excited State  45:      Singlet-A2    25.6390 eV   48.36 nm  f=0.0000  <S**2>=0.000
       4 -> 22         0.70545

 Excited State  46:      Singlet-A1    26.0309 eV   47.63 nm  f=0.2784  <S**2>=0.000
       2 ->  6        -0.17342
       3 -> 17        -0.11230
       3 -> 18        -0.19134
       4 -> 21         0.63793

 Excited State  47:      Singlet-A1    27.1284 eV   45.70 nm  f=0.0256  <S**2>=0.000
       2 ->  6         0.61824
       3 -> 17         0.15639
       3 -> 18        -0.21841
       4 -> 21         0.12296

 Excited State  48:      Singlet-B2    27.9877 eV   44.30 nm  f=0.1297  <S**2>=0.000
       2 ->  7        -0.10245
       3 -> 19         0.67380
       3 -> 21         0.14200

 Excited State  49:      Singlet-A1    28.3493 eV   43.73 nm  f=0.3225  <S**2>=0.000
       2 ->  6         0.15769
       2 ->  9         0.10812
       3 -> 18         0.63097
       4 -> 21         0.21131
       5 -> 20        -0.10980

 Excited State  50:      Singlet-B2    28.5415 eV   43.44 nm  f=0.0109  <S**2>=0.000
       2 ->  7         0.67729
       2 -> 10         0.11302
       3 -> 21         0.13044

 Excited State  51:      Singlet-A2    28.6830 eV   43.23 nm  f=0.0000  <S**2>=0.000
       3 -> 20         0.70501

 Excited State  52:      Singlet-B1    29.7322 eV   41.70 nm  f=0.0774  <S**2>=0.000
       2 ->  8         0.60638
       3 -> 22         0.35410

 Excited State  53:      Singlet-A1    29.9352 eV   41.42 nm  f=0.0065  <S**2>=0.000
       2 ->  9         0.68781

 Excited State  54:      Singlet-B1    30.3561 eV   40.84 nm  f=0.1812  <S**2>=0.000
       2 ->  8        -0.34179
       3 -> 22         0.59953
       5 -> 23         0.11387

 Excited State  55:      Singlet-B2    30.4080 eV   40.77 nm  f=0.2942  <S**2>=0.000
       2 ->  7        -0.10744
       3 -> 19        -0.13629
       3 -> 21         0.67028

 Excited State  56:      Singlet-B2    30.9945 eV   40.00 nm  f=0.0084  <S**2>=0.000
       2 ->  7        -0.11081
       2 -> 10         0.69431

 Excited State  57:      Singlet-B1    31.6368 eV   39.19 nm  f=0.0056  <S**2>=0.000
       5 -> 23         0.69375

 Excited State  58:      Singlet-A1    31.6492 eV   39.17 nm  f=0.0027  <S**2>=0.000
       2 -> 11         0.69943

 Excited State  59:      Singlet-A2    32.6465 eV   37.98 nm  f=0.0000  <S**2>=0.000
       2 -> 12         0.70482

 Excited State  60:      Singlet-A1    33.2152 eV   37.33 nm  f=0.0075  <S**2>=0.000
       2 -> 13         0.67353
       4 -> 23        -0.18631

 Excited State  61:      Singlet-B1    33.8359 eV   36.64 nm  f=0.0105  <S**2>=0.000
       2 -> 14         0.69963

 Excited State  62:      Singlet-A1    34.0457 eV   36.42 nm  f=0.0231  <S**2>=0.000
       2 -> 13         0.17223
       2 -> 15        -0.11518
       4 -> 23         0.66189

 Excited State  63:      Singlet-A2    34.5109 eV   35.93 nm  f=0.0000  <S**2>=0.000
       5 -> 24         0.70504

 Excited State  64:      Singlet-B2    36.1964 eV   34.25 nm  f=0.0093  <S**2>=0.000
       2 -> 16         0.64740
       2 -> 17        -0.12308
       4 -> 24        -0.22906

 Excited State  65:      Singlet-A1    36.3071 eV   34.15 nm  f=0.0075  <S**2>=0.000
       2 -> 15         0.67535
       5 -> 25         0.16569

 Excited State  66:      Singlet-B2    36.7685 eV   33.72 nm  f=0.0015  <S**2>=0.000
       2 -> 16         0.24810
       3 -> 23        -0.13551
       4 -> 24         0.64526

 Excited State  67:      Singlet-B2    37.2038 eV   33.33 nm  f=0.0050  <S**2>=0.000
       2 -> 16         0.12467
       2 -> 17         0.67836
       3 -> 23        -0.11440

 Excited State  68:      Singlet-B2    38.2764 eV   32.39 nm  f=0.0564  <S**2>=0.000
       2 -> 17         0.13913
       3 -> 23         0.67168
       4 -> 24         0.14605

 Excited State  69:      Singlet-B1    39.2269 eV   31.61 nm  f=0.0082  <S**2>=0.000
       5 -> 26         0.70223

 Excited State  70:      Singlet-A1    39.6959 eV   31.23 nm  f=0.0090  <S**2>=0.000
       2 -> 19        -0.13222
       3 -> 24         0.29536
       4 -> 26        -0.30245
       5 -> 25         0.53795

 Excited State  71:      Singlet-B2    40.5786 eV   30.55 nm  f=0.0001  <S**2>=0.000
       2 -> 18         0.70204

 Excited State  72:      Singlet-B1    40.6384 eV   30.51 nm  f=0.0022  <S**2>=0.000
       4 -> 25         0.70254

 Excited State  73:      Singlet-A1    40.7029 eV   30.46 nm  f=0.0019  <S**2>=0.000
       2 -> 19         0.67891
       3 -> 24         0.17872

 Excited State  74:      Singlet-A1    41.0451 eV   30.21 nm  f=0.0269  <S**2>=0.000
       2 -> 19        -0.13165
       3 -> 24         0.53985
       4 -> 26         0.42309

 Excited State  75:      Singlet-B1    41.7985 eV   29.66 nm  f=0.0001  <S**2>=0.000
       2 -> 20         0.70453

 Excited State  76:      Singlet-A2    42.7484 eV   29.00 nm  f=0.0000  <S**2>=0.000
       2 -> 22         0.70308

 Excited State  77:      Singlet-A1    42.8611 eV   28.93 nm  f=0.0064  <S**2>=0.000
       2 -> 21         0.70399

 Excited State  78:      Singlet-A2    44.5786 eV   27.81 nm  f=0.0000  <S**2>=0.000
       3 -> 25         0.70369

 Excited State  79:      Singlet-B2    45.4327 eV   27.29 nm  f=0.0632  <S**2>=0.000
       3 -> 26         0.70243

 Excited State  80:      Singlet-A1    47.4114 eV   26.15 nm  f=0.0106  <S**2>=0.000
       2 -> 15        -0.11026
       2 -> 23        -0.26101
       3 -> 24        -0.25763
       3 -> 27         0.16872
       4 -> 26         0.42805
       5 -> 25         0.33388

 Excited State  81:      Singlet-A2    47.6703 eV   26.01 nm  f=0.0000  <S**2>=0.000
       5 -> 27         0.70640

 Excited State  82:      Singlet-B2    49.8728 eV   24.86 nm  f=0.0427  <S**2>=0.000
       4 -> 27         0.68864
       5 -> 29         0.15004

 Excited State  83:      Singlet-B1    50.8526 eV   24.38 nm  f=0.0950  <S**2>=0.000
       5 -> 28         0.70411

 Excited State  84:      Singlet-A1    51.3785 eV   24.13 nm  f=0.0848  <S**2>=0.000
       2 -> 23         0.63257
       3 -> 27         0.23845
       4 -> 26         0.11022
       5 -> 25         0.11208

 Excited State  85:      Singlet-B2    52.4267 eV   23.65 nm  f=0.1185  <S**2>=0.000
       4 -> 27        -0.13974
       5 -> 29         0.67980

 Excited State  86:      Singlet-A1    52.6686 eV   23.54 nm  f=0.0229  <S**2>=0.000
       3 -> 27         0.11025
       4 -> 28         0.69640

 Excited State  87:      Singlet-B2    53.7280 eV   23.08 nm  f=0.0562  <S**2>=0.000
       2 -> 24         0.70255

 Excited State  88:      Singlet-A2    53.8516 eV   23.02 nm  f=0.0000  <S**2>=0.000
       4 -> 29         0.70671

 Excited State  89:      Singlet-A1    55.8798 eV   22.19 nm  f=0.0051  <S**2>=0.000
       2 -> 23        -0.14195
       2 -> 26         0.15500
       3 -> 27         0.52085
       4 -> 26        -0.11940
       5 -> 25        -0.12367
       5 -> 30         0.35381

 Excited State  90:      Singlet-A1    56.6043 eV   21.90 nm  f=0.0563  <S**2>=0.000
       3 -> 27        -0.32271
       4 -> 32        -0.12557
       5 -> 30         0.60135

 Excited State  91:      Singlet-B2    56.8817 eV   21.80 nm  f=0.0105  <S**2>=0.000
       3 -> 28         0.69874

 Excited State  92:      Singlet-B1    57.8260 eV   21.44 nm  f=0.1399  <S**2>=0.000
       2 -> 25         0.67853
       3 -> 29        -0.11866
       4 -> 30         0.15600

 Excited State  93:      Singlet-B1    57.9870 eV   21.38 nm  f=0.0395  <S**2>=0.000
       2 -> 25         0.19208
       3 -> 29         0.49879
       4 -> 30        -0.46023

 Excited State  94:      Singlet-B1    58.5466 eV   21.18 nm  f=0.1476  <S**2>=0.000
       3 -> 29         0.39284
       4 -> 30         0.44832
       5 -> 32         0.37256

 Excited State  95:      Singlet-A1    58.6712 eV   21.13 nm  f=0.1001  <S**2>=0.000
       2 -> 26         0.68430
       3 -> 27        -0.11292

 Excited State  96:      Singlet-A2    59.2898 eV   20.91 nm  f=0.0000  <S**2>=0.000
       5 -> 31         0.70473

 Excited State  97:      Singlet-B1    59.6108 eV   20.80 nm  f=0.1868  <S**2>=0.000
       3 -> 29        -0.27841
       4 -> 30        -0.24416
       5 -> 32         0.59847

 Excited State  98:      Singlet-B2    61.5026 eV   20.16 nm  f=0.0165  <S**2>=0.000
       4 -> 31         0.70440

 Excited State  99:      Singlet-A2    62.0247 eV   19.99 nm  f=0.0000  <S**2>=0.000
       3 -> 30         0.70397

 Excited State 100:      Singlet-A1    62.1260 eV   19.96 nm  f=0.2296  <S**2>=0.000
       4 -> 32         0.68628

 Excited State 101:      Singlet-B2    65.5288 eV   18.92 nm  f=0.1046  <S**2>=0.000
       2 -> 27         0.10114
       3 -> 32         0.69454

 Excited State 102:      Singlet-A1    65.5522 eV   18.91 nm  f=0.0004  <S**2>=0.000
       3 -> 31         0.69691

 Excited State 103:      Singlet-B2    67.0424 eV   18.49 nm  f=0.0450  <S**2>=0.000
       2 -> 27         0.69782

 Excited State 104:      Singlet-A2    67.3595 eV   18.41 nm  f=0.0000  <S**2>=0.000
       5 -> 33         0.70603

 Excited State 105:      Singlet-B2    70.1068 eV   17.69 nm  f=0.0122  <S**2>=0.000
       4 -> 33         0.69917

 Excited State 106:      Singlet-A2    70.8419 eV   17.50 nm  f=0.0000  <S**2>=0.000
       2 -> 29         0.70661

 Excited State 107:      Singlet-A1    71.1915 eV   17.42 nm  f=0.0031  <S**2>=0.000
       2 -> 28         0.66319
       3 -> 33        -0.15747
       4 -> 34        -0.12368

 Excited State 108:      Singlet-B1    72.1333 eV   17.19 nm  f=0.1469  <S**2>=0.000
       5 -> 34         0.69676

 Excited State 109:      Singlet-A1    72.8262 eV   17.02 nm  f=0.0075  <S**2>=0.000
       3 -> 33        -0.23439
       4 -> 34         0.66327

 Excited State 110:      Singlet-B1    74.9205 eV   16.55 nm  f=0.0287  <S**2>=0.000
       2 -> 30         0.70475

 Excited State 111:      Singlet-A1    75.0472 eV   16.52 nm  f=0.0294  <S**2>=0.000
       2 -> 28         0.17849
       3 -> 33         0.63936
       4 -> 34         0.20518

 Excited State 112:      Singlet-B2    77.0425 eV   16.09 nm  f=0.0128  <S**2>=0.000
       2 -> 31         0.13494
       3 -> 34         0.68832

 Excited State 113:      Singlet-B2    78.0188 eV   15.89 nm  f=0.0000  <S**2>=0.000
       2 -> 31         0.69340
       3 -> 34        -0.13372

 Excited State 114:      Singlet-A1    78.4711 eV   15.80 nm  f=0.0036  <S**2>=0.000
       2 -> 32         0.70560

 Excited State 115:      Singlet-B2    86.7116 eV   14.30 nm  f=0.0170  <S**2>=0.000
       2 -> 33         0.70456

 Excited State 116:      Singlet-A1    88.7675 eV   13.97 nm  f=0.1554  <S**2>=0.000
       4 -> 37        -0.20697
       5 -> 35         0.67085

 Excited State 117:      Singlet-B1    90.2979 eV   13.73 nm  f=0.0842  <S**2>=0.000
       3 -> 36        -0.17712
       4 -> 35         0.65551
       5 -> 37         0.18388

 Excited State 118:      Singlet-A1    90.4107 eV   13.71 nm  f=0.0182  <S**2>=0.000
       2 -> 34         0.70445

 Excited State 119:      Singlet-B2    90.7818 eV   13.66 nm  f=0.2072  <S**2>=0.000
       3 -> 37         0.11822
       5 -> 36         0.68829

 Excited State 120:      Singlet-A2    90.8067 eV   13.65 nm  f=0.0000  <S**2>=0.000
       4 -> 36         0.70598

 Excited State 121:      Singlet-B1    92.8573 eV   13.35 nm  f=0.0185  <S**2>=0.000
       3 -> 36         0.19428
       4 -> 35        -0.13078
       5 -> 37         0.66615

 Excited State 122:      Singlet-A2    92.9868 eV   13.33 nm  f=0.0000  <S**2>=0.000
       3 -> 35         0.70619

 Excited State 123:      Singlet-B1    96.6948 eV   12.82 nm  f=0.1872  <S**2>=0.000
       3 -> 36         0.63749
       4 -> 35         0.19153
       5 -> 37        -0.13806
       5 -> 38         0.18242

 Excited State 124:      Singlet-A1    97.5583 eV   12.71 nm  f=0.2958  <S**2>=0.000
       4 -> 37         0.67225
       5 -> 35         0.19903

 Excited State 125:      Singlet-B2    99.4921 eV   12.46 nm  f=0.0702  <S**2>=0.000
       3 -> 37         0.69360
       5 -> 36        -0.10663

 Excited State 126:      Singlet-B1   106.3451 eV   11.66 nm  f=0.1763  <S**2>=0.000
       2 -> 35        -0.38926
       3 -> 36        -0.11566
       5 -> 38         0.56983

 Excited State 127:      Singlet-A1   106.7837 eV   11.61 nm  f=0.0095  <S**2>=0.000
       4 -> 38         0.70555

 Excited State 128:      Singlet-B1   107.1523 eV   11.57 nm  f=0.1394  <S**2>=0.000
       2 -> 35         0.58989
       5 -> 38         0.37091

 Excited State 129:      Singlet-A2   108.4619 eV   11.43 nm  f=0.0000  <S**2>=0.000
       2 -> 36         0.70660

 Excited State 130:      Singlet-B2   111.1549 eV   11.15 nm  f=0.0550  <S**2>=0.000
       3 -> 38         0.69578
       4 -> 39         0.11015

 Excited State 131:      Singlet-A1   112.3310 eV   11.04 nm  f=0.0054  <S**2>=0.000
       2 -> 37         0.70612

 Excited State 132:      Singlet-A2   115.2386 eV   10.76 nm  f=0.0000  <S**2>=0.000
       5 -> 39         0.70683

 Excited State 133:      Singlet-B2   118.7806 eV   10.44 nm  f=0.1647  <S**2>=0.000
       3 -> 38        -0.10364
       4 -> 39         0.69531

 Excited State 134:      Singlet-A1   122.5113 eV   10.12 nm  f=0.0877  <S**2>=0.000
       3 -> 39         0.69762

 Excited State 135:      Singlet-A1   123.8189 eV   10.01 nm  f=0.0183  <S**2>=0.000
       2 -> 38         0.70077

 Excited State 136:      Singlet-B2   134.6108 eV    9.21 nm  f=0.0027  <S**2>=0.000
       2 -> 39         0.70697

 The electronic state is 1-A1.
 Alpha  occ. eigenvalues --  -19.22600  -1.08878  -0.61326  -0.46604  -0.39463
 Alpha virt. eigenvalues --    0.03502   0.09790   0.14589   0.14677   0.19852
 Alpha virt. eigenvalues --    0.22367   0.26334   0.28589   0.31157   0.39023
 Alpha virt. eigenvalues --    0.39274   0.43158   0.56307   0.57664   0.61681

 Mulliken charges:
               1
     1  O   -0.228965
     2  H    0.114483
     3  H    0.114483
 Sum of Mulliken charges =  -0.00000

 Dipole moment (field-independent basis, Debye):
    X=             -0.0000    Y=             -0.0000    Z=             -1.9148  Tot=              1.9148
 Quadrupole moment (field-independent basis, Debye-Ang):
   XX=             -7.8390   YY=             -4.5173   ZZ=             -6.5483
   XY=              0.0000   XZ=              0.0000   YZ=              0.0000

 1\1\GINC-HEL23\SP\RCAM-B3LYP TD-FC\Gen\H2O1\SABYASACHI\21-Mar-2022\0\\
 #P TD(Nstates=10000) cam-b3lyp/Gen SCF(maxcycles=100) Int(Grid=ultrafi
 ne)\\xGDB7_00001_tier4.com\\0,1\O,0,0.,0.,0.116015\H,0,0.,0.761895,-0.
 464058\H,0,0.,-0.761895,-0.464058\\Version=EM64L-G16RevC.01\State=1-A1
 \HF=-76.3523186\RMSD=4.151e-09\PG=C02V [C2(O1),SGV(H2)]\\@
 The archive entry for this job was punched.

 Normal termination of Gaussian 16 at Mon Mar 21 20:10:06 2022.
