 Gaussian 16, Revision C.01,
 Gaussian 16:  EM64L-G16RevC.01  3-Jul-2019

 ----------------------------------------------------------------------
 #P TD(Nstates=10000) cam-b3lyp/Gen SCF(maxcycles=100) Int(Grid=ultrafi
 ne)
 ----------------------------------------------------------------------

 ---------------------
 xGDB7_00001_tier4.com
 ---------------------
 Symbolic Z-matrix:
 Charge =  0 Multiplicity = 1

                         Standard orientation:
 ---------------------------------------------------------------------
 Center     Atomic      Atomic             Coordinates (Angstroms)
 Number     Number       Type             X           Y           Z
 ---------------------------------------------------------------------
      1          8           0       -1.023805   -0.438791    0.000000
      2          6           0       -0.000000    0.418952    0.000000
      3          8           0        1.152985    0.109982   -0.000000
      4          1           0       -0.656943   -1.333011    0.000000
      5          1           0       -0.376498    1.449770    0.000000
 ---------------------------------------------------------------------

 SCF Done:  E(RCAM-B3LYP) =  -189.569570244     A.U. after   14 cycles

 Excitation energies and oscillator strengths:

 Excited State   1:      Singlet-A"     5.8741 eV  211.07 nm  f=0.0009  <S**2>=0.000
      12 -> 13         0.70252
 This state for optimization and/or second-order correction.
 Total Energy, E(TD-HF/TD-DFT) =  -189.353702057
 Copying the excited state density for this state as the 1-particle RhoCI density.

 Excited State   2:      Singlet-A'     8.0103 eV  154.78 nm  f=0.0264  <S**2>=0.000
      11 -> 13        -0.31598
      12 -> 14         0.61573

 Excited State   3:      Singlet-A'     8.7397 eV  141.86 nm  f=0.0875  <S**2>=0.000
      11 -> 13         0.18900
      12 -> 14         0.11235
      12 -> 15         0.64733
      12 -> 16         0.13874

 Excited State   4:      Singlet-A"     8.7727 eV  141.33 nm  f=0.0032  <S**2>=0.000
      11 -> 14         0.68677

 Excited State   5:      Singlet-A'     8.8772 eV  139.67 nm  f=0.1931  <S**2>=0.000
      11 -> 13         0.56398
      12 -> 14         0.28030
      12 -> 15        -0.24963
      12 -> 16         0.11046

 Excited State   6:      Singlet-A"     9.3980 eV  131.93 nm  f=0.0001  <S**2>=0.000
      10 -> 13         0.69983

 Excited State   7:      Singlet-A"     9.8988 eV  125.25 nm  f=0.0013  <S**2>=0.000
      11 -> 15         0.69131

 Excited State   8:      Singlet-A"     9.9514 eV  124.59 nm  f=0.0147  <S**2>=0.000
      12 -> 17         0.68685
      12 -> 21         0.14406

 Excited State   9:      Singlet-A'    10.0317 eV  123.59 nm  f=0.0994  <S**2>=0.000
      12 -> 14        -0.11521
      12 -> 16         0.63621
      12 -> 18        -0.16484
      12 -> 19         0.12760

 Excited State  10:      Singlet-A'    10.9134 eV  113.61 nm  f=0.0311  <S**2>=0.000
      10 -> 14         0.25267
      11 -> 17        -0.12558
      12 -> 16         0.17120
      12 -> 18         0.45453
      12 -> 19        -0.13225
      12 -> 20        -0.37145

 Excited State  11:      Singlet-A'    10.9388 eV  113.34 nm  f=0.0500  <S**2>=0.000
      10 -> 14         0.59400
      11 -> 17        -0.17548
      12 -> 18        -0.24257
      12 -> 20         0.15641

 Excited State  12:      Singlet-A"    10.9977 eV  112.74 nm  f=0.0449  <S**2>=0.000
       9 -> 14        -0.11478
      11 -> 16         0.67672

 Excited State  13:      Singlet-A'    11.0610 eV  112.09 nm  f=0.0145  <S**2>=0.000
      10 -> 14         0.16750
      11 -> 17         0.57082
      12 -> 18        -0.10843
      12 -> 19        -0.31267

 Excited State  14:      Singlet-A'    11.2456 eV  110.25 nm  f=0.0007  <S**2>=0.000
       9 -> 13         0.16913
      10 -> 14         0.10984
      10 -> 15         0.10207
      11 -> 17         0.26505
      12 -> 19         0.54329
      12 -> 20        -0.24588

 Excited State  15:      Singlet-A'    11.3637 eV  109.11 nm  f=0.0247  <S**2>=0.000
      11 -> 17         0.19533
      12 -> 18         0.39814
      12 -> 20         0.49922
      12 -> 22         0.12545

 Excited State  16:      Singlet-A"    11.6476 eV  106.45 nm  f=0.0018  <S**2>=0.000
       8 -> 13         0.21868
      11 -> 18         0.54569
      11 -> 19        -0.16463
      11 -> 20        -0.29201

 Excited State  17:      Singlet-A"    11.6980 eV  105.99 nm  f=0.0065  <S**2>=0.000
       8 -> 13         0.22380
      12 -> 17        -0.13091
      12 -> 21         0.63918

 Excited State  18:      Singlet-A"    11.8510 eV  104.62 nm  f=0.0096  <S**2>=0.000
       8 -> 13         0.60693
      11 -> 18        -0.20434
      12 -> 21        -0.24344

 Excited State  19:      Singlet-A'    11.8719 eV  104.44 nm  f=0.1524  <S**2>=0.000
       9 -> 13         0.40774
      10 -> 15         0.49633
      12 -> 19        -0.19416

 Excited State  20:      Singlet-A"    12.0655 eV  102.76 nm  f=0.0028  <S**2>=0.000
       9 -> 14        -0.31680
       9 -> 15         0.17205
      11 -> 18         0.26074
      11 -> 19         0.50722
      11 -> 20         0.15780

 Excited State  21:      Singlet-A'    12.0978 eV  102.48 nm  f=0.0285  <S**2>=0.000
       9 -> 13         0.48843
      10 -> 15        -0.46902

 Excited State  22:      Singlet-A"    12.4132 eV   99.88 nm  f=0.0064  <S**2>=0.000
       7 -> 13         0.64378
      11 -> 19        -0.17365
      11 -> 20         0.13166
      12 -> 23        -0.10331

 Excited State  23:      Singlet-A"    12.4346 eV   99.71 nm  f=0.0281  <S**2>=0.000
       9 -> 14         0.50213
      11 -> 18         0.18711
      11 -> 19         0.10404
      11 -> 20         0.41094

 Excited State  24:      Singlet-A'    12.4906 eV   99.26 nm  f=0.0550  <S**2>=0.000
      11 -> 21        -0.11898
      12 -> 22         0.66849

 Excited State  25:      Singlet-A"    12.5738 eV   98.61 nm  f=0.0198  <S**2>=0.000
       7 -> 13        -0.20416
       9 -> 14        -0.31120
      11 -> 19        -0.36825
      11 -> 20         0.41041

 Excited State  26:      Singlet-A"    12.8356 eV   96.59 nm  f=0.0001  <S**2>=0.000
       7 -> 13         0.12083
      10 -> 17        -0.21739
      12 -> 23         0.64623

 Excited State  27:      Singlet-A'    12.8866 eV   96.21 nm  f=0.0029  <S**2>=0.000
       8 -> 14         0.26710
      10 -> 16         0.45293
      11 -> 21         0.43069

 Excited State  28:      Singlet-A"    13.0659 eV   94.89 nm  f=0.0057  <S**2>=0.000
      10 -> 17         0.65887
      12 -> 23         0.21691

 Excited State  29:      Singlet-A'    13.0672 eV   94.88 nm  f=0.0189  <S**2>=0.000
       8 -> 14        -0.32162
       9 -> 13        -0.10036
      10 -> 16        -0.26798
      10 -> 20        -0.12031
      11 -> 21         0.47912
      12 -> 24         0.13470

 Excited State  30:      Singlet-A"    13.3078 eV   93.17 nm  f=0.0231  <S**2>=0.000
       9 -> 15         0.64266
      11 -> 19        -0.16403
      11 -> 22         0.18806

 Excited State  31:      Singlet-A'    13.4819 eV   91.96 nm  f=0.0210  <S**2>=0.000
       7 -> 14         0.10426
       8 -> 14         0.32948
       8 -> 15        -0.12891
      10 -> 16        -0.13646
      10 -> 19         0.15192
      11 -> 23        -0.14067
      12 -> 24         0.51376

 Excited State  32:      Singlet-A"    13.5084 eV   91.78 nm  f=0.0002  <S**2>=0.000
       9 -> 15        -0.19544
       9 -> 18        -0.11797
      11 -> 22         0.64744

 Excited State  33:      Singlet-A'    13.5107 eV   91.77 nm  f=0.0168  <S**2>=0.000
       8 -> 14        -0.35893
       8 -> 15         0.12499
      10 -> 16         0.33473
      10 -> 18        -0.18667
      10 -> 20         0.12790
      12 -> 24         0.38284

 Excited State  34:      Singlet-A'    13.8884 eV   89.27 nm  f=0.1031  <S**2>=0.000
       8 -> 16        -0.13991
      10 -> 16         0.11795
      10 -> 18         0.50658
      10 -> 19        -0.11060
      11 -> 21        -0.12994
      11 -> 23         0.34720

 Excited State  35:      Singlet-A'    14.0524 eV   88.23 nm  f=0.0075  <S**2>=0.000
       7 -> 14         0.22836
       8 -> 14         0.14053
       8 -> 15         0.17927
      10 -> 16        -0.15882
      10 -> 18        -0.28014
      10 -> 19        -0.10870
      11 -> 23         0.48703
      12 -> 27        -0.10634

 Excited State  36:      Singlet-A'    14.1244 eV   87.78 nm  f=0.0438  <S**2>=0.000
       7 -> 14         0.10349
       8 -> 14        -0.14341
       8 -> 15        -0.39500
      10 -> 19         0.40143
      10 -> 20         0.24664
      11 -> 23         0.22120

 Excited State  37:      Singlet-A"    14.2893 eV   86.77 nm  f=0.0198  <S**2>=0.000
       9 -> 16        -0.30575
      11 -> 24         0.58951
      11 -> 27         0.11101

 Excited State  38:      Singlet-A'    14.4210 eV   85.97 nm  f=0.0397  <S**2>=0.000
       7 -> 14         0.56173
       9 -> 17        -0.26984
      10 -> 20        -0.10809
      11 -> 23        -0.12698
      12 -> 25         0.17074

 Excited State  39:      Singlet-A'    14.5090 eV   85.45 nm  f=0.0433  <S**2>=0.000
       8 -> 15         0.47213
      10 -> 18         0.21418
      10 -> 19         0.26390
      10 -> 20         0.31278
      12 -> 25         0.15549

 Excited State  40:      Singlet-A'    14.5718 eV   85.09 nm  f=0.1018  <S**2>=0.000
       8 -> 15         0.13054
       8 -> 16         0.22342
       9 -> 17        -0.21856
      10 -> 19         0.40623
      10 -> 20        -0.37544
      12 -> 25        -0.12023
      12 -> 27        -0.13017

 Excited State  41:      Singlet-A"    14.6556 eV   84.60 nm  f=0.0304  <S**2>=0.000
       8 -> 17         0.36648
      10 -> 21         0.58838

 Excited State  42:      Singlet-A'    14.6919 eV   84.39 nm  f=0.0763  <S**2>=0.000
       7 -> 14        -0.18730
       7 -> 15         0.13850
       9 -> 17        -0.23116
      10 -> 18        -0.11239
      12 -> 24         0.11269
      12 -> 25         0.55943

 Excited State  43:      Singlet-A"    14.7114 eV   84.28 nm  f=0.0187  <S**2>=0.000
       9 -> 16         0.59112
      11 -> 24         0.31805

 Excited State  44:      Singlet-A'    14.7503 eV   84.06 nm  f=0.0160  <S**2>=0.000
       7 -> 15        -0.21511
       9 -> 17         0.48657
      10 -> 16         0.10671
      10 -> 20        -0.27681
      12 -> 25         0.29646

 Excited State  45:      Singlet-A'    15.1849 eV   81.65 nm  f=0.0608  <S**2>=0.000
       7 -> 14         0.14386
       7 -> 15         0.62668
       9 -> 17         0.18538

 Excited State  46:      Singlet-A"    15.2237 eV   81.44 nm  f=0.0480  <S**2>=0.000
       6 -> 13         0.13316
       9 -> 16         0.10084
       9 -> 18         0.45818
       9 -> 19        -0.18298
       9 -> 20        -0.27565
      11 -> 25         0.22003
      12 -> 26        -0.24142

 Excited State  47:      Singlet-A"    15.3493 eV   80.77 nm  f=0.0243  <S**2>=0.000
       9 -> 18         0.17961
      10 -> 23        -0.14046
      11 -> 25         0.10209
      12 -> 26         0.64116

 Excited State  48:      Singlet-A'    15.4368 eV   80.32 nm  f=0.0976  <S**2>=0.000
       7 -> 14        -0.10289
       8 -> 16        -0.33073
       8 -> 18         0.15033
      10 -> 19         0.13114
      10 -> 20        -0.15122
      10 -> 22         0.40877
      12 -> 27         0.29292

 Excited State  49:      Singlet-A'    15.5014 eV   79.98 nm  f=0.0725  <S**2>=0.000
       8 -> 16         0.10120
       8 -> 18        -0.20652
      10 -> 22        -0.28684
      12 -> 27         0.53856

 Excited State  50:      Singlet-A"    15.5446 eV   79.76 nm  f=0.0178  <S**2>=0.000
       9 -> 18        -0.30620
       9 -> 19        -0.11020
      11 -> 25         0.59972

 Excited State  51:      Singlet-A"    15.6869 eV   79.04 nm  f=0.0000  <S**2>=0.000
       8 -> 17         0.58582
      10 -> 21        -0.36261

 Excited State  52:      Singlet-A'    15.7046 eV   78.95 nm  f=0.0008  <S**2>=0.000
       8 -> 16         0.47670
       8 -> 20         0.16360
      10 -> 18         0.15354
      10 -> 20         0.11948
      10 -> 22         0.38300

 Excited State  53:      Singlet-A"    15.7379 eV   78.78 nm  f=0.0297  <S**2>=0.000
       9 -> 18         0.18311
       9 -> 19         0.52536
       9 -> 20         0.20519
      11 -> 25         0.21572
      11 -> 27         0.23500

 Excited State  54:      Singlet-A"    15.9001 eV   77.98 nm  f=0.0008  <S**2>=0.000
       7 -> 17         0.15411
       9 -> 18        -0.10450
       9 -> 19        -0.11153
      10 -> 23         0.57355
      11 -> 27         0.24865
      12 -> 26         0.12638

 Excited State  55:      Singlet-A"    15.9918 eV   77.53 nm  f=0.0108  <S**2>=0.000
       7 -> 17        -0.12509
       9 -> 18        -0.15145
       9 -> 19        -0.15040
       9 -> 20        -0.10323
      10 -> 23        -0.27561
      11 -> 27         0.50153
      11 -> 28         0.15236
      11 -> 32        -0.16316

 Excited State  56:      Singlet-A'    16.1044 eV   76.99 nm  f=0.0013  <S**2>=0.000
       7 -> 16         0.11302
       8 -> 18        -0.15473
       8 -> 20         0.13663
       9 -> 21        -0.21389
      11 -> 26        -0.17752
      12 -> 28         0.55417
      12 -> 32        -0.12240

 Excited State  57:      Singlet-A"    16.2208 eV   76.44 nm  f=0.0258  <S**2>=0.000
       6 -> 13        -0.13473
       9 -> 18         0.21037
       9 -> 19        -0.33400
       9 -> 20         0.53489

 Excited State  58:      Singlet-A'    16.2784 eV   76.16 nm  f=0.0060  <S**2>=0.000
       8 -> 18        -0.26874
       8 -> 19         0.19576
       8 -> 20         0.14436
       9 -> 21         0.30980
      10 -> 24        -0.31775
      11 -> 26         0.36467

 Excited State  59:      Singlet-A"    16.3618 eV   75.78 nm  f=0.0217  <S**2>=0.000
       7 -> 17         0.65714
      10 -> 23        -0.20436

 Excited State  60:      Singlet-A'    16.3702 eV   75.74 nm  f=0.0616  <S**2>=0.000
       7 -> 16         0.27602
       8 -> 19        -0.21056
       8 -> 20         0.11814
       9 -> 21         0.27343
      10 -> 24         0.40786
      11 -> 26         0.25721
      12 -> 28         0.12598
      12 -> 29        -0.10401

 Excited State  61:      Singlet-A'    16.4172 eV   75.52 nm  f=0.0242  <S**2>=0.000
       7 -> 16        -0.19794
       8 -> 16         0.10905
       8 -> 18         0.15629
       8 -> 19        -0.16988
       8 -> 20        -0.21755
       9 -> 21        -0.27904
      11 -> 26         0.40816
      12 -> 28         0.18977

 Excited State  62:      Singlet-A'    16.4606 eV   75.32 nm  f=0.0019  <S**2>=0.000
       7 -> 16         0.47513
       7 -> 20         0.12557
       8 -> 19         0.20228
       9 -> 21        -0.29618
      10 -> 24        -0.12521
      11 -> 26         0.19960
      12 -> 28        -0.16873

 Excited State  63:      Singlet-A'    16.6116 eV   74.64 nm  f=0.0284  <S**2>=0.000
       7 -> 16         0.11725
       7 -> 18         0.10596
       8 -> 16         0.12408
       8 -> 18         0.37261
       8 -> 19         0.21420
       8 -> 20        -0.19318
       9 -> 21         0.27307
      10 -> 22        -0.15454
      10 -> 24        -0.13437
      11 -> 26        -0.12459
      12 -> 27         0.10280
      12 -> 28         0.15601
      12 -> 30         0.10551

 Excited State  64:      Singlet-A'    16.7662 eV   73.95 nm  f=0.0680  <S**2>=0.000
       7 -> 16        -0.25179
       7 -> 18        -0.12492
       8 -> 18         0.25457
       8 -> 19         0.32587
       8 -> 20         0.31656
      10 -> 22        -0.17559
      10 -> 24         0.21232
      11 -> 26         0.11530

 Excited State  65:      Singlet-A'    16.8554 eV   73.56 nm  f=0.0001  <S**2>=0.000
       7 -> 16         0.10628
       7 -> 18         0.10714
       7 -> 19        -0.10175
       7 -> 20        -0.13722
       8 -> 19        -0.12251
       8 -> 20         0.21735
      12 -> 29         0.57483
      12 -> 30        -0.11934

 Excited State  66:      Singlet-A"    16.9602 eV   73.10 nm  f=0.0247  <S**2>=0.000
       6 -> 13         0.46425
       8 -> 21        -0.17030
       9 -> 20         0.11588
      12 -> 31        -0.44958

 Excited State  67:      Singlet-A"    17.0082 eV   72.90 nm  f=0.0032  <S**2>=0.000
       9 -> 22         0.60208
      11 -> 27        -0.10857
      11 -> 28         0.27806

 Excited State  68:      Singlet-A'    17.0124 eV   72.88 nm  f=0.0461  <S**2>=0.000
       7 -> 18         0.10596
       8 -> 18         0.20399
       8 -> 19        -0.25750
       8 -> 20         0.37192
      10 -> 24        -0.24688
      12 -> 29        -0.33912

 Excited State  69:      Singlet-A'    17.1625 eV   72.24 nm  f=0.0330  <S**2>=0.000
       7 -> 18         0.48506
       7 -> 19        -0.10292
       7 -> 20        -0.25350
       8 -> 19         0.15649
      10 -> 24         0.12376
      12 -> 27        -0.10881
      12 -> 28        -0.13260
      12 -> 30         0.13580
      12 -> 32        -0.16459

 Excited State  70:      Singlet-A"    17.1642 eV   72.23 nm  f=0.0185  <S**2>=0.000
       6 -> 13         0.16008
       8 -> 21         0.65511

 Excited State  71:      Singlet-A'    17.3299 eV   71.54 nm  f=0.0327  <S**2>=0.000
       7 -> 18        -0.12334
       8 -> 19        -0.10603
       9 -> 23        -0.35482
      10 -> 25        -0.14598
      12 -> 28        -0.10889
      12 -> 29         0.12718
      12 -> 30         0.45240
      12 -> 32        -0.19455

 Excited State  72:      Singlet-A"    17.3426 eV   71.49 nm  f=0.0113  <S**2>=0.000
       6 -> 13         0.28879
       9 -> 20         0.12118
       9 -> 22        -0.25994
      11 -> 27        -0.12023
      11 -> 28         0.47347
      11 -> 32        -0.10190
      12 -> 31         0.22485

 Excited State  73:      Singlet-A"    17.3751 eV   71.36 nm  f=0.2014  <S**2>=0.000
       6 -> 13         0.26005
       8 -> 23        -0.10392
       9 -> 20         0.10504
       9 -> 22         0.10474
       9 -> 24         0.17511
      11 -> 27         0.12212
      11 -> 28        -0.31897
      12 -> 31         0.46615

 Excited State  74:      Singlet-A'    17.4536 eV   71.04 nm  f=0.0271  <S**2>=0.000
       7 -> 19         0.12260
       8 -> 19        -0.17508
       8 -> 22         0.11128
       9 -> 23         0.46704
      10 -> 25         0.17666
      11 -> 31        -0.10800
      12 -> 28        -0.10254
      12 -> 30         0.21166
      12 -> 32        -0.25749

 Excited State  75:      Singlet-A'    17.5892 eV   70.49 nm  f=0.0257  <S**2>=0.000
       7 -> 18         0.24326
       7 -> 19         0.47524
       7 -> 20         0.23772
       8 -> 22        -0.20201
      10 -> 25        -0.22042
      12 -> 32         0.13152

 Excited State  76:      Singlet-A'    17.6868 eV   70.10 nm  f=0.0826  <S**2>=0.000
       7 -> 18         0.18099
       7 -> 19         0.22886
       8 -> 22         0.17047
       9 -> 23        -0.28607
      10 -> 24         0.10629
      10 -> 25         0.47493

 Excited State  77:      Singlet-A"    17.8016 eV   69.65 nm  f=0.0288  <S**2>=0.000
       8 -> 23         0.10889
       9 -> 24         0.56925
       9 -> 27         0.10357
      11 -> 27        -0.10533
      11 -> 30         0.26717
      11 -> 32        -0.10149

 Excited State  78:      Singlet-A'    17.8525 eV   69.45 nm  f=0.0047  <S**2>=0.000
       7 -> 19        -0.12136
       8 -> 22        -0.29613
      10 -> 25         0.33410
      10 -> 27         0.17508
      10 -> 28         0.12094
      12 -> 30         0.28603
      12 -> 32         0.33260

 Excited State  79:      Singlet-A"    18.0851 eV   68.56 nm  f=0.0004  <S**2>=0.000
       9 -> 22         0.10338
      11 -> 29         0.67610

 Excited State  80:      Singlet-A'    18.0866 eV   68.55 nm  f=0.0545  <S**2>=0.000
       6 -> 14         0.31784
       7 -> 20        -0.12790
       8 -> 22         0.34496
       8 -> 24         0.10306
      10 -> 25        -0.11887
      10 -> 27        -0.13481
      12 -> 30         0.22553
      12 -> 32         0.32038

 Excited State  81:      Singlet-A'    18.1105 eV   68.46 nm  f=0.0460  <S**2>=0.000
       6 -> 14        -0.20920
       7 -> 18        -0.13010
       7 -> 19         0.24363
       7 -> 20        -0.28988
       8 -> 22         0.18821
      10 -> 27         0.42171
      10 -> 28         0.12017
      10 -> 32        -0.12978
      11 -> 31        -0.10472

 Excited State  82:      Singlet-A"    18.1233 eV   68.41 nm  f=0.0043  <S**2>=0.000
       8 -> 23         0.11144
       9 -> 24         0.23981
      10 -> 26         0.13012
      11 -> 27         0.12752
      11 -> 28         0.15539
      11 -> 30        -0.41160
      11 -> 32         0.42396

 Excited State  83:      Singlet-A'    18.1353 eV   68.37 nm  f=0.0626  <S**2>=0.000
       6 -> 14        -0.18319
       7 -> 18         0.20047
       7 -> 19        -0.22466
       7 -> 20         0.40323
       8 -> 22         0.34407
      10 -> 27         0.17836

 Excited State  84:      Singlet-A"    18.2220 eV   68.04 nm  f=0.0194  <S**2>=0.000
       7 -> 21         0.61981
       7 -> 23         0.10031
       8 -> 23         0.17205
      10 -> 26         0.22335

 Excited State  85:      Singlet-A'    18.2867 eV   67.80 nm  f=0.0678  <S**2>=0.000
       6 -> 14        -0.40801
      10 -> 27        -0.15416
      11 -> 31         0.49849

 Excited State  86:      Singlet-A"    18.3244 eV   67.66 nm  f=0.1509  <S**2>=0.000
       6 -> 13         0.13004
       7 -> 21        -0.29428
       8 -> 23         0.40491
       9 -> 24        -0.13939
      10 -> 26         0.40460

 Excited State  87:      Singlet-A"    18.4936 eV   67.04 nm  f=0.0002  <S**2>=0.000
       7 -> 23        -0.13692
       8 -> 23         0.31897
      10 -> 26        -0.32036
      11 -> 27         0.10239

 The electronic state is 1-A'.
 Alpha  occ. eigenvalues --  -19.28571 -19.23035 -10.41631  -1.20752  -1.11627
 Alpha  occ. eigenvalues --   -0.75563  -0.61180  -0.57448  -0.54368  -0.49201
 Alpha  occ. eigenvalues --   -0.41687  -0.37555
 Alpha virt. eigenvalues --    0.03157   0.04108   0.06579   0.11018   0.11328
 Alpha virt. eigenvalues --    0.14498   0.15264   0.16805   0.17010   0.20111
 Alpha virt. eigenvalues --    0.23340   0.24590   0.28301   0.31090   0.32165

 Mulliken charges:
               1
     1  O   -0.187857
     2  C    0.650614
     3  O   -0.277383
     4  H    0.149669
     5  H   -0.335044
 Sum of Mulliken charges =  -0.00000

 Dipole moment (field-independent basis, Debye):
    X=             -1.5621    Y=             -0.2716    Z=             -0.0000  Tot=              1.5855
 Quadrupole moment (field-independent basis, Debye-Ang):
   XX=            -22.6252   YY=            -13.0501   ZZ=            -17.2780
   XY=             -0.0394   XZ=              0.0000   YZ=             -0.0000

 Normal termination of Gaussian 16 at Mon Mar 21 20:11:21 2022.
