 Gaussian 16, Revision C.01,
 Gaussian 16:  EM64L-G16RevC.01  3-Jul-2019

 ----------------------------------------------------------------------
 #P TD(Nstates=10000) cam-b3lyp/Gen SCF(maxcycles=100) Int(Grid=ultrafi
 ne)
 ----------------------------------------------------------------------

 ---------------------
 xGDB7_00001_tier4.com
 ---------------------
 Symbolic Z-matrix:
 Charge =  0 Multiplicity = 1

                         Standard orientation:
 ---------------------------------------------------------------------
 Center     Atomic      Atomic             Coordinates (Angstroms)
 Number     Number       Type             X           Y           Z
 ---------------------------------------------------------------------
      1          6           0        0.630149   -0.000001   -0.000003
      2          9           0       -0.748512    0.000002    0.000001
      3          1           0        0.985250    0.897475   -0.509314
      4          1           0        0.985222   -0.889832   -0.522562
      5          1           0        0.985245   -0.007652    1.031883
 ---------------------------------------------------------------------

 SCF Done:  E(RCAM-B3LYP) =  -139.597112434     A.U. after   11 cycles

 Excitation energies and oscillator strengths:

 Excited State   1:      Singlet-A      9.3429 eV  132.70 nm  f=0.0192  <S**2>=0.000
       9 -> 10         0.63937
       9 -> 11        -0.28437
 This state for optimization and/or second-order correction.
 Total Energy, E(TD-HF/TD-DFT) =  -139.253768676
 Copying the excited state density for this state as the 1-particle RhoCI density.

 Excited State   2:      Singlet-A      9.3429 eV  132.70 nm  f=0.0192  <S**2>=0.000
       8 -> 10         0.63936
       8 -> 11        -0.28437

 Excited State   3:      Singlet-A      9.9998 eV  123.99 nm  f=0.0288  <S**2>=0.000
       9 -> 10         0.28971
       9 -> 11         0.62989

 Excited State   4:      Singlet-A      9.9998 eV  123.99 nm  f=0.0288  <S**2>=0.000
       8 -> 10         0.28972
       8 -> 11         0.62988

 Excited State   5:      Singlet-A     11.4328 eV  108.45 nm  f=0.0382  <S**2>=0.000
       8 -> 12         0.30354
       8 -> 13         0.39173
       9 -> 12         0.39271
       9 -> 13        -0.30347

 Excited State   6:      Singlet-A     11.4328 eV  108.45 nm  f=0.0382  <S**2>=0.000
       8 -> 12        -0.39216
       8 -> 13         0.30312
       9 -> 12         0.30388
       9 -> 13         0.39228

 Excited State   7:      Singlet-A     11.4633 eV  108.16 nm  f=0.0000  <S**2>=0.000
       8 -> 13         0.49225
       9 -> 12        -0.49100

 Excited State   8:      Singlet-A     11.6807 eV  106.14 nm  f=0.1161  <S**2>=0.000
       8 -> 12         0.48597
       9 -> 13         0.48592

 Excited State   9:      Singlet-A     12.3971 eV  100.01 nm  f=0.0000  <S**2>=0.000
       8 -> 15        -0.49393
       9 -> 16         0.49399

 Excited State  10:      Singlet-A     12.4758 eV   99.38 nm  f=0.0345  <S**2>=0.000
       7 -> 10        -0.15246
       7 -> 11         0.13974
       8 -> 16        -0.13661
       9 -> 14         0.62932
       9 -> 15         0.13664

 Excited State  11:      Singlet-A     12.4759 eV   99.38 nm  f=0.0345  <S**2>=0.000
       6 -> 10        -0.15245
       6 -> 11         0.13973
       8 -> 14         0.62931
       8 -> 15        -0.13681
       9 -> 16        -0.13652

 Excited State  12:      Singlet-A     12.8079 eV   96.80 nm  f=0.0055  <S**2>=0.000
       8 -> 16         0.48513
       9 -> 15         0.48618

 Excited State  13:      Singlet-A     12.8390 eV   96.57 nm  f=0.1095  <S**2>=0.000
       8 -> 14         0.20140
       8 -> 15         0.36574
       8 -> 16         0.27460
       9 -> 15        -0.27399
       9 -> 16         0.36576

 Excited State  14:      Singlet-A     12.8390 eV   96.57 nm  f=0.1095  <S**2>=0.000
       8 -> 15        -0.27428
       8 -> 16         0.36623
       9 -> 14         0.20135
       9 -> 15        -0.36529
       9 -> 16        -0.27430

 Excited State  15:      Singlet-A     13.2935 eV   93.27 nm  f=0.1203  <S**2>=0.000
       7 -> 10         0.64462
       7 -> 11        -0.12590
       9 -> 14         0.14967

 Excited State  16:      Singlet-A     13.2935 eV   93.27 nm  f=0.1203  <S**2>=0.000
       6 -> 10         0.64461
       6 -> 11        -0.12589
       8 -> 14         0.14965

 Excited State  17:      Singlet-A     13.4194 eV   92.39 nm  f=0.0000  <S**2>=0.000
       8 -> 18        -0.48547
       9 -> 17         0.48718

 Excited State  18:      Singlet-A     13.4474 eV   92.20 nm  f=0.0136  <S**2>=0.000
       7 -> 10        -0.11180
       8 -> 17         0.46333
       9 -> 18        -0.46329

 Excited State  19:      Singlet-A     13.4474 eV   92.20 nm  f=0.0136  <S**2>=0.000
       6 -> 10        -0.11187
       8 -> 18         0.46416
       9 -> 17         0.46244

 Excited State  20:      Singlet-A     13.5402 eV   91.57 nm  f=0.0114  <S**2>=0.000
       5 -> 10         0.66699
       5 -> 11        -0.16689

 Excited State  21:      Singlet-A     13.8515 eV   89.51 nm  f=0.0031  <S**2>=0.000
       7 -> 10         0.16016
       7 -> 11         0.64008
       9 -> 19         0.11775
       9 -> 20        -0.10543

 Excited State  22:      Singlet-A     13.8516 eV   89.51 nm  f=0.0031  <S**2>=0.000
       6 -> 10         0.16015
       6 -> 11         0.64008
       8 -> 19         0.11776
       8 -> 20        -0.10543

 Excited State  23:      Singlet-A     13.9096 eV   89.14 nm  f=0.0061  <S**2>=0.000
       5 -> 11        -0.39338
       8 -> 17         0.39404
       9 -> 18         0.39406

 Excited State  24:      Singlet-A     14.6628 eV   84.56 nm  f=0.4846  <S**2>=0.000
       5 -> 10         0.19496
       5 -> 11         0.53136
       5 -> 14         0.12230
       8 -> 17         0.25495
       9 -> 18         0.25495

 Excited State  25:      Singlet-A     15.0836 eV   82.20 nm  f=0.0059  <S**2>=0.000
       5 -> 13        -0.16655
       6 -> 12        -0.17941
       7 -> 11        -0.10640
       7 -> 13         0.17940
       9 -> 19         0.50500
       9 -> 20        -0.31416

 Excited State  26:      Singlet-A     15.0836 eV   82.20 nm  f=0.0059  <S**2>=0.000
       5 -> 12        -0.16652
       6 -> 11        -0.10639
       6 -> 13        -0.17943
       7 -> 12        -0.17954
       8 -> 19         0.50497
       8 -> 20        -0.31413

 Excited State  27:      Singlet-A     15.3003 eV   81.03 nm  f=0.0000  <S**2>=0.000
       6 -> 12         0.13422
       6 -> 13        -0.46291
       7 -> 12         0.46414
       7 -> 13         0.13426

 Excited State  28:      Singlet-A     15.3257 eV   80.90 nm  f=0.0561  <S**2>=0.000
       6 -> 12         0.27150
       6 -> 13         0.34409
       7 -> 12         0.34307
       7 -> 13        -0.27182
       8 -> 19         0.20598
       8 -> 20        -0.14394

 Excited State  29:      Singlet-A     15.3257 eV   80.90 nm  f=0.0561  <S**2>=0.000
       6 -> 12         0.34374
       6 -> 13        -0.27209
       7 -> 12        -0.27122
       7 -> 13        -0.34349
       9 -> 19         0.20590
       9 -> 20        -0.14390

 Excited State  30:      Singlet-A     15.4248 eV   80.38 nm  f=0.0292  <S**2>=0.000
       5 -> 12         0.51968
       5 -> 13        -0.43022

 Excited State  31:      Singlet-A     15.4248 eV   80.38 nm  f=0.0292  <S**2>=0.000
       5 -> 12         0.43023
       5 -> 13         0.51967

 Excited State  32:      Singlet-A     15.8444 eV   78.25 nm  f=0.0010  <S**2>=0.000
       6 -> 12         0.44273
       6 -> 13         0.12822
       6 -> 16         0.11853
       7 -> 12        -0.12820
       7 -> 13         0.44269
       7 -> 15         0.11855

 Excited State  33:      Singlet-A     16.1673 eV   76.69 nm  f=0.0323  <S**2>=0.000
       6 -> 16        -0.10147
       7 -> 14         0.37844
       7 -> 15         0.10147
       9 -> 19         0.30971
       9 -> 20         0.44988

 Excited State  34:      Singlet-A     16.1674 eV   76.69 nm  f=0.0323  <S**2>=0.000
       6 -> 14         0.37839
       6 -> 15        -0.10148
       7 -> 16        -0.10153
       8 -> 19         0.30972
       8 -> 20         0.44989

 Excited State  35:      Singlet-A     16.2471 eV   76.31 nm  f=0.0000  <S**2>=0.000
       6 -> 15         0.47204
       7 -> 16        -0.47203

 Excited State  36:      Singlet-A     16.4487 eV   75.38 nm  f=0.0010  <S**2>=0.000
       5 -> 14        -0.36251
       6 -> 16         0.40383
       7 -> 15         0.40399

 Excited State  37:      Singlet-A     16.5162 eV   75.07 nm  f=0.0478  <S**2>=0.000
       5 -> 15         0.65810
       5 -> 18        -0.11643
       6 -> 16        -0.11867
       7 -> 15         0.11867

 Excited State  38:      Singlet-A     16.5163 eV   75.07 nm  f=0.0478  <S**2>=0.000
       5 -> 16         0.65817
       5 -> 17        -0.11645
       6 -> 15        -0.11856
       7 -> 16        -0.11848

 Excited State  39:      Singlet-A     16.7471 eV   74.03 nm  f=0.1720  <S**2>=0.000
       5 -> 15        -0.12458
       6 -> 15         0.11659
       6 -> 16        -0.26547
       7 -> 14         0.33012
       7 -> 15         0.26541
       7 -> 16         0.11658
       9 -> 19        -0.21828
       9 -> 20        -0.32514

 Excited State  40:      Singlet-A     16.7471 eV   74.03 nm  f=0.1723  <S**2>=0.000
       5 -> 16        -0.12451
       6 -> 14         0.32969
       6 -> 15        -0.26573
       6 -> 16        -0.11677
       7 -> 15         0.11677
       7 -> 16        -0.26568
       8 -> 19        -0.21821
       8 -> 20        -0.32498

 Excited State  41:      Singlet-A     16.7958 eV   73.82 nm  f=0.1125  <S**2>=0.000
       5 -> 15         0.11663
       6 -> 14        -0.12352
       6 -> 15        -0.21307
       6 -> 16         0.19528
       7 -> 14         0.43042
       7 -> 15        -0.19523
       7 -> 16        -0.21312
       9 -> 20        -0.15674

 Excited State  42:      Singlet-A     16.7958 eV   73.82 nm  f=0.1123  <S**2>=0.000
       5 -> 16         0.11639
       6 -> 14         0.43075
       6 -> 15         0.19501
       6 -> 16         0.21310
       7 -> 14         0.12337
       7 -> 15        -0.21298
       7 -> 16         0.19503
       8 -> 20        -0.15701

 Excited State  43:      Singlet-A     16.8501 eV   73.58 nm  f=0.0249  <S**2>=0.000
       6 -> 15        -0.15863
       6 -> 18        -0.18480
       7 -> 16        -0.15870
       7 -> 17        -0.18499
       8 -> 21        -0.36289
       8 -> 22         0.21200
       9 -> 21         0.21228
       9 -> 22         0.36308

 Excited State  44:      Singlet-A     16.8501 eV   73.58 nm  f=0.0250  <S**2>=0.000
       6 -> 16        -0.15871
       6 -> 17        -0.18486
       7 -> 15         0.15870
       7 -> 18         0.18489
       8 -> 21         0.21215
       8 -> 22         0.36288
       9 -> 21         0.36307
       9 -> 22        -0.21210

 Excited State  45:      Singlet-A     16.8850 eV   73.43 nm  f=0.0080  <S**2>=0.000
       5 -> 14         0.55234
       6 -> 16         0.23356
       6 -> 17         0.13389
       7 -> 15         0.23350
       7 -> 18         0.13385

 Excited State  46:      Singlet-A     16.9234 eV   73.26 nm  f=0.0000  <S**2>=0.000
       6 -> 18        -0.22301
       7 -> 17         0.22282
       8 -> 21        -0.24928
       8 -> 22         0.35200
       9 -> 21        -0.35165
       9 -> 22        -0.24907

 Excited State  47:      Singlet-A     17.0506 eV   72.72 nm  f=0.4028  <S**2>=0.000
       6 -> 17        -0.18300
       7 -> 18        -0.18295
       8 -> 21         0.37191
       8 -> 22         0.26343
       9 -> 21        -0.26336
       9 -> 22         0.37189

 Excited State  48:      Singlet-A     17.4231 eV   71.16 nm  f=0.0005  <S**2>=0.000
       5 -> 16         0.12365
       5 -> 17         0.56801
       8 -> 23         0.35647

 Excited State  49:      Singlet-A     17.4231 eV   71.16 nm  f=0.0005  <S**2>=0.000
       5 -> 15         0.12362
       5 -> 18         0.56773
       9 -> 23         0.35681

 Excited State  50:      Singlet-A     17.4965 eV   70.86 nm  f=0.0150  <S**2>=0.000
       5 -> 18        -0.38017
       9 -> 23         0.56532

 Excited State  51:      Singlet-A     17.4965 eV   70.86 nm  f=0.0149  <S**2>=0.000
       5 -> 17        -0.37981
       8 -> 23         0.56547

 Excited State  52:      Singlet-A     17.4996 eV   70.85 nm  f=0.0000  <S**2>=0.000
       6 -> 17         0.10093
       6 -> 18        -0.42378
       7 -> 17         0.42418
       7 -> 18         0.10108
       8 -> 21         0.13468
       8 -> 22        -0.19030
       9 -> 21         0.19022
       9 -> 22         0.13481

 Excited State  53:      Singlet-A     17.5502 eV   70.65 nm  f=0.0568  <S**2>=0.000
       6 -> 18         0.40728
       7 -> 17         0.40646
       8 -> 21        -0.17884
       8 -> 22         0.12709
       8 -> 23         0.10832
       9 -> 21         0.12675
       9 -> 22         0.17857

 Excited State  54:      Singlet-A     17.5502 eV   70.65 nm  f=0.0568  <S**2>=0.000
       6 -> 17        -0.40683
       7 -> 18         0.40691
       8 -> 21        -0.12691
       8 -> 22        -0.17873
       9 -> 21        -0.17865
       9 -> 22         0.12697
       9 -> 23        -0.10815

 Excited State  55:      Singlet-A     17.7500 eV   69.85 nm  f=0.0022  <S**2>=0.000
       5 -> 14        -0.16622
       5 -> 19        -0.12597
       5 -> 20         0.13700
       6 -> 17         0.41316
       7 -> 18         0.41312
       8 -> 21         0.13759
       9 -> 22         0.13759

 Excited State  56:      Singlet-A     18.2196 eV   68.05 nm  f=0.0026  <S**2>=0.000
       9 -> 24         0.69850

 Excited State  57:      Singlet-A     18.2197 eV   68.05 nm  f=0.0026  <S**2>=0.000
       8 -> 24         0.69850

 Excited State  58:      Singlet-A     18.4053 eV   67.36 nm  f=0.0000  <S**2>=0.000
       8 -> 25         0.48576
       9 -> 26         0.48584

 Excited State  59:      Singlet-A     18.5507 eV   66.84 nm  f=0.0324  <S**2>=0.000
       7 -> 19        -0.19133
       8 -> 25         0.28268
       8 -> 26         0.35466
       9 -> 25         0.35490
       9 -> 26        -0.28268

 Excited State  60:      Singlet-A     18.5507 eV   66.84 nm  f=0.0324  <S**2>=0.000
       6 -> 19         0.19130
       8 -> 25         0.35484
       8 -> 26        -0.28263
       9 -> 25        -0.28275
       9 -> 26        -0.35474

 Excited State  61:      Singlet-A     18.6709 eV   66.40 nm  f=0.0493  <S**2>=0.000
       4 -> 10         0.14342
       8 -> 26         0.46293
       9 -> 25        -0.46267

 Excited State  62:      Singlet-A     18.9435 eV   65.45 nm  f=0.0042  <S**2>=0.000
       7 -> 19         0.54262
       7 -> 20        -0.33715
       8 -> 26         0.13810
       9 -> 23         0.11557
       9 -> 25         0.13806

 Excited State  63:      Singlet-A     18.9436 eV   65.45 nm  f=0.0042  <S**2>=0.000
       6 -> 19         0.54263
       6 -> 20        -0.33715
       8 -> 23         0.11557
       8 -> 25        -0.13807
       9 -> 26         0.13806

 Excited State  64:      Singlet-A     19.2580 eV   64.38 nm  f=0.0041  <S**2>=0.000
       4 -> 10         0.65006
       4 -> 11        -0.12179
       5 -> 19         0.16307

 Excited State  65:      Singlet-A     19.5581 eV   63.39 nm  f=0.0174  <S**2>=0.000
       4 -> 11         0.32267
       5 -> 19        -0.21770
       8 -> 27         0.36951
       8 -> 28         0.14878
       9 -> 27         0.14889
       9 -> 28        -0.36950

 Excited State  66:      Singlet-A     19.5821 eV   63.32 nm  f=0.0000  <S**2>=0.000
       8 -> 27        -0.18496
       8 -> 28         0.45902
       9 -> 27         0.45943
       9 -> 28         0.18499

 Excited State  67:      Singlet-A     19.6849 eV   62.98 nm  f=0.0764  <S**2>=0.000
       8 -> 27        -0.32890
       8 -> 28         0.36066
       9 -> 27        -0.36033
       9 -> 28        -0.32884

 Excited State  68:      Singlet-A     19.6849 eV   62.98 nm  f=0.0764  <S**2>=0.000
       8 -> 27         0.36047
       8 -> 28         0.32900
       9 -> 27        -0.32874
       9 -> 28         0.36053

 Excited State  69:      Singlet-A     19.9052 eV   62.29 nm  f=0.1692  <S**2>=0.000
       4 -> 11         0.52735
       4 -> 14        -0.10382
       5 -> 19         0.38478
       8 -> 27        -0.10927
       9 -> 28         0.10927

 Excited State  70:      Singlet-A     20.0299 eV   61.90 nm  f=0.0122  <S**2>=0.000
       7 -> 19         0.10700
       7 -> 20         0.26014
       9 -> 29         0.63392

 Excited State  71:      Singlet-A     20.0300 eV   61.90 nm  f=0.0122  <S**2>=0.000
       6 -> 19         0.10697
       6 -> 20         0.26009
       8 -> 29         0.63394

 Excited State  72:      Singlet-A     20.1815 eV   61.43 nm  f=0.0318  <S**2>=0.000
       7 -> 19         0.34368
       7 -> 20         0.52330
       9 -> 29        -0.28022

 Excited State  73:      Singlet-A     20.1816 eV   61.43 nm  f=0.0318  <S**2>=0.000
       6 -> 19         0.34369
       6 -> 20         0.52332
       8 -> 29        -0.28017

 Excited State  74:      Singlet-A     20.3099 eV   61.05 nm  f=0.0101  <S**2>=0.000
       4 -> 10        -0.11008
       4 -> 11        -0.22961
       5 -> 19         0.40542
       5 -> 20         0.39735
       8 -> 27         0.16918
       9 -> 28        -0.16919

 Excited State  75:      Singlet-A     20.7321 eV   59.80 nm  f=0.0396  <S**2>=0.000
       4 -> 10         0.12082
       5 -> 19        -0.17382
       5 -> 20         0.47643
       6 -> 21        -0.11390
       6 -> 22        -0.11472
       6 -> 26        -0.12540
       7 -> 21         0.11478
       7 -> 22        -0.11391
       7 -> 25         0.12541
       8 -> 27        -0.14248
       8 -> 32         0.10425
       9 -> 28         0.14248
       9 -> 31         0.10425

 Excited State  76:      Singlet-A     20.8043 eV   59.60 nm  f=0.0000  <S**2>=0.000
       6 -> 21        -0.47021
       6 -> 22         0.14146
       7 -> 21         0.14184
       7 -> 22         0.47068

 Excited State  77:      Singlet-A     20.8043 eV   59.60 nm  f=0.0000  <S**2>=0.000
       6 -> 21         0.14176
       6 -> 22         0.47014
       7 -> 21         0.47075
       7 -> 22        -0.14154

 Excited State  78:      Singlet-A     20.8475 eV   59.47 nm  f=0.0000  <S**2>=0.000
       6 -> 21         0.35248
       6 -> 22        -0.35006
       7 -> 21         0.34933
       7 -> 22         0.35208

 Excited State  79:      Singlet-A     20.9051 eV   59.31 nm  f=0.0254  <S**2>=0.000
       5 -> 20         0.10739
       5 -> 23         0.13536
       6 -> 21         0.32066
       6 -> 22         0.32312
       7 -> 21        -0.32286
       7 -> 22         0.32058

 Excited State  80:      Singlet-A     20.9130 eV   59.29 nm  f=0.0002  <S**2>=0.000
       4 -> 13        -0.10503
       5 -> 21        -0.37438
       5 -> 22         0.31062
       7 -> 23        -0.24277
       8 -> 30        -0.10547
       9 -> 30         0.39368

 Excited State  81:      Singlet-A     20.9131 eV   59.29 nm  f=0.0002  <S**2>=0.000
       4 -> 12        -0.10502
       5 -> 21         0.31078
       5 -> 22         0.37440
       6 -> 23        -0.24271
       8 -> 30         0.39356
       9 -> 30         0.10553

 Excited State  82:      Singlet-A     21.0093 eV   59.01 nm  f=0.1100  <S**2>=0.000
       5 -> 21         0.37511
       5 -> 22        -0.31298
       7 -> 23        -0.26569
       8 -> 30        -0.10129
       9 -> 30         0.38166

 Excited State  83:      Singlet-A     21.0093 eV   59.01 nm  f=0.1100  <S**2>=0.000
       5 -> 21        -0.31284
       5 -> 22        -0.37509
       6 -> 23        -0.26573
       8 -> 30         0.38178
       9 -> 30         0.10124

 Excited State  84:      Singlet-A     21.2246 eV   58.42 nm  f=0.0134  <S**2>=0.000
       4 -> 12         0.64397
       8 -> 30         0.21257

 Excited State  85:      Singlet-A     21.2246 eV   58.42 nm  f=0.0133  <S**2>=0.000
       4 -> 13         0.64396
       9 -> 30         0.21256

 Excited State  86:      Singlet-A     21.5382 eV   57.56 nm  f=0.0228  <S**2>=0.000
       4 -> 13        -0.16592
       7 -> 23         0.59303
       9 -> 30         0.31831

 Excited State  87:      Singlet-A     21.5382 eV   57.56 nm  f=0.0228  <S**2>=0.000
       4 -> 12        -0.16589
       6 -> 23         0.59304
       8 -> 30         0.31832

 Excited State  88:      Singlet-A     21.7321 eV   57.05 nm  f=0.0036  <S**2>=0.000
       5 -> 23         0.66674

 Excited State  89:      Singlet-A     21.9822 eV   56.40 nm  f=0.0035  <S**2>=0.000
       4 -> 16        -0.25594
       5 -> 26         0.14535
       7 -> 24         0.60983

 Excited State  90:      Singlet-A     21.9823 eV   56.40 nm  f=0.0035  <S**2>=0.000
       4 -> 15         0.25600
       5 -> 25         0.14539
       6 -> 24         0.60978

 Excited State  91:      Singlet-A     22.0897 eV   56.13 nm  f=0.0000  <S**2>=0.000
       6 -> 25         0.36101
       7 -> 26         0.36115
       8 -> 31        -0.25331
       8 -> 32        -0.22313
       9 -> 31        -0.22337
       9 -> 32         0.25346

 Excited State  92:      Singlet-A     22.1549 eV   55.96 nm  f=0.0114  <S**2>=0.000
       4 -> 15        -0.13376
       5 -> 25        -0.13178
       6 -> 25        -0.20898
       6 -> 26        -0.13038
       7 -> 25        -0.13042
       7 -> 26         0.20883
       8 -> 31         0.39643
       9 -> 32         0.39640

 Excited State  93:      Singlet-A     22.1549 eV   55.96 nm  f=0.0114  <S**2>=0.000
       4 -> 16         0.13369
       5 -> 26        -0.13180
       6 -> 25        -0.13055
       6 -> 26         0.20885
       7 -> 25         0.20894
       7 -> 26         0.13018
       8 -> 32         0.39645
       9 -> 31        -0.39642

 Excited State  94:      Singlet-A     22.2250 eV   55.79 nm  f=0.0000  <S**2>=0.000
       5 -> 24         0.54098
       6 -> 25         0.20601
       7 -> 26         0.20612
       8 -> 31         0.17861

 The electronic state is 1-A.
 Alpha  occ. eigenvalues --  -24.75848 -10.33905  -1.26159  -0.77763  -0.56781
 Alpha  occ. eigenvalues --   -0.56321  -0.56320  -0.42196  -0.42196
 Alpha virt. eigenvalues --    0.05243   0.09634   0.13138   0.13138   0.17238
 Alpha virt. eigenvalues --    0.18271   0.18272   0.20488   0.20488   0.29783
 Alpha virt. eigenvalues --    0.31814   0.33672   0.33672   0.35374   0.37777

 Mulliken charges:
               1
     1  C    0.909641
     2  F   -0.477838
     3  H   -0.143921
     4  H   -0.143939
     5  H   -0.143942
 Sum of Mulliken charges =  -0.00000

 Dipole moment (field-independent basis, Debye):
    X=              1.9210    Y=             -0.0000    Z=              0.0000  Tot=              1.9210
 Quadrupole moment (field-independent basis, Debye-Ang):
   XX=            -12.8227   YY=            -12.0314   ZZ=            -12.0315
   XY=              0.0000   XZ=              0.0000   YZ=              0.0000

 Normal termination of Gaussian 16 at Mon Mar 21 20:07:41 2022.
