 Gaussian 16, Revision C.01,
 Gaussian 16:  EM64L-G16RevC.01  3-Jul-2019

 ----------------------------------------------------------------------
 #P TD(Nstates=10000) cam-b3lyp/Gen SCF(maxcycles=100) Int(Grid=ultrafi
 ne)
 ----------------------------------------------------------------------

 ---------------------
 xGDB7_00001_tier4.com
 ---------------------
 Symbolic Z-matrix:
 Charge =  0 Multiplicity = 1

                         Standard orientation:
 ---------------------------------------------------------------------
 Center     Atomic      Atomic             Coordinates (Angstroms)
 Number     Number       Type             X           Y           Z
 ---------------------------------------------------------------------
      1          6           0       -0.049078    0.702042   -0.000000
      2          7           0       -0.049078   -0.754243    0.000000
      3          1           0        0.946109    1.166603   -0.000000
      4          1           0       -0.587574    1.062597    0.877770
      5          1           0       -0.587574    1.062597   -0.877770
      6          1           0        0.433525   -1.112175    0.812504
      7          1           0        0.433525   -1.112175   -0.812504
 ---------------------------------------------------------------------

 SCF Done:  E(RCAM-B3LYP) =  -95.7424599061     A.U. after   13 cycles

 Excitation energies and oscillator strengths:

 Excited State   1:      Singlet-A'     6.2178 eV  199.40 nm  f=0.0088  <S**2>=0.000
       9 -> 10         0.66874
       9 -> 11         0.21712
 This state for optimization and/or second-order correction.
 Total Energy, E(TD-HF/TD-DFT) =  -95.5139617816
 Copying the excited state density for this state as the 1-particle RhoCI density.

 Excited State   2:      Singlet-A'     7.4977 eV  165.36 nm  f=0.0384  <S**2>=0.000
       9 -> 10        -0.21350
       9 -> 11         0.66531

 Excited State   3:      Singlet-A"     7.9632 eV  155.70 nm  f=0.0074  <S**2>=0.000
       9 -> 12         0.69315

 Excited State   4:      Singlet-A'     8.8064 eV  140.79 nm  f=0.0789  <S**2>=0.000
       9 -> 13         0.69037
       9 -> 15        -0.10953

 Excited State   5:      Singlet-A"     9.1751 eV  135.13 nm  f=0.0000  <S**2>=0.000
       9 -> 14         0.69439

 Excited State   6:      Singlet-A'     9.6534 eV  128.44 nm  f=0.0085  <S**2>=0.000
       9 -> 15         0.67620
       9 -> 16         0.11848

 Excited State   7:      Singlet-A"     9.7981 eV  126.54 nm  f=0.0150  <S**2>=0.000
       8 -> 10         0.69904

 Excited State   8:      Singlet-A'     9.8213 eV  126.24 nm  f=0.0210  <S**2>=0.000
       9 -> 15        -0.10067
       9 -> 16         0.67276
       9 -> 18        -0.10582
       9 -> 19        -0.10299

 Excited State   9:      Singlet-A"    10.3734 eV  119.52 nm  f=0.0001  <S**2>=0.000
       9 -> 17         0.68433

 Excited State  10:      Singlet-A"    10.8697 eV  114.06 nm  f=0.0962  <S**2>=0.000
       8 -> 11         0.69313

 Excited State  11:      Singlet-A'    10.8742 eV  114.02 nm  f=0.0541  <S**2>=0.000
       7 -> 10         0.66667
       9 -> 18         0.14787
       9 -> 19         0.12074

 Excited State  12:      Singlet-A'    11.2700 eV  110.01 nm  f=0.0058  <S**2>=0.000
       7 -> 10        -0.19917
       9 -> 16         0.11612
       9 -> 18         0.45905
       9 -> 19         0.43388

 Excited State  13:      Singlet-A"    11.4869 eV  107.94 nm  f=0.0118  <S**2>=0.000
       9 -> 20         0.69234

 Excited State  14:      Singlet-A'    11.4916 eV  107.89 nm  f=0.0316  <S**2>=0.000
       6 -> 10         0.23601
       8 -> 12         0.19312
       9 -> 18        -0.40200
       9 -> 19         0.46418

 Excited State  15:      Singlet-A'    11.8523 eV  104.61 nm  f=0.1159  <S**2>=0.000
       8 -> 12         0.65798
       9 -> 18         0.14889
       9 -> 19        -0.11032

 Excited State  16:      Singlet-A'    11.8634 eV  104.51 nm  f=0.1398  <S**2>=0.000
       6 -> 10        -0.43904
       7 -> 11         0.51651

 Excited State  17:      Singlet-A"    12.0576 eV  102.83 nm  f=0.0339  <S**2>=0.000
       8 -> 13         0.69490

 Excited State  18:      Singlet-A'    12.1300 eV  102.21 nm  f=0.0411  <S**2>=0.000
       6 -> 10         0.46971
       7 -> 11         0.44824
       8 -> 14         0.13010
       9 -> 18         0.13209
       9 -> 19        -0.13125

 Excited State  19:      Singlet-A'    12.6658 eV   97.89 nm  f=0.0297  <S**2>=0.000
       8 -> 14         0.55848
       9 -> 18        -0.11346
       9 -> 21         0.34437

 Excited State  20:      Singlet-A"    12.6815 eV   97.77 nm  f=0.0221  <S**2>=0.000
       7 -> 12         0.67511
       9 -> 22         0.14339

 Excited State  21:      Singlet-A'    12.8982 eV   96.12 nm  f=0.2306  <S**2>=0.000
       6 -> 11         0.32985
       7 -> 13         0.12090
       8 -> 14        -0.25448
       9 -> 21         0.51586

 Excited State  22:      Singlet-A"    12.9800 eV   95.52 nm  f=0.0003  <S**2>=0.000
       5 -> 10        -0.26701
       5 -> 11        -0.17196
       7 -> 12        -0.10411
       7 -> 14        -0.15401
       8 -> 15        -0.38716
       8 -> 16        -0.15020
       9 -> 22         0.41382

 Excited State  23:      Singlet-A'    13.0050 eV   95.34 nm  f=0.0934  <S**2>=0.000
       6 -> 11         0.58727
       8 -> 14         0.21204
       9 -> 21        -0.25235
       9 -> 23        -0.11093

 Excited State  24:      Singlet-A"    13.0686 eV   94.87 nm  f=0.0089  <S**2>=0.000
       5 -> 10         0.11867
       7 -> 14        -0.12800
       8 -> 15        -0.28268
       8 -> 16         0.60211

 Excited State  25:      Singlet-A"    13.1270 eV   94.45 nm  f=0.1386  <S**2>=0.000
       5 -> 11         0.12206
       7 -> 12        -0.10635
       7 -> 14         0.10551
       8 -> 15         0.36710
       8 -> 16         0.15540
       9 -> 22         0.52553

 Excited State  26:      Singlet-A'    13.2970 eV   93.24 nm  f=0.0043  <S**2>=0.000
       7 -> 13         0.64282
       8 -> 17        -0.17681

 Excited State  27:      Singlet-A"    13.4419 eV   92.24 nm  f=0.0461  <S**2>=0.000
       5 -> 10         0.56978
       7 -> 14         0.13554
       8 -> 15        -0.26881
       8 -> 16        -0.21747
       9 -> 22         0.11653

 Excited State  28:      Singlet-A"    13.5003 eV   91.84 nm  f=0.0391  <S**2>=0.000
       5 -> 10        -0.13588
       6 -> 12         0.36206
       7 -> 14         0.55210
       8 -> 15        -0.13164
       8 -> 16         0.10918

 Excited State  29:      Singlet-A'    13.5522 eV   91.49 nm  f=0.2512  <S**2>=0.000
       9 -> 23         0.66607

 Excited State  30:      Singlet-A"    13.7866 eV   89.93 nm  f=0.1539  <S**2>=0.000
       5 -> 10         0.11553
       6 -> 12         0.57910
       7 -> 14        -0.31580
       8 -> 19         0.11618

 Excited State  31:      Singlet-A'    13.9013 eV   89.19 nm  f=0.0167  <S**2>=0.000
       6 -> 13        -0.36253
       7 -> 15        -0.22763
       8 -> 17         0.49430
       9 -> 24        -0.16534

 Excited State  32:      Singlet-A'    14.1530 eV   87.60 nm  f=0.0061  <S**2>=0.000
       6 -> 13        -0.21565
       8 -> 17         0.11398
       9 -> 24         0.61395
       9 -> 25        -0.10474

 Excited State  33:      Singlet-A'    14.2479 eV   87.02 nm  f=0.0515  <S**2>=0.000
       6 -> 13        -0.40275
       7 -> 15         0.47083
       7 -> 16         0.15491
       8 -> 17        -0.14473
       9 -> 24        -0.19303

 Excited State  34:      Singlet-A'    14.4435 eV   85.84 nm  f=0.0790  <S**2>=0.000
       7 -> 13        -0.11798
       7 -> 15        -0.28603
       7 -> 16         0.57296
       8 -> 14        -0.10240
       8 -> 17        -0.16311

 Excited State  35:      Singlet-A"    14.4631 eV   85.72 nm  f=0.0012  <S**2>=0.000
       5 -> 13         0.13979
       6 -> 14         0.45065
       8 -> 18         0.49228

 Excited State  36:      Singlet-A"    14.5095 eV   85.45 nm  f=0.0003  <S**2>=0.000
       5 -> 11         0.40964
       6 -> 14        -0.34503
       7 -> 17         0.11229
       8 -> 18         0.33622
       8 -> 19         0.22253

 Excited State  37:      Singlet-A'    14.5538 eV   85.19 nm  f=0.1783  <S**2>=0.000
       5 -> 12         0.18671
       6 -> 13         0.30216
       7 -> 13         0.10367
       7 -> 15         0.23444
       7 -> 16         0.27563
       8 -> 17         0.33257
       8 -> 20        -0.12046
       9 -> 25        -0.22261

 Excited State  38:      Singlet-A"    14.5865 eV   85.00 nm  f=0.0339  <S**2>=0.000
       5 -> 10        -0.16395
       5 -> 11         0.46290
       6 -> 14         0.34915
       8 -> 15        -0.11773
       8 -> 18        -0.30249

 Excited State  39:      Singlet-A'    14.8699 eV   83.38 nm  f=0.0059  <S**2>=0.000
       5 -> 12         0.15166
       6 -> 13         0.11091
       7 -> 15         0.10125
       7 -> 16         0.12303
       8 -> 17         0.10940
       9 -> 24         0.12196
       9 -> 25         0.60144

 Excited State  40:      Singlet-A"    14.8760 eV   83.35 nm  f=0.0208  <S**2>=0.000
       5 -> 11        -0.19365
       6 -> 12        -0.10495
       6 -> 14         0.13581
       7 -> 17         0.57150
       8 -> 19         0.26556

 Excited State  41:      Singlet-A'    15.1886 eV   81.63 nm  f=0.0736  <S**2>=0.000
       5 -> 12         0.25900
       6 -> 15        -0.24051
       6 -> 16        -0.27724
       8 -> 20         0.48351
       9 -> 25        -0.18129

 Excited State  42:      Singlet-A'    15.2290 eV   81.41 nm  f=0.0225  <S**2>=0.000
       5 -> 12        -0.16082
       6 -> 15         0.53165
       6 -> 16        -0.10786
       7 -> 18        -0.19156
       7 -> 19        -0.13644
       8 -> 20         0.30478

 Excited State  43:      Singlet-A"    15.2305 eV   81.41 nm  f=0.2516  <S**2>=0.000
       7 -> 17        -0.24027
       8 -> 19         0.45369
       9 -> 26         0.37004
       9 -> 27         0.15690
       9 -> 28         0.13762

 Excited State  44:      Singlet-A"    15.2737 eV   81.18 nm  f=0.0289  <S**2>=0.000
       6 -> 14        -0.11704
       6 -> 17        -0.11445
       7 -> 17         0.25127
       8 -> 19        -0.27934
       9 -> 26         0.54720

 Excited State  45:      Singlet-A'    15.4404 eV   80.30 nm  f=0.2404  <S**2>=0.000
       5 -> 12        -0.31199
       6 -> 15        -0.26195
       6 -> 16         0.41298
       7 -> 18        -0.12045
       8 -> 20         0.28628
       9 -> 30        -0.18169

 Excited State  46:      Singlet-A'    15.6167 eV   79.39 nm  f=0.1430  <S**2>=0.000
       6 -> 15         0.13572
       7 -> 18         0.63784
       8 -> 20         0.13454
       9 -> 29        -0.12135

 Excited State  47:      Singlet-A"    15.6624 eV   79.16 nm  f=0.0182  <S**2>=0.000
       6 -> 17         0.11616
       7 -> 20        -0.16435
       9 -> 26        -0.17006
       9 -> 27         0.34235
       9 -> 28         0.50299
       9 -> 31         0.15731

 Excited State  48:      Singlet-A"    15.7636 eV   78.65 nm  f=0.0436  <S**2>=0.000
       5 -> 13         0.63047
       5 -> 15        -0.11475
       7 -> 20        -0.17430
       8 -> 18        -0.14179
       8 -> 23         0.12331

 Excited State  49:      Singlet-A'    15.8440 eV   78.25 nm  f=0.0029  <S**2>=0.000
       5 -> 12         0.32193
       5 -> 14        -0.20330
       6 -> 15         0.11226
       6 -> 16         0.37970
       7 -> 15        -0.12299
       7 -> 19        -0.16980
       9 -> 29        -0.15959
       9 -> 30         0.24987

 Excited State  50:      Singlet-A"    15.8645 eV   78.15 nm  f=0.0009  <S**2>=0.000
       6 -> 17         0.60923
       7 -> 20        -0.12531
       9 -> 26         0.13169
       9 -> 27        -0.26717

 Excited State  51:      Singlet-A'    15.9674 eV   77.65 nm  f=0.0020  <S**2>=0.000
       5 -> 12        -0.18029
       5 -> 14        -0.14375
       6 -> 15        -0.10088
       6 -> 18        -0.13898
       7 -> 19        -0.30503
       9 -> 29         0.37264
       9 -> 30         0.35157
       9 -> 32        -0.10014

 Excited State  52:      Singlet-A"    15.9811 eV   77.58 nm  f=0.0048  <S**2>=0.000
       6 -> 17         0.21908
       7 -> 20        -0.10825
       9 -> 27         0.50557
       9 -> 28        -0.39357

 Excited State  53:      Singlet-A'    16.1426 eV   76.81 nm  f=0.1680  <S**2>=0.000
       5 -> 14         0.10791
       6 -> 16         0.10087
       6 -> 18         0.17368
       7 -> 19         0.46782
       9 -> 30         0.40003

 Excited State  54:      Singlet-A"    16.1847 eV   76.61 nm  f=0.0256  <S**2>=0.000
       5 -> 13         0.20608
       5 -> 15         0.17452
       6 -> 17         0.17215
       7 -> 20         0.51545
       8 -> 21         0.28863

 Excited State  55:      Singlet-A'    16.2398 eV   76.35 nm  f=0.0605  <S**2>=0.000
       5 -> 12         0.24453
       5 -> 14         0.30892
       6 -> 16         0.17339
       8 -> 22         0.11753
       9 -> 29         0.46003
       9 -> 30        -0.13046

 Excited State  56:      Singlet-A'    16.3178 eV   75.98 nm  f=0.1602  <S**2>=0.000
       5 -> 14         0.48972
       6 -> 18        -0.10349
       6 -> 19        -0.13160
       7 -> 19        -0.22225
       8 -> 22         0.10078
       9 -> 29        -0.26213
       9 -> 30         0.21649
       9 -> 32        -0.10724

 Excited State  57:      Singlet-A"    16.4203 eV   75.51 nm  f=0.1039  <S**2>=0.000
       5 -> 16        -0.20890
       7 -> 20        -0.26376
       8 -> 19         0.16293
       8 -> 21         0.55596

 Excited State  58:      Singlet-A'    16.6387 eV   74.52 nm  f=0.0328  <S**2>=0.000
       5 -> 17        -0.15120
       6 -> 18         0.47603
       6 -> 19        -0.14158
       7 -> 19        -0.16408
       8 -> 22         0.40433

 Excited State  59:      Singlet-A"    16.6630 eV   74.41 nm  f=0.0638  <S**2>=0.000
       5 -> 13        -0.10337
       5 -> 15        -0.41518
       5 -> 16        -0.17571
       7 -> 20         0.14918
       8 -> 23         0.46659

 Excited State  60:      Singlet-A'    16.8000 eV   73.80 nm  f=0.0707  <S**2>=0.000
       5 -> 14        -0.20515
       6 -> 18        -0.37262
       7 -> 19         0.13171
       7 -> 21         0.11139
       8 -> 22         0.49409

 Excited State  61:      Singlet-A"    16.8669 eV   73.51 nm  f=0.0004  <S**2>=0.000
       5 -> 15         0.35342
       5 -> 16         0.20921
       5 -> 18         0.11373
       6 -> 20        -0.22018
       8 -> 23         0.44834
       9 -> 31        -0.21340

 Excited State  62:      Singlet-A"    16.9731 eV   73.05 nm  f=0.0012  <S**2>=0.000
       5 -> 16         0.48124
       6 -> 20         0.32998
       8 -> 21         0.21149
       9 -> 31         0.26013

 Excited State  63:      Singlet-A'    17.0263 eV   72.82 nm  f=0.0336  <S**2>=0.000
       6 -> 18        -0.11053
       6 -> 19        -0.40465
       7 -> 21         0.10550
       9 -> 30         0.10480
       9 -> 32         0.45630
       9 -> 33        -0.22065

 Excited State  64:      Singlet-A'    17.0999 eV   72.51 nm  f=0.1082  <S**2>=0.000
       6 -> 19         0.42654
       7 -> 19        -0.12030
       7 -> 21        -0.26160
       8 -> 22         0.13005
       9 -> 32         0.39352

 Excited State  65:      Singlet-A"    17.1110 eV   72.46 nm  f=0.0730  <S**2>=0.000
       5 -> 15         0.27386
       5 -> 16        -0.26393
       5 -> 18         0.10444
       7 -> 20        -0.14346
       8 -> 23         0.13687
       9 -> 28        -0.18363
       9 -> 31         0.49244

 Excited State  66:      Singlet-A"    17.2883 eV   71.72 nm  f=0.0841  <S**2>=0.000
       5 -> 15         0.18963
       5 -> 16        -0.20431
       6 -> 20         0.53540
       7 -> 22        -0.13033
       9 -> 31        -0.28772

 Excited State  67:      Singlet-A"    17.5114 eV   70.80 nm  f=0.0790  <S**2>=0.000
       8 -> 24         0.67652

 Excited State  68:      Singlet-A'    17.5540 eV   70.63 nm  f=0.1365  <S**2>=0.000
       5 -> 17         0.54055
       6 -> 19        -0.12670
       7 -> 21        -0.35962
       8 -> 22         0.14180

 Excited State  69:      Singlet-A'    17.7063 eV   70.02 nm  f=0.0311  <S**2>=0.000
       4 -> 10        -0.25106
       5 -> 17         0.36513
       6 -> 19         0.15947
       7 -> 21         0.40477
       7 -> 23        -0.14654
       9 -> 34        -0.16178

 Excited State  70:      Singlet-A"    17.7159 eV   69.98 nm  f=0.0176  <S**2>=0.000
       5 -> 18        -0.19359
       6 -> 20         0.11031
       7 -> 22         0.63485

 Excited State  71:      Singlet-A'    17.9234 eV   69.17 nm  f=0.0212  <S**2>=0.000
       4 -> 10         0.10468
       7 -> 23        -0.38083
       9 -> 32         0.19799
       9 -> 33         0.51935

 Excited State  72:      Singlet-A"    17.9723 eV   68.99 nm  f=0.0003  <S**2>=0.000
       5 -> 18         0.57034
       7 -> 22         0.23920
       8 -> 23        -0.10256
       8 -> 24         0.12346
       8 -> 25         0.22992

 Excited State  73:      Singlet-A'    17.9885 eV   68.92 nm  f=0.0238  <S**2>=0.000
       7 -> 21         0.11131
       7 -> 23         0.53700
       7 -> 24         0.10813
       9 -> 32         0.15250
       9 -> 33         0.35311

 Excited State  74:      Singlet-A'    18.1544 eV   68.29 nm  f=0.0076  <S**2>=0.000
       4 -> 10         0.57389
       7 -> 21         0.14043
       9 -> 34        -0.32656

 Excited State  75:      Singlet-A"    18.1708 eV   68.23 nm  f=0.0178  <S**2>=0.000
       5 -> 18        -0.25466
       8 -> 25         0.61861

 Excited State  76:      Singlet-A'    18.3212 eV   67.67 nm  f=0.0012  <S**2>=0.000
       4 -> 10         0.18766
       5 -> 20         0.13856
       6 -> 19         0.15573
       6 -> 23        -0.10440
       7 -> 21         0.16601
       7 -> 24         0.20881
       9 -> 33        -0.10860
       9 -> 34         0.54122

 Excited State  77:      Singlet-A"    18.4180 eV   67.32 nm  f=0.0271  <S**2>=0.000
       5 -> 19         0.64008
       5 -> 21        -0.13514
       6 -> 22        -0.10985

 Excited State  78:      Singlet-A'    18.5487 eV   66.84 nm  f=0.0046  <S**2>=0.000
       5 -> 20         0.27845
       6 -> 21        -0.17090
       8 -> 26         0.59975

 Excited State  79:      Singlet-A'    18.5676 eV   66.77 nm  f=0.0536  <S**2>=0.000
       5 -> 20        -0.13903
       6 -> 21         0.57140
       7 -> 24         0.11553
       8 -> 26         0.25575
       9 -> 36        -0.12053

 Excited State  80:      Singlet-A'    18.6021 eV   66.65 nm  f=0.0325  <S**2>=0.000
       5 -> 20        -0.32387
       6 -> 21        -0.23214
       7 -> 23        -0.10721
       7 -> 24         0.50106
       8 -> 26         0.12985

 Excited State  81:      Singlet-A"    18.6730 eV   66.40 nm  f=0.0036  <S**2>=0.000
       6 -> 22         0.64806
       9 -> 35         0.20070

 Excited State  82:      Singlet-A'    18.8394 eV   65.81 nm  f=0.0847  <S**2>=0.000
       5 -> 20         0.47963
       7 -> 24         0.35342
       8 -> 26        -0.19046
       9 -> 34        -0.14566
       9 -> 36        -0.11290

 Excited State  83:      Singlet-A"    18.9034 eV   65.59 nm  f=0.0021  <S**2>=0.000
       6 -> 22        -0.16942
       9 -> 35         0.65714
       9 -> 37         0.13782

 Excited State  84:      Singlet-A'    18.9447 eV   65.45 nm  f=0.0135  <S**2>=0.000
       6 -> 21         0.10209
       6 -> 23         0.49184
       6 -> 24         0.10400
       8 -> 27        -0.16390
       8 -> 28         0.10579
       9 -> 36         0.39506

 Excited State  85:      Singlet-A'    19.0660 eV   65.03 nm  f=0.0241  <S**2>=0.000
       4 -> 11         0.62120
       8 -> 27         0.14615
       8 -> 28        -0.10104
       9 -> 36         0.17544

 Excited State  86:      Singlet-A"    19.1268 eV   64.82 nm  f=0.0092  <S**2>=0.000
       6 -> 22         0.13181
       9 -> 35        -0.10590
       9 -> 37         0.66161

 Excited State  87:      Singlet-A'    19.2158 eV   64.52 nm  f=0.0355  <S**2>=0.000
       6 -> 23        -0.34905
       7 -> 25         0.41439
       9 -> 36         0.35141

 Excited State  88:      Singlet-A"    19.3255 eV   64.16 nm  f=0.0160  <S**2>=0.000
       7 -> 27        -0.10439
       8 -> 29         0.57090
       8 -> 30        -0.33994

 Excited State  89:      Singlet-A'    19.4129 eV   63.87 nm  f=0.0572  <S**2>=0.000
       4 -> 11         0.11354
       6 -> 21        -0.11170
       6 -> 23         0.25308
       6 -> 24        -0.29563
       6 -> 25         0.17574
       7 -> 25         0.43420
       9 -> 36        -0.22129
       9 -> 38        -0.10101

 Excited State  90:      Singlet-A'    19.6444 eV   63.11 nm  f=0.1217  <S**2>=0.000
       4 -> 11        -0.11276
       6 -> 24         0.12236
       7 -> 29        -0.12673
       8 -> 27         0.57710
       8 -> 28         0.27728

 Excited State  91:      Singlet-A"    19.6494 eV   63.10 nm  f=0.0421  <S**2>=0.000
       4 -> 12        -0.25222
       7 -> 26         0.49845
       8 -> 29        -0.24872
       8 -> 30        -0.29509

 Excited State  92:      Singlet-A'    19.6645 eV   63.05 nm  f=0.2295  <S**2>=0.000
       4 -> 11         0.10080
       6 -> 23        -0.10094
       6 -> 24        -0.38897
       7 -> 25        -0.18985
       8 -> 28         0.46710

 Excited State  93:      Singlet-A"    19.6918 eV   62.96 nm  f=0.0393  <S**2>=0.000
       5 -> 21         0.12465
       7 -> 26         0.43002
       8 -> 29         0.21917
       8 -> 30         0.46505

 Excited State  94:      Singlet-A"    19.7536 eV   62.77 nm  f=0.0167  <S**2>=0.000
       4 -> 12        -0.14585
       5 -> 19         0.15149
       5 -> 21         0.62638
       7 -> 26        -0.13849

 Excited State  95:      Singlet-A'    19.8607 eV   62.43 nm  f=0.0625  <S**2>=0.000
       5 -> 22        -0.32071
       6 -> 24         0.41097
       7 -> 29         0.12310
       8 -> 27        -0.12953
       8 -> 28         0.31177
       9 -> 36        -0.17995
       9 -> 38        -0.10024

 Excited State  96:      Singlet-A"    19.8924 eV   62.33 nm  f=0.0071  <S**2>=0.000
       4 -> 12         0.61688

 The electronic state is 1-A'.
 Alpha  occ. eigenvalues --  -14.38233 -10.27553  -0.95090  -0.73214  -0.56382
 Alpha  occ. eigenvalues --   -0.51161  -0.47377  -0.43400  -0.30563
 Alpha virt. eigenvalues --    0.05444   0.09064   0.12515   0.14389   0.16084
 Alpha virt. eigenvalues --    0.17970   0.18890   0.20084   0.23275   0.25425
 Alpha virt. eigenvalues --    0.25593   0.30284   0.30369   0.32009   0.34224

 Mulliken charges:
               1
     1  C    0.827912
     2  N   -0.223135
     3  H   -0.115095
     4  H   -0.206904
     5  H   -0.206904
     6  H   -0.037937
     7  H   -0.037937
 Sum of Mulliken charges =  -0.00000

 Dipole moment (field-independent basis, Debye):
    X=              1.2848    Y=              0.3721    Z=             -0.0000  Tot=              1.3376
 Quadrupole moment (field-independent basis, Debye-Ang):
   XX=            -15.2046   YY=            -14.5546   ZZ=            -12.8306
   XY=             -2.1125   XZ=              0.0000   YZ=              0.0000

 Normal termination of Gaussian 16 at Mon Mar 21 20:21:32 2022.
