 Gaussian 16, Revision C.01,
 Gaussian 16:  EM64L-G16RevC.01  3-Jul-2019

 ----------------------------------------------------------------------
 #P TD(Nstates=10000) cam-b3lyp/Gen SCF(maxcycles=100) Int(Grid=ultrafi
 ne)
 ----------------------------------------------------------------------

 ---------------------
 xGDB7_00001_tier4.com
 ---------------------
 Symbolic Z-matrix:
 Charge =  0 Multiplicity = 1

                         Standard orientation:
 ---------------------------------------------------------------------
 Center     Atomic      Atomic             Coordinates (Angstroms)
 Number     Number       Type             X           Y           Z
 ---------------------------------------------------------------------
      1          6           0       -1.122844   -0.452320    0.000000
      2          6           0        0.000000    0.553997    0.000000
      3          9           0        1.225284   -0.098236    0.000000
      4          1           0       -2.083314    0.066805    0.000000
      5          1           0       -1.072796   -1.085651    0.886148
      6          1           0       -1.072796   -1.085651   -0.886148
      7          1           0       -0.030794    1.189278    0.888716
      8          1           0       -0.030794    1.189278   -0.888716
 ---------------------------------------------------------------------

 SCF Done:  E(RCAM-B3LYP) =  -178.867025447     A.U. after   11 cycles

 Excitation energies and oscillator strengths:

 Excited State   1:      Singlet-A"     9.0446 eV  137.08 nm  f=0.0044  <S**2>=0.000
      13 -> 14         0.66755
      13 -> 15         0.18540
 This state for optimization and/or second-order correction.
 Total Energy, E(TD-HF/TD-DFT) =  -178.534641531
 Copying the excited state density for this state as the 1-particle RhoCI density.

 Excited State   2:      Singlet-A'     9.3961 eV  131.95 nm  f=0.0101  <S**2>=0.000
      12 -> 14         0.65954
      12 -> 15         0.18474
      12 -> 16         0.13519

 Excited State   3:      Singlet-A"     9.8627 eV  125.71 nm  f=0.0165  <S**2>=0.000
      10 -> 14         0.15489
      13 -> 14        -0.18628
      13 -> 15         0.48768
      13 -> 16         0.39554
      13 -> 18        -0.11562
      13 -> 19        -0.10950

 Excited State   4:      Singlet-A'    10.1638 eV  121.99 nm  f=0.0235  <S**2>=0.000
      12 -> 14        -0.22577
      12 -> 15         0.47290
      12 -> 16         0.41193
      12 -> 18        -0.13548
      12 -> 19        -0.11084

 Excited State   5:      Singlet-A"    10.2967 eV  120.41 nm  f=0.0791  <S**2>=0.000
      13 -> 15        -0.42507
      13 -> 16         0.52325

 Excited State   6:      Singlet-A'    10.5828 eV  117.16 nm  f=0.0553  <S**2>=0.000
      11 -> 14         0.28385
      12 -> 15        -0.42478
      12 -> 16         0.44448
      13 -> 17        -0.14007

 Excited State   7:      Singlet-A'    10.6911 eV  115.97 nm  f=0.0863  <S**2>=0.000
      11 -> 14         0.61613
      11 -> 15        -0.14910
      12 -> 15         0.17690
      12 -> 16        -0.19951
      13 -> 17         0.11390

 Excited State   8:      Singlet-A'    10.7244 eV  115.61 nm  f=0.1616  <S**2>=0.000
      12 -> 15        -0.10292
      12 -> 16         0.13487
      13 -> 17         0.67247

 Excited State   9:      Singlet-A"    10.8818 eV  113.94 nm  f=0.0292  <S**2>=0.000
      12 -> 17         0.69292

 Excited State  10:      Singlet-A"    10.9989 eV  112.72 nm  f=0.0160  <S**2>=0.000
      10 -> 14         0.64502
      13 -> 15        -0.14127
      13 -> 18         0.15057
      13 -> 19         0.10893

 Excited State  11:      Singlet-A"    11.4032 eV  108.73 nm  f=0.0010  <S**2>=0.000
      10 -> 14        -0.11381
      10 -> 16        -0.11056
      13 -> 16         0.11001
      13 -> 18         0.64122
      13 -> 19        -0.10154

 Excited State  12:      Singlet-A'    11.5875 eV  107.00 nm  f=0.0437  <S**2>=0.000
      11 -> 15         0.26570
      12 -> 16         0.12744
      12 -> 18         0.60589

 Excited State  13:      Singlet-A'    11.7432 eV  105.58 nm  f=0.0646  <S**2>=0.000
      11 -> 14         0.12702
      11 -> 15         0.58260
      12 -> 18        -0.27166
      12 -> 19         0.20436

 Excited State  14:      Singlet-A"    11.7486 eV  105.53 nm  f=0.0369  <S**2>=0.000
      10 -> 15         0.59427
      13 -> 21         0.29710

 Excited State  15:      Singlet-A"    11.7945 eV  105.12 nm  f=0.0677  <S**2>=0.000
      10 -> 14        -0.10949
      13 -> 16         0.14978
      13 -> 19         0.64771

 Excited State  16:      Singlet-A'    11.8704 eV  104.45 nm  f=0.0162  <S**2>=0.000
       9 -> 14         0.13990
      11 -> 15        -0.18972
      12 -> 16         0.12884
      12 -> 19         0.60965
      13 -> 20        -0.12800

 Excited State  17:      Singlet-A"    11.9861 eV  103.44 nm  f=0.0044  <S**2>=0.000
      12 -> 20         0.69033

 Excited State  18:      Singlet-A'    12.0251 eV  103.10 nm  f=0.0014  <S**2>=0.000
      12 -> 19         0.11262
      13 -> 20         0.66978

 Excited State  19:      Singlet-A"    12.2688 eV  101.06 nm  f=0.0005  <S**2>=0.000
      10 -> 16         0.52586
      11 -> 17         0.16604
      13 -> 21        -0.35269

 Excited State  20:      Singlet-A"    12.3291 eV  100.56 nm  f=0.0415  <S**2>=0.000
      10 -> 16        -0.11670
      11 -> 17         0.66014
      11 -> 22         0.14349
      13 -> 21         0.11183

 Excited State  21:      Singlet-A'    12.3365 eV  100.50 nm  f=0.0766  <S**2>=0.000
       9 -> 14        -0.12598
      10 -> 17        -0.30437
      11 -> 16         0.53901
      11 -> 19        -0.11186
      13 -> 22         0.22058

 Excited State  22:      Singlet-A'    12.4582 eV   99.52 nm  f=0.0218  <S**2>=0.000
      10 -> 17         0.43664
      11 -> 16         0.32978
      11 -> 18        -0.20863
      11 -> 19        -0.17032
      12 -> 21         0.15856
      13 -> 22        -0.25565

 Excited State  23:      Singlet-A"    12.5681 eV   98.65 nm  f=0.0004  <S**2>=0.000
      10 -> 15        -0.30957
      10 -> 16         0.34056
      13 -> 21         0.48178
      13 -> 23        -0.13728

 Excited State  24:      Singlet-A'    12.5953 eV   98.44 nm  f=0.0364  <S**2>=0.000
       9 -> 14         0.34331
       9 -> 15         0.17276
      10 -> 17        -0.10003
      11 -> 18         0.11116
      12 -> 19        -0.14783
      12 -> 21         0.51400

 Excited State  25:      Singlet-A'    12.7191 eV   97.48 nm  f=0.0158  <S**2>=0.000
       9 -> 14         0.51392
       9 -> 16         0.14002
      11 -> 18        -0.18993
      12 -> 21        -0.36027

 Excited State  26:      Singlet-A"    12.8891 eV   96.19 nm  f=0.0004  <S**2>=0.000
      10 -> 18        -0.29139
      10 -> 19        -0.30026
      12 -> 22        -0.18075
      13 -> 23         0.46710
      13 -> 28        -0.10055

 Excited State  27:      Singlet-A'    12.9325 eV   95.87 nm  f=0.2397  <S**2>=0.000
       9 -> 14         0.13435
      10 -> 17         0.25073
      11 -> 16         0.11291
      11 -> 18         0.52675
      12 -> 23         0.25949

 Excited State  28:      Singlet-A"    12.9455 eV   95.77 nm  f=0.0030  <S**2>=0.000
       9 -> 17        -0.16355
      10 -> 19        -0.10687
      12 -> 22         0.62839
      13 -> 23         0.18776

 Excited State  29:      Singlet-A"    13.0590 eV   94.94 nm  f=0.0043  <S**2>=0.000
      10 -> 16         0.15918
      10 -> 18         0.52045
      11 -> 20        -0.26295
      12 -> 22        -0.11948
      13 -> 18         0.13307
      13 -> 23         0.23657

 Excited State  30:      Singlet-A'    13.0817 eV   94.78 nm  f=0.0090  <S**2>=0.000
      10 -> 17         0.33625
      13 -> 22         0.58897

 Excited State  31:      Singlet-A'    13.2129 eV   93.84 nm  f=0.0195  <S**2>=0.000
       9 -> 14         0.10722
       9 -> 15        -0.18607
       9 -> 16        -0.21995
      10 -> 20        -0.14690
      11 -> 18        -0.21579
      12 -> 21         0.16534
      12 -> 23         0.45203
      13 -> 24        -0.24699

 Excited State  32:      Singlet-A"    13.2562 eV   93.53 nm  f=0.0147  <S**2>=0.000
       7 -> 14        -0.11842
      10 -> 18         0.18735
      10 -> 19         0.17370
      11 -> 20         0.55048
      13 -> 23         0.19756
      13 -> 25        -0.18650

 Excited State  33:      Singlet-A'    13.3849 eV   92.63 nm  f=0.0389  <S**2>=0.000
       9 -> 15         0.17771
       9 -> 16         0.13445
       9 -> 19        -0.10742
      10 -> 17        -0.10228
      10 -> 20         0.35914
      11 -> 19        -0.12935
      12 -> 23         0.34828
      12 -> 25        -0.11224
      13 -> 24         0.30314

 Excited State  34:      Singlet-A"    13.4433 eV   92.23 nm  f=0.0237  <S**2>=0.000
       7 -> 15         0.10814
      10 -> 19         0.30203
      10 -> 21        -0.24825
      10 -> 23         0.11330
      12 -> 24        -0.32643
      13 -> 23         0.16147
      13 -> 25         0.36245
      13 -> 26         0.11479

 Excited State  35:      Singlet-A"    13.4900 eV   91.91 nm  f=0.0153  <S**2>=0.000
      10 -> 19         0.38888
      10 -> 23         0.10002
      11 -> 20        -0.17909
      12 -> 24         0.47266
      13 -> 23         0.11453
      13 -> 26         0.13073

 Excited State  36:      Singlet-A'    13.5189 eV   91.71 nm  f=0.0182  <S**2>=0.000
       9 -> 15         0.17582
       9 -> 16         0.17966
      11 -> 16         0.11314
      11 -> 18        -0.10357
      11 -> 19         0.55786
      11 -> 23         0.11570
      12 -> 23         0.16485

 Excited State  37:      Singlet-A'    13.6563 eV   90.79 nm  f=0.1520  <S**2>=0.000
       8 -> 14        -0.20115
       9 -> 15         0.45117
      11 -> 19        -0.19222
      11 -> 21        -0.19054
      13 -> 24        -0.35230

 Excited State  38:      Singlet-A'    13.7744 eV   90.01 nm  f=0.0306  <S**2>=0.000
       8 -> 14         0.23849
       8 -> 15         0.10400
       9 -> 15         0.36385
       9 -> 16        -0.30046
      10 -> 20        -0.20675
      11 -> 21         0.30299
      12 -> 25         0.10888
      13 -> 24         0.10718

 Excited State  39:      Singlet-A"    13.8093 eV   89.78 nm  f=0.0552  <S**2>=0.000
       7 -> 14        -0.23776
      10 -> 19        -0.20777
      10 -> 21        -0.11532
      11 -> 20         0.19710
      12 -> 24         0.29776
      13 -> 25         0.44736

 Excited State  40:      Singlet-A"    13.8583 eV   89.47 nm  f=0.1935  <S**2>=0.000
       7 -> 14         0.55668
       7 -> 15         0.18661
      10 -> 18         0.15952
      10 -> 19        -0.11296
      10 -> 21        -0.16499
      11 -> 20         0.15446
      12 -> 24         0.16422
      13 -> 23        -0.11680

 Excited State  41:      Singlet-A'    13.8626 eV   89.44 nm  f=0.0400  <S**2>=0.000
       9 -> 16        -0.18100
      10 -> 20         0.39046
      10 -> 22        -0.12110
      11 -> 19         0.16956
      11 -> 21         0.24331
      12 -> 25        -0.24800
      13 -> 24        -0.26901
      13 -> 27         0.12680

 Excited State  42:      Singlet-A'    13.9066 eV   89.15 nm  f=0.1024  <S**2>=0.000
       8 -> 14         0.45076
       8 -> 15         0.10774
       9 -> 16         0.25778
      10 -> 20         0.14270
      11 -> 19        -0.12472
      12 -> 25         0.19996
      13 -> 24        -0.30249

 Excited State  43:      Singlet-A'    14.0424 eV   88.29 nm  f=0.0968  <S**2>=0.000
       8 -> 14        -0.30361
       9 -> 16         0.28713
      10 -> 20        -0.15431
      11 -> 21         0.45418

 Excited State  44:      Singlet-A"    14.1425 eV   87.67 nm  f=0.0046  <S**2>=0.000
       9 -> 17         0.63281
      10 -> 21        -0.12680
      11 -> 22        -0.14903
      12 -> 22         0.16341

 Excited State  45:      Singlet-A'    14.2273 eV   87.15 nm  f=0.0434  <S**2>=0.000
       8 -> 14        -0.18886
       9 -> 16        -0.11127
      10 -> 20         0.24370
      10 -> 22         0.12922
      11 -> 16         0.12507
      12 -> 25         0.52292
      13 -> 27        -0.13130

 Excited State  46:      Singlet-A"    14.2411 eV   87.06 nm  f=0.0003  <S**2>=0.000
       7 -> 14         0.16163
       7 -> 15        -0.10121
       8 -> 17        -0.11843
       9 -> 17         0.21541
      10 -> 19         0.10548
      10 -> 21         0.36569
      11 -> 22         0.42936
      13 -> 25         0.13585

 Excited State  47:      Singlet-A"    14.2711 eV   86.88 nm  f=0.0814  <S**2>=0.000
       7 -> 14        -0.15878
       8 -> 17        -0.12937
      10 -> 21        -0.38991
      11 -> 22         0.44428
      13 -> 25        -0.25437

 Excited State  48:      Singlet-A"    14.5537 eV   85.19 nm  f=0.0407  <S**2>=0.000
       7 -> 16        -0.12536
      10 -> 21         0.11024
      11 -> 24        -0.10269
      13 -> 23        -0.10960
      13 -> 26         0.58744
      13 -> 28        -0.21015

 Excited State  49:      Singlet-A'    14.6027 eV   84.90 nm  f=0.0951  <S**2>=0.000
       8 -> 14         0.11811
       8 -> 15        -0.11033
       9 -> 18        -0.16724
       9 -> 19         0.24123
      10 -> 22         0.30078
      12 -> 25        -0.11126
      12 -> 26         0.42993
      13 -> 27        -0.19458

 Excited State  50:      Singlet-A'    14.6453 eV   84.66 nm  f=0.0405  <S**2>=0.000
       8 -> 15        -0.10827
       8 -> 16        -0.15184
       9 -> 16         0.20648
       9 -> 18         0.40997
      10 -> 22         0.23845
      12 -> 25        -0.10142
      12 -> 26        -0.21209
      12 -> 28         0.20481
      13 -> 27        -0.16979

 Excited State  51:      Singlet-A"    14.6812 eV   84.45 nm  f=0.0001  <S**2>=0.000
       7 -> 14        -0.12970
       7 -> 15         0.45131
       7 -> 16         0.38729
       7 -> 18        -0.13508
       7 -> 19        -0.14095
       7 -> 23         0.10637
      10 -> 21         0.14661
      10 -> 25         0.11023

 Excited State  52:      Singlet-A'    14.7639 eV   83.98 nm  f=0.0500  <S**2>=0.000
       8 -> 14        -0.10354
       8 -> 15         0.40381
       8 -> 16         0.38325
       8 -> 18        -0.10119
       9 -> 18         0.10748
      10 -> 22         0.26217
      11 -> 25        -0.12301
      13 -> 27        -0.10580

 Excited State  53:      Singlet-A'    14.9400 eV   82.99 nm  f=0.0518  <S**2>=0.000
       7 -> 17         0.12512
       9 -> 18         0.31145
      11 -> 23        -0.20778
      12 -> 26         0.26924
      13 -> 24         0.12081
      13 -> 27         0.43413

 Excited State  54:      Singlet-A"    14.9607 eV   82.87 nm  f=0.0001  <S**2>=0.000
       7 -> 15        -0.19208
       7 -> 16         0.24116
      10 -> 23         0.52042
      11 -> 24        -0.12917
      12 -> 27        -0.20459

 Excited State  55:      Singlet-A'    15.0040 eV   82.63 nm  f=0.0586  <S**2>=0.000
       8 -> 15         0.42960
       8 -> 16        -0.35460
       9 -> 19         0.26475
      10 -> 22        -0.12475
      11 -> 25        -0.13793
      12 -> 26         0.10697

 Excited State  56:      Singlet-A"    15.0060 eV   82.62 nm  f=0.0015  <S**2>=0.000
       7 -> 15        -0.10133
       7 -> 16         0.16169
       9 -> 20         0.14310
       9 -> 22        -0.13790
      10 -> 23         0.12097
      12 -> 27         0.60480

 Excited State  57:      Singlet-A"    15.1168 eV   82.02 nm  f=0.0025  <S**2>=0.000
       7 -> 15        -0.26553
       7 -> 16         0.31638
      10 -> 23        -0.14367
      11 -> 24         0.43788
      11 -> 27        -0.11236
      13 -> 26         0.16829

 Excited State  58:      Singlet-A'    15.1306 eV   81.94 nm  f=0.0137  <S**2>=0.000
       8 -> 16        -0.12833
       9 -> 18        -0.23136
      10 -> 22         0.40744
      11 -> 23         0.11720
      12 -> 26        -0.20696
      13 -> 27         0.38972

 Excited State  59:      Singlet-A'    15.1872 eV   81.64 nm  f=0.0048  <S**2>=0.000
       8 -> 16         0.19125
       9 -> 18        -0.20544
       9 -> 19         0.45594
      10 -> 24        -0.15908
      11 -> 23        -0.21747
      12 -> 23         0.11347
      12 -> 26        -0.23009
      12 -> 28         0.12366

 Excited State  60:      Singlet-A"    15.2244 eV   81.44 nm  f=0.0111  <S**2>=0.000
       7 -> 15         0.22016
       7 -> 16        -0.17524
       9 -> 20         0.45279
      10 -> 21         0.10999
      10 -> 23         0.19748
      10 -> 25        -0.15309
      11 -> 24         0.23710
      12 -> 24        -0.11238
      13 -> 28        -0.13227

 Excited State  61:      Singlet-A"    15.2722 eV   81.18 nm  f=0.0032  <S**2>=0.000
       7 -> 15        -0.16313
       8 -> 17        -0.18406
       9 -> 20         0.46584
      10 -> 21        -0.10201
      10 -> 23        -0.17794
      10 -> 25         0.12355
      11 -> 24        -0.32800
      12 -> 27        -0.10593

 Excited State  62:      Singlet-A"    15.3318 eV   80.87 nm  f=0.0138  <S**2>=0.000
       8 -> 17         0.58570
       9 -> 20         0.11564
      11 -> 22         0.15333
      12 -> 27        -0.10905
      13 -> 26         0.11118
      13 -> 28         0.20315

 Excited State  63:      Singlet-A'    15.3896 eV   80.56 nm  f=0.1438  <S**2>=0.000
       7 -> 17         0.20325
       8 -> 15         0.10686
      10 -> 24         0.47195
      11 -> 23        -0.31263
      11 -> 25         0.14415

 Excited State  64:      Singlet-A'    15.4268 eV   80.37 nm  f=0.0275  <S**2>=0.000
       8 -> 15         0.18700
       9 -> 19        -0.13120
       9 -> 21        -0.10084
      10 -> 24        -0.20474
      11 -> 21        -0.15425
      11 -> 25         0.54595
      11 -> 26        -0.11875

 Excited State  65:      Singlet-A"    15.5293 eV   79.84 nm  f=0.0449  <S**2>=0.000
       7 -> 16        -0.12292
       8 -> 17        -0.21941
      11 -> 24         0.12187
      13 -> 26         0.18532
      13 -> 28         0.51665
      13 -> 29         0.17452

 Excited State  66:      Singlet-A'    15.5334 eV   79.82 nm  f=0.0582  <S**2>=0.000
       7 -> 17         0.53386
       8 -> 16         0.17331
       9 -> 21        -0.23791
      10 -> 22        -0.10432
      11 -> 23         0.19846
      12 -> 28         0.13575

 Excited State  67:      Singlet-A'    15.6419 eV   79.26 nm  f=0.0473  <S**2>=0.000
       7 -> 17        -0.10107
       8 -> 16         0.19661
       9 -> 19         0.12968
       9 -> 21         0.20407
      10 -> 24         0.32322
      11 -> 23         0.37362
      11 -> 25         0.18256
      11 -> 26        -0.10901
      12 -> 25         0.13767
      12 -> 29         0.15566

 Excited State  68:      Singlet-A"    15.7071 eV   78.94 nm  f=0.0731  <S**2>=0.000
      10 -> 23         0.16487
      10 -> 25         0.59546
      11 -> 24         0.14575
      13 -> 26        -0.12748
      13 -> 28        -0.12389

 Excited State  69:      Singlet-A'    15.7444 eV   78.75 nm  f=0.0521  <S**2>=0.000
       9 -> 18        -0.15229
       9 -> 19        -0.17843
      11 -> 23        -0.14401
      12 -> 26         0.19250
      12 -> 28         0.55223
      12 -> 29         0.12067

 Excited State  70:      Singlet-A'    16.0282 eV   77.35 nm  f=0.0413  <S**2>=0.000
       7 -> 17         0.19121
       8 -> 15         0.10117
       8 -> 18         0.19486
       9 -> 19        -0.11663
       9 -> 21         0.54278
      10 -> 24        -0.14878
      12 -> 29        -0.16452

 Excited State  71:      Singlet-A"    16.0288 eV   77.35 nm  f=0.2143  <S**2>=0.000
       7 -> 18         0.23722
       7 -> 19        -0.12944
      13 -> 28        -0.19866
      13 -> 29         0.56730

 Excited State  72:      Singlet-A"    16.1513 eV   76.76 nm  f=0.0161  <S**2>=0.000
       7 -> 16         0.18165
       7 -> 18         0.55420
       8 -> 20         0.12377
      10 -> 26         0.11386
      10 -> 28        -0.11359
      13 -> 29        -0.22441

 Excited State  73:      Singlet-A'    16.1959 eV   76.55 nm  f=0.0158  <S**2>=0.000
       7 -> 17        -0.14474
       7 -> 20        -0.12719
       8 -> 18         0.37358
       8 -> 19        -0.30825
       9 -> 23         0.15898
      11 -> 25        -0.11558
      11 -> 26        -0.24738
      12 -> 29        -0.22185
      12 -> 31         0.11412

 Excited State  74:      Singlet-A"    16.2448 eV   76.32 nm  f=0.0194  <S**2>=0.000
       9 -> 22         0.65110
       9 -> 24        -0.10510
      12 -> 27         0.14799

 Excited State  75:      Singlet-A'    16.3381 eV   75.89 nm  f=0.1375  <S**2>=0.000
       7 -> 20         0.30282
       8 -> 18         0.11659
      10 -> 27        -0.14596
      12 -> 29         0.10601
      13 -> 30         0.55564

 Excited State  76:      Singlet-A"    16.3528 eV   75.82 nm  f=0.0200  <S**2>=0.000
       7 -> 16        -0.10603
       7 -> 18        -0.15908
       7 -> 19        -0.23705
       8 -> 20         0.29825
      10 -> 26         0.28884
      11 -> 27         0.39143
      12 -> 30        -0.15594

 Excited State  77:      Singlet-A"    16.4237 eV   75.49 nm  f=0.0269  <S**2>=0.000
       7 -> 19        -0.27385
       8 -> 20        -0.23790
       9 -> 24         0.13060
      10 -> 26         0.42020
      11 -> 27        -0.30379
      13 -> 29        -0.14531

 Excited State  78:      Singlet-A'    16.4547 eV   75.35 nm  f=0.0706  <S**2>=0.000
       7 -> 17        -0.12200
       7 -> 20        -0.12931
       8 -> 18         0.26125
       8 -> 19         0.29105
       9 -> 21        -0.16250
       9 -> 23        -0.10920
      11 -> 26         0.39010
      12 -> 29        -0.22239

 Excited State  79:      Singlet-A'    16.5226 eV   75.04 nm  f=0.0669  <S**2>=0.000
       7 -> 20        -0.19316
       8 -> 18        -0.27719
       8 -> 19         0.28753
       9 -> 23         0.29086
      11 -> 26        -0.17011

 The electronic state is 1-A'.
 Alpha  occ. eigenvalues --  -24.75253 -10.33780 -10.26267  -1.25464  -0.84438
 Alpha  occ. eigenvalues --   -0.70602  -0.57559  -0.57477  -0.52968  -0.47109
 Alpha  occ. eigenvalues --   -0.46489  -0.41315  -0.40353
 Alpha virt. eigenvalues --    0.05159   0.08102   0.11151   0.11315   0.13868
 Alpha virt. eigenvalues --    0.15397   0.15574   0.17390   0.18225   0.20407
 Alpha virt. eigenvalues --    0.21716   0.23015   0.25485   0.26297   0.30437

 Mulliken charges:
               1
     1  C    0.410772
     2  C    0.619550
     3  F   -0.461685
     4  H   -0.061462
     5  H   -0.064288
     6  H   -0.064288
     7  H   -0.189299
     8  H   -0.189299
 Sum of Mulliken charges =  -0.00000

 Dipole moment (field-independent basis, Debye):
    X=             -1.8976    Y=              0.7555    Z=              0.0000  Tot=              2.0425
 Quadrupole moment (field-independent basis, Debye-Ang):
   XX=            -21.2473   YY=            -18.4532   ZZ=            -18.4597
   XY=              0.3216   XZ=              0.0000   YZ=              0.0000

 Normal termination of Gaussian 16 at Mon Mar 21 20:08:49 2022.
