 Gaussian 16, Revision C.01,
 Gaussian 16:  EM64L-G16RevC.01  3-Jul-2019

 ----------------------------------------------------------------------
 #P TD(Nstates=10000) cam-b3lyp/Gen SCF(maxcycles=100) Int(Grid=ultrafi
 ne)
 ----------------------------------------------------------------------

 ---------------------
 xGDB7_00001_tier4.com
 ---------------------
 Symbolic Z-matrix:
 Charge =  0 Multiplicity = 1

                         Standard orientation:
 ---------------------------------------------------------------------
 Center     Atomic      Atomic             Coordinates (Angstroms)
 Number     Number       Type             X           Y           Z
 ---------------------------------------------------------------------
      1          6           0       -1.131573   -0.504386    0.000000
      2          6           0        0.000000    0.472223    0.000000
      3          6           0        1.284136    0.150792    0.000000
      4          1           0       -1.767446   -0.362776    0.877699
      5          1           0       -0.770122   -1.533458    0.000000
      6          1           0       -1.767446   -0.362776   -0.877699
      7          1           0       -0.276551    1.523465    0.000000
      8          1           0        1.608435   -0.884555    0.000000
      9          1           0        2.057749    0.908327    0.000000
 ---------------------------------------------------------------------

 SCF Done:  E(RCAM-B3LYP) =  -117.749031542     A.U. after   12 cycles

 Excitation energies and oscillator strengths:

 Excited State   1:      Singlet-A"     7.2485 eV  171.05 nm  f=0.0222  <S**2>=0.000
      12 -> 14         0.66889
      12 -> 15         0.13742
      12 -> 16         0.16370
 This state for optimization and/or second-order correction.
 Total Energy, E(TD-HF/TD-DFT) =  -117.482652239
 Copying the excited state density for this state as the 1-particle RhoCI density.

 Excited State   2:      Singlet-A'     7.5834 eV  163.49 nm  f=0.4129  <S**2>=0.000
      12 -> 13         0.69869

 Excited State   3:      Singlet-A"     7.9874 eV  155.22 nm  f=0.0009  <S**2>=0.000
      12 -> 15        -0.31033
      12 -> 16         0.61001

 Excited State   4:      Singlet-A"     8.1346 eV  152.42 nm  f=0.0292  <S**2>=0.000
      12 -> 14        -0.18870
      12 -> 15         0.61046
      12 -> 16         0.26789

 Excited State   5:      Singlet-A"     8.3319 eV  148.81 nm  f=0.0000  <S**2>=0.000
      11 -> 13         0.69438

 Excited State   6:      Singlet-A"     9.2306 eV  134.32 nm  f=0.0026  <S**2>=0.000
       8 -> 13        -0.15176
      10 -> 13         0.53305
      12 -> 17        -0.39973

 Excited State   7:      Singlet-A"     9.2976 eV  133.35 nm  f=0.0008  <S**2>=0.000
       8 -> 13        -0.10990
      10 -> 13         0.39273
      12 -> 17         0.54726

 Excited State   8:      Singlet-A'     9.6853 eV  128.01 nm  f=0.0129  <S**2>=0.000
      11 -> 14        -0.47975
      12 -> 18         0.48669

 Excited State   9:      Singlet-A"     9.7046 eV  127.76 nm  f=0.0403  <S**2>=0.000
      12 -> 19         0.68966

 Excited State  10:      Singlet-A'     9.7354 eV  127.35 nm  f=0.0682  <S**2>=0.000
      11 -> 14         0.46996
      11 -> 16         0.14065
      12 -> 18         0.48426

 Excited State  11:      Singlet-A"    10.2296 eV  121.20 nm  f=0.0043  <S**2>=0.000
      12 -> 20         0.67679
      12 -> 22        -0.14668

 Excited State  12:      Singlet-A'    10.2458 eV  121.01 nm  f=0.0361  <S**2>=0.000
      10 -> 14         0.60216
      11 -> 15        -0.32533

 Excited State  13:      Singlet-A'    10.4952 eV  118.13 nm  f=0.1344  <S**2>=0.000
      11 -> 14        -0.13506
      11 -> 15         0.10323
      11 -> 16         0.58176
      12 -> 21         0.32209

 Excited State  14:      Singlet-A"    10.5240 eV  117.81 nm  f=0.0001  <S**2>=0.000
       8 -> 13         0.65657
      10 -> 13         0.17893
      12 -> 22         0.13219

 Excited State  15:      Singlet-A'    10.5256 eV  117.79 nm  f=0.1265  <S**2>=0.000
      10 -> 14         0.26544
      10 -> 15        -0.11428
      11 -> 15         0.52603
      11 -> 16        -0.24715
      12 -> 21         0.22747

 Excited State  16:      Singlet-A'    10.6441 eV  116.48 nm  f=0.0994  <S**2>=0.000
      10 -> 14        -0.17447
      11 -> 14         0.10919
      11 -> 15        -0.24418
      11 -> 16        -0.24122
      12 -> 21         0.55262

 Excited State  17:      Singlet-A"    10.7401 eV  115.44 nm  f=0.0646  <S**2>=0.000
       8 -> 13        -0.12800
      12 -> 17         0.10888
      12 -> 20         0.12560
      12 -> 22         0.64651
      12 -> 23        -0.12031

 Excited State  18:      Singlet-A"    11.0647 eV  112.05 nm  f=0.0058  <S**2>=0.000
      12 -> 22         0.10073
      12 -> 23         0.67808

 Excited State  19:      Singlet-A'    11.2371 eV  110.33 nm  f=0.0238  <S**2>=0.000
       8 -> 14        -0.13121
      10 -> 15         0.24524
      10 -> 16         0.51907
      11 -> 17        -0.10088
      12 -> 24         0.31662

 Excited State  20:      Singlet-A'    11.3126 eV  109.60 nm  f=0.0412  <S**2>=0.000
       9 -> 13         0.67961

 Excited State  21:      Singlet-A'    11.3880 eV  108.87 nm  f=0.0393  <S**2>=0.000
      10 -> 15        -0.40910
      10 -> 16         0.42574
      12 -> 24        -0.32695

 Excited State  22:      Singlet-A"    11.4089 eV  108.67 nm  f=0.1105  <S**2>=0.000
       9 -> 14         0.64691
       9 -> 15        -0.24375

 Excited State  23:      Singlet-A'    11.5247 eV  107.58 nm  f=0.0192  <S**2>=0.000
      10 -> 15        -0.42978
      11 -> 17        -0.16240
      12 -> 24         0.45246

 Excited State  24:      Singlet-A'    11.8110 eV  104.97 nm  f=0.0561  <S**2>=0.000
       8 -> 14         0.10442
       8 -> 15        -0.13956
      11 -> 17         0.61645
      11 -> 19        -0.12749
      12 -> 24         0.16034

 Excited State  25:      Singlet-A"    11.8473 eV  104.65 nm  f=0.0029  <S**2>=0.000
       7 -> 13         0.59483
      10 -> 13        -0.10860
      10 -> 18        -0.10621
      11 -> 18        -0.24111
      12 -> 25        -0.19729

 Excited State  26:      Singlet-A"    11.8825 eV  104.34 nm  f=0.0000  <S**2>=0.000
       7 -> 13         0.21174
       8 -> 18         0.10137
      11 -> 18         0.61611
      12 -> 25        -0.16711

 Excited State  27:      Singlet-A'    12.0318 eV  103.05 nm  f=0.0226  <S**2>=0.000
       8 -> 14         0.64131
      10 -> 17        -0.10167
      11 -> 15         0.14382
      11 -> 17        -0.11209

 Excited State  28:      Singlet-A"    12.0533 eV  102.86 nm  f=0.0967  <S**2>=0.000
       7 -> 13         0.24420
      12 -> 25         0.61245

 Excited State  29:      Singlet-A'    12.1455 eV  102.08 nm  f=0.0985  <S**2>=0.000
       8 -> 15        -0.12176
      11 -> 17         0.12078
      11 -> 19         0.65001

 Excited State  30:      Singlet-A'    12.3532 eV  100.37 nm  f=0.0567  <S**2>=0.000
       7 -> 15         0.11264
       8 -> 14         0.11222
       8 -> 16        -0.19369
      10 -> 17         0.50163
      11 -> 20        -0.35981

 Excited State  31:      Singlet-A"    12.3972 eV  100.01 nm  f=0.0366  <S**2>=0.000
       7 -> 18        -0.10039
       9 -> 16        -0.12321
      10 -> 18         0.64925

 Excited State  32:      Singlet-A'    12.4639 eV   99.47 nm  f=0.0971  <S**2>=0.000
       8 -> 15        -0.27117
       8 -> 16         0.33576
      10 -> 17         0.33075
      10 -> 19        -0.19205
      11 -> 20         0.35355

 Excited State  33:      Singlet-A"    12.5134 eV   99.08 nm  f=0.0076  <S**2>=0.000
       9 -> 16         0.66495
       9 -> 20         0.12495
      10 -> 18         0.11718

 Excited State  34:      Singlet-A'    12.6969 eV   97.65 nm  f=0.0244  <S**2>=0.000
       8 -> 15        -0.12759
      11 -> 20        -0.19925
      11 -> 22         0.13613
      12 -> 26         0.60347

 Excited State  35:      Singlet-A"    12.7467 eV   97.27 nm  f=0.0006  <S**2>=0.000
       9 -> 15         0.13123
      10 -> 18         0.10773
      11 -> 21         0.19323
      12 -> 27         0.61311
      12 -> 28        -0.16801

 Excited State  36:      Singlet-A'    12.8120 eV   96.77 nm  f=0.0482  <S**2>=0.000
       8 -> 15        -0.27409
       8 -> 16        -0.34272
      10 -> 19         0.36068
      11 -> 19        -0.14069
      11 -> 20         0.25090
      11 -> 22        -0.12120
      12 -> 26         0.17012

 Excited State  37:      Singlet-A"    12.8225 eV   96.69 nm  f=0.0435  <S**2>=0.000
       9 -> 14        -0.14720
       9 -> 15        -0.44315
       9 -> 17         0.18182
      11 -> 21         0.44950
      12 -> 25        -0.10720

 Excited State  38:      Singlet-A"    12.8608 eV   96.40 nm  f=0.0293  <S**2>=0.000
       9 -> 14         0.13927
       9 -> 15         0.36731
       9 -> 17        -0.20877
      11 -> 21         0.44448
      12 -> 27        -0.23931

 Excited State  39:      Singlet-A'    12.9696 eV   95.60 nm  f=0.0624  <S**2>=0.000
       8 -> 15         0.12575
       8 -> 16         0.32583
      10 -> 19         0.49520
      10 -> 20         0.23626

 Excited State  40:      Singlet-A'    12.9931 eV   95.42 nm  f=0.2558  <S**2>=0.000
       7 -> 14         0.11038
       8 -> 15         0.48876
       8 -> 16        -0.10729
      10 -> 17         0.21490
      11 -> 17         0.15314
      11 -> 20         0.25946
      12 -> 26         0.23657

 Excited State  41:      Singlet-A'    13.1571 eV   94.23 nm  f=0.0408  <S**2>=0.000
       8 -> 16        -0.18035
       8 -> 17         0.16231
      11 -> 20         0.16981
      11 -> 22         0.60223

 Excited State  42:      Singlet-A"    13.2228 eV   93.77 nm  f=0.0000  <S**2>=0.000
       9 -> 17        -0.21238
       9 -> 19         0.11946
      12 -> 27         0.20252
      12 -> 28         0.58582

 Excited State  43:      Singlet-A'    13.2936 eV   93.27 nm  f=0.0134  <S**2>=0.000
       7 -> 16        -0.19084
       8 -> 16        -0.18484
       9 -> 18        -0.31939
      10 -> 19        -0.13921
      10 -> 20         0.49537

 Excited State  44:      Singlet-A"    13.3133 eV   93.13 nm  f=0.0011  <S**2>=0.000
       9 -> 17        -0.14257
       9 -> 19         0.16380
      10 -> 21         0.61652
      12 -> 28        -0.15727

 Excited State  45:      Singlet-A'    13.3743 eV   92.70 nm  f=0.0028  <S**2>=0.000
       7 -> 14         0.62868
       8 -> 15        -0.10263
      10 -> 15        -0.11797
      11 -> 23         0.19984

 Excited State  46:      Singlet-A"    13.5291 eV   91.64 nm  f=0.0050  <S**2>=0.000
       8 -> 18        -0.19538
       9 -> 17         0.11809
      11 -> 24         0.64021

 Excited State  47:      Singlet-A'    13.6183 eV   91.04 nm  f=0.0758  <S**2>=0.000
       7 -> 14        -0.14864
       8 -> 19        -0.15890
       9 -> 18        -0.20288
      10 -> 20        -0.18374
      10 -> 22        -0.11063
      11 -> 23         0.53343
      12 -> 29         0.14913

 Excited State  48:      Singlet-A"    13.6446 eV   90.87 nm  f=0.0337  <S**2>=0.000
       9 -> 15         0.20981
       9 -> 17         0.49637
       9 -> 19        -0.11131
       9 -> 22         0.10313
       9 -> 23        -0.12449
      10 -> 21         0.23364
      11 -> 24        -0.15463
      12 -> 28         0.22496

 Excited State  49:      Singlet-A'    13.7331 eV   90.28 nm  f=0.1756  <S**2>=0.000
       7 -> 16        -0.14037
       8 -> 17        -0.30439
       9 -> 18         0.37525
      10 -> 20         0.20390
      10 -> 22        -0.36150

 Excited State  50:      Singlet-A'    13.9263 eV   89.03 nm  f=0.0513  <S**2>=0.000
       7 -> 15         0.11854
       7 -> 16        -0.14560
       8 -> 17         0.21812
      11 -> 22        -0.10855
      12 -> 29         0.58405

 Excited State  51:      Singlet-A'    14.0335 eV   88.35 nm  f=0.2588  <S**2>=0.000
       7 -> 15        -0.24138
       8 -> 17         0.34606
      10 -> 22        -0.33714
      10 -> 23        -0.27785
      11 -> 23         0.12561
      11 -> 25        -0.12107
      12 -> 29        -0.14170

 Excited State  52:      Singlet-A'    14.1004 eV   87.93 nm  f=0.0089  <S**2>=0.000
       7 -> 15         0.19836
       7 -> 16        -0.21424
       8 -> 17        -0.13831
       8 -> 19         0.29058
       8 -> 20         0.17316
       9 -> 18        -0.22565
       9 -> 21        -0.11180
      10 -> 20        -0.18500
      10 -> 22        -0.22832
      11 -> 22         0.10645
      11 -> 23        -0.10582
      11 -> 25        -0.25360

 Excited State  53:      Singlet-A"    14.1307 eV   87.74 nm  f=0.0017  <S**2>=0.000
       8 -> 18         0.47228
       8 -> 21         0.15008
       9 -> 17         0.12756
       9 -> 19         0.32628
      10 -> 24        -0.19856
      11 -> 24         0.12310

 Excited State  54:      Singlet-A'    14.1696 eV   87.50 nm  f=0.0570  <S**2>=0.000
       7 -> 15         0.11486
       7 -> 16         0.22554
       8 -> 19         0.38293
       9 -> 18         0.21226
      10 -> 20         0.14460
      10 -> 22         0.21669
      10 -> 23        -0.10986
      11 -> 23         0.22400
      11 -> 25        -0.26555

 Excited State  55:      Singlet-A"    14.2343 eV   87.10 nm  f=0.0473  <S**2>=0.000
       6 -> 13         0.23765
       8 -> 18        -0.34252
       9 -> 19         0.41494
       9 -> 20         0.14638
      10 -> 21        -0.10322
      10 -> 24         0.12169
      12 -> 30         0.20284

 Excited State  56:      Singlet-A'    14.2668 eV   86.90 nm  f=0.0217  <S**2>=0.000
       7 -> 15         0.19284
       7 -> 16         0.36338
       7 -> 19        -0.10736
       8 -> 17        -0.10542
       9 -> 18        -0.17048
      10 -> 19        -0.11430
      10 -> 22        -0.21440
      10 -> 23        -0.24454
      10 -> 25        -0.17491
      11 -> 23        -0.11890
      11 -> 25         0.22564
      12 -> 29         0.11459

 Excited State  57:      Singlet-A'    14.2915 eV   86.75 nm  f=0.0009  <S**2>=0.000
       7 -> 15         0.44627
       7 -> 16        -0.26997
       7 -> 17        -0.10075
       8 -> 20        -0.10182
       9 -> 21         0.10714
      10 -> 23        -0.23880
      11 -> 23         0.11960
      11 -> 25         0.16204
      12 -> 29        -0.13898

 Excited State  58:      Singlet-A"    14.3275 eV   86.54 nm  f=0.0219  <S**2>=0.000
       9 -> 19        -0.23345
       9 -> 20         0.17020
       9 -> 22         0.10647
       9 -> 23         0.13545
      12 -> 30         0.58652

 Excited State  59:      Singlet-A'    14.4157 eV   86.01 nm  f=0.0023  <S**2>=0.000
       7 -> 15         0.28473
       7 -> 16         0.23419
       8 -> 17         0.26260
       8 -> 19        -0.17686
       8 -> 20         0.11365
      10 -> 22        -0.13908
      10 -> 23         0.32499
      11 -> 22        -0.12995
      11 -> 25        -0.10652
      12 -> 29        -0.17717

 Excited State  60:      Singlet-A"    14.5282 eV   85.34 nm  f=0.0012  <S**2>=0.000
       6 -> 13         0.20041
       7 -> 18         0.11173
       8 -> 18         0.11037
       8 -> 21         0.23976
       9 -> 20        -0.34187
       9 -> 22        -0.10652
      10 -> 24         0.38571
      11 -> 26         0.18780
      12 -> 30         0.12509

 Excited State  61:      Singlet-A"    14.5439 eV   85.25 nm  f=0.0002  <S**2>=0.000
       6 -> 13         0.19524
       8 -> 21         0.14387
       9 -> 16        -0.11640
       9 -> 19        -0.13098
       9 -> 20         0.44008
       9 -> 22         0.12345
       9 -> 23         0.14409
      10 -> 24         0.25303
      11 -> 26         0.10825
      12 -> 30        -0.24799

 Excited State  62:      Singlet-A'    14.5883 eV   84.99 nm  f=0.0388  <S**2>=0.000
       8 -> 17         0.18250
       8 -> 19         0.33384
      10 -> 23         0.23815
      10 -> 25        -0.12637
      11 -> 25         0.35943
      12 -> 31         0.31363

 Excited State  63:      Singlet-A'    14.6186 eV   84.81 nm  f=0.0265  <S**2>=0.000
       8 -> 19        -0.15517
       8 -> 20         0.12554
       9 -> 21         0.19131
      10 -> 23        -0.10862
      11 -> 25        -0.19130
      12 -> 31         0.57265

 Excited State  64:      Singlet-A"    14.7570 eV   84.02 nm  f=0.0250  <S**2>=0.000
       8 -> 18        -0.24715
       8 -> 21         0.45649
      10 -> 24        -0.34090
      11 -> 26         0.25790

 Excited State  65:      Singlet-A'    14.7672 eV   83.96 nm  f=0.0433  <S**2>=0.000
       8 -> 19         0.10682
       9 -> 21         0.60706
      12 -> 31        -0.15929

 Excited State  66:      Singlet-A"    14.9145 eV   83.13 nm  f=0.2621  <S**2>=0.000
       6 -> 13         0.50916
       7 -> 21         0.10739
       8 -> 21        -0.20337
       9 -> 19        -0.15573
      10 -> 24        -0.25040
      10 -> 26        -0.14087

 Excited State  67:      Singlet-A"    15.0473 eV   82.40 nm  f=0.0202  <S**2>=0.000
       9 -> 22         0.10370
      12 -> 32         0.63873
      12 -> 34         0.17894

 Excited State  68:      Singlet-A'    15.0598 eV   82.33 nm  f=0.0692  <S**2>=0.000
       7 -> 17         0.14710
       8 -> 20         0.50859
      10 -> 23        -0.13451
      10 -> 25         0.27798
      11 -> 25         0.23820
      11 -> 27        -0.11262

 Excited State  69:      Singlet-A"    15.1734 eV   81.71 nm  f=0.0505  <S**2>=0.000
       8 -> 21        -0.29384
       8 -> 24         0.15565
      11 -> 26         0.57690

 Excited State  70:      Singlet-A'    15.2883 eV   81.10 nm  f=0.0011  <S**2>=0.000
       7 -> 16         0.13392
       7 -> 17        -0.18037
       7 -> 19         0.13754
       8 -> 19         0.12725
       8 -> 20        -0.19121
       8 -> 22        -0.15765
       9 -> 18        -0.11953
      10 -> 22        -0.15805
      10 -> 25         0.49029

 Excited State  71:      Singlet-A"    15.3192 eV   80.93 nm  f=0.0007  <S**2>=0.000
       6 -> 13        -0.12170
       9 -> 17        -0.12680
       9 -> 20        -0.12475
       9 -> 22         0.48223
       9 -> 23        -0.10975
      12 -> 33         0.39661

 Excited State  72:      Singlet-A"    15.4129 eV   80.44 nm  f=0.0209  <S**2>=0.000
       9 -> 22        -0.37415
      12 -> 32         0.12598
      12 -> 33         0.53629
      12 -> 36        -0.11171

 Excited State  73:      Singlet-A'    15.4312 eV   80.35 nm  f=0.0038  <S**2>=0.000
       7 -> 17         0.47324
       7 -> 19        -0.17509
       8 -> 20        -0.23413
       8 -> 22         0.24420
      10 -> 25         0.19219
      11 -> 28         0.13750

 Excited State  74:      Singlet-A'    15.5204 eV   79.88 nm  f=0.4583  <S**2>=0.000
       6 -> 14        -0.14227
       7 -> 17         0.17022
       8 -> 22        -0.33938
       8 -> 23        -0.15110
      10 -> 28         0.13294
      11 -> 27         0.45905
      11 -> 28         0.10863

 Excited State  75:      Singlet-A'    15.5255 eV   79.86 nm  f=0.0545  <S**2>=0.000
       7 -> 17        -0.17307
       8 -> 22         0.46310
      11 -> 27         0.43270
      11 -> 28        -0.10151

 Excited State  76:      Singlet-A"    15.6108 eV   79.42 nm  f=0.0708  <S**2>=0.000
       7 -> 18        -0.27425
       7 -> 21        -0.14960
       8 -> 24         0.31706
       9 -> 23        -0.12447
      10 -> 26         0.39780
      11 -> 29        -0.25796
      12 -> 34        -0.11781

 Excited State  77:      Singlet-A"    15.6946 eV   79.00 nm  f=0.0000  <S**2>=0.000
       7 -> 18         0.20645
       8 -> 21         0.11559
       8 -> 24         0.26931
       9 -> 23         0.23719
      11 -> 29        -0.26092
      12 -> 32        -0.11233
      12 -> 34         0.42064

 Excited State  78:      Singlet-A'    15.7117 eV   78.91 nm  f=0.1938  <S**2>=0.000
       6 -> 14         0.17736
       7 -> 17         0.15080
       7 -> 19         0.13312
       8 -> 23         0.55942
      11 -> 27         0.13110
      11 -> 28        -0.16816

 Excited State  79:      Singlet-A"    15.7407 eV   78.77 nm  f=0.1201  <S**2>=0.000
       6 -> 13        -0.10207
       7 -> 18         0.36483
       8 -> 21         0.10546
       8 -> 24         0.19836
       9 -> 20         0.11392
       9 -> 23        -0.30114
      10 -> 26        -0.15544
      11 -> 26        -0.10918
      11 -> 29        -0.17153
      12 -> 34        -0.28854

 Excited State  80:      Singlet-A'    15.7430 eV   78.76 nm  f=0.0125  <S**2>=0.000
       6 -> 14         0.61692
       6 -> 16         0.10622
       8 -> 23        -0.22305

 Excited State  81:      Singlet-A"    15.7762 eV   78.59 nm  f=0.0001  <S**2>=0.000
       7 -> 18         0.16611
       9 -> 17         0.12596
       9 -> 19         0.14994
       9 -> 20        -0.18737
       9 -> 22         0.10655
       9 -> 23         0.43999
      10 -> 26         0.10786
      12 -> 32         0.11825
      12 -> 34        -0.36926

 Excited State  82:      Singlet-A"    15.8582 eV   78.18 nm  f=0.0046  <S**2>=0.000
       7 -> 18         0.36980
       7 -> 24        -0.11784
       9 -> 23        -0.11608
      10 -> 26         0.45356
      11 -> 29         0.25953
      12 -> 34         0.12751

 Excited State  83:      Singlet-A'    15.9185 eV   77.89 nm  f=0.0093  <S**2>=0.000
       6 -> 16        -0.13090
       7 -> 17         0.23178
       7 -> 19         0.35695
       8 -> 20        -0.13284
       8 -> 23        -0.20442
       8 -> 25         0.13894
      10 -> 27         0.15313
      11 -> 28        -0.35592

 Excited State  84:      Singlet-A'    15.9630 eV   77.67 nm  f=0.0838  <S**2>=0.000
       7 -> 19         0.36886
       9 -> 24         0.40231
      10 -> 27        -0.16423
      11 -> 28         0.27907
      12 -> 35        -0.16222

 Excited State  85:      Singlet-A'    16.0734 eV   77.14 nm  f=0.0018  <S**2>=0.000
       9 -> 24         0.11007
      11 -> 28         0.12887
      12 -> 35         0.63860
      12 -> 40         0.11727

 Excited State  86:      Singlet-A'    16.0946 eV   77.03 nm  f=0.0611  <S**2>=0.000
       7 -> 19        -0.11011

 The electronic state is 1-A'.
 Alpha  occ. eigenvalues --  -10.26381 -10.25602 -10.24900  -0.86535  -0.76019
 Alpha  occ. eigenvalues --   -0.62418  -0.53997  -0.49218  -0.48300  -0.43887
 Alpha  occ. eigenvalues --   -0.41044  -0.32191
 Alpha virt. eigenvalues --    0.05823   0.06010   0.08489   0.08976   0.13870
 Alpha virt. eigenvalues --    0.14734   0.15995   0.17064   0.18438   0.19666
 Alpha virt. eigenvalues --    0.20343   0.21730   0.23687   0.26308   0.27540

 Mulliken charges:
               1
     1  C    0.797218
     2  C   -0.297418
     3  C    0.162282
     4  H   -0.051486
     5  H   -0.031686
     6  H   -0.051486
     7  H   -0.293346
     8  H   -0.142417
     9  H   -0.091662
 Sum of Mulliken charges =  -0.00000

 Dipole moment (field-independent basis, Debye):
    X=             -0.3987    Y=             -0.0408    Z=              0.0000  Tot=              0.4008
 Quadrupole moment (field-independent basis, Debye-Ang):
   XX=            -19.5041   YY=            -19.4036   ZZ=            -21.9002
   XY=             -0.2391   XZ=              0.0000   YZ=              0.0000

 1\1\GINC-HEL24\SP\RCAM-B3LYP TD-FC\Gen\C3H6\SABYASACHI\21-Mar-2022\0\\
 #P TD(Nstates=10000) cam-b3lyp/Gen SCF(maxcycles=100) Int(Grid=ultrafi
 ne)\\xGDB7_00001_tier4.com\\0,1\C,0,-1.131573,-0.504386,0.\C,0,0.,0.47
 2223,0.\C,0,1.284136,0.150792,0.\H,0,-1.767446,-0.362775,0.877699\H,0,
 -0.770123,-1.533458,0.\H,0,-1.767446,-0.362775,-0.877699\H,0,-0.276551
 ,1.523465,0.\H,0,1.608435,-0.884556,0.\H,0,2.057749,0.908326,0.\\Versi
 on=EM64L-G16RevC.01\State=1-A'\HF=-117.7490315\RMSD=8.414e-09\PG=CS [S
 G(C3H4),X(H2)]\\@

 Normal termination of Gaussian 16 at Mon Mar 21 20:19:47 2022.
