 Gaussian 16, Revision C.01,
 Gaussian 16:  EM64L-G16RevC.01  3-Jul-2019

 ----------------------------------------------------------------------
 #P TD(Nstates=10000) cam-b3lyp/Gen SCF(maxcycles=100) Int(Grid=ultrafi
 ne)
 ----------------------------------------------------------------------

 ---------------------
 xGDB7_00001_tier4.com
 ---------------------
 Symbolic Z-matrix:
 Charge =  0 Multiplicity = 1

                         Standard orientation:
 ---------------------------------------------------------------------
 Center     Atomic      Atomic             Coordinates (Angstroms)
 Number     Number       Type             X           Y           Z
 ---------------------------------------------------------------------
      1          6           0        0.000000    0.000000   -1.173653
      2          6           0        0.000000    0.000000    0.280989
      3          7           0        0.000000    0.000000    1.427442
      4          1           0        0.000000    1.024088   -1.545371
      5          1           0       -0.886886   -0.512044   -1.545371
      6          1           0        0.886886   -0.512044   -1.545371
 ---------------------------------------------------------------------

 SCF Done:  E(RCAM-B3LYP) =  -132.588923009     A.U. after   12 cycles

 Excitation energies and oscillator strengths:

 Excited state symmetry could not be determined.
 Excited State   1:      Singlet-?Sym    7.8788 eV  157.36 nm  f=0.0000  <S**2>=0.000
      10 -> 14        -0.47749
      10 -> 17         0.12080
      11 -> 13         0.47749
      11 -> 16         0.12080
 This state for optimization and/or second-order correction.
 Total Energy, E(TD-HF/TD-DFT) =  -132.299383194
 Copying the excited state density for this state as the 1-particle RhoCI density.

 Excited state symmetry could not be determined.
 Excited State   2:      Singlet-?Sym    8.2293 eV  150.66 nm  f=0.0015  <S**2>=0.000
      10 -> 14         0.47993
      10 -> 17        -0.11353
      11 -> 13         0.47993
      11 -> 16         0.11353

 Excited state symmetry could not be determined.
 Excited State   3:      Singlet-?Sym    8.2293 eV  150.66 nm  f=0.0015  <S**2>=0.000
      10 -> 13         0.47993
      10 -> 16         0.11353
      11 -> 14        -0.47993
      11 -> 17         0.11353

 Excited State   4:      Singlet-E      8.8109 eV  140.72 nm  f=0.0028  <S**2>=0.000
      10 -> 12         0.68266
      10 -> 15         0.16346

 Excited State   5:      Singlet-E      8.8109 eV  140.72 nm  f=0.0028  <S**2>=0.000
      11 -> 12         0.68266
      11 -> 15         0.16346

 Excited State   6:      Singlet-E      9.5987 eV  129.17 nm  f=0.0182  <S**2>=0.000
       9 -> 13         0.67878
       9 -> 16         0.15952

 Excited State   7:      Singlet-E      9.5987 eV  129.17 nm  f=0.0182  <S**2>=0.000
       9 -> 14         0.67878
       9 -> 17        -0.15952

 Excited State   8:      Singlet-A1     9.9621 eV  124.46 nm  f=0.0302  <S**2>=0.000
       9 -> 12         0.66451
       9 -> 15         0.22032

 Excited State   9:      Singlet-E     10.6714 eV  116.18 nm  f=0.0890  <S**2>=0.000
       7 -> 12        -0.10539
      10 -> 12        -0.15908
      10 -> 15         0.67409

 Excited State  10:      Singlet-E     10.6714 eV  116.18 nm  f=0.0890  <S**2>=0.000
       8 -> 12        -0.10539
      11 -> 12        -0.15908
      11 -> 15         0.67409

 Excited state symmetry could not be determined.
 Excited State  11:      Singlet-?Sym   11.0298 eV  112.41 nm  f=0.6219  <S**2>=0.000
       9 -> 15         0.13865
      10 -> 13         0.41479
      10 -> 16        -0.21019
      10 -> 18         0.10932
      11 -> 14         0.41479
      11 -> 17         0.21019
      11 -> 19         0.10932

 Excited state symmetry could not be determined.
 Excited State  12:      Singlet-?Sym   11.5603 eV  107.25 nm  f=0.0000  <S**2>=0.000
       7 -> 14         0.11554
       8 -> 13        -0.11554
      10 -> 14         0.13449
      10 -> 17         0.42748
      10 -> 19         0.17736
      11 -> 13        -0.13449
      11 -> 16         0.42748
      11 -> 18        -0.17736

 Excited state symmetry could not be determined.
 Excited State  13:      Singlet-?Sym   11.5956 eV  106.92 nm  f=0.0201  <S**2>=0.000
      10 -> 14        -0.12204
      10 -> 17        -0.45988
      10 -> 19        -0.10983
      11 -> 13        -0.12204
      11 -> 16         0.45988
      11 -> 18        -0.10983

 Excited state symmetry could not be determined.
 Excited State  14:      Singlet-?Sym   11.5956 eV  106.92 nm  f=0.0201  <S**2>=0.000
      10 -> 13        -0.12204
      10 -> 16         0.45988
      10 -> 18        -0.10983
      11 -> 14         0.12205
      11 -> 17         0.45988
      11 -> 19         0.10983

 Excited State  15:      Singlet-A1    11.8421 eV  104.70 nm  f=0.0019  <S**2>=0.000
       9 -> 12        -0.20407
       9 -> 15         0.60187
       9 -> 20        -0.11792
      10 -> 16         0.17928
      11 -> 17        -0.17928

 Excited state symmetry could not be determined.
 Excited State  16:      Singlet-?Sym   12.1073 eV  102.40 nm  f=0.0000  <S**2>=0.000
      10 -> 17        -0.19436
      10 -> 19         0.44747
      11 -> 16        -0.19436
      11 -> 18        -0.44746

 Excited State  17:      Singlet-E     12.1892 eV  101.72 nm  f=0.0319  <S**2>=0.000
       8 -> 12         0.14837
      10 -> 18         0.26250
      11 -> 19        -0.26251
      11 -> 20         0.53685

 Excited State  18:      Singlet-E     12.1892 eV  101.72 nm  f=0.0319  <S**2>=0.000
       7 -> 12         0.14842
      10 -> 19         0.26249
      10 -> 20         0.53684
      11 -> 18         0.26250

 Excited State  19:      Singlet-E     12.2316 eV  101.36 nm  f=0.0980  <S**2>=0.000
       8 -> 12         0.63223
      10 -> 18        -0.20051
      11 -> 19         0.20054

 Excited State  20:      Singlet-E     12.2316 eV  101.36 nm  f=0.0980  <S**2>=0.000
       7 -> 12         0.63222
      10 -> 19        -0.20054
      11 -> 18        -0.20054

 Excited state symmetry could not be determined.
 Excited State  21:      Singlet-?Sym   12.2662 eV  101.08 nm  f=0.0121  <S**2>=0.000
      10 -> 16         0.22327
      10 -> 18         0.43702
      11 -> 17        -0.22325
      11 -> 19         0.43693

 Excited State  22:      Singlet-E     12.2828 eV  100.94 nm  f=0.0000  <S**2>=0.000
       7 -> 12        -0.23723
      10 -> 19        -0.34420
      10 -> 20         0.41326
      11 -> 18        -0.34421

 Excited State  23:      Singlet-E     12.2828 eV  100.94 nm  f=0.0000  <S**2>=0.000
       8 -> 12        -0.23723
      10 -> 18        -0.34417
      11 -> 19         0.34426
      11 -> 20         0.41325

 Excited state symmetry could not be determined.
 Excited State  24:      Singlet-?Sym   12.5445 eV   98.84 nm  f=0.6683  <S**2>=0.000
       7 -> 13         0.16038
       8 -> 14         0.16038
       9 -> 15        -0.19362
       9 -> 24         0.12828
      10 -> 13         0.21247
      10 -> 16         0.31923
      10 -> 18        -0.18040
      11 -> 14         0.21247
      11 -> 17        -0.31923
      11 -> 19        -0.18040

 Excited state symmetry could not be determined.
 Excited State  25:      Singlet-?Sym   12.6262 eV   98.20 nm  f=0.0000  <S**2>=0.000
       7 -> 14        -0.47686
       8 -> 13         0.47685

 Excited state symmetry could not be determined.
 Excited State  26:      Singlet-?Sym   12.8312 eV   96.63 nm  f=0.0307  <S**2>=0.000
       6 -> 14        -0.11335
       7 -> 13         0.47084
       8 -> 14        -0.47084

 Excited state symmetry could not be determined.
 Excited State  27:      Singlet-?Sym   12.8312 eV   96.63 nm  f=0.0307  <S**2>=0.000
       6 -> 13        -0.11335
       7 -> 14         0.47084
       8 -> 13         0.47084

 Excited State  28:      Singlet-E     12.9421 eV   95.80 nm  f=0.0054  <S**2>=0.000
       9 -> 14         0.16498
       9 -> 17         0.63621
       9 -> 19         0.21133

 Excited State  29:      Singlet-E     12.9421 eV   95.80 nm  f=0.0054  <S**2>=0.000
       9 -> 13        -0.16498
       9 -> 16         0.63621
       9 -> 18        -0.21133

 Excited State  30:      Singlet-A1    13.4389 eV   92.26 nm  f=0.2306  <S**2>=0.000
       9 -> 15         0.16036
       9 -> 20         0.65419
       9 -> 23        -0.12003

 Excited State  31:      Singlet-E     13.4834 eV   91.95 nm  f=0.0010  <S**2>=0.000
       9 -> 17        -0.21180
       9 -> 19         0.65315
       9 -> 22         0.12273

 Excited State  32:      Singlet-E     13.4834 eV   91.95 nm  f=0.0010  <S**2>=0.000
       9 -> 16         0.21180
       9 -> 18         0.65315
       9 -> 21        -0.12273

 Excited State  33:      Singlet-A1    13.5120 eV   91.76 nm  f=0.1069  <S**2>=0.000
       6 -> 12         0.68647

 Excited state symmetry could not be determined.
 Excited State  34:      Singlet-?Sym   13.6992 eV   90.50 nm  f=0.0020  <S**2>=0.000
       6 -> 15         0.12436
       7 -> 13         0.42258
       8 -> 14         0.42258
       9 -> 20        -0.10906
       9 -> 24        -0.13476
      10 -> 21         0.14142
      11 -> 22        -0.14141

 Excited state symmetry could not be determined.
 Excited State  35:      Singlet-?Sym   13.9973 eV   88.58 nm  f=0.0001  <S**2>=0.000
       6 -> 13        -0.10715
       7 -> 15         0.31821
      10 -> 22        -0.41302
      11 -> 21         0.41302

 Excited state symmetry could not be determined.
 Excited State  36:      Singlet-?Sym   13.9973 eV   88.58 nm  f=0.0001  <S**2>=0.000
       6 -> 14        -0.10715
       8 -> 15         0.31824
      10 -> 21         0.41300
      11 -> 22         0.41300

 Excited state symmetry could not be determined.
 Excited State  37:      Singlet-?Sym   14.0300 eV   88.37 nm  f=0.0000  <S**2>=0.000
      10 -> 22         0.47753
      11 -> 21         0.47753

 Excited State  38:      Singlet-E     14.0752 eV   88.09 nm  f=0.0126  <S**2>=0.000
       6 -> 13         0.54042
       7 -> 15        -0.27674
      10 -> 20         0.10942
      10 -> 22        -0.16545
      10 -> 23        -0.10783
      11 -> 21         0.16545

 Excited State  39:      Singlet-E     14.0752 eV   88.09 nm  f=0.0126  <S**2>=0.000
       6 -> 14         0.54044
       8 -> 15        -0.27669
      10 -> 21         0.16546
      11 -> 20         0.10942
      11 -> 22         0.16546
      11 -> 23        -0.10784

 Excited State  40:      Singlet-E     14.0841 eV   88.03 nm  f=0.0221  <S**2>=0.000
       6 -> 13         0.27160
       7 -> 15         0.51150
      10 -> 22         0.16963
      10 -> 23        -0.13382
      10 -> 24        -0.23589
      11 -> 21        -0.16962

 Excited State  41:      Singlet-E     14.0841 eV   88.03 nm  f=0.0221  <S**2>=0.000
       6 -> 14         0.27156
       8 -> 15         0.51151
      10 -> 21        -0.16966
      11 -> 22        -0.16966
      11 -> 23        -0.13381
      11 -> 24        -0.23589

 Excited State  42:      Singlet-E     14.5806 eV   85.03 nm  f=0.0013  <S**2>=0.000
       6 -> 14         0.21094
       7 -> 18        -0.11837
       8 -> 15         0.14468
       8 -> 19         0.11837
       8 -> 20         0.11379
      11 -> 23         0.44165
      11 -> 24         0.40862

 Excited State  43:      Singlet-E     14.5806 eV   85.03 nm  f=0.0013  <S**2>=0.000
       6 -> 13         0.21094
       7 -> 15         0.14468
       7 -> 19        -0.11837
       7 -> 20         0.11379
       8 -> 18        -0.11837
      10 -> 23         0.44165
      10 -> 24         0.40862

 Excited state symmetry could not be determined.
 Excited State  44:      Singlet-?Sym   14.7273 eV   84.19 nm  f=0.0147  <S**2>=0.000
       6 -> 15         0.16097
       6 -> 20         0.13651
       7 -> 13         0.10267
       8 -> 14         0.10267
       9 -> 23         0.22547
      10 -> 21        -0.40543
      11 -> 22         0.40543

 Excited state symmetry could not be determined.
 Excited State  45:      Singlet-?Sym   14.7643 eV   83.98 nm  f=0.0420  <S**2>=0.000
       7 -> 16         0.48277
       8 -> 17         0.48276

 Excited state symmetry could not be determined.
 Excited State  46:      Singlet-?Sym   14.7643 eV   83.98 nm  f=0.0420  <S**2>=0.000
       7 -> 17        -0.48276
       8 -> 16         0.48277

 Excited state symmetry could not be determined.
 Excited State  47:      Singlet-?Sym   14.7807 eV   83.88 nm  f=0.0000  <S**2>=0.000
       7 -> 17         0.48008
       8 -> 16         0.48007

 Excited State  48:      Singlet-E     14.9897 eV   82.71 nm  f=0.0458  <S**2>=0.000
       9 -> 22         0.62794
       9 -> 29         0.13949
      11 -> 23         0.16422

 Excited State  49:      Singlet-E     14.9897 eV   82.71 nm  f=0.0458  <S**2>=0.000
       9 -> 21         0.62794
       9 -> 28         0.13949
      10 -> 23        -0.16422

 Excited state symmetry could not be determined.
 Excited State  50:      Singlet-?Sym   15.0805 eV   82.21 nm  f=0.0000  <S**2>=0.000
       7 -> 19         0.46803
       8 -> 18        -0.46803
      10 -> 25        -0.11716
      11 -> 26        -0.11716

 Excited State  51:      Singlet-E     15.1106 eV   82.05 nm  f=0.0001  <S**2>=0.000
       8 -> 20        -0.11462
       9 -> 22         0.18699
      11 -> 23        -0.44565
      11 -> 24         0.46336

 Excited State  52:      Singlet-E     15.1106 eV   82.05 nm  f=0.0001  <S**2>=0.000
       7 -> 20        -0.11462
       9 -> 21        -0.18699
      10 -> 23        -0.44565
      10 -> 24         0.46336

 Excited state symmetry could not be determined.
 Excited State  53:      Singlet-?Sym   15.1973 eV   81.58 nm  f=0.0040  <S**2>=0.000
       6 -> 15         0.18857
       6 -> 20        -0.12357
       7 -> 16        -0.30596
       7 -> 18         0.32864
       8 -> 17         0.30596
       8 -> 19         0.32864
      10 -> 26         0.10972
      11 -> 25        -0.10972

 Excited State  54:      Singlet-A1    15.4363 eV   80.32 nm  f=0.0033  <S**2>=0.000
       6 -> 15         0.43816
       7 -> 16        -0.20417
       7 -> 18        -0.31008
       8 -> 17         0.20417
       8 -> 19        -0.31008

 Excited State  55:      Singlet-E     15.4527 eV   80.23 nm  f=0.0316  <S**2>=0.000
       7 -> 18        -0.20989
       8 -> 15        -0.10206
       8 -> 19         0.20989
       8 -> 20         0.56014
      11 -> 23        -0.18186

 Excited State  56:      Singlet-E     15.4527 eV   80.23 nm  f=0.0316  <S**2>=0.000
       7 -> 15        -0.10206
       7 -> 19        -0.20989
       7 -> 20         0.56014
       8 -> 18        -0.20989
      10 -> 23        -0.18186

 Excited State  57:      Singlet-A1    15.7626 eV   78.66 nm  f=0.0483  <S**2>=0.000
       6 -> 15        -0.21368
       6 -> 20        -0.10963
       9 -> 23         0.51342
      10 -> 21         0.12555
      10 -> 26        -0.18733
      11 -> 22        -0.12555
      11 -> 25         0.18733

 Excited State  58:      Singlet-E     15.8216 eV   78.36 nm  f=0.2620  <S**2>=0.000
       6 -> 13        -0.12915
       6 -> 16         0.43712
       7 -> 19        -0.29467
       7 -> 20        -0.28972
       8 -> 18        -0.29468

 Excited State  59:      Singlet-E     15.8216 eV   78.36 nm  f=0.2620  <S**2>=0.000
       6 -> 14         0.12915
       6 -> 17         0.43712
       7 -> 18         0.29467
       8 -> 19        -0.29467
       8 -> 20         0.28972

 Excited State  60:      Singlet-A1    16.0264 eV   77.36 nm  f=0.1225  <S**2>=0.000
       6 -> 15         0.34714
       7 -> 16         0.22965
       7 -> 18         0.14222
       8 -> 17        -0.22965
       8 -> 19         0.14221
       9 -> 24         0.37258
      10 -> 21         0.11013
      10 -> 26        -0.10870
      11 -> 22        -0.11013
      11 -> 25         0.10869

 Excited State  61:      Singlet-E     16.1078 eV   76.97 nm  f=0.0279  <S**2>=0.000
       6 -> 16         0.46143
       6 -> 18        -0.12052
       7 -> 19         0.25977
       7 -> 20         0.13560
       8 -> 18         0.25978
      10 -> 25         0.21695
      11 -> 26        -0.21701

 Excited State  62:      Singlet-E     16.1078 eV   76.97 nm  f=0.0279  <S**2>=0.000
       6 -> 17         0.46143
       6 -> 19         0.12052
       7 -> 18        -0.25978
       8 -> 19         0.25978
       8 -> 20        -0.13561
      10 -> 26         0.21698
      11 -> 25         0.21697

 Excited state symmetry could not be determined.
 Excited State  63:      Singlet-?Sym   16.1439 eV   76.80 nm  f=0.0000  <S**2>=0.000
       7 -> 19         0.12065
       8 -> 18        -0.12062
      10 -> 25         0.47205
      11 -> 26         0.47203

 Excited state symmetry could not be determined.
 Excited State  64:      Singlet-?Sym   16.2351 eV   76.37 nm  f=0.0107  <S**2>=0.000
       6 -> 15        -0.11519
       7 -> 16        -0.12874
       8 -> 17         0.12874
       9 -> 23        -0.27821
       9 -> 24         0.14257
      10 -> 26        -0.36446
      10 -> 28         0.12040
      11 -> 25         0.36446
      11 -> 29        -0.12039

 Excited State  65:      Singlet-A1    16.4269 eV   75.48 nm  f=0.0433  <S**2>=0.000
       6 -> 15        -0.15678
       7 -> 16        -0.11120
       7 -> 18        -0.11890
       8 -> 17         0.11120
       8 -> 19        -0.11890
       9 -> 23        -0.15307
       9 -> 24         0.46932
      10 -> 26         0.15352
      10 -> 28        -0.19594
      11 -> 25        -0.15351
      11 -> 29         0.19594

 Excited State  66:      Singlet-E     16.6045 eV   74.67 nm  f=0.0144  <S**2>=0.000
       6 -> 17        -0.14993
       6 -> 19         0.65898
       9 -> 25        -0.14297

 Excited State  67:      Singlet-E     16.6045 eV   74.67 nm  f=0.0144  <S**2>=0.000
       6 -> 16         0.14993
       6 -> 18         0.65898
       9 -> 26         0.14297

 Excited state symmetry could not be determined.
 Excited State  68:      Singlet-?Sym   16.6998 eV   74.24 nm  f=0.4594  <S**2>=0.000
       6 -> 13        -0.11807
       6 -> 16        -0.20000
       7 -> 19        -0.11312
       8 -> 18        -0.11313
      10 -> 25         0.40582
      10 -> 29         0.10798
      11 -> 26        -0.40582
      11 -> 28        -0.10798

 Excited state symmetry could not be determined.
 Excited State  69:      Singlet-?Sym   16.6998 eV   74.24 nm  f=0.4594  <S**2>=0.000
       6 -> 14         0.11807
       6 -> 17        -0.19999
       7 -> 18         0.11312
       8 -> 19        -0.11312
      10 -> 26         0.40582
      10 -> 28         0.10799
      11 -> 25         0.40583
      11 -> 29         0.10798

 Excited state symmetry could not be determined.
 Excited State  70:      Singlet-?Sym   17.0820 eV   72.58 nm  f=0.0000  <S**2>=0.000
       7 -> 22        -0.14799
       8 -> 21        -0.14799
      10 -> 29         0.45421
      11 -> 28         0.45421

 Excited state symmetry could not be determined.
 Excited State  71:      Singlet-?Sym   17.1852 eV   72.15 nm  f=0.0718  <S**2>=0.000
       7 -> 21        -0.13888
       8 -> 22        -0.13888
       9 -> 25        -0.36022
      10 -> 28         0.36651
      11 -> 27         0.12473
      11 -> 29         0.36652

 Excited state symmetry could not be determined.
 Excited State  72:      Singlet-?Sym   17.1852 eV   72.15 nm  f=0.0719  <S**2>=0.000
       7 -> 22         0.13889
       8 -> 21        -0.13889
       9 -> 26         0.36015
      10 -> 27         0.12476
      10 -> 29        -0.36653
      11 -> 28         0.36654

 Excited State  73:      Singlet-E     17.1926 eV   72.11 nm  f=0.0498  <S**2>=0.000
       6 -> 18        -0.16430
       9 -> 26         0.55358
      10 -> 27        -0.11782
      10 -> 29         0.20246
      11 -> 28        -0.20246

 Excited State  74:      Singlet-E     17.1926 eV   72.11 nm  f=0.0498  <S**2>=0.000
       6 -> 19         0.16430
       9 -> 25         0.55353
      10 -> 28         0.20250
      11 -> 27         0.11784
      11 -> 29         0.20250

 Excited State  75:      Singlet-E     17.2519 eV   71.87 nm  f=0.0758  <S**2>=0.000
      10 -> 28        -0.10977
      11 -> 27         0.66771
      11 -> 29        -0.10977

 Excited State  76:      Singlet-E     17.2519 eV   71.87 nm  f=0.0758  <S**2>=0.000
      10 -> 27         0.66771
      10 -> 29         0.10978
      11 -> 28        -0.10978

 Excited State  77:      Singlet-A1    17.6439 eV   70.27 nm  f=0.4206  <S**2>=0.000
       6 -> 20         0.57800
       7 -> 21         0.20217
       8 -> 22        -0.20217
      10 -> 28        -0.10661
      11 -> 29         0.10662

 Excited State  78:      Singlet-E     17.7297 eV   69.93 nm  f=0.0158  <S**2>=0.000
      11 -> 30         0.66419
      11 -> 34        -0.11390
      11 -> 35        -0.11468

 Excited State  79:      Singlet-E     17.7297 eV   69.93 nm  f=0.0158  <S**2>=0.000
      10 -> 30         0.66419
      10 -> 34        -0.11390
      10 -> 35        -0.11468

 Excited State  80:      Singlet-E     17.9275 eV   69.16 nm  f=0.0030  <S**2>=0.000
       7 -> 21        -0.18611
       8 -> 22        -0.18611
      10 -> 31         0.64277

 Excited State  81:      Singlet-E     17.9275 eV   69.16 nm  f=0.0030  <S**2>=0.000
       7 -> 22        -0.18608
       8 -> 21         0.18607
      11 -> 31         0.64279

 Excited state symmetry could not be determined.
 Excited State  82:      Singlet-?Sym   17.9499 eV   69.07 nm  f=0.0007  <S**2>=0.000
       7 -> 21         0.41745
       8 -> 22         0.41746
      10 -> 28         0.15644
      10 -> 31         0.27979
      11 -> 29         0.15644

 Excited state symmetry could not be determined.
 Excited State  83:      Singlet-?Sym   17.9499 eV   69.07 nm  f=0.0007  <S**2>=0.000
       7 -> 22        -0.41747
       8 -> 21         0.41747
      10 -> 29        -0.15645
      11 -> 28         0.15645
      11 -> 31        -0.27974

 Excited state symmetry could not be determined.
 Excited State  84:      Singlet-?Sym   18.0199 eV   68.80 nm  f=0.0000  <S**2>=0.000
       7 -> 22         0.46362
       8 -> 21         0.46362
      10 -> 29         0.15713
      11 -> 28         0.15713

 Excited state symmetry could not be determined.
 Excited State  85:      Singlet-?Sym   18.0908 eV   68.53 nm  f=0.0002  <S**2>=0.000
       6 -> 20        -0.27646
       7 -> 21         0.38806
       8 -> 22        -0.38806
       9 -> 23        -0.10730
       9 -> 27        -0.13778
      10 -> 28        -0.11296
      11 -> 29         0.11296

 Excited State  86:      Singlet-E     18.1179 eV   68.43 nm  f=0.0138  <S**2>=0.000

 The electronic state is 1-A1.
 Alpha  occ. eigenvalues --  -14.40455 -10.31760 -10.30816  -0.98858  -0.85909
 Alpha  occ. eigenvalues --   -0.58933  -0.54103  -0.54103  -0.43632  -0.40454
 Alpha  occ. eigenvalues --   -0.40454
 Alpha virt. eigenvalues --    0.03563   0.07635   0.07635   0.09868   0.14190
 Alpha virt. eigenvalues --    0.14190   0.16260   0.16260   0.17566   0.24699
 Alpha virt. eigenvalues --    0.24699   0.26911   0.28330   0.32984   0.32984

 Mulliken charges:
               1
     1  C    0.496393
     2  C   -0.366956
     3  N    0.009348
     4  H   -0.046262
     5  H   -0.046262
     6  H   -0.046262
 Sum of Mulliken charges =  -0.00000

 Dipole moment (field-independent basis, Debye):
    X=             -0.0000    Y=              0.0000    Z=             -4.0463  Tot=              4.0463
 Quadrupole moment (field-independent basis, Debye-Ang):
   XX=            -17.7160   YY=            -17.7160   ZZ=            -21.2336
   XY=             -0.0000   XZ=              0.0000   YZ=             -0.0000

 Normal termination of Gaussian 16 at Mon Mar 21 20:08:09 2022.
