 Gaussian 16, Revision C.01,
 Gaussian 16:  EM64L-G16RevC.01  3-Jul-2019

 ----------------------------------------------------------------------
 #P TD(Nstates=10000) cam-b3lyp/Gen SCF(maxcycles=100) Int(Grid=ultrafi
 ne)
 ----------------------------------------------------------------------

 ---------------------
 xGDB7_00001_tier4.com
 ---------------------
 Symbolic Z-matrix:
 Charge =  0 Multiplicity = 1

                         Standard orientation:
 ---------------------------------------------------------------------
 Center     Atomic      Atomic             Coordinates (Angstroms)
 Number     Number       Type             X           Y           Z
 ---------------------------------------------------------------------
      1          7           0        1.106441    0.142513   -0.090982
      2          7           0       -0.080753   -0.512520    0.006066
      3          6           0       -1.148696    0.167456    0.008166
      4          1           0        1.854749   -0.409916    0.291533
      5          1           0        1.109676    1.100453    0.242713
      6          1           0       -2.089851   -0.366199    0.035249
      7          1           0       -1.162209    1.260974   -0.024080
 ---------------------------------------------------------------------

 SCF Done:  E(RCAM-B3LYP) =  -149.790214074     A.U. after   14 cycles

 Excitation energies and oscillator strengths:

 Excited State   1:      Singlet-A      5.8277 eV  212.75 nm  f=0.0057  <S**2>=0.000
      11 -> 13         0.67246
      11 -> 14        -0.13889
      12 -> 13         0.13994
 This state for optimization and/or second-order correction.
 Total Energy, E(TD-HF/TD-DFT) =  -149.576050935
 Copying the excited state density for this state as the 1-particle RhoCI density.

 Excited State   2:      Singlet-A      6.1454 eV  201.75 nm  f=0.1666  <S**2>=0.000
      11 -> 13        -0.12772
      12 -> 13         0.66374
      12 -> 14         0.15618

 Excited State   3:      Singlet-A      6.5117 eV  190.40 nm  f=0.0593  <S**2>=0.000
      12 -> 13        -0.15978
      12 -> 14         0.65337
      12 -> 15         0.17780

 Excited State   4:      Singlet-A      7.4762 eV  165.84 nm  f=0.0277  <S**2>=0.000
      12 -> 14        -0.16911
      12 -> 15         0.65178
      12 -> 16         0.17176

 Excited State   5:      Singlet-A      7.8470 eV  158.00 nm  f=0.0350  <S**2>=0.000
      11 -> 13         0.14165
      11 -> 14         0.67212

 Excited State   6:      Singlet-A      8.0172 eV  154.65 nm  f=0.0200  <S**2>=0.000
      12 -> 15        -0.15233
      12 -> 16         0.67182

 Excited State   7:      Singlet-A      8.6883 eV  142.70 nm  f=0.0172  <S**2>=0.000
      11 -> 15         0.66662
      12 -> 17         0.16002

 Excited State   8:      Singlet-A      8.7816 eV  141.19 nm  f=0.0130  <S**2>=0.000
      11 -> 15        -0.16221
      12 -> 17         0.64404
      12 -> 18         0.17344

 Excited State   9:      Singlet-A      9.2167 eV  134.52 nm  f=0.0138  <S**2>=0.000
      11 -> 16        -0.12920
      12 -> 17        -0.16328
      12 -> 18         0.65002
      12 -> 19         0.10227

 Excited State  10:      Singlet-A      9.3562 eV  132.52 nm  f=0.1346  <S**2>=0.000
      11 -> 16         0.67052
      12 -> 18         0.12333

 Excited State  11:      Singlet-A      9.6421 eV  128.59 nm  f=0.0077  <S**2>=0.000
       9 -> 13        -0.29896
      10 -> 13         0.17363
      12 -> 19         0.59052

 Excited State  12:      Singlet-A      9.7613 eV  127.02 nm  f=0.0068  <S**2>=0.000
       9 -> 13         0.50648
       9 -> 14        -0.11138
      10 -> 13        -0.28646
      12 -> 19         0.35356

 Excited State  13:      Singlet-A     10.0407 eV  123.48 nm  f=0.0387  <S**2>=0.000
      11 -> 17         0.56847
      11 -> 18         0.34180
      12 -> 20        -0.11439

 Excited State  14:      Singlet-A     10.3638 eV  119.63 nm  f=0.0626  <S**2>=0.000
      10 -> 13        -0.13395
      11 -> 17        -0.33212
      11 -> 18         0.58002

 Excited State  15:      Singlet-A     10.4651 eV  118.47 nm  f=0.1106  <S**2>=0.000
       9 -> 13         0.31942
      10 -> 13         0.54083
      11 -> 17        -0.17299
      12 -> 21         0.11449

 Excited State  16:      Singlet-A     10.6606 eV  116.30 nm  f=0.0123  <S**2>=0.000
      11 -> 18        -0.13903
      11 -> 19         0.48909
      12 -> 20        -0.46767

 Excited State  17:      Singlet-A     10.7541 eV  115.29 nm  f=0.0446  <S**2>=0.000
      12 -> 21         0.67635

 Excited State  18:      Singlet-A     10.7872 eV  114.94 nm  f=0.0463  <S**2>=0.000
      11 -> 19         0.47877
      12 -> 20         0.46770

 Excited State  19:      Singlet-A     10.9845 eV  112.87 nm  f=0.0259  <S**2>=0.000
      10 -> 14         0.63505
      10 -> 15         0.17784
      12 -> 22        -0.15038

 Excited State  20:      Singlet-A     11.1190 eV  111.51 nm  f=0.0711  <S**2>=0.000
      10 -> 14         0.13907
      12 -> 22         0.66620

 Excited State  21:      Singlet-A     11.6098 eV  106.79 nm  f=0.0180  <S**2>=0.000
      11 -> 20         0.67491

 Excited State  22:      Singlet-A     11.7130 eV  105.85 nm  f=0.1196  <S**2>=0.000
       9 -> 13         0.11692
       9 -> 14         0.62392
      10 -> 15         0.15374
      11 -> 21        -0.10662
      12 -> 24        -0.13094

 Excited State  23:      Singlet-A     11.8196 eV  104.90 nm  f=0.0370  <S**2>=0.000
       9 -> 14         0.11183
      11 -> 21        -0.29366
      12 -> 23         0.34546
      12 -> 24         0.48187

 Excited State  24:      Singlet-A     11.8846 eV  104.32 nm  f=0.0597  <S**2>=0.000
       9 -> 14         0.13529
      11 -> 21         0.59133
      11 -> 22        -0.13836
      12 -> 24         0.26967

 Excited State  25:      Singlet-A     11.9743 eV  103.54 nm  f=0.0043  <S**2>=0.000
       8 -> 13        -0.13448
       9 -> 14        -0.10562
      10 -> 15         0.29184
      12 -> 23         0.50695
      12 -> 24        -0.26753

 Excited State  26:      Singlet-A     12.0250 eV  103.11 nm  f=0.0141  <S**2>=0.000
       9 -> 14        -0.11751
      10 -> 14        -0.14954
      10 -> 15         0.53272
      10 -> 16         0.17384
      12 -> 23        -0.21262
      12 -> 24         0.22973

 Excited State  27:      Singlet-A     12.0840 eV  102.60 nm  f=0.0036  <S**2>=0.000
       8 -> 13         0.63582
       8 -> 14        -0.14242
      12 -> 25        -0.16296

 Excited State  28:      Singlet-A     12.2495 eV  101.22 nm  f=0.1027  <S**2>=0.000
      11 -> 20        -0.11661
      11 -> 21         0.14903
      11 -> 22         0.64081

 Excited State  29:      Singlet-A     12.4444 eV   99.63 nm  f=0.0568  <S**2>=0.000
      10 -> 15        -0.10326
      10 -> 16         0.47283
      12 -> 24        -0.13463
      12 -> 25        -0.41762
      12 -> 27         0.13594

 Excited State  30:      Singlet-A     12.5478 eV   98.81 nm  f=0.1029  <S**2>=0.000
       8 -> 13         0.12278
       9 -> 15        -0.11159
      10 -> 16         0.37294
      12 -> 25         0.47373
      12 -> 26         0.14679
      12 -> 27         0.20531

 Excited State  31:      Singlet-A     12.6366 eV   98.12 nm  f=0.0906  <S**2>=0.000
       7 -> 14        -0.10486
       9 -> 15         0.58822
      10 -> 16         0.13376
      12 -> 25         0.13472
      12 -> 26        -0.14874
      12 -> 27        -0.13472

 Excited State  32:      Singlet-A     12.7287 eV   97.41 nm  f=0.0184  <S**2>=0.000
      11 -> 22        -0.10670
      11 -> 23         0.66975

 Excited State  33:      Singlet-A     12.8103 eV   96.78 nm  f=0.1035  <S**2>=0.000
       9 -> 15         0.25695
      10 -> 15         0.10602
      10 -> 16        -0.22720
      12 -> 26         0.45036
      12 -> 27         0.33376

 Excited State  34:      Singlet-A     13.0909 eV   94.71 nm  f=0.0511  <S**2>=0.000
      10 -> 17         0.14200
      11 -> 24        -0.14731
      12 -> 26         0.45776
      12 -> 27        -0.44745

 Excited State  35:      Singlet-A     13.2295 eV   93.72 nm  f=0.0576  <S**2>=0.000
       9 -> 16        -0.13486
      10 -> 17        -0.13173
      11 -> 24         0.59817
      11 -> 25         0.13074
      12 -> 27        -0.17439

 Excited State  36:      Singlet-A     13.3225 eV   93.06 nm  f=0.0147  <S**2>=0.000
       7 -> 13         0.22990
       9 -> 16         0.29678
      10 -> 17         0.49068
      11 -> 24         0.20470
      11 -> 25         0.12691

 Excited State  37:      Singlet-A     13.3812 eV   92.66 nm  f=0.0015  <S**2>=0.000
       7 -> 13         0.54993
       9 -> 16         0.17656
      10 -> 17        -0.32629

 Excited State  38:      Singlet-A     13.4328 eV   92.30 nm  f=0.0209  <S**2>=0.000
       7 -> 13        -0.30788
       9 -> 16         0.53726
      10 -> 17        -0.17101
      10 -> 18        -0.11230

 Excited State  39:      Singlet-A     13.6614 eV   90.75 nm  f=0.0166  <S**2>=0.000
       9 -> 17         0.11323
      10 -> 18        -0.20371
      11 -> 24        -0.10250
      11 -> 25         0.54351
      11 -> 26        -0.19096
      11 -> 27        -0.16250

 Excited State  40:      Singlet-A     13.7604 eV   90.10 nm  f=0.0425  <S**2>=0.000
      10 -> 17        -0.13857
      10 -> 18         0.60727
      10 -> 19         0.13293
      11 -> 25         0.20903

 Excited State  41:      Singlet-A     13.9295 eV   89.01 nm  f=0.0404  <S**2>=0.000
      11 -> 25         0.25140
      11 -> 26         0.53241
      11 -> 27         0.30985

 Excited State  42:      Singlet-A     14.0609 eV   88.18 nm  f=0.0174  <S**2>=0.000
       8 -> 13         0.11004
       8 -> 14         0.47915
       9 -> 17         0.21644
       9 -> 18         0.39246
      10 -> 19         0.10557

 Excited State  43:      Singlet-A     14.1443 eV   87.66 nm  f=0.0475  <S**2>=0.000
       8 -> 14         0.16090
       9 -> 17        -0.26701
       9 -> 18        -0.15735
      10 -> 18        -0.12552
      10 -> 19         0.52822
      11 -> 26        -0.14877

 Excited State  44:      Singlet-A     14.2200 eV   87.19 nm  f=0.0286  <S**2>=0.000
       8 -> 14        -0.35243
       9 -> 17         0.27416
       9 -> 18         0.19139
      10 -> 19         0.38117
      11 -> 26         0.17010
      11 -> 27        -0.12709

 Excited State  45:      Singlet-A     14.3101 eV   86.64 nm  f=0.0431  <S**2>=0.000
       7 -> 15         0.11182
       8 -> 14        -0.20092
       9 -> 18         0.24110
       9 -> 19         0.12165
      11 -> 26        -0.30249
      11 -> 27         0.47370

 Excited State  46:      Singlet-A     14.4674 eV   85.70 nm  f=0.0092  <S**2>=0.000
       9 -> 17         0.35843
       9 -> 18        -0.21255
       9 -> 19        -0.15404
      10 -> 20         0.23581
      11 -> 26        -0.11314
      11 -> 27         0.23686
      12 -> 28         0.27580
      12 -> 29        -0.19288

 Excited State  47:      Singlet-A     14.5466 eV   85.23 nm  f=0.0224  <S**2>=0.000
       9 -> 17        -0.22721
       9 -> 18         0.21840
      10 -> 21        -0.10626
      10 -> 22        -0.10266
      12 -> 28         0.51177
      12 -> 29        -0.20061

 Excited State  48:      Singlet-A     14.6912 eV   84.39 nm  f=0.0303  <S**2>=0.000
       7 -> 14        -0.25329
       7 -> 15        -0.11362
       8 -> 15         0.15075
      10 -> 20        -0.15306
      10 -> 21        -0.10356
      12 -> 28         0.23774
      12 -> 29         0.48189
      12 -> 30         0.12302

 Excited State  49:      Singlet-A     14.7503 eV   84.06 nm  f=0.0227  <S**2>=0.000
       7 -> 14         0.48195
       7 -> 15         0.19923
       9 -> 15         0.12825
       9 -> 18        -0.18130
       9 -> 19         0.22084
      12 -> 28         0.12745
      12 -> 29         0.20960

 Excited State  50:      Singlet-A     14.8145 eV   83.69 nm  f=0.2009  <S**2>=0.000
       7 -> 14        -0.24533
       9 -> 19         0.58269
      10 -> 20         0.12899
      12 -> 29        -0.10613

 Excited State  51:      Singlet-A     14.9485 eV   82.94 nm  f=0.0413  <S**2>=0.000
       8 -> 15         0.26949
       9 -> 18        -0.10317
      10 -> 20        -0.16467
      10 -> 21        -0.10125
      10 -> 22        -0.10519
      12 -> 28        -0.10776
      12 -> 29        -0.23325
      12 -> 30         0.49452

 Excited State  52:      Singlet-A     14.9803 eV   82.77 nm  f=0.0214  <S**2>=0.000
       8 -> 15        -0.28512
      10 -> 20         0.42514
      10 -> 21        -0.10788
      12 -> 29         0.15221
      12 -> 30         0.36712

 Excited State  53:      Singlet-A     15.1647 eV   81.76 nm  f=0.0344  <S**2>=0.000
       7 -> 16        -0.11686
       8 -> 15         0.47119
       8 -> 16        -0.10868
       9 -> 17        -0.15316
       9 -> 18         0.12194
      10 -> 20         0.35580

 Excited State  54:      Singlet-A     15.2526 eV   81.29 nm  f=0.0303  <S**2>=0.000
      10 -> 21         0.62269
      12 -> 28         0.10322
      12 -> 30         0.15230
      12 -> 31         0.11760
      12 -> 32        -0.14511

 Excited State  55:      Singlet-A     15.4492 eV   80.25 nm  f=0.0347  <S**2>=0.000
       6 -> 13        -0.14628
      10 -> 22         0.12734
      11 -> 28         0.50605
      11 -> 29        -0.34528
      11 -> 30        -0.17809

 Excited State  56:      Singlet-A     15.5276 eV   79.85 nm  f=0.0219  <S**2>=0.000
       8 -> 16         0.49746
       9 -> 20         0.35865
       9 -> 21         0.13002
      10 -> 22        -0.17398
      11 -> 30        -0.12062

 Excited State  57:      Singlet-A     15.6066 eV   79.44 nm  f=0.0143  <S**2>=0.000
       8 -> 16         0.31510
       9 -> 20        -0.33017
       9 -> 21        -0.10931
      10 -> 22         0.17023
      10 -> 23        -0.12884
      11 -> 28         0.10049
      12 -> 31         0.38107

 Excited State  58:      Singlet-A     15.6159 eV   79.40 nm  f=0.0194  <S**2>=0.000
       6 -> 13        -0.20610
       8 -> 16        -0.17303
       9 -> 20         0.35749
      10 -> 22         0.31968
      11 -> 28        -0.12446
      12 -> 31         0.29294

 Excited State  59:      Singlet-A     15.6941 eV   79.00 nm  f=0.0797  <S**2>=0.000
       6 -> 13         0.29462
       8 -> 16        -0.15670
       9 -> 20         0.13763
       9 -> 23         0.11602
      10 -> 22        -0.29722
      11 -> 28         0.19417
      12 -> 31         0.39933

 Excited State  60:      Singlet-A     15.7376 eV   78.78 nm  f=0.0583  <S**2>=0.000
       6 -> 13         0.14063
       7 -> 15         0.20707
       9 -> 20         0.19543
       9 -> 21        -0.19106
       9 -> 23         0.13920
      10 -> 22         0.16889
      11 -> 28         0.26514
      11 -> 29         0.31022
      11 -> 30         0.21801
      12 -> 31        -0.17528

 Excited State  61:      Singlet-A     15.8103 eV   78.42 nm  f=0.0332  <S**2>=0.000
       6 -> 13         0.40621
       7 -> 14         0.12651
       7 -> 15        -0.23426
       7 -> 16        -0.11471
       9 -> 22         0.13853
      10 -> 22         0.29890
      10 -> 24         0.11206
      11 -> 29        -0.16410
      12 -> 31        -0.10472

 Excited State  62:      Singlet-A     15.8944 eV   78.00 nm  f=0.0149  <S**2>=0.000
       7 -> 14         0.10158
       7 -> 15        -0.28677
       9 -> 21        -0.11295
       9 -> 22         0.11595
      12 -> 32         0.19036
      12 -> 33         0.47989

 Excited State  63:      Singlet-A     16.0053 eV   77.46 nm  f=0.0085  <S**2>=0.000
       7 -> 14        -0.15497
       7 -> 15         0.32602
       7 -> 17        -0.12578
       9 -> 21        -0.20094
       9 -> 22         0.11177
       9 -> 23         0.10176
      10 -> 23        -0.10009
      10 -> 24        -0.16039
      11 -> 28        -0.21710
      11 -> 29        -0.23330
      11 -> 30        -0.22964
      12 -> 33         0.20790

 Excited State  64:      Singlet-A     16.0305 eV   77.34 nm  f=0.0447  <S**2>=0.000
       6 -> 13         0.10324
       7 -> 15         0.16446
       9 -> 21         0.25040
       9 -> 22        -0.14088
       9 -> 23        -0.12329
      10 -> 22         0.17104
      10 -> 23         0.18898
      10 -> 24         0.12064
      12 -> 29        -0.12080
      12 -> 30         0.11950
      12 -> 32         0.39566
      12 -> 33         0.17619
      12 -> 35         0.11505

 Excited State  65:      Singlet-A     16.0563 eV   77.22 nm  f=0.0677  <S**2>=0.000
       6 -> 13         0.13958
       7 -> 15         0.11274
       9 -> 21         0.41947
      10 -> 23        -0.12524
      10 -> 24        -0.18398
      11 -> 28         0.11002
      12 -> 32        -0.28909
      12 -> 33         0.20349
      12 -> 34        -0.17368

 Excited State  66:      Singlet-A     16.2118 eV   76.48 nm  f=0.0750  <S**2>=0.000
       7 -> 15         0.12351
       9 -> 21         0.12363
       9 -> 22         0.27619
       9 -> 23         0.17765
      10 -> 24         0.11853
      11 -> 29        -0.30745
      11 -> 30         0.39850
      12 -> 34         0.10654

 Excited State  67:      Singlet-A     16.2431 eV   76.33 nm  f=0.0978  <S**2>=0.000
       6 -> 13         0.11073
       8 -> 16         0.10494
       8 -> 17         0.12367
       9 -> 21        -0.15461
       9 -> 22        -0.26721
       9 -> 23        -0.10511
      10 -> 23         0.20991
      10 -> 24        -0.15287
      11 -> 29        -0.20002
      11 -> 30         0.35132
      12 -> 32        -0.15375
      12 -> 33         0.10193
      12 -> 34        -0.16472

 Excited State  68:      Singlet-A     16.3060 eV   76.04 nm  f=0.0350  <S**2>=0.000
       8 -> 17        -0.15669
       9 -> 22         0.29231
      10 -> 23         0.41358
      10 -> 24         0.23166
      12 -> 32        -0.18770
      12 -> 33         0.12977
      12 -> 34        -0.11596

 Excited State  69:      Singlet-A     16.4214 eV   75.50 nm  f=0.1120  <S**2>=0.000
       7 -> 16         0.25301
       8 -> 17         0.36509
       9 -> 22         0.21296
      10 -> 23         0.24119
      10 -> 24        -0.28540
      12 -> 34         0.12628
      12 -> 36         0.14617

 Excited State  70:      Singlet-A     16.4785 eV   75.24 nm  f=0.0242  <S**2>=0.000
       7 -> 16         0.18116
       8 -> 17         0.32318
       8 -> 18        -0.10946
       9 -> 22        -0.11036
       9 -> 23         0.19015
      10 -> 24         0.38105
      12 -> 32        -0.17183
      12 -> 33         0.19869
      12 -> 35         0.10347

 Excited State  71:      Singlet-A     16.5205 eV   75.05 nm  f=0.2550  <S**2>=0.000
       6 -> 15        -0.12637
       8 -> 17         0.13066
       8 -> 18         0.53400
       8 -> 19         0.10443
       9 -> 23        -0.19455
       9 -> 24         0.10518
      10 -> 24         0.15793
      12 -> 34        -0.10737

 Excited State  72:      Singlet-A     16.5503 eV   74.91 nm  f=0.0395  <S**2>=0.000
       9 -> 23        -0.19203
      10 -> 25        -0.19839
      10 -> 27         0.11225
      12 -> 32        -0.20544
      12 -> 33         0.12877
      12 -> 34         0.48117
      12 -> 35         0.22767

 Excited State  73:      Singlet-A     16.6394 eV   74.51 nm  f=0.1068  <S**2>=0.000
       7 -> 16        -0.22556
       8 -> 18         0.23601
       9 -> 22        -0.12360
       9 -> 23         0.41129
      10 -> 23         0.25829
      10 -> 25        -0.11638
      12 -> 34         0.12902

 Excited State  74:      Singlet-A     16.7028 eV   74.23 nm  f=0.1319  <S**2>=0.000
       7 -> 16         0.43209
       8 -> 17        -0.27153
       8 -> 18         0.17196
       8 -> 19        -0.10021
      11 -> 29        -0.10871
      11 -> 32         0.24199

 Excited State  75:      Singlet-A     16.8455 eV   73.60 nm  f=0.0626  <S**2>=0.000
       8 -> 19        -0.12566
      10 -> 25         0.32687
      11 -> 31        -0.26233
      12 -> 35         0.46436
      12 -> 36        -0.12720

 Excited State  76:      Singlet-A     16.8603 eV   73.54 nm  f=0.0305  <S**2>=0.000
       8 -> 19         0.27681
       9 -> 23         0.10522
      10 -> 25         0.13070
      11 -> 31         0.50053
      12 -> 35         0.17755
      12 -> 36        -0.20244

 Excited State  77:      Singlet-A     16.8982 eV   73.37 nm  f=0.0176  <S**2>=0.000
       8 -> 19         0.46369
      10 -> 25        -0.24206
      11 -> 31        -0.30642
      12 -> 34        -0.13251
      12 -> 36        -0.23777

 Excited State  78:      Singlet-A     16.9428 eV   73.18 nm  f=0.0210  <S**2>=0.000
       8 -> 19         0.35498
       9 -> 22        -0.14926
      10 -> 24         0.10208
      10 -> 25         0.38086
      11 -> 32         0.10939
      12 -> 34         0.20322
      12 -> 36         0.24214

 Excited State  79:      Singlet-A     16.9853 eV   73.00 nm  f=0.0177  <S**2>=0.000
       6 -> 14         0.19853
       7 -> 19        -0.10249
       9 -> 22         0.10366
       9 -> 24         0.27482
      10 -> 25        -0.21028
      11 -> 31         0.16365
      11 -> 32         0.33869
      12 -> 34        -0.11777
      12 -> 35         0.17957
      12 -> 36         0.26109

 Excited State  80:      Singlet-A     17.0326 eV   72.79 nm  f=0.1510  <S**2>=0.000
       7 -> 17         0.28828
       9 -> 21        -0.11429
       9 -> 22        -0.11660
       9 -> 24        -0.30901
      10 -> 25        -0.15343
      10 -> 26         0.10066
      11 -> 33         0.15653
      12 -> 34        -0.10285
      12 -> 35         0.18511
      12 -> 36         0.33166

 Excited State  81:      Singlet-A     17.1520 eV   72.29 nm  f=0.0021  <S**2>=0.000
       6 -> 14         0.15378
      10 -> 26         0.41644
      10 -> 27         0.39916
      11 -> 33         0.18620
      12 -> 35        -0.19471

 The electronic state is 1-A.
 Alpha  occ. eigenvalues --  -14.43808 -14.43324 -10.28494  -1.07660  -0.88193
 Alpha  occ. eigenvalues --   -0.68532  -0.60563  -0.57860  -0.49220  -0.46682
 Alpha  occ. eigenvalues --   -0.34361  -0.30333
 Alpha virt. eigenvalues --    0.03960   0.05985   0.08831   0.12082   0.15608
 Alpha virt. eigenvalues --    0.16179   0.17678   0.21225   0.21917   0.23271
 Alpha virt. eigenvalues --    0.25190   0.25865   0.28354   0.29579   0.32282

 Mulliken charges:
               1
     1  N    0.210031
     2  N   -0.231518
     3  C    0.753567
     4  H   -0.034246
     5  H   -0.018346
     6  H   -0.450674
     7  H   -0.228814
 Sum of Mulliken charges =  -0.00000

 Dipole moment (field-independent basis, Debye):
    X=              0.4013    Y=              1.6651    Z=              1.0163  Tot=              1.9915
 Quadrupole moment (field-independent basis, Debye-Ang):
   XX=            -15.0495   YY=            -18.7965   ZZ=            -20.6982
   XY=             -0.3371   XZ=              1.8635   YZ=              0.3022

 Normal termination of Gaussian 16 at Mon Mar 21 20:11:38 2022.
