 Gaussian 16, Revision C.01,
 Gaussian 16:  EM64L-G16RevC.01  3-Jul-2019

 ----------------------------------------------------------------------
 #P TD(Nstates=10000) cam-b3lyp/Gen SCF(maxcycles=100) Int(Grid=ultrafi
 ne)
 ----------------------------------------------------------------------

 ---------------------
 xGDB7_00001_tier4.com
 ---------------------
 Symbolic Z-matrix:
 Charge =  0 Multiplicity = 1

                         Standard orientation:
 ---------------------------------------------------------------------
 Center     Atomic      Atomic             Coordinates (Angstroms)
 Number     Number       Type             X           Y           Z
 ---------------------------------------------------------------------
      1          6           0       -1.208422   -0.239069   -0.021917
      2          6           0        0.083893    0.553452    0.046734
      3          8           0        1.233467   -0.256002   -0.105864
      4          1           0       -2.071999    0.425135    0.051700
      5          1           0       -1.270670   -0.957756    0.799731
      6          1           0       -1.270625   -0.788280   -0.962327
      7          1           0        0.130030    1.119197    0.986112
      8          1           0        0.125951    1.277026   -0.768547
      9          1           0        1.236751   -0.913605    0.591341
 ---------------------------------------------------------------------

 SCF Done:  E(RCAM-B3LYP) =  -154.863302539     A.U. after   12 cycles

 Excitation energies and oscillator strengths:

 Excited State   1:      Singlet-A      7.0506 eV  175.85 nm  f=0.0098  <S**2>=0.000
      13 -> 14         0.64796
      13 -> 15         0.25187
 This state for optimization and/or second-order correction.
 Total Energy, E(TD-HF/TD-DFT) =  -154.604198088
 Copying the excited state density for this state as the 1-particle RhoCI density.

 Excited State   2:      Singlet-A      8.3455 eV  148.56 nm  f=0.0213  <S**2>=0.000
      13 -> 14        -0.21202
      13 -> 15         0.58510
      13 -> 16        -0.28644

 Excited State   3:      Singlet-A      8.6025 eV  144.13 nm  f=0.0176  <S**2>=0.000
      12 -> 14         0.66237
      12 -> 15         0.13911

 Excited State   4:      Singlet-A      8.7953 eV  140.97 nm  f=0.0241  <S**2>=0.000
      13 -> 14        -0.13999
      13 -> 15         0.24897
      13 -> 16         0.61083
      13 -> 19        -0.14159

 Excited State   5:      Singlet-A      9.0715 eV  136.67 nm  f=0.0564  <S**2>=0.000
      13 -> 17         0.68803

 Excited State   6:      Singlet-A      9.5384 eV  129.98 nm  f=0.0133  <S**2>=0.000
      10 -> 14        -0.11496
      11 -> 14         0.24965
      12 -> 14        -0.13810
      12 -> 15         0.59967
      12 -> 16        -0.13652

 Excited State   7:      Singlet-A      9.8959 eV  125.29 nm  f=0.0072  <S**2>=0.000
      13 -> 18         0.56829
      13 -> 19        -0.30681
      13 -> 21         0.13931

 Excited State   8:      Singlet-A      9.9586 eV  124.50 nm  f=0.0905  <S**2>=0.000
      10 -> 14        -0.17525
      11 -> 14         0.29878
      12 -> 16         0.52730
      13 -> 18        -0.19313
      13 -> 19        -0.13046

 Excited State   9:      Singlet-A     10.0115 eV  123.84 nm  f=0.0594  <S**2>=0.000
      12 -> 16         0.28951
      13 -> 16         0.12440
      13 -> 18         0.23540
      13 -> 19         0.51910
      13 -> 20         0.14720

 Excited State  10:      Singlet-A     10.0739 eV  123.07 nm  f=0.0485  <S**2>=0.000
      10 -> 14         0.12280
      11 -> 14         0.54975
      12 -> 15        -0.23918
      12 -> 16        -0.22313
      13 -> 19         0.18427

 Excited State  11:      Singlet-A     10.3180 eV  120.16 nm  f=0.0027  <S**2>=0.000
      10 -> 14        -0.43282
      12 -> 16        -0.10499
      13 -> 18        -0.12970
      13 -> 20         0.48836

 Excited State  12:      Singlet-A     10.3560 eV  119.72 nm  f=0.0136  <S**2>=0.000
      10 -> 14        -0.36097
      11 -> 15         0.11921
      12 -> 15        -0.10843
      12 -> 16        -0.14807
      12 -> 17         0.37049
      13 -> 18         0.10309
      13 -> 19         0.11513
      13 -> 20        -0.35703

 Excited State  13:      Singlet-A     10.4518 eV  118.63 nm  f=0.0648  <S**2>=0.000
      10 -> 14         0.24834
      12 -> 17         0.57004
      13 -> 20         0.22064

 Excited State  14:      Singlet-A     10.7871 eV  114.94 nm  f=0.0024  <S**2>=0.000
      11 -> 15        -0.16565
      13 -> 20        -0.10506
      13 -> 21         0.61640
      13 -> 22         0.10051

 Excited State  15:      Singlet-A     10.9046 eV  113.70 nm  f=0.0251  <S**2>=0.000
       8 -> 14         0.11602
      10 -> 14         0.14462
      11 -> 15         0.57913
      12 -> 18        -0.21435
      13 -> 21         0.16930

 Excited State  16:      Singlet-A     10.9915 eV  112.80 nm  f=0.0276  <S**2>=0.000
      10 -> 15        -0.24602
      13 -> 22         0.12835
      13 -> 23         0.57103
      13 -> 24        -0.14547

 Excited State  17:      Singlet-A     11.0700 eV  112.00 nm  f=0.0414  <S**2>=0.000
      11 -> 16         0.22300
      12 -> 18        -0.10572
      12 -> 19        -0.13383
      13 -> 22         0.54887
      13 -> 23        -0.23533

 Excited State  18:      Singlet-A     11.1509 eV  111.19 nm  f=0.0266  <S**2>=0.000
      10 -> 15         0.23167
      11 -> 15         0.14017
      11 -> 16         0.30497
      12 -> 18         0.46915
      12 -> 19        -0.22202
      13 -> 23         0.14039

 Excited State  19:      Singlet-A     11.1863 eV  110.84 nm  f=0.0399  <S**2>=0.000
      10 -> 15         0.37640
      10 -> 16         0.12627
      11 -> 16        -0.24781
      12 -> 19         0.32458
      13 -> 22         0.32915
      13 -> 23         0.12485

 Excited State  20:      Singlet-A     11.3294 eV  109.44 nm  f=0.0822  <S**2>=0.000
      10 -> 15         0.19590
      10 -> 16         0.15286
      11 -> 15        -0.20535
      11 -> 16         0.46268
      12 -> 18        -0.31460
      12 -> 19         0.14661
      13 -> 23         0.11241

 Excited State  21:      Singlet-A     11.4129 eV  108.64 nm  f=0.0419  <S**2>=0.000
      10 -> 15        -0.36835
      10 -> 16         0.28825
      11 -> 16         0.14897
      12 -> 18         0.24382
      12 -> 19         0.37142

 Excited State  22:      Singlet-A     11.5689 eV  107.17 nm  f=0.0919  <S**2>=0.000
       9 -> 14        -0.16584
      10 -> 16         0.50605
      11 -> 16        -0.10757
      12 -> 18        -0.10486
      12 -> 19        -0.31768
      12 -> 21         0.14353

 Excited State  23:      Singlet-A     11.7093 eV  105.89 nm  f=0.0242  <S**2>=0.000
      11 -> 17        -0.25056
      12 -> 20         0.54435
      13 -> 24         0.21818
      13 -> 25        -0.18322

 Excited State  24:      Singlet-A     11.7546 eV  105.48 nm  f=0.0051  <S**2>=0.000
       9 -> 14        -0.28550
      10 -> 16        -0.19746
      12 -> 20        -0.24725
      13 -> 24         0.41452
      13 -> 25        -0.11366
      13 -> 26        -0.18913

 Excited State  25:      Singlet-A     11.8226 eV  104.87 nm  f=0.1000  <S**2>=0.000
      11 -> 17         0.59239
      11 -> 18         0.10022
      12 -> 20         0.19037
      13 -> 24         0.10412
      13 -> 25        -0.10289

 Excited State  26:      Singlet-A     11.8805 eV  104.36 nm  f=0.0247  <S**2>=0.000
       9 -> 14         0.54181
      12 -> 20        -0.18172
      13 -> 24         0.30506

 Excited State  27:      Singlet-A     12.0351 eV  103.02 nm  f=0.0244  <S**2>=0.000
      10 -> 17         0.51964
      12 -> 21         0.28041
      12 -> 22        -0.10235
      13 -> 24        -0.13450
      13 -> 25        -0.21451

 Excited State  28:      Singlet-A     12.0932 eV  102.52 nm  f=0.0262  <S**2>=0.000
       8 -> 14         0.10657
       9 -> 14        -0.13040
      10 -> 16        -0.10923
      12 -> 20         0.10225
      12 -> 21         0.38147
      12 -> 22         0.18587
      13 -> 24         0.13885
      13 -> 25         0.39231

 Excited State  29:      Singlet-A     12.1422 eV  102.11 nm  f=0.0228  <S**2>=0.000
       8 -> 14         0.12563
      10 -> 17         0.27580
      11 -> 18        -0.16753
      12 -> 21        -0.27228
      12 -> 22        -0.24875
      12 -> 23        -0.11632
      13 -> 24         0.11575
      13 -> 25         0.35850

 Excited State  30:      Singlet-A     12.2675 eV  101.07 nm  f=0.0531  <S**2>=0.000
      10 -> 17         0.14938
      11 -> 18         0.36461
      12 -> 21        -0.16412
      12 -> 23         0.47526

 Excited State  31:      Singlet-A     12.3903 eV  100.07 nm  f=0.0025  <S**2>=0.000
       8 -> 14         0.51096
      10 -> 17        -0.17148
      11 -> 19        -0.13926
      12 -> 21         0.11218
      12 -> 22        -0.21792
      12 -> 23         0.17270

 Excited State  32:      Singlet-A     12.4323 eV   99.73 nm  f=0.0141  <S**2>=0.000
       8 -> 14         0.22471
       9 -> 15         0.14908
       9 -> 17        -0.11055
      10 -> 17         0.17748
      11 -> 17        -0.14854
      12 -> 21        -0.19771
      12 -> 22         0.46643
      13 -> 26        -0.11861
      13 -> 27        -0.13459

 Excited State  33:      Singlet-A     12.5215 eV   99.02 nm  f=0.0096  <S**2>=0.000
      11 -> 18        -0.25850
      11 -> 19         0.49190
      11 -> 20         0.16874
      12 -> 23         0.18134
      13 -> 27        -0.18553

 Excited State  34:      Singlet-A     12.5706 eV   98.63 nm  f=0.0587  <S**2>=0.000
      10 -> 18        -0.32775
      11 -> 18        -0.26879
      12 -> 22         0.10983
      12 -> 23         0.13909
      13 -> 24         0.15222
      13 -> 25        -0.14111
      13 -> 26         0.33458
      13 -> 27         0.16339
      13 -> 28         0.19187

 Excited State  35:      Singlet-A     12.6131 eV   98.30 nm  f=0.0669  <S**2>=0.000
       8 -> 14         0.25372
      11 -> 17        -0.10100
      11 -> 18         0.23252
      11 -> 19         0.33726
      11 -> 20        -0.17810
      12 -> 23        -0.27981
      12 -> 25         0.11929
      13 -> 26         0.13784

 Excited State  36:      Singlet-A     12.6714 eV   97.85 nm  f=0.0149  <S**2>=0.000
       9 -> 15         0.15689
      10 -> 18         0.43161
      10 -> 19        -0.11746
      10 -> 23        -0.12693
      12 -> 21         0.10886
      13 -> 24         0.11592
      13 -> 26         0.32142
      13 -> 27        -0.14129
      13 -> 28         0.18576

 Excited State  37:      Singlet-A     12.7387 eV   97.33 nm  f=0.0105  <S**2>=0.000
       8 -> 14         0.12111
       9 -> 15        -0.36841
      11 -> 18         0.10990
      11 -> 20         0.40388
      12 -> 21        -0.11963
      12 -> 22         0.12859
      12 -> 24         0.12222
      13 -> 27         0.19608

 Excited State  38:      Singlet-A     12.7861 eV   96.97 nm  f=0.0231  <S**2>=0.000
      10 -> 18         0.22006
      10 -> 19         0.39143
      10 -> 21        -0.13633
      11 -> 18        -0.10318
      12 -> 23         0.10680
      12 -> 24        -0.14140
      13 -> 26        -0.12017
      13 -> 27         0.36382

 Excited State  39:      Singlet-A     12.8430 eV   96.54 nm  f=0.0085  <S**2>=0.000
       9 -> 15         0.15867
      10 -> 18        -0.16824
      10 -> 19         0.32352
      10 -> 20         0.20684
      11 -> 18         0.13345
      11 -> 20         0.25569
      11 -> 21        -0.10883
      12 -> 23        -0.10100
      12 -> 25        -0.14698
      13 -> 27        -0.27580
      13 -> 28         0.12204

 Excited State  40:      Singlet-A     12.8848 eV   96.23 nm  f=0.0230  <S**2>=0.000
       9 -> 15         0.38011
      10 -> 19        -0.31969
      10 -> 20         0.19016
      11 -> 20         0.23162
      13 -> 26        -0.16714
      13 -> 27         0.21838

 Excited State  41:      Singlet-A     13.0103 eV   95.30 nm  f=0.0291  <S**2>=0.000
       9 -> 15         0.15547
       9 -> 16        -0.24303
      10 -> 19         0.11879
      10 -> 20        -0.36109
      11 -> 19         0.12040
      11 -> 20         0.12091
      12 -> 24         0.36469

 Excited State  42:      Singlet-A     13.0697 eV   94.86 nm  f=0.0482  <S**2>=0.000
       8 -> 16         0.12708
       9 -> 16         0.18272
      10 -> 20        -0.17963
      11 -> 20        -0.10121
      11 -> 21        -0.11446
      11 -> 22        -0.20581
      12 -> 24         0.12154
      12 -> 25        -0.19316
      13 -> 26        -0.24315
      13 -> 28         0.40869

 Excited State  43:      Singlet-A     13.1525 eV   94.27 nm  f=0.0580  <S**2>=0.000
       9 -> 15         0.14257
       9 -> 16         0.53307
      10 -> 20        -0.14513
      10 -> 21         0.18367
      11 -> 22         0.12925
      13 -> 28        -0.21076

 Excited State  44:      Singlet-A     13.1642 eV   94.18 nm  f=0.0452  <S**2>=0.000
       7 -> 14         0.12198
       8 -> 15         0.19281
       8 -> 16        -0.21993
      11 -> 20         0.18810
      11 -> 21         0.27063
      11 -> 22         0.21405
      12 -> 24        -0.11122
      12 -> 25         0.11103
      13 -> 26        -0.18722
      13 -> 27        -0.10220
      13 -> 28         0.30864

 Excited State  45:      Singlet-A     13.2989 eV   93.23 nm  f=0.0530  <S**2>=0.000
       8 -> 15         0.11175
       9 -> 17        -0.10796
      10 -> 20         0.31405
      10 -> 21        -0.14703
      11 -> 20        -0.15840
      11 -> 22         0.13402
      12 -> 23         0.10589
      12 -> 24         0.43987
      12 -> 26        -0.12309

 Excited State  46:      Singlet-A     13.3482 eV   92.88 nm  f=0.0282  <S**2>=0.000
       8 -> 15         0.48380
       8 -> 17        -0.11988
       9 -> 17         0.15413
      10 -> 20         0.17021
      11 -> 22        -0.30403
      12 -> 25        -0.14171

 Excited State  47:      Singlet-A     13.4235 eV   92.36 nm  f=0.0271  <S**2>=0.000
       8 -> 15         0.23613
       8 -> 17         0.15879
       9 -> 16        -0.16354
       9 -> 17        -0.14603
      10 -> 21         0.17019
      10 -> 22         0.22188
      11 -> 21        -0.24278
      11 -> 22         0.30497
      12 -> 24        -0.10573
      12 -> 25        -0.20750

 Excited State  48:      Singlet-A     13.4292 eV   92.32 nm  f=0.0215  <S**2>=0.000
       8 -> 15         0.22886
       8 -> 16         0.10926
       9 -> 16         0.12129
       9 -> 17        -0.21485
      10 -> 20        -0.15532
      10 -> 21        -0.20311
      11 -> 21        -0.29275
      12 -> 22        -0.10039
      12 -> 25         0.35537

 Excited State  49:      Singlet-A     13.6252 eV   91.00 nm  f=0.0149  <S**2>=0.000
       9 -> 17         0.29679
       9 -> 19        -0.10109
      10 -> 19         0.13153
      10 -> 21         0.38933
      10 -> 23        -0.10091
      11 -> 21        -0.13253
      12 -> 25         0.32985
      12 -> 26        -0.10863

 Excited State  50:      Singlet-A     13.7116 eV   90.42 nm  f=0.0194  <S**2>=0.000
       7 -> 14         0.22955
       8 -> 16         0.28991
       9 -> 17        -0.26720
       9 -> 18        -0.11893
      10 -> 21         0.13419
      10 -> 23        -0.12073
      11 -> 21         0.16840
      11 -> 23         0.25492
      12 -> 24        -0.10773
      12 -> 26        -0.11931
      12 -> 27        -0.17549

 Excited State  51:      Singlet-A     13.7629 eV   90.09 nm  f=0.0215  <S**2>=0.000
       7 -> 14         0.45579
       8 -> 16        -0.14631
       9 -> 17        -0.17540
      10 -> 21         0.13794
      10 -> 22         0.15612
      11 -> 23        -0.13732
      12 -> 27         0.12577
      13 -> 29        -0.23007

 Excited State  52:      Singlet-A     13.7841 eV   89.95 nm  f=0.0041  <S**2>=0.000
       7 -> 14         0.31195
       9 -> 17         0.34229
       9 -> 19        -0.11757
      10 -> 17         0.10070
      10 -> 21        -0.25568
      11 -> 21        -0.12354
      11 -> 22         0.14423
      11 -> 23         0.21161
      12 -> 25        -0.11695

 Excited State  53:      Singlet-A     13.8938 eV   89.24 nm  f=0.0459  <S**2>=0.000
       7 -> 14        -0.10370
       8 -> 16         0.39970
      10 -> 22         0.15298
      11 -> 21         0.17015
      11 -> 22         0.16789
      13 -> 27        -0.10683
      13 -> 29        -0.37703

 Excited State  54:      Singlet-A     13.9145 eV   89.10 nm  f=0.0944  <S**2>=0.000
       7 -> 14         0.12852
       8 -> 16         0.11467
      10 -> 22         0.32340
      10 -> 23         0.16190
      11 -> 21         0.17577
      11 -> 23        -0.13538
      11 -> 24         0.17123
      12 -> 26         0.11720
      13 -> 29         0.38597

 Excited State  55:      Singlet-A     13.9349 eV   88.97 nm  f=0.0131  <S**2>=0.000
       8 -> 16         0.15164
       9 -> 18         0.21063
       9 -> 19        -0.12190
      11 -> 23         0.10342
      11 -> 24        -0.13312
      12 -> 27         0.47427
      12 -> 28         0.12921
      13 -> 29         0.19148
      13 -> 30         0.10824

 Excited State  56:      Singlet-A     14.0766 eV   88.08 nm  f=0.0205  <S**2>=0.000
       8 -> 16        -0.21602
       9 -> 18         0.14803
       9 -> 19         0.16548
      10 -> 22         0.28073
      10 -> 23        -0.14652
      11 -> 22        -0.15125
      11 -> 23         0.38788
      12 -> 25         0.12203
      13 -> 30        -0.12402

 Excited State  57:      Singlet-A     14.1919 eV   87.36 nm  f=0.0653  <S**2>=0.000
       9 -> 18        -0.14411
      10 -> 21         0.11611
      10 -> 22        -0.15306
      11 -> 23         0.15383
      11 -> 24         0.11337
      12 -> 24         0.11208
      12 -> 26         0.53974
      13 -> 30         0.18016

 Excited State  58:      Singlet-A     14.2470 eV   87.02 nm  f=0.0291  <S**2>=0.000
       9 -> 18        -0.11064
      10 -> 18         0.14465
      10 -> 23         0.46661
      11 -> 23         0.24707
      11 -> 24         0.12506
      12 -> 26        -0.20019
      12 -> 27         0.13547
      12 -> 28         0.12239

 Excited State  59:      Singlet-A     14.2743 eV   86.86 nm  f=0.0926  <S**2>=0.000
       7 -> 14        -0.10507
       8 -> 17         0.32188
       9 -> 17        -0.10083
       9 -> 19        -0.14973
       9 -> 21         0.10857
      10 -> 22         0.15436
      11 -> 21         0.16005
      11 -> 22        -0.18744
      12 -> 26        -0.12786
      13 -> 29        -0.16953
      13 -> 30         0.37952

 Excited State  60:      Singlet-A     14.3003 eV   86.70 nm  f=0.0289  <S**2>=0.000
       8 -> 17         0.24677
       9 -> 18        -0.22634
      10 -> 22        -0.12959
      10 -> 23        -0.19138
      11 -> 24         0.25355
      12 -> 27         0.29681
      13 -> 30        -0.28902

 Excited State  61:      Singlet-A     14.3909 eV   86.15 nm  f=0.0646  <S**2>=0.000
       8 -> 17         0.10815
       9 -> 18         0.37510
       9 -> 19        -0.24437
       9 -> 20        -0.16315
      10 -> 24         0.15179
      11 -> 24         0.26187
      11 -> 25        -0.18511
      12 -> 27        -0.13071

 Excited State  62:      Singlet-A     14.4324 eV   85.91 nm  f=0.0136  <S**2>=0.000
       8 -> 17         0.39645
       8 -> 18         0.23308
       9 -> 18         0.12606
       9 -> 20         0.16568
      10 -> 22        -0.12967
      10 -> 23         0.12296
      10 -> 24        -0.10574
      11 -> 24        -0.22404
      11 -> 25         0.10978
      12 -> 27        -0.10087
      13 -> 30        -0.16924

 Excited State  63:      Singlet-A     14.5432 eV   85.25 nm  f=0.0165  <S**2>=0.000
       7 -> 15         0.10263
       8 -> 18         0.13356
       9 -> 19         0.10970
      10 -> 23        -0.15495
      11 -> 24         0.18411
      11 -> 25         0.16376
      12 -> 27        -0.12335
      12 -> 28         0.51068

 Excited State  64:      Singlet-A     14.5750 eV   85.07 nm  f=0.0233  <S**2>=0.000
       8 -> 19         0.23023
       9 -> 18        -0.10791
       9 -> 19        -0.31689
       9 -> 20        -0.11480
      10 -> 22         0.13540
      10 -> 24         0.18787
      11 -> 21         0.10267
      11 -> 24        -0.11161
      11 -> 25         0.33879
      13 -> 30        -0.18596

 Excited State  65:      Singlet-A     14.6478 eV   84.64 nm  f=0.0545  <S**2>=0.000
       7 -> 15         0.34075
       7 -> 16        -0.13733
       8 -> 19         0.10953
       9 -> 18         0.19992
       9 -> 20         0.31149
      11 -> 24         0.21339
      11 -> 25         0.14689
      12 -> 28        -0.21895

 Excited State  66:      Singlet-A     14.6747 eV   84.49 nm  f=0.0876  <S**2>=0.000
       8 -> 19        -0.13385
       9 -> 18        -0.15529
       9 -> 19        -0.20626
       9 -> 20         0.38446
       9 -> 21         0.10497
      11 -> 25        -0.27193
      12 -> 28         0.18818
      13 -> 30        -0.17356

 Excited State  67:      Singlet-A     14.7128 eV   84.27 nm  f=0.1897  <S**2>=0.000
       7 -> 15         0.47664
       7 -> 16        -0.18513
       9 -> 20        -0.22577
      10 -> 23         0.11203
      11 -> 24        -0.18033
      11 -> 25        -0.17993
      12 -> 28         0.12380

 Excited State  68:      Singlet-A     14.8183 eV   83.67 nm  f=0.0668  <S**2>=0.000
       8 -> 17        -0.12843
       8 -> 18         0.32678
       8 -> 19        -0.25856
       9 -> 19        -0.19612
       9 -> 20        -0.17067
      10 -> 24        -0.21910
      10 -> 25         0.18568
      11 -> 24         0.12030

 The electronic state is 1-A.
 Alpha  occ. eigenvalues --  -19.21462 -10.30696 -10.25546  -1.09631  -0.82683
 Alpha  occ. eigenvalues --   -0.70172  -0.58006  -0.52986  -0.50880  -0.45333
 Alpha  occ. eigenvalues --   -0.44258  -0.39586  -0.34740
 Alpha virt. eigenvalues --    0.04507   0.07554   0.08478   0.10963   0.13515
 Alpha virt. eigenvalues --    0.14374   0.15297   0.16545   0.17261   0.18631
 Alpha virt. eigenvalues --    0.21160   0.21916   0.24286   0.24577   0.26252

 Mulliken charges:
               1
     1  C    0.516443
     2  C    0.362955
     3  O   -0.382954
     4  H   -0.056905
     5  H   -0.101843
     6  H   -0.076025
     7  H   -0.169594
     8  H   -0.251559
     9  H    0.159480
 Sum of Mulliken charges =  -0.00000

 Dipole moment (field-independent basis, Debye):
    X=             -1.3597    Y=             -0.1460    Z=              1.1692  Tot=              1.7991
 Quadrupole moment (field-independent basis, Debye-Ang):
   XX=            -22.8632   YY=            -18.9598   ZZ=            -19.5791
   XY=             -0.9610   XZ=              1.7630   YZ=             -1.4827

 Normal termination of Gaussian 16 at Mon Mar 21 20:13:04 2022.
