 Gaussian 16, Revision C.01,
 Gaussian 16:  EM64L-G16RevC.01  3-Jul-2019

 ----------------------------------------------------------------------
 #P TD(Nstates=10000) cam-b3lyp/Gen SCF(maxcycles=100) Int(Grid=ultrafi
 ne)
 ----------------------------------------------------------------------

 ---------------------
 xGDB7_00001_tier4.com
 ---------------------
 Symbolic Z-matrix:
 Charge =  0 Multiplicity = 1

                         Standard orientation:
 ---------------------------------------------------------------------
 Center     Atomic      Atomic             Coordinates (Angstroms)
 Number     Number       Type             X           Y           Z
 ---------------------------------------------------------------------
      1          6           0       -1.240791   -0.237624   -0.027525
      2          6           0        0.048946    0.559205    0.053709
      3          7           0        1.202342   -0.317606   -0.116703
      4          1           0       -2.109817    0.415828    0.064703
      5          1           0       -1.292929   -0.976209    0.776809
      6          1           0       -1.300329   -0.769884   -0.977746
      7          1           0        0.066306    1.122818    0.997967
      8          1           0        0.069957    1.296574   -0.752592
      9          1           0        1.236408   -1.003082    0.627159
     10          1           0        2.065080    0.207710   -0.076483
 ---------------------------------------------------------------------

 SCF Done:  E(RCAM-B3LYP) =  -135.008379710     A.U. after   13 cycles

 Excitation energies and oscillator strengths:

 Excited State   1:      Singlet-A      6.3260 eV  195.99 nm  f=0.0115  <S**2>=0.000
      13 -> 14         0.64047
      13 -> 15        -0.23247
      13 -> 16         0.16900
 This state for optimization and/or second-order correction.
 Total Energy, E(TD-HF/TD-DFT) =  -134.775902223
 Copying the excited state density for this state as the 1-particle RhoCI density.

 Excited State   2:      Singlet-A      7.5417 eV  164.40 nm  f=0.0031  <S**2>=0.000
      13 -> 14         0.16847
      13 -> 15         0.57829
      13 -> 16         0.18717
      13 -> 17        -0.23416
      13 -> 18         0.16488

 Excited State   3:      Singlet-A      7.5852 eV  163.46 nm  f=0.0316  <S**2>=0.000
      13 -> 14        -0.21863
      13 -> 15        -0.14283
      13 -> 16         0.63812

 Excited State   4:      Singlet-A      8.3653 eV  148.21 nm  f=0.0766  <S**2>=0.000
      13 -> 15         0.22893
      13 -> 17         0.64498

 Excited State   5:      Singlet-A      8.8351 eV  140.33 nm  f=0.0353  <S**2>=0.000
      13 -> 15        -0.16419
      13 -> 18         0.64040
      13 -> 19         0.11615
      13 -> 23        -0.12278

 Excited State   6:      Singlet-A      9.2439 eV  134.13 nm  f=0.0034  <S**2>=0.000
      13 -> 19         0.58489
      13 -> 20        -0.28414
      13 -> 21        -0.17978

 Excited State   7:      Singlet-A      9.3985 eV  131.92 nm  f=0.0024  <S**2>=0.000
      12 -> 14         0.68195

 Excited State   8:      Singlet-A      9.6288 eV  128.76 nm  f=0.0008  <S**2>=0.000
      13 -> 16        -0.10218
      13 -> 18        -0.11295
      13 -> 19         0.24046
      13 -> 20         0.55752
      13 -> 24        -0.22182

 Excited State   9:      Singlet-A      9.8754 eV  125.55 nm  f=0.0086  <S**2>=0.000
      11 -> 14         0.35660
      13 -> 19         0.16927
      13 -> 21         0.54320

 Excited State  10:      Singlet-A      9.9472 eV  124.64 nm  f=0.0189  <S**2>=0.000
      10 -> 14         0.19181
      11 -> 14         0.54574
      12 -> 15        -0.13476
      13 -> 19        -0.11542
      13 -> 21        -0.32438

 Excited State  11:      Singlet-A     10.0687 eV  123.14 nm  f=0.0674  <S**2>=0.000
      10 -> 14         0.63913
      10 -> 15         0.19462
      11 -> 14        -0.13713

 Excited State  12:      Singlet-A     10.2476 eV  120.99 nm  f=0.0675  <S**2>=0.000
       9 -> 14        -0.14667
      11 -> 14         0.16769
      12 -> 15         0.64900

 Excited State  13:      Singlet-A     10.4591 eV  118.54 nm  f=0.0047  <S**2>=0.000
      12 -> 16         0.14857
      13 -> 18         0.15054
      13 -> 20        -0.17406
      13 -> 22        -0.31459
      13 -> 23         0.51867
      13 -> 24        -0.17526

 Excited State  14:      Singlet-A     10.5557 eV  117.46 nm  f=0.0234  <S**2>=0.000
      10 -> 15        -0.11812
      12 -> 16         0.23072
      13 -> 22         0.53983
      13 -> 23         0.25022
      13 -> 25        -0.13948
      13 -> 26        -0.10375

 Excited State  15:      Singlet-A     10.6281 eV  116.66 nm  f=0.1220  <S**2>=0.000
      12 -> 16         0.61297
      13 -> 22        -0.11771
      13 -> 23        -0.24103

 Excited State  16:      Singlet-A     10.7925 eV  114.88 nm  f=0.0928  <S**2>=0.000
      11 -> 15         0.64824
      13 -> 25        -0.16017

 Excited State  17:      Singlet-A     10.8442 eV  114.33 nm  f=0.0009  <S**2>=0.000
      10 -> 15         0.16852
      13 -> 20         0.18399
      13 -> 23         0.17006
      13 -> 24         0.58492
      13 -> 27         0.10081

 Excited State  18:      Singlet-A     10.9477 eV  113.25 nm  f=0.0476  <S**2>=0.000
      10 -> 14        -0.16161
      10 -> 15         0.59426
      11 -> 16        -0.10693
      13 -> 22         0.11250
      13 -> 24        -0.18460

 Excited State  19:      Singlet-A     11.1035 eV  111.66 nm  f=0.0512  <S**2>=0.000
      10 -> 15         0.10483
      11 -> 15         0.16945
      11 -> 16         0.18064
      13 -> 22         0.10176
      13 -> 23         0.11053
      13 -> 25         0.56352
      13 -> 27        -0.10117
      13 -> 28         0.12503

 Excited State  20:      Singlet-A     11.1490 eV  111.21 nm  f=0.0083  <S**2>=0.000
      11 -> 16         0.57118
      12 -> 17         0.28288
      13 -> 25        -0.19598

 Excited State  21:      Singlet-A     11.2139 eV  110.56 nm  f=0.0201  <S**2>=0.000
      10 -> 16        -0.21033
      11 -> 16        -0.25765
      11 -> 17         0.13071
      12 -> 17         0.56262
      12 -> 18         0.13147

 Excited State  22:      Singlet-A     11.3394 eV  109.34 nm  f=0.0318  <S**2>=0.000
      10 -> 16         0.62141
      10 -> 17        -0.11534
      11 -> 16        -0.10451
      11 -> 17         0.11248
      12 -> 17         0.14920

 Excited State  23:      Singlet-A     11.5303 eV  107.53 nm  f=0.0284  <S**2>=0.000
       9 -> 15         0.11919
      12 -> 17        -0.13839
      12 -> 18         0.62902
      12 -> 19        -0.11023

 Excited State  24:      Singlet-A     11.6771 eV  106.18 nm  f=0.0384  <S**2>=0.000
       9 -> 14        -0.31351
      10 -> 17         0.31308
      11 -> 16         0.10916
      11 -> 17         0.41094
      12 -> 18        -0.12604
      13 -> 26        -0.20341
      13 -> 27         0.15390

 Excited State  25:      Singlet-A     11.7137 eV  105.85 nm  f=0.0893  <S**2>=0.000
       9 -> 14         0.34067
      10 -> 17        -0.21749
      11 -> 17         0.48655
      11 -> 18         0.11378
      13 -> 27        -0.10831

 Excited State  26:      Singlet-A     11.7831 eV  105.22 nm  f=0.0052  <S**2>=0.000
       9 -> 14         0.15886
      10 -> 17        -0.21307
      13 -> 26        -0.23759
      13 -> 27         0.55777

 Excited State  27:      Singlet-A     11.8559 eV  104.58 nm  f=0.0263  <S**2>=0.000
       9 -> 14        -0.34175
      10 -> 17        -0.29571
      11 -> 18         0.12705
      12 -> 19         0.13863
      13 -> 26         0.39980
      13 -> 27         0.18788

 Excited State  28:      Singlet-A     11.8989 eV  104.20 nm  f=0.0833  <S**2>=0.000
       9 -> 14         0.23179
      10 -> 16         0.13084
      10 -> 17         0.37410
      12 -> 19         0.12554
      13 -> 26         0.37759
      13 -> 27         0.23346

 Excited State  29:      Singlet-A     12.0485 eV  102.90 nm  f=0.0161  <S**2>=0.000
      10 -> 17         0.11149
      10 -> 18         0.20914
      11 -> 17        -0.11381
      11 -> 18         0.57018
      11 -> 19        -0.12128
      13 -> 28         0.11094

 Excited State  30:      Singlet-A     12.0801 eV  102.63 nm  f=0.0020  <S**2>=0.000
       9 -> 15         0.21704
      10 -> 18        -0.29234
      11 -> 18         0.14874
      12 -> 19         0.49758
      12 -> 20         0.10604
      13 -> 26        -0.14508

 Excited State  31:      Singlet-A     12.1709 eV  101.87 nm  f=0.0954  <S**2>=0.000
       9 -> 16        -0.11425
      10 -> 18         0.38431
      11 -> 19         0.11658
      12 -> 19         0.34187
      12 -> 20        -0.31811
      13 -> 28        -0.12806

 Excited State  32:      Singlet-A     12.3110 eV  100.71 nm  f=0.1186  <S**2>=0.000
       9 -> 16         0.18677
      10 -> 18         0.35101
      12 -> 19         0.10869
      12 -> 20         0.43832
      12 -> 21         0.22394
      13 -> 28         0.11867

 Excited State  33:      Singlet-A     12.3541 eV  100.36 nm  f=0.0326  <S**2>=0.000
       9 -> 16        -0.10724
      11 -> 18        -0.11738
      12 -> 20        -0.13439
      12 -> 21        -0.17441
      13 -> 25        -0.15068
      13 -> 28         0.58128

 Excited State  34:      Singlet-A     12.4513 eV   99.58 nm  f=0.0096  <S**2>=0.000
      10 -> 18        -0.12890
      11 -> 19         0.45479
      12 -> 21         0.40703
      12 -> 22        -0.10336
      13 -> 28         0.13332

 Excited State  35:      Singlet-A     12.5407 eV   98.87 nm  f=0.0869  <S**2>=0.000
       8 -> 14        -0.10684
       9 -> 16        -0.16955
      11 -> 18        -0.18256
      11 -> 19        -0.35222
      11 -> 20         0.21383
      12 -> 21         0.39244
      12 -> 22        -0.10409
      13 -> 29        -0.17262

 Excited State  36:      Singlet-A     12.6451 eV   98.05 nm  f=0.0282  <S**2>=0.000
       8 -> 14         0.10856
       9 -> 15        -0.22582
       9 -> 16         0.10650
      10 -> 19         0.54849
      10 -> 20        -0.10392
      13 -> 29        -0.18581

 Excited State  37:      Singlet-A     12.7148 eV   97.51 nm  f=0.0298  <S**2>=0.000
       7 -> 14        -0.11755
       8 -> 14         0.17181
       9 -> 15        -0.32025
      10 -> 21        -0.10650
      11 -> 19        -0.13798
      11 -> 20         0.16109
      11 -> 21         0.12651
      13 -> 28         0.12164
      13 -> 29         0.43264

 Excited State  38:      Singlet-A     12.7509 eV   97.24 nm  f=0.0709  <S**2>=0.000
       8 -> 14         0.12143
       9 -> 15         0.34552
      10 -> 19         0.21846
      10 -> 20        -0.21236
      11 -> 19        -0.15536
      11 -> 20        -0.20108
      12 -> 20        -0.11951
      12 -> 21         0.13733
      13 -> 29         0.31717

 Excited State  39:      Singlet-A     12.8561 eV   96.44 nm  f=0.0781  <S**2>=0.000
       8 -> 14        -0.17341
       9 -> 15         0.12862
       9 -> 16        -0.16917
      10 -> 19         0.18631
      10 -> 21         0.12185
      11 -> 19         0.14418
      11 -> 20         0.44589
      11 -> 21         0.18354
      12 -> 20         0.17412
      13 -> 29         0.13142
      13 -> 31         0.10359

 Excited State  40:      Singlet-A     12.8768 eV   96.29 nm  f=0.0945  <S**2>=0.000
       8 -> 14        -0.11855
       8 -> 16         0.11191
       9 -> 15         0.10408
       9 -> 16         0.39939
      10 -> 20        -0.34576
      11 -> 20         0.19279
      12 -> 20        -0.17740
      12 -> 22         0.19864

 Excited State  41:      Singlet-A     12.9570 eV   95.69 nm  f=0.0856  <S**2>=0.000
       8 -> 14         0.57053
       9 -> 15         0.10541
      10 -> 19        -0.10973
      11 -> 19         0.13704
      11 -> 20         0.20752
      13 -> 29        -0.13479

 Excited State  42:      Singlet-A     12.9838 eV   95.49 nm  f=0.0862  <S**2>=0.000
      10 -> 21         0.27840
      11 -> 20        -0.18033
      11 -> 21         0.49206
      12 -> 22         0.20752
      13 -> 29        -0.14660

 Excited State  43:      Singlet-A     13.0313 eV   95.14 nm  f=0.0637  <S**2>=0.000
       9 -> 16         0.10103
       9 -> 17        -0.23672
      10 -> 19        -0.10033
      10 -> 21         0.46466
      12 -> 22        -0.33558
      13 -> 29         0.10521

 Excited State  44:      Singlet-A     13.1026 eV   94.63 nm  f=0.0294  <S**2>=0.000
       9 -> 15        -0.10478
       9 -> 16        -0.25443
       9 -> 17         0.19849
      10 -> 21         0.28941
      10 -> 22        -0.11514
      11 -> 21        -0.28344
      11 -> 22         0.12057
      12 -> 22         0.34184

 Excited State  45:      Singlet-A     13.1180 eV   94.51 nm  f=0.0865  <S**2>=0.000
       9 -> 15         0.18838
       9 -> 16         0.24278
       9 -> 17         0.14427
      10 -> 20         0.46096
      12 -> 20        -0.18712
      12 -> 21         0.11954
      12 -> 23         0.18100

 Excited State  46:      Singlet-A     13.2856 eV   93.32 nm  f=0.0521  <S**2>=0.000
       7 -> 14        -0.10984
       7 -> 15         0.10980
       9 -> 17         0.24702
       9 -> 18        -0.15372
      10 -> 20        -0.14126
      10 -> 22        -0.10609
      11 -> 22        -0.15928
      12 -> 20         0.11200
      12 -> 22        -0.19540
      12 -> 23         0.43053
      12 -> 24        -0.10223

 Excited State  47:      Singlet-A     13.4465 eV   92.21 nm  f=0.0002  <S**2>=0.000
       7 -> 14         0.31417
       7 -> 16         0.11264
       9 -> 18        -0.10844
      10 -> 22         0.10528
      12 -> 23         0.18103
      12 -> 24         0.40772
      12 -> 25         0.10777
      13 -> 30         0.22962

 Excited State  48:      Singlet-A     13.5091 eV   91.78 nm  f=0.0122  <S**2>=0.000
       7 -> 14         0.20227
       9 -> 17        -0.12068
      10 -> 22         0.33786
      11 -> 22         0.27880
      12 -> 22         0.14883
      12 -> 23         0.23438
      12 -> 24        -0.28172
      13 -> 31         0.10808

 Excited State  49:      Singlet-A     13.5667 eV   91.39 nm  f=0.0788  <S**2>=0.000
       7 -> 14         0.40828
       7 -> 15        -0.13136
       9 -> 16         0.11853
       9 -> 17         0.18924
      10 -> 22        -0.28443
      13 -> 30        -0.21700

 Excited State  50:      Singlet-A     13.6195 eV   91.03 nm  f=0.0483  <S**2>=0.000
      11 -> 21        -0.16457
      11 -> 22        -0.31645
      11 -> 23         0.16018
      13 -> 30        -0.17268
      13 -> 31         0.46551

 Excited State  51:      Singlet-A     13.6624 eV   90.75 nm  f=0.0361  <S**2>=0.000
       8 -> 15         0.16214
       9 -> 17         0.12425
      10 -> 22        -0.10691
      11 -> 22         0.26230
      11 -> 23        -0.12753
      12 -> 22        -0.13232
      13 -> 30         0.35967
      13 -> 31         0.35353

 Excited State  52:      Singlet-A     13.6965 eV   90.52 nm  f=0.0791  <S**2>=0.000
       7 -> 14         0.14284
       8 -> 15         0.11900
       9 -> 17        -0.17109
       9 -> 18         0.12482
      10 -> 22        -0.14252
      10 -> 23         0.23007
      11 -> 22        -0.21500
      11 -> 23         0.11483
      11 -> 24        -0.10248
      12 -> 22         0.10080
      12 -> 23         0.12779
      12 -> 24        -0.20340
      13 -> 30         0.34362
      13 -> 31        -0.14390

 Excited State  53:      Singlet-A     13.7803 eV   89.97 nm  f=0.0242  <S**2>=0.000
       7 -> 14         0.10486
       8 -> 15        -0.18032
       8 -> 16         0.15042
       9 -> 17         0.30774
      10 -> 22         0.20023
      11 -> 22        -0.12421
      11 -> 23         0.24068
      11 -> 24         0.11394
      12 -> 23        -0.24444
      12 -> 24        -0.11195
      13 -> 30         0.21080

 Excited State  54:      Singlet-A     13.8163 eV   89.74 nm  f=0.0820  <S**2>=0.000
       7 -> 14        -0.10665
       8 -> 15         0.29303
       9 -> 17         0.16946
       9 -> 18         0.32532
      10 -> 21         0.10661
      10 -> 22         0.19581
      10 -> 23         0.10013
      10 -> 24         0.16746
      11 -> 22         0.11114
      12 -> 23         0.13618
      12 -> 24         0.12112
      12 -> 25         0.23581

 Excited State  55:      Singlet-A     13.9099 eV   89.13 nm  f=0.0578  <S**2>=0.000
       8 -> 15         0.41924
       9 -> 17         0.10799
       9 -> 18        -0.26008
      10 -> 22         0.14839
      10 -> 23        -0.11346
      11 -> 23         0.12625
      11 -> 24        -0.21692
      11 -> 25        -0.12096
      12 -> 25        -0.19182
      13 -> 31        -0.10790

 Excited State  56:      Singlet-A     13.9723 eV   88.74 nm  f=0.0544  <S**2>=0.000
       8 -> 15        -0.18568
       8 -> 16        -0.29409
       9 -> 17         0.19197
      10 -> 22         0.14757
      10 -> 23         0.30877
      11 -> 23        -0.15877
      11 -> 24        -0.22145
      12 -> 25        -0.14608

 Excited State  57:      Singlet-A     14.0059 eV   88.52 nm  f=0.0363  <S**2>=0.000
       8 -> 16         0.40084
       9 -> 18        -0.17225
       9 -> 19         0.13934
      10 -> 23         0.22414
      10 -> 24         0.25586
      12 -> 25         0.20223
      12 -> 27        -0.13157

 Excited State  58:      Singlet-A     14.0645 eV   88.15 nm  f=0.0175  <S**2>=0.000
       8 -> 16        -0.23782
       9 -> 18        -0.16377
      10 -> 24        -0.19868
      11 -> 22         0.11088
      11 -> 23         0.25205
      11 -> 24        -0.21549
      12 -> 25         0.39281

 Excited State  59:      Singlet-A     14.1295 eV   87.75 nm  f=0.0133  <S**2>=0.000
       8 -> 15        -0.12328
       8 -> 16        -0.11940
       9 -> 17        -0.10447
       9 -> 19         0.13331
      10 -> 24         0.11329
      11 -> 21         0.10048
      11 -> 22         0.17280
      11 -> 23         0.40472
      12 -> 24         0.20120
      12 -> 25        -0.24687
      12 -> 26         0.12922

 Excited State  60:      Singlet-A     14.1871 eV   87.39 nm  f=0.0483  <S**2>=0.000
       8 -> 16        -0.23676
       9 -> 18        -0.27587
       9 -> 19         0.19837
      10 -> 24         0.10925
      11 -> 24         0.46414
      12 -> 25         0.13067

 Excited State  61:      Singlet-A     14.2542 eV   86.98 nm  f=0.0381  <S**2>=0.000
       7 -> 16         0.11317
       8 -> 16        -0.11463
       8 -> 17         0.13200
       9 -> 19        -0.20224
      10 -> 23        -0.22043
      10 -> 24         0.43373
      10 -> 27        -0.11291
      12 -> 26        -0.16810

 Excited State  62:      Singlet-A     14.3888 eV   86.17 nm  f=0.0379  <S**2>=0.000
       8 -> 17         0.10671
       9 -> 18         0.11877
      10 -> 23        -0.17864
      11 -> 25        -0.25143
      12 -> 24        -0.15303
      12 -> 26         0.35494
      12 -> 27        -0.29743
      13 -> 32         0.13357

 Excited State  63:      Singlet-A     14.5076 eV   85.46 nm  f=0.0117  <S**2>=0.000
       8 -> 17         0.26462
       9 -> 18         0.12598
       9 -> 19         0.41842
       9 -> 20        -0.10996
      10 -> 22         0.12493
      10 -> 23        -0.17793
      11 -> 24        -0.11939
      11 -> 25         0.16437
      12 -> 26        -0.14175
      12 -> 27        -0.11067
      13 -> 33        -0.10113

 Excited State  64:      Singlet-A     14.5856 eV   85.00 nm  f=0.0711  <S**2>=0.000
       7 -> 15         0.17788
       7 -> 16        -0.11844
       9 -> 19         0.16552
       9 -> 21         0.19463
      11 -> 25         0.10519
      12 -> 27         0.18469
      13 -> 32         0.48454
      13 -> 34        -0.13619

 Excited State  65:      Singlet-A     14.6006 eV   84.92 nm  f=0.0336  <S**2>=0.000
       7 -> 14        -0.15242
       7 -> 15        -0.28141
       7 -> 16         0.23758
       8 -> 17        -0.14021
      11 -> 25         0.15384
      13 -> 32         0.32813
      13 -> 34         0.29679

 Excited State  66:      Singlet-A     14.6310 eV   84.74 nm  f=0.1054  <S**2>=0.000
       7 -> 16         0.21515
       8 -> 17        -0.20321
       9 -> 20        -0.10621
       9 -> 21         0.18268
       9 -> 22        -0.11969
      10 -> 25         0.21232
      11 -> 25         0.20709
      12 -> 26         0.28010
      13 -> 32        -0.24804
      13 -> 34        -0.16741

 Excited State  67:      Singlet-A     14.6434 eV   84.67 nm  f=0.0055  <S**2>=0.000
       7 -> 14         0.11082
       7 -> 15         0.42119
       7 -> 18         0.10875
       8 -> 17        -0.27529
       9 -> 20        -0.13314
      11 -> 25         0.10529
      12 -> 27        -0.10398
      13 -> 34         0.25803

 Excited State  68:      Singlet-A     14.6648 eV   84.55 nm  f=0.0255  <S**2>=0.000
       8 -> 17         0.16989
       8 -> 18         0.10174
       9 -> 20         0.12039
      11 -> 27         0.12512
      12 -> 26         0.22514
      12 -> 27         0.32087
      13 -> 34         0.41663

 Excited State  69:      Singlet-A     14.7288 eV   84.18 nm  f=0.0161  <S**2>=0.000
       8 -> 17         0.17464
       9 -> 21         0.25724
      10 -> 24        -0.13818
      10 -> 25         0.48025
      11 -> 25        -0.11204
      12 -> 26        -0.12923
      12 -> 27        -0.14484
      13 -> 33         0.14442

 Excited State  70:      Singlet-A     14.7664 eV   83.96 nm  f=0.0379  <S**2>=0.000
       7 -> 16         0.23066
       8 -> 17        -0.19192
       9 -> 19         0.20242
       9 -> 20         0.22405
       9 -> 21         0.27580
      10 -> 25        -0.20108
      11 -> 25        -0.19722
      12 -> 26        -0.19133
      13 -> 33         0.19173

 Excited State  71:      Singlet-A     14.8015 eV   83.76 nm  f=0.1496  <S**2>=0.000

 The electronic state is 1-A.
 Alpha  occ. eigenvalues --  -14.38093 -10.27913 -10.24585  -0.95618  -0.80515
 Alpha  occ. eigenvalues --   -0.67484  -0.56191  -0.53638  -0.49467  -0.43464
 Alpha  occ. eigenvalues --   -0.43063  -0.41096  -0.30550
 Alpha virt. eigenvalues --    0.05390   0.08062   0.09475   0.12064   0.13770
 Alpha virt. eigenvalues --    0.15642   0.16523   0.17312   0.19158   0.20532
 Alpha virt. eigenvalues --    0.20977   0.23300   0.24167   0.24673   0.28125

 Mulliken charges:
               1
     1  C    0.545500
     2  C    0.253935
     3  N   -0.104321
     4  H   -0.086482
     5  H   -0.092847
     6  H   -0.048456
     7  H   -0.181022
     8  H   -0.223295
     9  H    0.003413
    10  H   -0.066427
 Sum of Mulliken charges =  -0.00000

 Dipole moment (field-independent basis, Debye):
    X=              0.1367    Y=              0.6259    Z=              1.1355  Tot=              1.3038
 Quadrupole moment (field-independent basis, Debye-Ang):
   XX=            -19.8358   YY=            -21.0582   ZZ=            -21.7282
   XY=              0.7516   XZ=              1.5992   YZ=             -1.7061

 Normal termination of Gaussian 16 at Mon Mar 21 20:22:08 2022.
