 Gaussian 16, Revision C.01,
 Gaussian 16:  EM64L-G16RevC.01  3-Jul-2019

 ----------------------------------------------------------------------
 #P TD(Nstates=10000) cam-b3lyp/Gen SCF(maxcycles=100) Int(Grid=ultrafi
 ne)
 ----------------------------------------------------------------------

 ---------------------
 xGDB7_00001_tier4.com
 ---------------------
 Symbolic Z-matrix:
 Charge =  0 Multiplicity = 1

                         Standard orientation:
 ---------------------------------------------------------------------
 Center     Atomic      Atomic             Coordinates (Angstroms)
 Number     Number       Type             X           Y           Z
 ---------------------------------------------------------------------
      1          6           0        0.000000    0.729549   -0.367364
      2          6           0       -0.000000   -0.729549   -0.367364
      3          8           0       -0.000000   -0.000000    0.845033
      4          1           0       -0.918945    1.264243   -0.587975
      5          1           0        0.918945    1.264243   -0.587975
      6          1           0        0.918945   -1.264243   -0.587975
      7          1           0       -0.918945   -1.264243   -0.587975
 ---------------------------------------------------------------------

 SCF Done:  E(RCAM-B3LYP) =  -153.611651373     A.U. after   11 cycles

 Excitation energies and oscillator strengths:

 Excited State   1:      Singlet-B1     7.8479 eV  157.98 nm  f=0.0165  <S**2>=0.000
      12 -> 13         0.63122
      12 -> 15         0.29882
 This state for optimization and/or second-order correction.
 Total Energy, E(TD-HF/TD-DFT) =  -153.323245860
 Copying the excited state density for this state as the 1-particle RhoCI density.

 Excited State   2:      Singlet-B1     8.1315 eV  152.47 nm  f=0.0281  <S**2>=0.000
      12 -> 13        -0.30017
      12 -> 15         0.62598

 Excited State   3:      Singlet-A2     8.3059 eV  149.27 nm  f=0.0000  <S**2>=0.000
      12 -> 14         0.54673
      12 -> 17        -0.43411

 Excited State   4:      Singlet-A2     8.7463 eV  141.76 nm  f=0.0000  <S**2>=0.000
      12 -> 14         0.43076
      12 -> 17         0.50413
      12 -> 21        -0.20470

 Excited State   5:      Singlet-A1     8.8019 eV  140.86 nm  f=0.0200  <S**2>=0.000
      11 -> 13         0.46116
      12 -> 16         0.52431

 Excited State   6:      Singlet-A1     8.9005 eV  139.30 nm  f=0.0253  <S**2>=0.000
      11 -> 13         0.51176
      11 -> 15         0.10242
      12 -> 16        -0.46653

 Excited State   7:      Singlet-A1     9.2456 eV  134.10 nm  f=0.0566  <S**2>=0.000
      11 -> 13        -0.12139
      11 -> 15         0.67600

 Excited State   8:      Singlet-B2     9.5289 eV  130.11 nm  f=0.0781  <S**2>=0.000
      11 -> 14         0.69521

 Excited State   9:      Singlet-B1     9.8351 eV  126.06 nm  f=0.0000  <S**2>=0.000
      11 -> 16         0.60168
      12 -> 18        -0.35370

 Excited State  10:      Singlet-B1     9.9217 eV  124.96 nm  f=0.0209  <S**2>=0.000
      11 -> 16         0.35649
      12 -> 18         0.59633

 Excited State  11:      Singlet-B2    10.4279 eV  118.90 nm  f=0.1339  <S**2>=0.000
       9 -> 15        -0.14542
      11 -> 17         0.65482

 Excited State  12:      Singlet-A2    10.5971 eV  117.00 nm  f=0.0000  <S**2>=0.000
      10 -> 13         0.67303
      12 -> 21        -0.15035

 Excited State  13:      Singlet-A2    10.9407 eV  113.32 nm  f=0.0000  <S**2>=0.000
      10 -> 13         0.15330
      10 -> 15         0.13448
      12 -> 17         0.20021
      12 -> 21         0.63304

 Excited State  14:      Singlet-B1    10.9855 eV  112.86 nm  f=0.0473  <S**2>=0.000
      10 -> 14        -0.38994
      10 -> 17         0.11229
      12 -> 20         0.56152

 Excited State  15:      Singlet-A1    11.0215 eV  112.49 nm  f=0.0128  <S**2>=0.000
      11 -> 15        -0.11212
      11 -> 18         0.68314

 Excited State  16:      Singlet-B2    11.0608 eV  112.09 nm  f=0.0920  <S**2>=0.000
      10 -> 16        -0.10069
      12 -> 19         0.68993

 Excited State  17:      Singlet-A2    11.2616 eV  110.09 nm  f=0.0000  <S**2>=0.000
      10 -> 15         0.65397
      10 -> 18         0.14820
      12 -> 21        -0.12851

 Excited State  18:      Singlet-B2    11.2626 eV  110.08 nm  f=0.0325  <S**2>=0.000
       9 -> 13         0.69095

 Excited State  19:      Singlet-B1    11.4073 eV  108.69 nm  f=0.0439  <S**2>=0.000
      10 -> 14         0.49687
      10 -> 17        -0.26432
      12 -> 20         0.40258

 Excited State  20:      Singlet-A1    11.5803 eV  107.06 nm  f=0.0002  <S**2>=0.000
       9 -> 17         0.24093
      11 -> 20         0.16112
      12 -> 22         0.63019

 Excited State  21:      Singlet-B2    11.6608 eV  106.33 nm  f=0.0751  <S**2>=0.000
       9 -> 15         0.65146
      11 -> 17         0.17138
      11 -> 21         0.14263

 Excited State  22:      Singlet-B1    11.7915 eV  105.15 nm  f=0.0276  <S**2>=0.000
      10 -> 14         0.29197
      10 -> 17         0.60457
      10 -> 21        -0.16201

 Excited State  23:      Singlet-A1    11.9062 eV  104.13 nm  f=0.0128  <S**2>=0.000
       9 -> 14         0.68396
       9 -> 17        -0.10592

 Excited State  24:      Singlet-A2    11.9271 eV  103.95 nm  f=0.0000  <S**2>=0.000
      11 -> 19         0.69571

 Excited State  25:      Singlet-B2    11.9540 eV  103.72 nm  f=0.1180  <S**2>=0.000
      10 -> 16         0.65344
      11 -> 21        -0.18671
      12 -> 19         0.11362

 Excited State  26:      Singlet-A2    12.1952 eV  101.67 nm  f=0.0000  <S**2>=0.000
       9 -> 16         0.18176
      12 -> 23         0.65773

 Excited State  27:      Singlet-A2    12.2318 eV  101.36 nm  f=0.0000  <S**2>=0.000
       9 -> 16         0.67091
      12 -> 23        -0.18316

 Excited State  28:      Singlet-A1    12.2969 eV  100.83 nm  f=0.0191  <S**2>=0.000
       9 -> 17        -0.30278
      11 -> 20         0.60646

 Excited State  29:      Singlet-A1    12.3538 eV  100.36 nm  f=0.0133  <S**2>=0.000
      12 -> 24         0.68750

 Excited State  30:      Singlet-B2    12.4044 eV   99.95 nm  f=0.0424  <S**2>=0.000
       9 -> 15        -0.13391
      10 -> 16         0.20813
      11 -> 21         0.62530
      11 -> 23         0.16079

 Excited State  31:      Singlet-B1    12.4535 eV   99.56 nm  f=0.0014  <S**2>=0.000
      11 -> 22         0.69669

 Excited State  32:      Singlet-B1    12.9474 eV   95.76 nm  f=0.0008  <S**2>=0.000
      11 -> 24        -0.15285
      12 -> 25         0.63840
      12 -> 27         0.20466

 Excited State  33:      Singlet-A2    13.0359 eV   95.11 nm  f=0.0000  <S**2>=0.000
      10 -> 15        -0.10019
      10 -> 18         0.64520
      10 -> 20        -0.19779
      12 -> 23         0.11592

 Excited State  34:      Singlet-B2    13.1431 eV   94.33 nm  f=0.0220  <S**2>=0.000
       9 -> 18        -0.14009
      11 -> 21        -0.14838
      11 -> 23         0.65956

 Excited State  35:      Singlet-A1    13.2663 eV   93.46 nm  f=0.0365  <S**2>=0.000
       8 -> 13         0.26054
       8 -> 15        -0.16086
       9 -> 14         0.11980
       9 -> 17         0.43406
       9 -> 21        -0.14152
      11 -> 20         0.23478
      11 -> 27        -0.18162
      12 -> 22        -0.20408
      12 -> 24        -0.10454

 Excited State  36:      Singlet-B1    13.2786 eV   93.37 nm  f=0.0173  <S**2>=0.000
      11 -> 24         0.67181
      12 -> 25         0.12654

 Excited State  37:      Singlet-B2    13.3785 eV   92.67 nm  f=0.0231  <S**2>=0.000
       9 -> 18         0.67683
      11 -> 23         0.14676

 Excited State  38:      Singlet-A1    13.7417 eV   90.22 nm  f=0.0000  <S**2>=0.000
       8 -> 13         0.57069
       8 -> 15         0.15280
       9 -> 17        -0.13512
      10 -> 19        -0.31236

 Excited State  39:      Singlet-B1    13.8120 eV   89.77 nm  f=0.0213  <S**2>=0.000
      10 -> 21        -0.25466
      12 -> 25        -0.22973
      12 -> 27         0.57632

 Excited State  40:      Singlet-B2    13.8928 eV   89.24 nm  f=0.0361  <S**2>=0.000
      10 -> 22         0.19566
      10 -> 24        -0.11733
      12 -> 26         0.65563

 Excited State  41:      Singlet-A1    13.9707 eV   88.75 nm  f=0.0148  <S**2>=0.000
       8 -> 15         0.25270
       9 -> 17         0.14067
      10 -> 19        -0.27068
      11 -> 20         0.14244
      11 -> 25         0.51777
      12 -> 22        -0.10163

 Excited State  42:      Singlet-A2    14.0671 eV   88.14 nm  f=0.0000  <S**2>=0.000
       7 -> 14         0.15437
      10 -> 15        -0.13686
      10 -> 18         0.19602
      10 -> 20         0.61884
      10 -> 25        -0.10325
      12 -> 29         0.10738

 Excited State  43:      Singlet-A1    14.1254 eV   87.77 nm  f=0.0430  <S**2>=0.000
       8 -> 15         0.50244
       9 -> 17         0.12324
       9 -> 21         0.28491
      10 -> 19         0.33005
      11 -> 27        -0.11268

 Excited State  44:      Singlet-B2    14.1329 eV   87.73 nm  f=0.1549  <S**2>=0.000
       8 -> 14         0.59702
       8 -> 17        -0.31783
       9 -> 20        -0.11098

 Excited State  45:      Singlet-A1    14.2731 eV   86.87 nm  f=0.2300  <S**2>=0.000
       8 -> 13         0.26109
       8 -> 15        -0.25892
       9 -> 21         0.18271
      10 -> 19         0.31970
      11 -> 25         0.41336
      11 -> 27         0.12532
      12 -> 28         0.12470

 Excited State  46:      Singlet-B1    14.2864 eV   86.78 nm  f=0.0115  <S**2>=0.000
       7 -> 15        -0.10117
       8 -> 16         0.16958
       9 -> 19        -0.36311
      10 -> 17         0.12874
      10 -> 21         0.51287
      12 -> 27         0.17904

 Excited State  47:      Singlet-B1    14.3632 eV   86.32 nm  f=0.1013  <S**2>=0.000
       8 -> 16        -0.20714
       9 -> 19         0.52472
      10 -> 17         0.10347
      10 -> 21         0.32764
      12 -> 27         0.21306

 Excited State  48:      Singlet-B2    14.5072 eV   85.46 nm  f=0.0422  <S**2>=0.000
       8 -> 17        -0.28739
       9 -> 20         0.57451
      10 -> 22        -0.18675
      10 -> 24         0.10377
      12 -> 26         0.11728

 Excited State  49:      Singlet-B1    14.5437 eV   85.25 nm  f=0.1594  <S**2>=0.000
       7 -> 13         0.64563
       8 -> 16         0.19927

 Excited State  50:      Singlet-A2    14.5961 eV   84.94 nm  f=0.0000  <S**2>=0.000
       7 -> 17        -0.18368
       9 -> 22        -0.19110
      10 -> 20        -0.11931
      12 -> 29         0.60536
      12 -> 37        -0.11282

 Excited State  51:      Singlet-B2    14.6286 eV   84.75 nm  f=0.0050  <S**2>=0.000
       9 -> 20         0.26068
      10 -> 22         0.61582
      12 -> 26        -0.17949

 Excited State  52:      Singlet-A1    14.6686 eV   84.52 nm  f=0.0047  <S**2>=0.000
       7 -> 16         0.12435
       8 -> 15        -0.11641
       9 -> 17         0.19490
       9 -> 21         0.53123
      10 -> 19        -0.28630
      11 -> 27         0.13298
      12 -> 28         0.10636

 Excited State  53:      Singlet-B1    14.7143 eV   84.26 nm  f=0.0002  <S**2>=0.000
       7 -> 13        -0.21384
       8 -> 16         0.59059
       9 -> 19         0.25939
      10 -> 23        -0.14097

 Excited State  54:      Singlet-B2    14.7397 eV   84.12 nm  f=0.0141  <S**2>=0.000
       8 -> 14         0.34183
       8 -> 17         0.48391
       8 -> 21        -0.15520
       9 -> 20         0.25143
      10 -> 22        -0.16610

 Excited State  55:      Singlet-A2    14.8034 eV   83.75 nm  f=0.0000  <S**2>=0.000
       9 -> 22         0.66866
      12 -> 29         0.18225

 Excited State  56:      Singlet-A1    14.8948 eV   83.24 nm  f=0.0901  <S**2>=0.000
      11 -> 27        -0.30165
      12 -> 28         0.61609

 Excited State  57:      Singlet-A2    14.9708 eV   82.82 nm  f=0.0000  <S**2>=0.000
      11 -> 26         0.69689

 Excited State  58:      Singlet-B1    15.0871 eV   82.18 nm  f=0.0593  <S**2>=0.000
       7 -> 15         0.65362
      12 -> 30        -0.10336

 Excited State  59:      Singlet-A2    15.0911 eV   82.16 nm  f=0.0000  <S**2>=0.000
       7 -> 14         0.49841
       7 -> 17        -0.40906
       7 -> 21         0.13066
      10 -> 20        -0.13709
      10 -> 25         0.12259
      12 -> 29        -0.12568

 Excited State  60:      Singlet-B1    15.2453 eV   81.33 nm  f=0.4039  <S**2>=0.000
       8 -> 16         0.13001
      10 -> 23         0.64742
      12 -> 30        -0.17122

 Excited State  61:      Singlet-B2    15.2974 eV   81.05 nm  f=0.3388  <S**2>=0.000
       9 -> 25         0.13344
      10 -> 24         0.65858

 Excited State  62:      Singlet-A1    15.4543 eV   80.23 nm  f=0.1068  <S**2>=0.000
       7 -> 16        -0.14540
       8 -> 15         0.11490
       8 -> 18        -0.29335
       9 -> 21        -0.10851
       9 -> 23         0.43832
      11 -> 27         0.31991
      12 -> 28         0.18476

 Excited State  63:      Singlet-A2    15.4954 eV   80.01 nm  f=0.0000  <S**2>=0.000
       7 -> 14         0.43867
       7 -> 17         0.42284
       7 -> 21        -0.13541
      10 -> 20        -0.10216
      10 -> 25        -0.18933
      12 -> 29         0.14879
      12 -> 31         0.14715

 Excited State  64:      Singlet-A2    15.6412 eV   79.27 nm  f=0.0000  <S**2>=0.000
       9 -> 24         0.65194
      12 -> 31        -0.21783

 Excited State  65:      Singlet-A1    15.6545 eV   79.20 nm  f=0.0870  <S**2>=0.000
       7 -> 16         0.34152
       8 -> 18         0.19881
       9 -> 23         0.50359
      11 -> 27        -0.18987
      12 -> 28        -0.10969

 Excited State  66:      Singlet-B1    15.6558 eV   79.19 nm  f=0.0294  <S**2>=0.000
       7 -> 15         0.11139
      10 -> 23         0.14861
      12 -> 30         0.66047
      12 -> 33         0.11481

 Excited State  67:      Singlet-A2    15.7550 eV   78.70 nm  f=0.0000  <S**2>=0.000
       9 -> 24         0.23238
      10 -> 25         0.10248
      10 -> 27         0.11016
      12 -> 31         0.62450

 Excited State  68:      Singlet-B2    15.8849 eV   78.05 nm  f=0.0560  <S**2>=0.000
      11 -> 29         0.66976
      11 -> 37        -0.11157

 Excited State  69:      Singlet-A1    15.8918 eV   78.02 nm  f=0.1651  <S**2>=0.000
       7 -> 16         0.30645
       8 -> 18         0.34866
       8 -> 20        -0.19288
       9 -> 21        -0.16684
       9 -> 23        -0.10396
      11 -> 27         0.34800
      11 -> 30        -0.11982
      12 -> 28         0.11623

 Excited State  70:      Singlet-B1    15.9242 eV   77.86 nm  f=0.0230  <S**2>=0.000
      11 -> 28         0.69146

 Excited State  71:      Singlet-A1    15.9962 eV   77.51 nm  f=0.0095  <S**2>=0.000
       7 -> 16        -0.44758
       8 -> 15        -0.10633
       8 -> 18         0.45048
       9 -> 23         0.15438
      12 -> 32         0.17101

 Excited State  72:      Singlet-A2    16.1292 eV   76.87 nm  f=0.0000  <S**2>=0.000
       7 -> 17         0.22844
      10 -> 25         0.61732
      10 -> 27         0.14294

 Excited State  73:      Singlet-A1    16.2991 eV   76.07 nm  f=0.0373  <S**2>=0.000
       7 -> 16         0.12047
      10 -> 26        -0.12395
      11 -> 30         0.15232
      12 -> 32         0.63321

 Excited State  74:      Singlet-B2    16.3976 eV   75.61 nm  f=0.2284  <S**2>=0.000
       8 -> 21        -0.10341
       9 -> 25         0.52780
       9 -> 27         0.22700
      11 -> 31        -0.32320

 Excited State  75:      Singlet-B1    16.4004 eV   75.60 nm  f=0.1939  <S**2>=0.000
      12 -> 30        -0.10258
      12 -> 33         0.68355

 Excited State  76:      Singlet-A1    16.6177 eV   74.61 nm  f=0.0255  <S**2>=0.000
      11 -> 27         0.14113
      11 -> 30         0.66457
      12 -> 32        -0.11379

 Excited State  77:      Singlet-B2    16.6295 eV   74.56 nm  f=0.0487  <S**2>=0.000
       8 -> 17         0.10006
       8 -> 21         0.43667
       8 -> 23         0.10424
       9 -> 25         0.31687
      11 -> 31         0.37638

 Excited State  78:      Singlet-A2    16.6646 eV   74.40 nm  f=0.0000  <S**2>=0.000
       6 -> 16         0.10377
       8 -> 19         0.68413

 Excited State  79:      Singlet-B1    16.8775 eV   73.46 nm  f=0.0795  <S**2>=0.000
       7 -> 18         0.65117
       9 -> 26         0.10529
      12 -> 36        -0.10926

 Excited State  80:      Singlet-A1    16.9089 eV   73.32 nm  f=0.2278  <S**2>=0.000
       7 -> 22        -0.12624
      10 -> 26         0.66213
      12 -> 32         0.11549

 Excited State  81:      Singlet-A2    17.0050 eV   72.91 nm  f=0.0000  <S**2>=0.000
       7 -> 17         0.10506
       7 -> 21         0.17360
      10 -> 25        -0.16316
      10 -> 27         0.62529
      12 -> 31        -0.11113

 Excited State  82:      Singlet-B2    17.0499 eV   72.72 nm  f=0.0069  <S**2>=0.000
       7 -> 19        -0.15852
       8 -> 17         0.15653
       8 -> 21         0.44918
      11 -> 31        -0.39884
      12 -> 34         0.22568

 Excited State  83:      Singlet-A1    17.0962 eV   72.52 nm  f=0.0082  <S**2>=0.000
       8 -> 20         0.60543
       9 -> 29         0.12022
      11 -> 33         0.25104

 Excited State  84:      Singlet-B1    17.1860 eV   72.14 nm  f=0.0060  <S**2>=0.000
       8 -> 22         0.35915
       9 -> 26         0.17518
      11 -> 32         0.56680

 Excited State  85:      Singlet-B2    17.1879 eV   72.13 nm  f=0.0978  <S**2>=0.000
       8 -> 21        -0.13806
      11 -> 31         0.14795
      12 -> 34         0.65860

 Excited State  86:      Singlet-B1    17.2494 eV   71.88 nm  f=0.0791  <S**2>=0.000
       8 -> 22         0.53182
       9 -> 26         0.14699
      11 -> 32        -0.37918

 Excited State  87:      Singlet-B2    17.2709 eV   71.79 nm  f=0.0033  <S**2>=0.000
       7 -> 19         0.15388
       8 -> 21         0.12774
       9 -> 25        -0.24132
       9 -> 27         0.58721

 Excited State  88:      Singlet-B1    17.3894 eV   71.30 nm  f=0.0403  <S**2>=0.000
       8 -> 22        -0.24139
       8 -> 24        -0.16564
       9 -> 26         0.60531
      12 -> 36         0.14948

 Excited State  89:      Singlet-A1    17.5254 eV   70.75 nm  f=0.1511  <S**2>=0.000
       8 -> 20        -0.21537
      11 -> 33         0.63488

 Excited State  90:      Singlet-A2    17.5329 eV   70.72 nm  f=0.0000  <S**2>=0.000
      10 -> 30        -0.17436
      12 -> 29         0.10526
      12 -> 35         0.40565
      12 -> 37         0.51150

 Excited State  91:      Singlet-B1    17.5852 eV   70.50 nm  f=0.0022  <S**2>=0.000
       7 -> 20        -0.33277
       8 -> 24         0.12910
      10 -> 29         0.26324
      12 -> 36         0.52436

 Excited State  92:      Singlet-B1    17.6808 eV   70.12 nm  f=0.0407  <S**2>=0.000
       7 -> 18        -0.13154
       7 -> 20        -0.31717
       9 -> 26         0.16013
      10 -> 29         0.38828
      10 -> 31        -0.15180
      12 -> 36        -0.38173
      12 -> 38        -0.12279

 Excited State  93:      Singlet-B2    17.7376 eV   69.90 nm  f=0.0015  <S**2>=0.000
       6 -> 13         0.49134
       7 -> 19        -0.45065
       9 -> 27         0.14737

 Excited State  94:      Singlet-A2    17.7734 eV   69.76 nm  f=0.0000  <S**2>=0.000
      12 -> 35         0.54430
      12 -> 37        -0.40871

 Excited State  95:      Singlet-B2    17.8661 eV   69.40 nm  f=0.0014  <S**2>=0.000
       6 -> 13         0.30900
       6 -> 15        -0.11346
       7 -> 19         0.35937
       8 -> 23        -0.31037
      10 -> 28        -0.29917
      11 -> 31        -0.10227
      11 -> 37        -0.13002

 Excited State  96:      Singlet-B2    17.9397 eV   69.11 nm  f=0.0586  <S**2>=0.000
       6 -> 13         0.19826
       7 -> 19         0.17167
       8 -> 23        -0.19753
      10 -> 28         0.59013

 Excited State  97:      Singlet-B1    18.0267 eV   68.78 nm  f=0.0015  <S**2>=0.000
       7 -> 18         0.10824
       7 -> 20         0.34481
       8 -> 24        -0.29144
      10 -> 29         0.43806
      10 -> 31         0.15537
      12 -> 38        -0.16064

 Excited State  98:      Singlet-A2    18.0341 eV   68.75 nm  f=0.0000  <S**2>=0.000
       7 -> 17         0.19257
       7 -> 21         0.61220
      10 -> 27        -0.20144
      11 -> 34         0.16332

 Excited State  99:      Singlet-B2    18.0746 eV   68.60 nm  f=0.0805  <S**2>=0.000
       6 -> 13         0.21435
       7 -> 19         0.10784
       8 -> 23         0.52811
      10 -> 28         0.11695
      11 -> 31        -0.14142
      11 -> 35        -0.16019
      11 -> 37        -0.22422
      12 -> 39        -0.12811

 Excited State 100:      Singlet-A2    18.0996 eV   68.50 nm  f=0.0000  <S**2>=0.000
       7 -> 21        -0.14203
      11 -> 34         0.66976

 Excited State 101:      Singlet-B1    18.1679 eV   68.24 nm  f=0.1378  <S**2>=0.000
       7 -> 20         0.29125
       8 -> 24         0.57451
       9 -> 26         0.12937
      10 -> 29         0.17182

 Excited State 102:      Singlet-A1    18.2623 eV   67.89 nm  f=0.0524  <S**2>=0.000
       6 -> 14         0.21488
       7 -> 22         0.56588
       9 -> 29        -0.30913
      10 -> 26         0.10428

 Excited State 103:      Singlet-B2    18.2942 eV   67.77 nm  f=0.0007  <S**2>=0.000
       6 -> 13         0.12682
       6 -> 15         0.62451
       6 -> 18         0.12078
       9 -> 27        -0.11066
       9 -> 30        -0.16476

 Excited State 104:      Singlet-A2    18.3256 eV   67.66 nm  f=0.0000  <S**2>=0.000
       7 -> 23         0.15471
       9 -> 28         0.65731
      10 -> 30         0.11889

 Excited State 105:      Singlet-B1    18.3765 eV   67.47 nm  f=0.0007  <S**2>=0.000
      10 -> 29         0.15816
      12 -> 38         0.66788

 Excited State 106:      Singlet-B2    18.3791 eV   67.46 nm  f=0.0297  <S**2>=0.000
      11 -> 37        -0.20155
      12 -> 39         0.65225

 Excited State 107:      Singlet-A1    18.3924 eV   67.41 nm  f=0.0014  <S**2>=0.000
       5 -> 13        -0.20277
       6 -> 14         0.57298
       6 -> 17        -0.17720
       7 -> 22        -0.16347
       7 -> 24         0.10659
       9 -> 31        -0.11421

 Excited State 108:      Singlet-A2    18.4399 eV   67.24 nm  f=0.0000  <S**2>=0.000
       6 -> 16         0.14731
       7 -> 23         0.11393
       9 -> 28        -0.17122
      10 -> 30         0.61177
      12 -> 35         0.11873
      12 -> 37         0.13867

 The electronic state is 1-A1.
 Alpha  occ. eigenvalues --  -19.23134 -10.31825 -10.31798  -1.16345  -0.75043
 Alpha  occ. eigenvalues --   -0.71318  -0.59583  -0.56136  -0.47573  -0.45640
 Alpha  occ. eigenvalues --   -0.38866  -0.34863
 Alpha virt. eigenvalues --    0.05642   0.07585   0.09226   0.10168   0.12931
 Alpha virt. eigenvalues --    0.14088   0.17195   0.18428   0.18676   0.19779
 Alpha virt. eigenvalues --    0.22331   0.23034   0.26301   0.28720   0.32111

 Mulliken charges:
               1
     1  C    0.759354
     2  C    0.759354
     3  O   -0.602531
     4  H   -0.229044
     5  H   -0.229044
     6  H   -0.229044
     7  H   -0.229044
 Sum of Mulliken charges =   0.00000

 Dipole moment (field-independent basis, Debye):
    X=             -0.0000    Y=             -0.0000    Z=             -2.0092  Tot=              2.0092
 Quadrupole moment (field-independent basis, Debye-Ang):
   XX=            -17.6356   YY=            -16.6450   ZZ=            -21.1553
   XY=              0.0000   XZ=              0.0000   YZ=              0.0000

 Normal termination of Gaussian 16 at Mon Mar 21 04:13:36 2022.
