 Gaussian 16, Revision C.01,
 Gaussian 16:  EM64L-G16RevC.01  3-Jul-2019

 ----------------------------------------------------------------------
 #P TD(Nstates=10000) cam-b3lyp/Gen SCF(maxcycles=100) Int(Grid=ultrafi
 ne)
 ----------------------------------------------------------------------

 ---------------------
 xGDB7_00001_tier4.com
 ---------------------
 Symbolic Z-matrix:
 Charge =  0 Multiplicity = 1

                         Standard orientation:
 ---------------------------------------------------------------------
 Center     Atomic      Atomic             Coordinates (Angstroms)
 Number     Number       Type             X           Y           Z
 ---------------------------------------------------------------------
      1          6           0        0.926251   -0.719055    0.000000
      2          6           0        0.000000    0.459276    0.000000
      3          8           0       -1.196998    0.387136    0.000000
      4          1           0        1.575965   -0.668678    0.877698
      5          1           0        1.575965   -0.668678   -0.877698
      6          1           0        0.366733   -1.652236    0.000000
      7          1           0        0.499813    1.451182    0.000000
 ---------------------------------------------------------------------

 SCF Done:  E(RCAM-B3LYP) =  -153.654372960     A.U. after   13 cycles

 Excitation energies and oscillator strengths:

 Excited State   1:      Singlet-A"     4.3582 eV  284.48 nm  f=0.0001  <S**2>=0.000
      12 -> 13         0.70286
 This state for optimization and/or second-order correction.
 Total Energy, E(TD-HF/TD-DFT) =  -153.494212038
 Copying the excited state density for this state as the 1-particle RhoCI density.

 Excited State   2:      Singlet-A'     7.3441 eV  168.82 nm  f=0.0179  <S**2>=0.000
      12 -> 14         0.65436
      12 -> 15         0.22614

 Excited State   3:      Singlet-A'     8.1761 eV  151.64 nm  f=0.0725  <S**2>=0.000
      12 -> 14        -0.20973
      12 -> 15         0.65021

 Excited State   4:      Singlet-A'     8.8985 eV  139.33 nm  f=0.0772  <S**2>=0.000
      11 -> 13        -0.28958
      12 -> 17         0.59067
      12 -> 18        -0.22658

 Excited State   5:      Singlet-A"     8.9067 eV  139.20 nm  f=0.0000  <S**2>=0.000
       7 -> 13         0.13936
       9 -> 13        -0.16378
      10 -> 13         0.65504
      12 -> 16        -0.13726

 Excited State   6:      Singlet-A"     9.0345 eV  137.23 nm  f=0.0145  <S**2>=0.000
      10 -> 13         0.13563
      12 -> 16         0.66795
      12 -> 20        -0.14853

 Excited State   7:      Singlet-A'     9.2806 eV  133.60 nm  f=0.2829  <S**2>=0.000
      11 -> 13         0.53540
      12 -> 14        -0.11184
      12 -> 17         0.33071
      12 -> 18         0.19778

 Excited State   8:      Singlet-A'     9.5896 eV  129.29 nm  f=0.0183  <S**2>=0.000
      11 -> 13        -0.27759
      12 -> 18         0.60259
      12 -> 19         0.13302

 Excited State   9:      Singlet-A"     9.6168 eV  128.92 nm  f=0.0019  <S**2>=0.000
       9 -> 13         0.64715
      10 -> 13         0.14869
      12 -> 20         0.20254

 Excited State  10:      Singlet-A"     9.8416 eV  125.98 nm  f=0.0018  <S**2>=0.000
       9 -> 13        -0.20476
      12 -> 16         0.13674
      12 -> 20         0.65338

 Excited State  11:      Singlet-A'     9.9422 eV  124.71 nm  f=0.0678  <S**2>=0.000
      12 -> 18        -0.13771
      12 -> 19         0.67275

 Excited State  12:      Singlet-A"    10.1850 eV  121.73 nm  f=0.0082  <S**2>=0.000
      11 -> 14         0.68988

 Excited State  13:      Singlet-A'    10.4499 eV  118.65 nm  f=0.0068  <S**2>=0.000
      12 -> 21         0.67711
      12 -> 24         0.10105

 Excited State  14:      Singlet-A'    10.8703 eV  114.06 nm  f=0.0786  <S**2>=0.000
       8 -> 13         0.17721
      10 -> 14         0.66025
      10 -> 15        -0.11514

 Excited State  15:      Singlet-A"    10.9612 eV  113.11 nm  f=0.0264  <S**2>=0.000
       7 -> 13         0.57658
      10 -> 13        -0.13626
      11 -> 15        -0.35628

 Excited State  16:      Singlet-A"    11.0317 eV  112.39 nm  f=0.0222  <S**2>=0.000
       7 -> 13         0.34788
       8 -> 14         0.12744
      11 -> 15         0.57901

 Excited State  17:      Singlet-A'    11.2156 eV  110.55 nm  f=0.0637  <S**2>=0.000
       8 -> 13         0.62767
      10 -> 14        -0.16504
      12 -> 23        -0.17396

 Excited State  18:      Singlet-A"    11.2161 eV  110.54 nm  f=0.0053  <S**2>=0.000
      12 -> 22         0.68787

 Excited State  19:      Singlet-A'    11.6215 eV  106.69 nm  f=0.0456  <S**2>=0.000
       8 -> 13         0.15454
      12 -> 23         0.43177
      12 -> 24         0.46870
      12 -> 25         0.17704

 Excited State  20:      Singlet-A'    11.8473 eV  104.65 nm  f=0.1013  <S**2>=0.000
      10 -> 14         0.11977
      10 -> 15         0.63039
      11 -> 16         0.19032
      12 -> 24        -0.11084

 Excited State  21:      Singlet-A"    11.8545 eV  104.59 nm  f=0.1086  <S**2>=0.000
       8 -> 14         0.27528
      11 -> 17         0.62892

 Excited State  22:      Singlet-A'    11.8855 eV  104.32 nm  f=0.0354  <S**2>=0.000
       9 -> 14         0.10678
      10 -> 15        -0.14425
      11 -> 16         0.25638
      12 -> 23         0.44748
      12 -> 24        -0.40317

 Excited State  23:      Singlet-A'    12.0774 eV  102.66 nm  f=0.0795  <S**2>=0.000
      10 -> 15        -0.13835
      11 -> 16         0.58482
      12 -> 23        -0.17050
      12 -> 24         0.24255
      12 -> 25        -0.16553

 Excited State  24:      Singlet-A"    12.2749 eV  101.01 nm  f=0.0152  <S**2>=0.000
       8 -> 14         0.17257
       8 -> 15        -0.11496
      11 -> 18         0.65542

 Excited State  25:      Singlet-A'    12.3452 eV  100.43 nm  f=0.0053  <S**2>=0.000
       9 -> 14         0.49882
      11 -> 16        -0.12737
      12 -> 24         0.10903
      12 -> 25        -0.42626

 Excited State  26:      Singlet-A'    12.4214 eV   99.81 nm  f=0.0032  <S**2>=0.000
       9 -> 14         0.42653
      10 -> 17        -0.12751
      11 -> 16         0.12341
      11 -> 20         0.15317
      12 -> 23        -0.13149
      12 -> 25         0.45797

 Excited State  27:      Singlet-A"    12.4821 eV   99.33 nm  f=0.0531  <S**2>=0.000
       8 -> 14         0.58086
      11 -> 15        -0.13111
      11 -> 17        -0.27274
      11 -> 18        -0.11959

 Excited State  28:      Singlet-A"    12.6010 eV   98.39 nm  f=0.0017  <S**2>=0.000
       8 -> 15        -0.12360
      10 -> 16         0.61080
      10 -> 20         0.19942
      11 -> 19        -0.20309

 Excited State  29:      Singlet-A"    12.7195 eV   97.48 nm  f=0.0044  <S**2>=0.000
       8 -> 14        -0.10339
       8 -> 15         0.27491
      10 -> 16         0.23761
      11 -> 19         0.57161

 Excited State  30:      Singlet-A'    12.8796 eV   96.26 nm  f=0.0335  <S**2>=0.000
       7 -> 14        -0.15006
       8 -> 16        -0.11734
       9 -> 15         0.14957
      10 -> 17        -0.24614
      11 -> 20         0.56208
      12 -> 25        -0.11965

 Excited State  31:      Singlet-A'    12.9339 eV   95.86 nm  f=0.0044  <S**2>=0.000
       9 -> 15         0.24630
      10 -> 17         0.53938
      10 -> 19        -0.26603
      11 -> 20         0.19340

 Excited State  32:      Singlet-A'    13.0901 eV   94.72 nm  f=0.0278  <S**2>=0.000
       7 -> 14        -0.11256
       9 -> 15         0.41650
      10 -> 17        -0.11165
      10 -> 18         0.46161
      10 -> 19         0.12205
      11 -> 20        -0.19129

 Excited State  33:      Singlet-A"    13.1535 eV   94.26 nm  f=0.0055  <S**2>=0.000
       8 -> 15        -0.31673
       8 -> 17         0.20492
      11 -> 19         0.20710
      11 -> 21         0.47565
      12 -> 26        -0.22180

 Excited State  34:      Singlet-A"    13.1674 eV   94.16 nm  f=0.0140  <S**2>=0.000
       8 -> 15        -0.11772
      10 -> 20        -0.10378
      11 -> 21         0.15400
      12 -> 26         0.64828

 Excited State  35:      Singlet-A'    13.2318 eV   93.70 nm  f=0.1378  <S**2>=0.000
       9 -> 15         0.42476
       9 -> 17        -0.20693
      10 -> 17        -0.10856
      10 -> 18        -0.42005
      11 -> 20        -0.13521
      11 -> 22        -0.12655

 Excited State  36:      Singlet-A'    13.4824 eV   91.96 nm  f=0.0131  <S**2>=0.000
       7 -> 14         0.50774
       7 -> 15         0.15931
       8 -> 16         0.12742
       9 -> 17        -0.13701
      10 -> 19         0.31064
      11 -> 20         0.13266
      11 -> 22         0.17190

 Excited State  37:      Singlet-A"    13.5153 eV   91.74 nm  f=0.0357  <S**2>=0.000
       6 -> 13        -0.11799
       8 -> 15        -0.33464
      10 -> 16        -0.14394
      10 -> 20         0.45417
      10 -> 22         0.11080
      11 -> 19         0.21939
      11 -> 21        -0.21309

 Excited State  38:      Singlet-A"    13.5705 eV   91.36 nm  f=0.0102  <S**2>=0.000
       8 -> 15         0.35911
       8 -> 18         0.12620
      10 -> 16        -0.10045
      10 -> 20         0.37905
      11 -> 21         0.37086

 Excited State  39:      Singlet-A'    13.6897 eV   90.57 nm  f=0.0481  <S**2>=0.000
       7 -> 14         0.38816
       7 -> 15        -0.16825
       8 -> 16        -0.12411
       9 -> 18        -0.10542
      10 -> 15        -0.13410
      10 -> 17        -0.15451
      10 -> 18         0.18965
      10 -> 19        -0.36354
      10 -> 21         0.18132
      11 -> 22        -0.13592

 Excited State  40:      Singlet-A"    13.7256 eV   90.33 nm  f=0.0002  <S**2>=0.000
       6 -> 13         0.10786
      12 -> 27         0.65664

 Excited State  41:      Singlet-A'    13.8994 eV   89.20 nm  f=0.0838  <S**2>=0.000
       7 -> 14         0.10617
       7 -> 15         0.15654
       9 -> 17         0.50934
       9 -> 18        -0.15169
      10 -> 18        -0.10846
      10 -> 21        -0.27607
      12 -> 28        -0.17261

 Excited State  42:      Singlet-A"    13.9508 eV   88.87 nm  f=0.0024  <S**2>=0.000
       6 -> 13        -0.32961
       8 -> 17         0.11497
       8 -> 18        -0.20880
       8 -> 19        -0.12882
       9 -> 16         0.46622
      10 -> 22        -0.15970
      11 -> 23         0.17020

 Excited State  43:      Singlet-A"    14.0384 eV   88.32 nm  f=0.0030  <S**2>=0.000
       6 -> 13         0.35573
       8 -> 18         0.21291
       9 -> 16         0.44906
      10 -> 20        -0.10679
      10 -> 22        -0.11907
      11 -> 23        -0.16082
      12 -> 27        -0.16048

 Excited State  44:      Singlet-A'    14.0566 eV   88.20 nm  f=0.0365  <S**2>=0.000
       7 -> 17         0.14822
       8 -> 16        -0.22384
       9 -> 17         0.14242
       9 -> 18        -0.15581
      10 -> 17         0.19598
      10 -> 19         0.29533
      10 -> 21         0.21280
      11 -> 22        -0.29390
      12 -> 28        -0.27288

 Excited State  45:      Singlet-A'    14.1114 eV   87.86 nm  f=0.0378  <S**2>=0.000
       7 -> 15         0.10530
       9 -> 17         0.20148
       9 -> 18         0.17425
      11 -> 22        -0.27341
      12 -> 28         0.52998

 Excited State  46:      Singlet-A"    14.2605 eV   86.94 nm  f=0.0006  <S**2>=0.000
       6 -> 13         0.20035
       8 -> 17        -0.32428
       8 -> 18        -0.34006
       8 -> 19         0.14763
      11 -> 21         0.13821
      11 -> 23         0.34182
      11 -> 24         0.19809
      11 -> 25        -0.10423

 Excited State  47:      Singlet-A'    14.3305 eV   86.52 nm  f=0.1086  <S**2>=0.000
       7 -> 15         0.52984
       8 -> 16        -0.22678
       9 -> 18         0.20453
       9 -> 19        -0.14635
      10 -> 19        -0.12931
      10 -> 21         0.12668
      12 -> 28        -0.14229

 Excited State  48:      Singlet-A'    14.4112 eV   86.03 nm  f=0.0430  <S**2>=0.000
       7 -> 15        -0.13631
       8 -> 16        -0.29285
       8 -> 20        -0.14817
       9 -> 17         0.20359
      10 -> 18        -0.11769
      10 -> 21         0.18460
      11 -> 20        -0.11115
      11 -> 22         0.47262
      12 -> 28         0.11736

 Excited State  49:      Singlet-A"    14.4404 eV   85.86 nm  f=0.0406  <S**2>=0.000
       6 -> 13        -0.24651
       8 -> 17        -0.28530
       8 -> 18         0.23383
       8 -> 21         0.17595
       9 -> 20        -0.11287
      11 -> 24         0.38286
      11 -> 25         0.21676

 Excited State  50:      Singlet-A"    14.4910 eV   85.56 nm  f=0.0251  <S**2>=0.000
       7 -> 16         0.28737
       9 -> 16         0.13375
       9 -> 20         0.41529
      10 -> 20        -0.10608
      10 -> 22         0.38364
      11 -> 24         0.16707

 Excited State  51:      Singlet-A'    14.5302 eV   85.33 nm  f=0.0253  <S**2>=0.000
       7 -> 15        -0.21635
       8 -> 16        -0.13049
       9 -> 18         0.48423
       9 -> 19         0.11715
      10 -> 21        -0.21772
      12 -> 28        -0.22102
      12 -> 29         0.14392

 Excited State  52:      Singlet-A"    14.6326 eV   84.73 nm  f=0.0254  <S**2>=0.000
       6 -> 13         0.16663
       8 -> 17         0.34852
       8 -> 18         0.22422
      10 -> 22        -0.16407
      11 -> 21        -0.10611
      11 -> 23         0.35121
      11 -> 24         0.28732

 Excited State  53:      Singlet-A'    14.6349 eV   84.72 nm  f=0.1629  <S**2>=0.000
       8 -> 16         0.38652
       9 -> 17         0.19125
       9 -> 18         0.22090
       9 -> 21        -0.11495
      10 -> 21         0.42200

 Excited State  54:      Singlet-A"    14.8016 eV   83.76 nm  f=0.0140  <S**2>=0.000
       8 -> 18        -0.16402
       8 -> 19        -0.17581
       9 -> 20         0.42885
      10 -> 20         0.11086
      10 -> 22        -0.36803
      11 -> 23        -0.22466

 Excited State  55:      Singlet-A"    14.8385 eV   83.56 nm  f=0.0138  <S**2>=0.000
       6 -> 13         0.10242
       8 -> 17         0.26108
       8 -> 18        -0.25909
       8 -> 19        -0.11718
       8 -> 21         0.13088
       9 -> 20        -0.23698
      10 -> 22         0.15756
      11 -> 23        -0.27975
      11 -> 24         0.36115
      11 -> 25        -0.10731

 Excited State  56:      Singlet-A'    14.9229 eV   83.08 nm  f=0.0151  <S**2>=0.000
       7 -> 15         0.13537
       7 -> 18         0.14253
       9 -> 18        -0.10261
       9 -> 19         0.59819
      10 -> 25         0.10223

 Excited State  57:      Singlet-A'    15.0571 eV   82.34 nm  f=0.1174  <S**2>=0.000
       7 -> 17        -0.10183
       7 -> 18        -0.18568
       8 -> 16         0.10971
       8 -> 20        -0.28866
       9 -> 21         0.18765
      10 -> 24        -0.18223
      12 -> 29         0.48068

 Excited State  58:      Singlet-A'    15.1427 eV   81.88 nm  f=0.0146  <S**2>=0.000
       7 -> 17        -0.11588
       8 -> 16        -0.15222
       8 -> 20         0.52533
       8 -> 22         0.11831
       9 -> 19        -0.11786
       9 -> 21         0.11463
      11 -> 22         0.10669
      12 -> 29         0.27690
      12 -> 31        -0.12010

 Excited State  59:      Singlet-A"    15.1539 eV   81.82 nm  f=0.1677  <S**2>=0.000
       6 -> 13         0.17125
       7 -> 16         0.29299
       7 -> 20         0.13553
       8 -> 17        -0.10156
       8 -> 19        -0.34601
       9 -> 20        -0.17781
      10 -> 20         0.14463
      11 -> 24        -0.11028
      11 -> 25         0.34743

 Excited State  60:      Singlet-A'    15.2535 eV   81.28 nm  f=0.0344  <S**2>=0.000
       7 -> 15         0.10677
       7 -> 17         0.50705
       7 -> 18        -0.19654
       7 -> 19        -0.16256
       9 -> 19         0.11569
       9 -> 21        -0.23167
      12 -> 29         0.10584
      12 -> 31        -0.10394

 Excited State  61:      Singlet-A"    15.3757 eV   80.64 nm  f=0.0704  <S**2>=0.000
       7 -> 16         0.36553
       8 -> 18        -0.10383
       8 -> 19         0.41008
       8 -> 21        -0.20908
      10 -> 22        -0.15896
      11 -> 23        -0.15874
      11 -> 25         0.18740

 Excited State  62:      Singlet-A'    15.3814 eV   80.61 nm  f=0.1033  <S**2>=0.000
       7 -> 18         0.37400
       8 -> 20        -0.13251
       9 -> 21        -0.36072
       9 -> 23         0.13422
      10 -> 23        -0.23565
      12 -> 29         0.25440

 Excited State  63:      Singlet-A"    15.4385 eV   80.31 nm  f=0.1452  <S**2>=0.000
       6 -> 13         0.11245
       7 -> 16        -0.37913
       8 -> 18        -0.13745
       8 -> 19         0.13782
       8 -> 21        -0.17817
       9 -> 22         0.15490
      10 -> 22         0.19306
      11 -> 25         0.39598

 Excited State  64:      Singlet-A'    15.4758 eV   80.11 nm  f=0.0288  <S**2>=0.000
      10 -> 23        -0.30907
      10 -> 24        -0.27783
      10 -> 25        -0.21230
      12 -> 31         0.47016
      12 -> 32         0.12592

 Excited State  65:      Singlet-A'    15.5858 eV   79.55 nm  f=0.1923  <S**2>=0.000
       7 -> 17        -0.11619
       7 -> 18        -0.10990
       7 -> 19        -0.16349
       9 -> 21        -0.11547
      10 -> 24         0.36924
      10 -> 25         0.26289
      12 -> 31         0.38677
      12 -> 32         0.12144

 Excited State  66:      Singlet-A'    15.7827 eV   78.56 nm  f=0.0488  <S**2>=0.000
       7 -> 17         0.28372
       7 -> 18         0.24066
       9 -> 19        -0.10959
       9 -> 21         0.42002
      10 -> 23        -0.20101
      10 -> 25         0.20308

 Excited State  67:      Singlet-A"    15.8177 eV   78.38 nm  f=0.1048  <S**2>=0.000
       7 -> 20        -0.13196
      11 -> 25         0.12669
      12 -> 30         0.64909

 Excited State  68:      Singlet-A"    15.8937 eV   78.01 nm  f=0.0001  <S**2>=0.000
       7 -> 20        -0.12714
       8 -> 17         0.13621
       8 -> 19         0.18937
       8 -> 21         0.53457
       8 -> 24        -0.14977
      11 -> 24        -0.19020
      11 -> 25         0.18692
      12 -> 30        -0.15552

 Excited State  69:      Singlet-A'    15.9067 eV   77.94 nm  f=0.0234  <S**2>=0.000
       7 -> 17         0.14406
       7 -> 18         0.25065
       7 -> 19         0.28683
       9 -> 18        -0.10902
      10 -> 23         0.40176
      10 -> 25        -0.11896
      12 -> 31         0.13471
      12 -> 32         0.20511
      12 -> 33         0.14559

 Excited State  70:      Singlet-A'    15.9735 eV   77.62 nm  f=0.0806  <S**2>=0.000
       6 -> 14        -0.15114
       7 -> 18        -0.17658
       7 -> 19         0.11218
       7 -> 21         0.14636
       9 -> 19         0.12165
       9 -> 21         0.11648
      10 -> 23        -0.17275
      10 -> 24         0.38697
      10 -> 25        -0.38264

 Excited State  71:      Singlet-A"    16.0245 eV   77.37 nm  f=0.0793  <S**2>=0.000
       7 -> 20         0.52866
       8 -> 19         0.12439
       8 -> 21         0.14668
       9 -> 22         0.31178
      12 -> 30         0.15401

 Excited State  72:      Singlet-A'    16.0478 eV   77.26 nm  f=0.0058  <S**2>=0.000
       6 -> 14         0.11560
       8 -> 22         0.15157
      12 -> 29        -0.20696
      12 -> 31        -0.18830
      12 -> 32         0.55226

 Excited State  73:      Singlet-A"    16.1517 eV   76.76 nm  f=0.0512  <S**2>=0.000
       7 -> 16         0.12193
       7 -> 20        -0.33505
       9 -> 22         0.57159

 Excited State  74:      Singlet-A'    16.1536 eV   76.75 nm  f=0.1235  <S**2>=0.000
       6 -> 14        -0.35103
       7 -> 19         0.13912
       7 -> 21        -0.10479
       8 -> 22         0.43348
      10 -> 25         0.12688
      11 -> 26         0.14968
      11 -> 27         0.23140

 Excited State  75:      Singlet-A'    16.1802 eV   76.63 nm  f=0.0205  <S**2>=0.000
       6 -> 14         0.51285
       8 -> 22         0.30725
       9 -> 23        -0.11184
       9 -> 24        -0.11585
      11 -> 27         0.13188
      12 -> 32        -0.17913

 Excited State  76:      Singlet-A'    16.3161 eV   75.99 nm  f=0.0074  <S**2>=0.000
       7 -> 18         0.12921
       7 -> 19        -0.30057
       7 -> 21         0.15699
      10 -> 23         0.10938
      10 -> 25        -0.20360
      11 -> 26         0.43558
      12 -> 33        -0.24438

 Excited State  77:      Singlet-A'    16.4619 eV   75.32 nm  f=0.0607  <S**2>=0.000
       6 -> 14         0.14905
       7 -> 18        -0.15456
       7 -> 19         0.26790
       8 -> 22        -0.12205
      10 -> 23        -0.15558
      10 -> 25         0.14897
      11 -> 26         0.44699
      11 -> 27        -0.11950
      12 -> 33         0.19819
      12 -> 35         0.11653

 Excited State  78:      Singlet-A'    16.6060 eV   74.66 nm  f=0.0282  <S**2>=0.000
       7 -> 19        -0.26741
       9 -> 23         0.11670
      10 -> 25        -0.10732
      11 -> 27         0.28085
      12 -> 32        -0.12559
      12 -> 33         0.49797
      12 -> 35         0.11804

 Excited State  79:      Singlet-A'    16.6115 eV   74.64 nm  f=0.0342  <S**2>=0.000
       7 -> 19         0.15035
       7 -> 21         0.41138
       9 -> 23         0.38565
       9 -> 24        -0.20212
      10 -> 24        -0.11156
      10 -> 25         0.10588
      11 -> 26        -0.11888
      11 -> 27         0.11780

 Excited State  80:      Singlet-A"    16.6873 eV   74.30 nm  f=0.0039  <S**2>=0.000
       8 -> 23        -0.30333
       8 -> 24        -0.35764
       8 -> 25        -0.20681
      12 -> 34         0.44584

 Excited State  81:      Singlet-A'    16.7157 eV   74.17 nm  f=0.1613  <S**2>=0.000
       7 -> 21        -0.15821
       8 -> 22         0.20867
       9 -> 23         0.38537
       9 -> 24         0.39996
      10 -> 23         0.11560

 The electronic state is 1-A'.
 Alpha  occ. eigenvalues --  -19.22302 -10.36283 -10.27607  -1.13330  -0.83735
 Alpha  occ. eigenvalues --   -0.65764  -0.56039  -0.52465  -0.51763  -0.47341
 Alpha  occ. eigenvalues --   -0.44269  -0.33321
 Alpha virt. eigenvalues --    0.01663   0.05017   0.07733   0.11737   0.12007
 Alpha virt. eigenvalues --    0.13769   0.15045   0.15153   0.16292   0.19276
 Alpha virt. eigenvalues --    0.21502   0.22381   0.23925   0.27656   0.29508

 Mulliken charges:
               1
     1  C    0.514039
     2  C    0.076192
     3  O   -0.256129
     4  H   -0.003415
     5  H   -0.003415
     6  H   -0.103025
     7  H   -0.224247
 Sum of Mulliken charges =  -0.00000

 Dipole moment (field-independent basis, Debye):
    X=              2.9563    Y=             -0.3187    Z=              0.0000  Tot=              2.9735
 Quadrupole moment (field-independent basis, Debye-Ang):
   XX=            -21.5680   YY=            -18.1106   ZZ=            -18.1237
   XY=              0.8591   XZ=              0.0000   YZ=              0.0000

 Normal termination of Gaussian 16 at Mon Mar 21 20:08:30 2022.
