 Gaussian 16, Revision C.01,
 Gaussian 16:  EM64L-G16RevC.01  3-Jul-2019

 ----------------------------------------------------------------------
 #P TD(Nstates=10000) cam-b3lyp/Gen SCF(maxcycles=100) Int(Grid=ultrafi
 ne)
 ----------------------------------------------------------------------

 ---------------------
 xGDB7_00001_tier4.com
 ---------------------
 Symbolic Z-matrix:
 Charge =  0 Multiplicity = 1

                         Standard orientation:
 ---------------------------------------------------------------------
 Center     Atomic      Atomic             Coordinates (Angstroms)
 Number     Number       Type             X           Y           Z
 ---------------------------------------------------------------------
      1          9           0       -1.139724   -0.269725    0.000000
      2          6           0        0.000000    0.430281    0.000000
      3          6           0        1.180852   -0.148760    0.000000
      4          1           0       -0.180450    1.498331    0.000000
      5          1           0        1.283634   -1.225170    0.000000
      6          1           0        2.069222    0.465238    0.000000
 ---------------------------------------------------------------------

 SCF Done:  E(RCAM-B3LYP) =  -177.632772352     A.U. after   13 cycles

 Excitation energies and oscillator strengths:

 Excited State   1:      Singlet-A"     7.4711 eV  165.95 nm  f=0.0448  <S**2>=0.000
      12 -> 14         0.69381
 This state for optimization and/or second-order correction.
 Total Energy, E(TD-HF/TD-DFT) =  -177.358215920
 Copying the excited state density for this state as the 1-particle RhoCI density.

 Excited State   2:      Singlet-A'     7.7409 eV  160.17 nm  f=0.3314  <S**2>=0.000
      12 -> 13         0.69850

 Excited State   3:      Singlet-A"     8.1454 eV  152.21 nm  f=0.0077  <S**2>=0.000
      12 -> 15         0.67254
      12 -> 17         0.15819

 Excited State   4:      Singlet-A"     8.8762 eV  139.68 nm  f=0.0025  <S**2>=0.000
      11 -> 13         0.18611
      12 -> 15         0.10709
      12 -> 16         0.61951
      12 -> 17        -0.19980
      12 -> 21        -0.11576

 Excited State   5:      Singlet-A"     9.0071 eV  137.65 nm  f=0.0004  <S**2>=0.000
      11 -> 13         0.67150
      12 -> 16        -0.15353

 Excited State   6:      Singlet-A"     9.3564 eV  132.51 nm  f=0.0019  <S**2>=0.000
      12 -> 15        -0.14174
      12 -> 16         0.23809
      12 -> 17         0.62737

 Excited State   7:      Singlet-A"     9.9018 eV  125.21 nm  f=0.0003  <S**2>=0.000
      10 -> 13         0.69498

 Excited State   8:      Singlet-A"    10.2163 eV  121.36 nm  f=0.0096  <S**2>=0.000
      12 -> 18         0.68248

 Excited State   9:      Singlet-A'    10.4388 eV  118.77 nm  f=0.0010  <S**2>=0.000
      11 -> 14        -0.34653
      11 -> 15        -0.14382
      12 -> 19         0.58331

 Excited State  10:      Singlet-A'    10.5527 eV  117.49 nm  f=0.0092  <S**2>=0.000
      11 -> 14         0.52675
      11 -> 15         0.21298
      11 -> 16        -0.11389
      12 -> 19         0.37914

 Excited State  11:      Singlet-A"    10.7962 eV  114.84 nm  f=0.1217  <S**2>=0.000
       8 -> 13         0.11324
      12 -> 20         0.62562
      12 -> 21         0.28959

 Excited State  12:      Singlet-A'    11.3003 eV  109.72 nm  f=0.0724  <S**2>=0.000
      10 -> 14         0.48070
      10 -> 15        -0.14861
      11 -> 14        -0.21616
      11 -> 15         0.40090
      11 -> 16        -0.11972

 Excited State  13:      Singlet-A"    11.3933 eV  108.82 nm  f=0.0122  <S**2>=0.000
      12 -> 16         0.13100
      12 -> 17        -0.10055
      12 -> 20        -0.28117
      12 -> 21         0.59751

 Excited State  14:      Singlet-A'    11.5215 eV  107.61 nm  f=0.0289  <S**2>=0.000
      11 -> 15         0.13706
      11 -> 16        -0.20066
      12 -> 22         0.63621

 Excited State  15:      Singlet-A'    11.5981 eV  106.90 nm  f=0.1417  <S**2>=0.000
      10 -> 14        -0.39750
      11 -> 14        -0.14253
      11 -> 15         0.46871
      11 -> 16         0.24310

 Excited State  16:      Singlet-A'    11.9487 eV  103.76 nm  f=0.2047  <S**2>=0.000
      10 -> 14         0.16864
      10 -> 15        -0.24806
      11 -> 14         0.13613
      11 -> 16         0.51719
      11 -> 17        -0.19078
      12 -> 22         0.21333

 Excited State  17:      Singlet-A"    12.0179 eV  103.17 nm  f=0.0130  <S**2>=0.000
       8 -> 13        -0.41191
      12 -> 23         0.54481

 Excited State  18:      Singlet-A"    12.1129 eV  102.36 nm  f=0.0189  <S**2>=0.000
       8 -> 13         0.54251
      12 -> 23         0.41958

 Excited State  19:      Singlet-A'    12.2141 eV  101.51 nm  f=0.0980  <S**2>=0.000
      10 -> 14         0.23124
      10 -> 15         0.61562
      11 -> 16         0.16527

 Excited State  20:      Singlet-A'    12.3505 eV  100.39 nm  f=0.0403  <S**2>=0.000
       9 -> 13         0.66814
      12 -> 24         0.10270

 Excited State  21:      Singlet-A'    12.7524 eV   97.22 nm  f=0.0642  <S**2>=0.000
      11 -> 15        -0.11081
      11 -> 16         0.21409
      11 -> 17         0.60280
      12 -> 24         0.12407

 Excited State  22:      Singlet-A'    12.9430 eV   95.79 nm  f=0.0389  <S**2>=0.000
       8 -> 14         0.12088
      10 -> 16        -0.23769
      10 -> 17        -0.24487
      11 -> 17        -0.11627
      12 -> 24         0.55507

 Excited State  23:      Singlet-A"    13.0710 eV   94.85 nm  f=0.0398  <S**2>=0.000
       9 -> 14         0.58335
       9 -> 15         0.26122
       9 -> 16        -0.17703
      11 -> 19         0.20494

 Excited State  24:      Singlet-A"    13.1334 eV   94.40 nm  f=0.0305  <S**2>=0.000
       9 -> 14        -0.17211
      11 -> 19         0.65511

 Excited State  25:      Singlet-A'    13.1796 eV   94.07 nm  f=0.1537  <S**2>=0.000
      10 -> 16         0.55180
      10 -> 17        -0.29928
      11 -> 18        -0.15617
      12 -> 24         0.14132

 Excited State  26:      Singlet-A"    13.3839 eV   92.64 nm  f=0.0378  <S**2>=0.000
       7 -> 13        -0.39158
      12 -> 25         0.50731
      12 -> 27        -0.24368

 Excited State  27:      Singlet-A"    13.4392 eV   92.26 nm  f=0.0008  <S**2>=0.000
       7 -> 13         0.56748
      12 -> 25         0.34516
      12 -> 27        -0.18752

 Excited State  28:      Singlet-A'    13.4534 eV   92.16 nm  f=0.0274  <S**2>=0.000
       8 -> 15        -0.11016
      10 -> 16         0.17705
      11 -> 18         0.64357

 Excited State  29:      Singlet-A'    13.5111 eV   91.76 nm  f=0.0402  <S**2>=0.000
       8 -> 14        -0.13005
       8 -> 15        -0.11961
      10 -> 16         0.11887
      10 -> 17         0.41503
      11 -> 17        -0.11309
      11 -> 20        -0.39891
      12 -> 24         0.25845

 Excited State  30:      Singlet-A"    13.7217 eV   90.36 nm  f=0.0073  <S**2>=0.000
      12 -> 25         0.31535
      12 -> 27         0.58314

 Excited State  31:      Singlet-A'    13.8029 eV   89.82 nm  f=0.0082  <S**2>=0.000
       8 -> 14         0.58961
      10 -> 17         0.19517
      12 -> 26        -0.27126

 Excited State  32:      Singlet-A'    13.8787 eV   89.33 nm  f=0.0874  <S**2>=0.000
      10 -> 17         0.27968
      10 -> 20         0.14223
      11 -> 20         0.46506
      11 -> 21        -0.14410
      12 -> 24         0.18329
      12 -> 26         0.27101

 Excited State  33:      Singlet-A'    14.0545 eV   88.22 nm  f=0.0076  <S**2>=0.000
       8 -> 14         0.23900
      10 -> 16        -0.16921
      10 -> 18         0.26389
      11 -> 20        -0.21688
      12 -> 26         0.49523

 Excited State  34:      Singlet-A"    14.1287 eV   87.75 nm  f=0.0020  <S**2>=0.000
       9 -> 14        -0.27209
       9 -> 15         0.59383
       9 -> 17         0.20942
       9 -> 18        -0.11035

 Excited State  35:      Singlet-A'    14.2168 eV   87.21 nm  f=0.0844  <S**2>=0.000
       8 -> 15        -0.17708
      10 -> 18        -0.17619
      11 -> 17        -0.11680
      11 -> 20         0.13154
      11 -> 21         0.57885
      12 -> 26         0.16994

 Excited State  36:      Singlet-A"    14.2897 eV   86.76 nm  f=0.0054  <S**2>=0.000
       9 -> 16         0.10110
      10 -> 19         0.58116
      10 -> 22         0.11232
      11 -> 22        -0.33101

 Excited State  37:      Singlet-A'    14.3743 eV   86.25 nm  f=0.1520  <S**2>=0.000
       8 -> 15        -0.39347
      10 -> 17         0.10207
      10 -> 18         0.48148
      11 -> 20         0.14999
      12 -> 26        -0.10013

 Excited State  38:      Singlet-A"    14.4349 eV   85.89 nm  f=0.0100  <S**2>=0.000
       9 -> 14         0.16545
       9 -> 16         0.60430
       9 -> 17        -0.14550
      10 -> 19        -0.14616
      12 -> 27        -0.13470

 Excited State  39:      Singlet-A'    14.5433 eV   85.25 nm  f=0.0515  <S**2>=0.000
       8 -> 14        -0.10524
       8 -> 15         0.42669
       8 -> 17         0.13635
      10 -> 18         0.27897
      10 -> 20         0.16180
      10 -> 21         0.16106
      11 -> 21         0.26747
      12 -> 24         0.10425
      12 -> 26        -0.15576

 Excited State  40:      Singlet-A"    14.6377 eV   84.70 nm  f=0.0004  <S**2>=0.000
       9 -> 16         0.10737
      10 -> 19         0.30237
      11 -> 22         0.60002

 Excited State  41:      Singlet-A'    14.7460 eV   84.08 nm  f=0.0368  <S**2>=0.000
       7 -> 14        -0.19345
       7 -> 15        -0.10773
       8 -> 15        -0.22552
       8 -> 16        -0.13196
      10 -> 20         0.55217
      10 -> 21         0.11835

 Excited State  42:      Singlet-A'    15.1105 eV   82.05 nm  f=0.0051  <S**2>=0.000
       7 -> 14        -0.33876
       9 -> 19         0.11989
      10 -> 20        -0.17357
      10 -> 21        -0.11322
      11 -> 23         0.53366

 Excited State  43:      Singlet-A"    15.1715 eV   81.72 nm  f=0.0024  <S**2>=0.000
       9 -> 17        -0.24249
      12 -> 27        -0.12485
      12 -> 28         0.58530
      12 -> 29         0.18475

 Excited State  44:      Singlet-A'    15.1881 eV   81.63 nm  f=0.1243  <S**2>=0.000
       7 -> 14         0.41371
       8 -> 16         0.33591
       9 -> 19         0.16025
      10 -> 20         0.19942
      11 -> 23         0.29396

 Excited State  45:      Singlet-A'    15.2530 eV   81.29 nm  f=0.0408  <S**2>=0.000
       7 -> 14        -0.31691
       8 -> 16         0.48439
       8 -> 17        -0.18236
      10 -> 18         0.14765
      11 -> 23        -0.18295

 Excited State  46:      Singlet-A"    15.3326 eV   80.86 nm  f=0.0489  <S**2>=0.000
       6 -> 13        -0.18497
      10 -> 22         0.63221

 Excited State  47:      Singlet-A"    15.3708 eV   80.66 nm  f=0.0179  <S**2>=0.000
       9 -> 15        -0.18383
       9 -> 16         0.17277
       9 -> 17         0.50769
       9 -> 18        -0.11610
       9 -> 20        -0.12266
       9 -> 27        -0.11404
      10 -> 22         0.13116
      12 -> 28         0.29028

 Excited State  48:      Singlet-A'    15.4491 eV   80.25 nm  f=0.0545  <S**2>=0.000
       8 -> 15        -0.12103
       8 -> 16         0.21070
       8 -> 17         0.58562
       9 -> 19        -0.17942
      11 -> 27        -0.11305

 Excited State  49:      Singlet-A'    15.7044 eV   78.95 nm  f=0.0567  <S**2>=0.000
       7 -> 14        -0.12205
       7 -> 15         0.12443
       9 -> 19         0.36251
      10 -> 21         0.47310
      11 -> 21        -0.11674
      12 -> 31        -0.16929

 Excited State  50:      Singlet-A'    15.8557 eV   78.20 nm  f=0.0037  <S**2>=0.000
       7 -> 15         0.20263
       7 -> 16         0.27530
       9 -> 19         0.38573
      10 -> 21        -0.24036
      11 -> 23        -0.16900
      12 -> 31         0.26061

 Excited State  51:      Singlet-A"    15.8642 eV   78.15 nm  f=0.0374  <S**2>=0.000
       6 -> 13        -0.12599
       9 -> 18         0.19269
      11 -> 24        -0.10983
      12 -> 28        -0.11110
      12 -> 29         0.60592
      12 -> 30        -0.14210

 Excited State  52:      Singlet-A"    15.9199 eV   77.88 nm  f=0.0255  <S**2>=0.000
       6 -> 13         0.39118
       9 -> 18        -0.12654
       9 -> 20        -0.19404
      12 -> 28        -0.17153
      12 -> 29         0.19930
      12 -> 30         0.43565

 Excited State  53:      Singlet-A'    15.9437 eV   77.76 nm  f=0.1343  <S**2>=0.000
       7 -> 14        -0.11485
       7 -> 15         0.54714
       7 -> 17         0.11165
       7 -> 18        -0.11303
       8 -> 18        -0.11307
       9 -> 19        -0.18708
      10 -> 23         0.21500

 Excited State  54:      Singlet-A"    15.9605 eV   77.68 nm  f=0.0104  <S**2>=0.000
       6 -> 13        -0.10737
       8 -> 19        -0.27907
      10 -> 19         0.10334
      10 -> 24        -0.10468
      11 -> 24         0.57365
      11 -> 26        -0.11555
      12 -> 29         0.10772

 Excited State  55:      Singlet-A'    16.0636 eV   77.18 nm  f=0.0261  <S**2>=0.000
       9 -> 19        -0.13578
      10 -> 21         0.25295
      11 -> 25        -0.10887
      12 -> 31         0.58375

 Excited State  56:      Singlet-A"    16.0949 eV   77.03 nm  f=0.0199  <S**2>=0.000
       6 -> 13        -0.15197
       9 -> 17         0.15467
       9 -> 18         0.37196
       9 -> 20         0.22836
       9 -> 23         0.11352
      12 -> 30         0.45480

 Excited State  57:      Singlet-A"    16.1198 eV   76.91 nm  f=0.0207  <S**2>=0.000
       6 -> 13         0.25967
       9 -> 15         0.10693
       9 -> 18         0.45421
       9 -> 20        -0.25863
       9 -> 21         0.15824
       9 -> 23         0.10168
      12 -> 29        -0.14186
      12 -> 30        -0.17756
      12 -> 32         0.14887

 Excited State  58:      Singlet-A'    16.2240 eV   76.42 nm  f=0.2355  <S**2>=0.000
       7 -> 15        -0.19320
       7 -> 16        -0.18519
       8 -> 18         0.21496
      10 -> 23         0.53941
      11 -> 23        -0.12286
      12 -> 31         0.18213

 Excited State  59:      Singlet-A'    16.3161 eV   75.99 nm  f=0.1022  <S**2>=0.000
       7 -> 16         0.52589
       8 -> 18        -0.11171
       9 -> 19        -0.13239
      10 -> 21         0.18228
      10 -> 23         0.29016

 Excited State  60:      Singlet-A"    16.4532 eV   75.36 nm  f=0.0942  <S**2>=0.000
       6 -> 13         0.22505
       8 -> 19        -0.25440
       9 -> 20         0.33393
       9 -> 21        -0.16631
      10 -> 24         0.42480

 Excited State  61:      Singlet-A'    16.4855 eV   75.21 nm  f=0.0484  <S**2>=0.000
       7 -> 15         0.17072
       8 -> 17        -0.13689
       8 -> 18         0.56238
       8 -> 21         0.13144
       9 -> 19        -0.16066
      11 -> 27        -0.13014

 Excited State  62:      Singlet-A"    16.4905 eV   75.19 nm  f=0.1343  <S**2>=0.000
       6 -> 13        -0.28399
       7 -> 19         0.12857
       8 -> 19        -0.13024
       9 -> 20        -0.31132
       9 -> 21         0.17889
      10 -> 24         0.41203
      10 -> 26        -0.11778
      12 -> 30         0.11253
      12 -> 33        -0.10740

 Excited State  63:      Singlet-A'    16.5218 eV   75.04 nm  f=0.0829  <S**2>=0.000
       7 -> 16        -0.11790
       8 -> 18        -0.10566
       8 -> 20        -0.28837
      11 -> 25         0.45777
      11 -> 27        -0.30979

 Excited State  64:      Singlet-A"    16.5471 eV   74.93 nm  f=0.0013  <S**2>=0.000
       9 -> 20         0.13118
      12 -> 32         0.67249

 Excited State  65:      Singlet-A"    16.6420 eV   74.50 nm  f=0.0116  <S**2>=0.000
       7 -> 19         0.10710
       8 -> 19         0.55217
      10 -> 24         0.22065
      11 -> 24         0.33293

 Excited State  66:      Singlet-A"    16.7603 eV   73.98 nm  f=0.0130  <S**2>=0.000
       9 -> 17        -0.11267
       9 -> 18        -0.12665
       9 -> 20         0.25988
       9 -> 21         0.59009
      12 -> 33         0.18116

 Excited State  67:      Singlet-A'    16.8418 eV   73.62 nm  f=0.0063  <S**2>=0.000
       6 -> 14        -0.15470
       8 -> 18        -0.12318
       8 -> 20         0.43693
      11 -> 27        -0.43625

 Excited State  68:      Singlet-A"    16.8478 eV   73.59 nm  f=0.0170  <S**2>=0.000
       8 -> 22         0.26290
      11 -> 24         0.10578
      11 -> 26         0.62216

 Excited State  69:      Singlet-A'    17.0096 eV   72.89 nm  f=0.0320  <S**2>=0.000
       6 -> 14        -0.37781
       6 -> 15        -0.13114
       8 -> 20         0.17365
       8 -> 21         0.10755
      11 -> 25         0.40875
      11 -> 27         0.28434

 Excited State  70:      Singlet-A'    17.1661 eV   72.23 nm  f=0.0198  <S**2>=0.000
       6 -> 14         0.38480
       7 -> 17         0.38519
       8 -> 16        -0.10858
       8 -> 20         0.24579
       9 -> 22         0.10143
      11 -> 25         0.22166

 Excited State  71:      Singlet-A'    17.2835 eV   71.74 nm  f=0.0011  <S**2>=0.000
       6 -> 14        -0.13779
       7 -> 17         0.25983
       7 -> 20         0.14180
       8 -> 20        -0.11114
      10 -> 25         0.54867

 Excited State  72:      Singlet-A"    17.3075 eV   71.64 nm  f=0.0613  <S**2>=0.000
       6 -> 13        -0.12193
       8 -> 22        -0.10718
       9 -> 21        -0.11643
      12 -> 33         0.63505

 Excited State  73:      Singlet-A'    17.3461 eV   71.48 nm  f=0.0120  <S**2>=0.000
       6 -> 14        -0.21273
       7 -> 16         0.12851
       7 -> 17         0.20708
       8 -> 20        -0.17575
       9 -> 22         0.43652
      10 -> 25        -0.27314
      10 -> 27         0.14396
      11 -> 25        -0.10701

 Excited State  74:      Singlet-A'    17.5884 eV   70.49 nm  f=0.0439  <S**2>=0.000
       6 -> 15         0.16340
       7 -> 17        -0.14659
       8 -> 18        -0.10945
       8 -> 21         0.46861
       9 -> 22         0.31820
      11 -> 28        -0.10757
      12 -> 34        -0.18120

 Excited State  75:      Singlet-A'    17.6356 eV   70.30 nm  f=0.0046  <S**2>=0.000
       7 -> 17        -0.26870
       8 -> 20         0.16711
       8 -> 21        -0.30770
       9 -> 22         0.34761
      10 -> 25         0.18166
      11 -> 27         0.10470
      12 -> 34         0.23001

 Excited State  76:      Singlet-A"    17.6472 eV   70.26 nm  f=0.1074  <S**2>=0.000
       8 -> 22         0.57002
      10 -> 24         0.12328
      10 -> 26         0.24665
      11 -> 26        -0.21918
      12 -> 33         0.11373

 Excited State  77:      Singlet-A"    17.6910 eV   70.08 nm  f=0.0137  <S**2>=0.000
       7 -> 19         0.63171
       9 -> 23        -0.17953
      10 -> 24        -0.13555
      10 -> 26         0.13748

 Excited State  78:      Singlet-A"    17.7193 eV   69.97 nm  f=0.0034  <S**2>=0.000
       7 -> 19         0.17914
       9 -> 18        -0.15894
       9 -> 23         0.63776
      12 -> 35         0.12051

 Excited State  79:      Singlet-A"    17.8614 eV   69.41 nm  f=0.0713  <S**2>=0.000
       7 -> 22        -0.15569
       8 -> 22        -0.26127
      10 -> 24         0.14047
      10 -> 26         0.57734
      11 -> 26         0.11617

 Excited State  80:      Singlet-A'    17.8622 eV   69.41 nm  f=0.0034  <S**2>=0.000
       6 -> 15        -0.21484
       7 -> 17        -0.10856
       7 -> 18         0.37130
       7 -> 20         0.13117
      10 -> 27         0.44391
      12 -> 34        -0.10000

 Excited State  81:      Singlet-A'    17.9612 eV   69.03 nm  f=0.0163  <S**2>=0.000
       6 -> 14        -0.11233
       6 -> 15         0.27014
       7 -> 17        -0.15437
       7 -> 18        -0.34870
       8 -> 20         0.11252
       8 -> 21        -0.13360
      10 -> 27         0.35120
      12 -> 34        -0.26481

 Excited State  82:      Singlet-A'    17.9990 eV   68.88 nm  f=0.0252  <S**2>=0.000
       6 -> 14        -0.19165
       6 -> 15         0.45830
       6 -> 17         0.17785
       7 -> 17         0.15078
       7 -> 18         0.28871
       8 -> 23         0.13205
      12 -> 34         0.20053

 Excited State  83:      Singlet-A'    18.0731 eV   68.60 nm  f=0.0696  <S**2>=0.000
       7 -> 18        -0.24279
       7 -> 20         0.11983
       8 -> 21         0.23852
       8 -> 23        -0.14993
      10 -> 27         0.21127
      11 -> 28         0.18476
      11 -> 30         0.10627
      12 -> 34         0.44440

 Excited State  84:      Singlet-A'    18.1672 eV   68.25 nm  f=0.1322  <S**2>=0.000
       6 -> 15        -0.17269
       7 -> 18        -0.15188
       8 -> 23         0.48544
      11 -> 28        -0.33182
      12 -> 34         0.17132

 Excited State  85:      Singlet-A"    18.2115 eV   68.08 nm  f=0.0525  <S**2>=0.000
       9 -> 23        -0.11995
      12 -> 35         0.67184

 Excited State  86:      Singlet-A'    18.2781 eV   67.83 nm  f=0.0236  <S**2>=0.000
       6 -> 16         0.14285
       7 -> 20         0.56302
       8 -> 23        -0.16527
      10 -> 25        -0.19983
      11 -> 28        -0.11272
      11 -> 29        -0.10342
      11 -> 30        -0.11832

 Excited State  87:      Singlet-A'    18.4962 eV   67.03 nm  f=0.0590  <S**2>=0.000
       6 -> 16        -0.12865
       7 -> 20         0.18027
       7 -> 21         0.28141
       8 -> 23         0.28631
      10 -> 27        -0.14433
      11 -> 28         0.44163

 Excited State  88:      Singlet-A"    18.5644 eV   66.79 nm  f=0.0091  <S**2>=0.000
      12 -> 36         0.56044
      12 -> 38         0.37493

 Excited State  89:      Singlet-A'    18.6002 eV   66.66 nm  f=0.0232  <S**2>=0.000
       6 -> 16         0.51424
       6 -> 17        -0.10227
       7 -> 20        -0.11124
       7 -> 21        -0.15491
       8 -> 23         0.21584
      11 -> 28         0.14466
      11 -> 29        -0.12676
      12 -> 37         0.11116

 Excited State  90:      Singlet-A"    18.6332 eV   66.54 nm  f=0.0031  <S**2>=0.000
       6 -> 19         0.18412

 The electronic state is 1-A'.
 Alpha  occ. eigenvalues --  -24.78801 -10.35298 -10.26747  -1.29882  -0.85371
 Alpha  occ. eigenvalues --   -0.68799  -0.61298  -0.56440  -0.54716  -0.48441
 Alpha  occ. eigenvalues --   -0.45229  -0.33952
 Alpha virt. eigenvalues --    0.04787   0.05888   0.07903   0.12117   0.13895
 Alpha virt. eigenvalues --    0.15879   0.16475   0.18470   0.20550   0.21356
 Alpha virt. eigenvalues --    0.22353   0.26380   0.28124   0.29527   0.30697

 Mulliken charges:
               1
     1  F   -0.415723
     2  C    0.704370
     3  C    0.245063
     4  H   -0.219226
     5  H   -0.212721
     6  H   -0.101763
 Sum of Mulliken charges =   0.00000

 Dipole moment (field-independent basis, Debye):
    X=              1.2346    Y=              0.7952    Z=              0.0000  Tot=              1.4686
 Quadrupole moment (field-independent basis, Debye-Ang):
   XX=            -17.9388   YY=            -15.8282   ZZ=            -19.1064
   XY=             -0.8948   XZ=              0.0000   YZ=              0.0000

 Normal termination of Gaussian 16 at Mon Mar 21 04:13:38 2022.
