 Gaussian 16, Revision C.01,
 Gaussian 16:  EM64L-G16RevC.01  3-Jul-2019

 ----------------------------------------------------------------------
 #P TD(Nstates=10000) cam-b3lyp/Gen SCF(maxcycles=100) Int(Grid=ultrafi
 ne)
 ----------------------------------------------------------------------

 ---------------------
 xGDB7_00001_tier4.com
 ---------------------
 Symbolic Z-matrix:
 Charge =  0 Multiplicity = 1

                         Standard orientation:
 ---------------------------------------------------------------------
 Center     Atomic      Atomic             Coordinates (Angstroms)
 Number     Number       Type             X           Y           Z
 ---------------------------------------------------------------------
      1          7           0        1.078471   -0.156900   -0.000001
      2          6           0       -0.161963    0.384944   -0.000002
      3          8           0       -1.189170   -0.245458    0.000001
      4          1           0        1.898427    0.419427    0.000004
      5          1           0        1.178124   -1.157073    0.000005
      6          1           0       -0.140706    1.489948    0.000007
 ---------------------------------------------------------------------

 SCF Done:  E(RCAM-B3LYP) =  -169.715611015     A.U. after   14 cycles

 Excitation energies and oscillator strengths:

 Excited State   1:      Singlet-A      5.6722 eV  218.58 nm  f=0.0007  <S**2>=0.000
      12 -> 14         0.70198
 This state for optimization and/or second-order correction.
 Total Energy, E(TD-HF/TD-DFT) =  -169.507162928
 Copying the excited state density for this state as the 1-particle RhoCI density.

 Excited State   2:      Singlet-A      7.3304 eV  169.14 nm  f=0.0085  <S**2>=0.000
      11 -> 14         0.37632
      12 -> 13         0.58135

 Excited State   3:      Singlet-A      7.3884 eV  167.81 nm  f=0.0138  <S**2>=0.000
      11 -> 13         0.69288

 Excited State   4:      Singlet-A      7.8925 eV  157.09 nm  f=0.1895  <S**2>=0.000
      11 -> 14         0.45105
      12 -> 13        -0.24050
      12 -> 15         0.45491

 Excited State   5:      Singlet-A      8.2934 eV  149.50 nm  f=0.0028  <S**2>=0.000
      11 -> 15         0.67154
      11 -> 16         0.16957

 Excited State   6:      Singlet-A      8.2961 eV  149.45 nm  f=0.2082  <S**2>=0.000
      11 -> 14        -0.34877
      12 -> 13         0.26815
      12 -> 15         0.52455
      12 -> 16         0.12547

 Excited State   7:      Singlet-A      8.9778 eV  138.10 nm  f=0.0874  <S**2>=0.000
      12 -> 13        -0.15590
      12 -> 16         0.63992
      12 -> 18         0.20485

 Excited State   8:      Singlet-A      9.2111 eV  134.60 nm  f=0.0096  <S**2>=0.000
      11 -> 15        -0.17013
      11 -> 16         0.66431

 Excited State   9:      Singlet-A      9.4956 eV  130.57 nm  f=0.0074  <S**2>=0.000
      12 -> 17         0.70122

 Excited State  10:      Singlet-A      9.9263 eV  124.91 nm  f=0.0077  <S**2>=0.000
      11 -> 17        -0.10532
      12 -> 16        -0.21594
      12 -> 18         0.65367

 Excited State  11:      Singlet-A      9.9695 eV  124.36 nm  f=0.0017  <S**2>=0.000
       9 -> 14         0.11322
      11 -> 18         0.63609
      11 -> 19         0.13269
      11 -> 20        -0.19981

 Excited State  12:      Singlet-A     10.1714 eV  121.89 nm  f=0.0020  <S**2>=0.000
       9 -> 14         0.68317
      11 -> 19        -0.10265

 Excited State  13:      Singlet-A     10.1948 eV  121.61 nm  f=0.0026  <S**2>=0.000
      11 -> 17         0.52004
      12 -> 19        -0.45053

 Excited State  14:      Singlet-A     10.3340 eV  119.98 nm  f=0.0056  <S**2>=0.000
      11 -> 17         0.42832
      12 -> 19         0.47896
      12 -> 20        -0.22387

 Excited State  15:      Singlet-A     10.4925 eV  118.16 nm  f=0.0017  <S**2>=0.000
      10 -> 15        -0.11941
      11 -> 18        -0.11394
      11 -> 19         0.65306
      11 -> 20         0.10348
      11 -> 22         0.12221

 Excited State  16:      Singlet-A     10.5237 eV  117.81 nm  f=0.0242  <S**2>=0.000
      11 -> 17         0.12493
      12 -> 19         0.17642
      12 -> 20         0.66347

 Excited State  17:      Singlet-A     11.0298 eV  112.41 nm  f=0.0360  <S**2>=0.000
      11 -> 18         0.19878
      11 -> 20         0.63592
      11 -> 22        -0.10081
      11 -> 23        -0.11934

 Excited State  18:      Singlet-A     11.3325 eV  109.41 nm  f=0.0800  <S**2>=0.000
       8 -> 13         0.11428
       9 -> 13        -0.20651
      10 -> 14         0.60774
      11 -> 21         0.18234

 Excited State  19:      Singlet-A     11.4114 eV  108.65 nm  f=0.0457  <S**2>=0.000
      10 -> 13         0.68364

 Excited State  20:      Singlet-A     11.5061 eV  107.75 nm  f=0.0039  <S**2>=0.000
      12 -> 21         0.66281
      12 -> 24        -0.15188
      12 -> 26         0.10684

 Excited State  21:      Singlet-A     11.5674 eV  107.18 nm  f=0.0117  <S**2>=0.000
      11 -> 21         0.11476
      12 -> 22         0.51164
      12 -> 23         0.44193

 Excited State  22:      Singlet-A     11.7320 eV  105.68 nm  f=0.0073  <S**2>=0.000
       9 -> 13         0.54277
      10 -> 14         0.11037
      11 -> 21         0.35026
      12 -> 22        -0.21713

 Excited State  23:      Singlet-A     11.8304 eV  104.80 nm  f=0.1271  <S**2>=0.000
       9 -> 13        -0.35718
      10 -> 14        -0.18292
      11 -> 21         0.43746
      12 -> 22        -0.22034
      12 -> 23         0.25109

 Excited State  24:      Singlet-A     11.9729 eV  103.55 nm  f=0.0080  <S**2>=0.000
      11 -> 19        -0.10246
      11 -> 20         0.11461
      11 -> 22         0.55530
      11 -> 23         0.35544

 Excited State  25:      Singlet-A     12.0587 eV  102.82 nm  f=0.0030  <S**2>=0.000
       8 -> 14         0.60915
      10 -> 15        -0.29297

 Excited State  26:      Singlet-A     12.1036 eV  102.44 nm  f=0.0522  <S**2>=0.000
      10 -> 14         0.15414
      11 -> 21        -0.30391
      11 -> 24         0.14140
      12 -> 22        -0.34907
      12 -> 23         0.45400

 Excited State  27:      Singlet-A     12.1827 eV  101.77 nm  f=0.0000  <S**2>=0.000
       8 -> 14         0.27203
      10 -> 15         0.45536
      11 -> 22         0.16531
      11 -> 23        -0.39449

 Excited State  28:      Singlet-A     12.3234 eV  100.61 nm  f=0.0075  <S**2>=0.000
       8 -> 14         0.13797
      10 -> 15         0.39986
      11 -> 19         0.13200
      11 -> 22        -0.32397
      11 -> 23         0.40283

 Excited State  29:      Singlet-A     12.4281 eV   99.76 nm  f=0.0103  <S**2>=0.000
      12 -> 21         0.15784
      12 -> 24         0.67012

 Excited State  30:      Singlet-A     12.4476 eV   99.60 nm  f=0.0875  <S**2>=0.000
       9 -> 15         0.68202

 Excited State  31:      Singlet-A     12.7168 eV   97.50 nm  f=0.0157  <S**2>=0.000
       9 -> 16        -0.14162
      11 -> 21         0.10341
      11 -> 24         0.64525

 Excited State  32:      Singlet-A     13.0973 eV   94.66 nm  f=0.0088  <S**2>=0.000
       8 -> 13         0.48063
       9 -> 16         0.42459
       9 -> 18         0.18424
      10 -> 14        -0.10153

 Excited State  33:      Singlet-A     13.2048 eV   93.89 nm  f=0.0584  <S**2>=0.000
      10 -> 16         0.68127

 Excited State  34:      Singlet-A     13.4910 eV   91.90 nm  f=0.0718  <S**2>=0.000
       8 -> 13         0.46822
       9 -> 13         0.10692
       9 -> 16        -0.40128
       9 -> 18        -0.24974
      10 -> 17        -0.11197
      11 -> 24        -0.10654

 Excited State  35:      Singlet-A     13.7947 eV   89.88 nm  f=0.0236  <S**2>=0.000
       9 -> 17         0.68151
      10 -> 18         0.11397

 Excited State  36:      Singlet-A     13.8889 eV   89.27 nm  f=0.0516  <S**2>=0.000
       8 -> 15         0.41873
       9 -> 18        -0.23405
       9 -> 19        -0.11874
      10 -> 17         0.24028
      12 -> 25        -0.41623

 Excited State  37:      Singlet-A     13.9024 eV   89.18 nm  f=0.0396  <S**2>=0.000
       8 -> 15         0.31881
       9 -> 18        -0.22342
       9 -> 19        -0.10878
      12 -> 25         0.53693
      12 -> 27         0.12473

 Excited State  38:      Singlet-A     13.9678 eV   88.76 nm  f=0.0007  <S**2>=0.000
       9 -> 17        -0.12889
      10 -> 18         0.57909
      11 -> 25         0.27653
      12 -> 26         0.13578

 Excited State  39:      Singlet-A     14.0341 eV   88.34 nm  f=0.0558  <S**2>=0.000
       8 -> 15        -0.25784
       9 -> 20         0.10313
      10 -> 17         0.59695
      12 -> 27        -0.11187

 Excited State  40:      Singlet-A     14.0422 eV   88.29 nm  f=0.0002  <S**2>=0.000
      11 -> 25        -0.16838
      12 -> 26         0.65757

 Excited State  41:      Singlet-A     14.1623 eV   87.55 nm  f=0.1981  <S**2>=0.000
       6 -> 14         0.10339
      10 -> 18        -0.26081
      10 -> 20         0.20440
      11 -> 25         0.56122
      11 -> 27         0.11230
      12 -> 26         0.13668

 Excited State  42:      Singlet-A     14.2394 eV   87.07 nm  f=0.1358  <S**2>=0.000
       8 -> 15         0.28860
       8 -> 16         0.12508
       9 -> 16        -0.28087
       9 -> 18         0.51304
      10 -> 17         0.11589

 Excited State  43:      Singlet-A     14.3735 eV   86.26 nm  f=0.0010  <S**2>=0.000
       7 -> 14         0.67509
      10 -> 19        -0.12146

 Excited State  44:      Singlet-A     14.3839 eV   86.20 nm  f=0.0583  <S**2>=0.000
       9 -> 19         0.19733
      10 -> 21         0.13612
      11 -> 26         0.54720
      12 -> 27         0.30527

 Excited State  45:      Singlet-A     14.4587 eV   85.75 nm  f=0.1707  <S**2>=0.000
       8 -> 15         0.18107
       8 -> 16        -0.14141
       9 -> 19         0.47586
       9 -> 20        -0.22955
      12 -> 27        -0.36291

 Excited State  46:      Singlet-A     14.4876 eV   85.58 nm  f=0.0001  <S**2>=0.000
      10 -> 19         0.61420
      11 -> 25        -0.13854
      11 -> 27         0.25354

 Excited State  47:      Singlet-A     14.5965 eV   84.94 nm  f=0.0743  <S**2>=0.000
       9 -> 19         0.37898
       9 -> 20         0.17412
      11 -> 26        -0.35976
      12 -> 27         0.37061

 Excited State  48:      Singlet-A     14.6291 eV   84.75 nm  f=0.0014  <S**2>=0.000
      10 -> 19        -0.26167
      10 -> 20        -0.10916
      11 -> 27         0.61170
      11 -> 32        -0.10011

 Excited State  49:      Singlet-A     14.8843 eV   83.30 nm  f=0.0371  <S**2>=0.000
      10 -> 18         0.16874
      10 -> 20         0.61174
      10 -> 22        -0.12142
      10 -> 23        -0.15105
      11 -> 25        -0.16032

 Excited State  50:      Singlet-A     14.9112 eV   83.15 nm  f=0.0081  <S**2>=0.000
       7 -> 13        -0.10008
       8 -> 16         0.13271
       8 -> 18         0.11333
       9 -> 20         0.56523
      10 -> 17        -0.10185
      11 -> 26         0.13474
      12 -> 27        -0.20604
      12 -> 28         0.15838

 Excited State  51:      Singlet-A     15.0869 eV   82.18 nm  f=0.0169  <S**2>=0.000
       8 -> 16         0.61724
       8 -> 20        -0.12396
       9 -> 18        -0.10641
       9 -> 19         0.10213
       9 -> 20        -0.18886

 Excited State  52:      Singlet-A     15.2280 eV   81.42 nm  f=0.0906  <S**2>=0.000
       7 -> 13         0.62965
       7 -> 15         0.16207
       9 -> 20         0.13840

 Excited State  53:      Singlet-A     15.5487 eV   79.74 nm  f=0.0006  <S**2>=0.000
       8 -> 17         0.51303
       8 -> 21         0.10263
       9 -> 21        -0.44637

 Excited State  54:      Singlet-A     15.6655 eV   79.14 nm  f=0.0405  <S**2>=0.000
       9 -> 22         0.12533
      10 -> 21         0.57846
      11 -> 26        -0.15534
      12 -> 28         0.28144

 Excited State  55:      Singlet-A     15.6904 eV   79.02 nm  f=0.0096  <S**2>=0.000
      10 -> 18         0.10699
      10 -> 20         0.16323
      10 -> 22         0.46576
      10 -> 23         0.36983
      11 -> 28        -0.25593

 Excited State  56:      Singlet-A     15.7285 eV   78.83 nm  f=0.0150  <S**2>=0.000
       8 -> 18         0.43431
       8 -> 19         0.24565
       9 -> 22         0.13094
       9 -> 23         0.40720

 Excited State  57:      Singlet-A     15.8063 eV   78.44 nm  f=0.0037  <S**2>=0.000
       8 -> 18        -0.10157
       8 -> 19        -0.10680
       9 -> 22         0.16457
      10 -> 21        -0.22928
      12 -> 28         0.39767
      12 -> 29        -0.38607
      12 -> 32        -0.18013
      12 -> 33        -0.10982

 Excited State  58:      Singlet-A     15.8717 eV   78.12 nm  f=0.0046  <S**2>=0.000
       7 -> 15         0.13855
       8 -> 18        -0.28294
       8 -> 20         0.14886
       9 -> 23         0.15688
      10 -> 21        -0.13826
      12 -> 28         0.11593
      12 -> 29         0.48083
      12 -> 32        -0.24830

 Excited State  59:      Singlet-A     15.9582 eV   77.69 nm  f=0.0001  <S**2>=0.000
       9 -> 21         0.13654
      10 -> 23        -0.35971
      11 -> 28        -0.27193
      11 -> 30         0.10859
      12 -> 31         0.47535

 Excited State  60:      Singlet-A     15.9828 eV   77.57 nm  f=0.0397  <S**2>=0.000
       8 -> 17         0.37033
       9 -> 21         0.40879
       9 -> 24        -0.13084
      10 -> 22        -0.13734
      10 -> 23         0.23869
      11 -> 28         0.18740
      12 -> 31         0.19091

 Excited State  61:      Singlet-A     16.0211 eV   77.39 nm  f=0.0057  <S**2>=0.000
       6 -> 14        -0.13801
       8 -> 17        -0.26201
       9 -> 21        -0.26129
       9 -> 24         0.10665
      10 -> 22        -0.18755
      10 -> 23         0.23688
      11 -> 28         0.18116
      12 -> 31         0.42299

 Excited State  62:      Singlet-A     16.0489 eV   77.25 nm  f=0.1054  <S**2>=0.000
       8 -> 19        -0.16105
       9 -> 22         0.58817
      10 -> 24        -0.11781
      12 -> 28        -0.14854
      12 -> 32         0.13358

 Excited State  63:      Singlet-A     16.0949 eV   77.03 nm  f=0.0149  <S**2>=0.000
      10 -> 22         0.37018
      10 -> 23        -0.11395
      11 -> 28         0.49247
      11 -> 29         0.27401

 Excited State  64:      Singlet-A     16.1909 eV   76.58 nm  f=0.0168  <S**2>=0.000
       7 -> 13        -0.13552
       7 -> 15         0.58588
       8 -> 18         0.11471
       9 -> 23        -0.16390
      12 -> 28        -0.10746
      12 -> 32        -0.11567

 Excited State  65:      Singlet-A     16.2886 eV   76.12 nm  f=0.0477  <S**2>=0.000
       7 -> 13        -0.11436
       7 -> 15         0.12745
       8 -> 18        -0.29784
       8 -> 19         0.17901
       9 -> 23         0.37500
      10 -> 21         0.10418
      10 -> 24        -0.21560
      12 -> 29        -0.24066
      12 -> 32         0.13359

 Excited State  66:      Singlet-A     16.2993 eV   76.07 nm  f=0.0007  <S**2>=0.000
      10 -> 22        -0.19886
      10 -> 23         0.17599
      11 -> 28        -0.13775
      11 -> 29         0.57834
      11 -> 32         0.21629

 Excited State  67:      Singlet-A     16.3582 eV   75.79 nm  f=0.0616  <S**2>=0.000
       8 -> 18        -0.12162
      10 -> 21         0.13860
      10 -> 24         0.43101
      11 -> 31        -0.38320
      12 -> 28        -0.23318
      12 -> 32        -0.11597

 Excited State  68:      Singlet-A     16.4833 eV   75.22 nm  f=0.0242  <S**2>=0.000
       7 -> 15         0.15946
       8 -> 19        -0.18838
      10 -> 24         0.15756
      11 -> 31        -0.18524
      12 -> 28         0.26267
      12 -> 30         0.15348
      12 -> 32         0.47419

 Excited State  69:      Singlet-A     16.5330 eV   74.99 nm  f=0.0017  <S**2>=0.000
      11 -> 27         0.10976
      11 -> 29        -0.18642
      11 -> 32         0.62339
      11 -> 33         0.11674
      11 -> 34        -0.12250

 Excited State  70:      Singlet-A     16.5828 eV   74.77 nm  f=0.0168  <S**2>=0.000
       7 -> 16        -0.11785
       8 -> 19         0.43308
       8 -> 20         0.20213
       9 -> 22         0.16946
       9 -> 23        -0.31797
      11 -> 31        -0.11309
      12 -> 28         0.12554
      12 -> 30        -0.13074
      12 -> 32         0.17693

 Excited State  71:      Singlet-A     16.6257 eV   74.57 nm  f=0.0252  <S**2>=0.000
       6 -> 14        -0.34061
       7 -> 17        -0.11679
       9 -> 21         0.11174
       9 -> 24         0.54653
      12 -> 31        -0.11309

 Excited State  72:      Singlet-A     16.7306 eV   74.11 nm  f=0.0048  <S**2>=0.000
       6 -> 13         0.19017
       8 -> 19         0.13292
       8 -> 20        -0.21171
       8 -> 22         0.11136
      10 -> 24         0.37084
      11 -> 31         0.45232

 Excited State  73:      Singlet-A     16.8001 eV   73.80 nm  f=0.0494  <S**2>=0.000
       6 -> 13         0.12261
       7 -> 16        -0.17704
       8 -> 18         0.16131
       8 -> 19        -0.19756
       8 -> 20         0.51810
       8 -> 22        -0.11154
      10 -> 24         0.14314
      11 -> 31         0.19569

 Excited State  74:      Singlet-A     16.8207 eV   73.71 nm  f=0.1884  <S**2>=0.000
       6 -> 14         0.53432
       9 -> 24         0.35852
      10 -> 20        -0.10316
      11 -> 30        -0.10262
      12 -> 31         0.11180

 Excited State  75:      Singlet-A     16.8318 eV   73.66 nm  f=0.0668  <S**2>=0.000
       8 -> 19         0.13329
      12 -> 30         0.64120
      12 -> 32        -0.16015

 Excited State  76:      Singlet-A     17.0018 eV   72.92 nm  f=0.0002  <S**2>=0.000
      10 -> 23         0.15426
      11 -> 30         0.65886

 Excited State  77:      Singlet-A     17.1602 eV   72.25 nm  f=0.0081  <S**2>=0.000
       6 -> 13         0.60482
       7 -> 16         0.25545
      10 -> 24        -0.10868
      11 -> 31        -0.11343

 Excited State  78:      Singlet-A     17.3598 eV   71.42 nm  f=0.0772  <S**2>=0.000
       6 -> 13        -0.20884
       6 -> 15         0.14367
       7 -> 16         0.49885
       7 -> 18        -0.15972
       8 -> 19         0.11882
       8 -> 20         0.19597
      10 -> 24         0.14129
      12 -> 34         0.17042

 Excited State  79:      Singlet-A     17.3669 eV   71.39 nm  f=0.0020  <S**2>=0.000
       8 -> 21         0.67105
       8 -> 24        -0.12347

 Excited State  80:      Singlet-A     17.4243 eV   71.16 nm  f=0.0067  <S**2>=0.000
      10 -> 27        -0.10179
      11 -> 29         0.11860
      11 -> 32        -0.11709
      11 -> 33         0.64477
      11 -> 34        -0.10013

 Excited State  81:      Singlet-A     17.5067 eV   70.82 nm  f=0.0381  <S**2>=0.000
      12 -> 30        -0.11523
      12 -> 33         0.66714

 Excited State  82:      Singlet-A     17.7244 eV   69.95 nm  f=0.0774  <S**2>=0.000
       7 -> 18         0.26226
       7 -> 19         0.16257
       7 -> 20        -0.13238
       8 -> 18         0.11859
       8 -> 20         0.11056
       8 -> 22         0.50536
       8 -> 23         0.20487

 Excited State  83:      Singlet-A     17.8423 eV   69.49 nm  f=0.0052  <S**2>=0.000
       7 -> 17         0.45708
       7 -> 21         0.16161
       8 -> 24         0.42823
       9 -> 24         0.16289
       9 -> 26         0.13368

 Excited State  84:      Singlet-A     17.9325 eV   69.14 nm  f=0.0016  <S**2>=0.000
      10 -> 25         0.67236
      10 -> 27         0.11883

 Excited State  85:      Singlet-A     17.9456 eV   69.09 nm  f=0.1278  <S**2>=0.000
       6 -> 15        -0.13882
       7 -> 16         0.14797
       7 -> 18         0.45032
       7 -> 20        -0.26376
       8 -> 22        -0.16474
       8 -> 23        -0.27908
       9 -> 25        -0.12695
       9 -> 27        -0.16552
      12 -> 34         0.10074

 Excited State  86:      Singlet-A     18.0671 eV   68.62 nm  f=0.1149  <S**2>=0.000
       6 -> 15         0.44626
       6 -> 16         0.10937
       9 -> 25        -0.20971
       9 -> 27        -0.12877
      10 -> 26         0.18366
      12 -> 34        -0.38524

 Excited State  87:      Singlet-A     18.1323 eV   68.38 nm  f=0.0505  <S**2>=0.000
       7 -> 18         0.14136
       7 -> 19         0.12638
       8 -> 22        -0.33447
       8 -> 23         0.44285
       9 -> 25         0.14975
      10 -> 26         0.28377

 Excited State  88:      Singlet-A     18.1723 eV   68.23 nm  f=0.0272  <S**2>=0.000
       6 -> 15         0.11813
       7 -> 19         0.10027
       8 -> 22         0.11027
       8 -> 23        -0.31504
       9 -> 25         0.38185
      10 -> 26         0.41262

 Excited State  89:      Singlet-A     18.2423 eV   67.97 nm  f=0.0158  <S**2>=0.000
       7 -> 17        -0.44398
       8 -> 21         0.10856
       8 -> 24         0.46396
      10 -> 27         0.11857

 Excited State  90:      Singlet-A     18.2587 eV   67.90 nm  f=0.0408  <S**2>=0.000
       6 -> 15         0.12330
       7 -> 18         0.15325
       8 -> 22        -0.11706
       9 -> 25         0.42248
       9 -> 27         0.14045
      10 -> 26        -0.37588
      12 -> 34        -0.25255

 Excited State  91:      Singlet-A     18.3094 eV   67.72 nm  f=0.0107  <S**2>=0.000
       9 -> 26        -0.27765
      10 -> 25        -0.10732
      10 -> 27         0.47513
      11 -> 34        -0.35033

 Excited State  92:      Singlet-A     18.3459 eV   67.58 nm  f=0.0225  <S**2>=0.000
       6 -> 15         0.33434
       7 -> 16        -0.13031
       7 -> 18         0.10860
       7 -> 19         0.27212
       9 -> 25        -0.12759
       9 -> 27         0.27729
      10 -> 26        -0.14433
      12 -> 34         0.34006

 Excited State  93:      Singlet-A     18.3894 eV   67.42 nm  f=0.0178  <S**2>=0.000
       7 -> 17         0.11478
       9 -> 26        -0.32904
      10 -> 27         0.16161
      11 -> 33         0.14960
      11 -> 34         0.52921

 Excited State  94:      Singlet-A     18.4571 eV   67.17 nm  f=0.1057  <S**2>=0.000
       8 -> 24        -0.15687
       9 -> 26         0.48713
      10 -> 27         0.38978

 The electronic state is 1-A.
 Alpha  occ. eigenvalues --  -19.19359 -14.44074 -10.37525  -1.12338  -0.99493
 Alpha  occ. eigenvalues --   -0.70888  -0.64261  -0.56265  -0.49607  -0.49331
 Alpha  occ. eigenvalues --   -0.35452  -0.33813
 Alpha virt. eigenvalues --    0.04542   0.05639   0.07489   0.11206   0.14032
 Alpha virt. eigenvalues --    0.14424   0.15438   0.17635   0.20273   0.21531
 Alpha virt. eigenvalues --    0.22010   0.23859   0.29299   0.29862   0.31541

 Mulliken charges:
               1
     1  N    0.320537
     2  C    0.580644
     3  O   -0.348261
     4  H   -0.155318
     5  H   -0.118187
     6  H   -0.279416
 Sum of Mulliken charges =  -0.00000

 Dipole moment (field-independent basis, Debye):
    X=              3.9552    Y=              0.9444    Z=              0.0000  Tot=              4.0664
 Quadrupole moment (field-independent basis, Debye-Ang):
   XX=            -18.4393   YY=            -15.6496   ZZ=            -19.0298
   XY=             -1.3345   XZ=              0.0000   YZ=             -0.0000

 Normal termination of Gaussian 16 at Mon Mar 21 20:16:16 2022.
