 Gaussian 16, Revision C.01,
 Gaussian 16:  EM64L-G16RevC.01  3-Jul-2019

 ----------------------------------------------------------------------
 #P TD(Nstates=10000) cam-b3lyp/Gen SCF(maxcycles=100) Int(Grid=ultrafi
 ne)
 ----------------------------------------------------------------------

 ---------------------
 xGDB7_00001_tier4.com
 ---------------------
 Symbolic Z-matrix:
 Charge =  0 Multiplicity = 1

                         Standard orientation:
 ---------------------------------------------------------------------
 Center     Atomic      Atomic             Coordinates (Angstroms)
 Number     Number       Type             X           Y           Z
 ---------------------------------------------------------------------
      1          6           0        0.000000    0.865978    0.000000
      2          6           0        0.749967   -0.432983    0.000000
      3          6           0       -0.749954   -0.432999    0.000000
      4          1           0       -0.000033    1.451806   -0.909176
      5          1           0       -0.000033    1.451806    0.909176
      6          1           0        1.257295   -0.725894    0.909177
      7          1           0        1.257295   -0.725894   -0.909177
      8          1           0       -1.257302   -0.725899    0.909179
      9          1           0       -1.257302   -0.725899   -0.909179
 ---------------------------------------------------------------------

 SCF Done:  E(RCAM-B3LYP) =  -117.740483520     A.U. after   11 cycles

 Excitation energies and oscillator strengths:

 Excited State   1:      Singlet-A'     8.2373 eV  150.52 nm  f=0.0001  <S**2>=0.000
      12 -> 13         0.69246
 This state for optimization and/or second-order correction.
 Total Energy, E(TD-HF/TD-DFT) =  -117.437768162
 Copying the excited state density for this state as the 1-particle RhoCI density.

 Excited State   2:      Singlet-A'     8.2375 eV  150.51 nm  f=0.0001  <S**2>=0.000
      11 -> 13         0.69246

 Excited State   3:      Singlet-A'     8.9092 eV  139.16 nm  f=0.0000  <S**2>=0.000
      11 -> 14         0.48841
      12 -> 15         0.48900

 Excited State   4:      Singlet-A'     9.0089 eV  137.62 nm  f=0.0000  <S**2>=0.000
      11 -> 15        -0.48349
      12 -> 14         0.48876

 Excited State   5:      Singlet-A'     9.0282 eV  137.33 nm  f=0.1008  <S**2>=0.000
      11 -> 14         0.35845
      11 -> 15         0.33635
      12 -> 14         0.33248
      12 -> 15        -0.35742

 Excited State   6:      Singlet-A'     9.0282 eV  137.33 nm  f=0.1008  <S**2>=0.000
      11 -> 14        -0.33437
      11 -> 15         0.35972
      12 -> 14         0.35615
      12 -> 15         0.33447

 Excited State   7:      Singlet-A"     9.0840 eV  136.49 nm  f=0.0000  <S**2>=0.000
      12 -> 16         0.69777

 Excited State   8:      Singlet-A"     9.0842 eV  136.48 nm  f=0.0000  <S**2>=0.000
      11 -> 16         0.69777

 Excited State   9:      Singlet-A"     9.9935 eV  124.07 nm  f=0.0000  <S**2>=0.000
       9 -> 15         0.16743
      10 -> 13         0.65573
      10 -> 14        -0.16745

 Excited State  10:      Singlet-A"     9.9936 eV  124.06 nm  f=0.0000  <S**2>=0.000
       9 -> 13         0.65572
       9 -> 14         0.16745
      10 -> 15         0.16747

 Excited State  11:      Singlet-A'    10.3451 eV  119.85 nm  f=0.0089  <S**2>=0.000
      12 -> 13         0.10328
      12 -> 17         0.68506

 Excited State  12:      Singlet-A'    10.3453 eV  119.85 nm  f=0.0089  <S**2>=0.000
      11 -> 13         0.10328
      11 -> 17         0.68505

 Excited State  13:      Singlet-A"    10.6860 eV  116.02 nm  f=0.2040  <S**2>=0.000
       9 -> 14        -0.49188
      10 -> 15         0.49198

 Excited State  14:      Singlet-A"    10.8934 eV  113.82 nm  f=0.0000  <S**2>=0.000
       9 -> 13         0.10751
       9 -> 14        -0.19535
       9 -> 15        -0.41033
      10 -> 13         0.19442
      10 -> 14         0.41271
      10 -> 15        -0.19539
      10 -> 17        -0.13266

 Excited State  15:      Singlet-A"    10.8934 eV  113.82 nm  f=0.0000  <S**2>=0.000
       9 -> 13        -0.19445
       9 -> 14         0.41160
       9 -> 15        -0.19475
       9 -> 17         0.13265
      10 -> 13         0.10750
      10 -> 14         0.19599
      10 -> 15         0.41144

 Excited State  16:      Singlet-A"    10.9138 eV  113.60 nm  f=0.0000  <S**2>=0.000
       9 -> 15         0.48325
       9 -> 21         0.10863
      10 -> 14         0.48072
      10 -> 22        -0.10843

 Excited State  17:      Singlet-A'    11.0048 eV  112.66 nm  f=0.3411  <S**2>=0.000
      10 -> 16         0.32039
      12 -> 18         0.58714

 Excited State  18:      Singlet-A'    11.0049 eV  112.66 nm  f=0.3411  <S**2>=0.000
       9 -> 16        -0.32041
      11 -> 18         0.58713

 Excited State  19:      Singlet-A'    11.2667 eV  110.04 nm  f=0.0185  <S**2>=0.000
      10 -> 16         0.61053
      12 -> 18        -0.32055

 Excited State  20:      Singlet-A'    11.2668 eV  110.04 nm  f=0.0185  <S**2>=0.000
       9 -> 16         0.61052
      11 -> 18         0.32057

 Excited State  21:      Singlet-A"    11.3458 eV  109.28 nm  f=0.0000  <S**2>=0.000
      11 -> 19        -0.49198
      12 -> 20         0.49241

 Excited State  22:      Singlet-A"    11.4961 eV  107.85 nm  f=0.0000  <S**2>=0.000
      11 -> 19         0.41049
      11 -> 20        -0.27348
      12 -> 19         0.27444
      12 -> 20         0.41020

 Excited State  23:      Singlet-A"    11.4961 eV  107.85 nm  f=0.0000  <S**2>=0.000
      11 -> 19        -0.27413
      11 -> 20        -0.40967
      12 -> 19         0.41102
      12 -> 20        -0.27379

 Excited State  24:      Singlet-A"    11.5659 eV  107.20 nm  f=0.0120  <S**2>=0.000
      11 -> 20         0.48964
      12 -> 19         0.48796

 Excited State  25:      Singlet-A'    11.9320 eV  103.91 nm  f=0.0119  <S**2>=0.000
      11 -> 21        -0.41463
      11 -> 22         0.23953
      12 -> 21         0.24306
      12 -> 22         0.41509

 Excited State  26:      Singlet-A'    11.9320 eV  103.91 nm  f=0.0119  <S**2>=0.000
      11 -> 21         0.24150
      11 -> 22         0.41222
      12 -> 21         0.41749
      12 -> 22        -0.24110

 Excited State  27:      Singlet-A'    11.9493 eV  103.76 nm  f=0.0000  <S**2>=0.000
      11 -> 22         0.48338
      11 -> 23        -0.10972
      12 -> 21        -0.47706
      12 -> 24        -0.10863

 Excited State  28:      Singlet-A"    12.1944 eV  101.67 nm  f=0.0000  <S**2>=0.000
       9 -> 18         0.33972
      10 -> 17         0.56000
      11 -> 25         0.17257

 Excited State  29:      Singlet-A"    12.1945 eV  101.67 nm  f=0.0000  <S**2>=0.000
       9 -> 17         0.55976
      10 -> 18        -0.34015
      12 -> 25         0.17257

 Excited State  30:      Singlet-A'    12.2538 eV  101.18 nm  f=0.0000  <S**2>=0.000
       7 -> 16        -0.12359
       9 -> 19         0.17562
      10 -> 20         0.17563
      11 -> 21         0.44190
      12 -> 22         0.44172

 Excited State  31:      Singlet-A"    12.2776 eV  100.98 nm  f=0.0000  <S**2>=0.000
       9 -> 17         0.30102
      10 -> 18         0.59710
      12 -> 25         0.13575

 Excited State  32:      Singlet-A"    12.2776 eV  100.98 nm  f=0.0000  <S**2>=0.000
       9 -> 18         0.59734
      10 -> 17        -0.30064
      11 -> 25        -0.13557

 Excited State  33:      Singlet-A'    12.5538 eV   98.76 nm  f=0.0000  <S**2>=0.000
      11 -> 22         0.11664
      11 -> 23         0.45809
      11 -> 24        -0.13865
      12 -> 21        -0.11668
      12 -> 23         0.13876
      12 -> 24         0.45834

 Excited State  34:      Singlet-A"    12.6933 eV   97.68 nm  f=0.0000  <S**2>=0.000
       9 -> 17        -0.22066
      12 -> 25         0.65960

 Excited State  35:      Singlet-A"    12.6934 eV   97.68 nm  f=0.0000  <S**2>=0.000
      10 -> 17        -0.22055
      11 -> 25         0.65964

 Excited State  36:      Singlet-A'    12.7911 eV   96.93 nm  f=0.0000  <S**2>=0.000
      11 -> 23        -0.13936
      11 -> 24        -0.45971
      12 -> 23         0.46435
      12 -> 24        -0.14036

 Excited State  37:      Singlet-A'    12.8132 eV   96.76 nm  f=0.0403  <S**2>=0.000
      11 -> 23         0.43898
      11 -> 24         0.19264
      12 -> 23         0.19002
      12 -> 24        -0.43799

 Excited State  38:      Singlet-A'    12.8132 eV   96.76 nm  f=0.0403  <S**2>=0.000
      11 -> 23        -0.19087
      11 -> 24         0.44037
      12 -> 23         0.43659
      12 -> 24         0.19180

 Excited State  39:      Singlet-A"    13.0219 eV   95.21 nm  f=0.0000  <S**2>=0.000
      11 -> 26        -0.47180
      11 -> 27        -0.13021
      12 -> 26        -0.13047
      12 -> 27         0.47256

 Excited State  40:      Singlet-A"    13.0220 eV   95.21 nm  f=0.0000  <S**2>=0.000
      11 -> 26        -0.13023
      11 -> 27         0.47172
      12 -> 26         0.47265
      12 -> 27         0.13046

 Excited State  41:      Singlet-A"    13.0956 eV   94.68 nm  f=0.0461  <S**2>=0.000
       7 -> 13        -0.10759
       9 -> 23         0.10692
      10 -> 24        -0.10691
      11 -> 26         0.45830
      11 -> 27        -0.10797
      12 -> 26         0.10772
      12 -> 27         0.45748

 Excited State  42:      Singlet-A"    13.1338 eV   94.40 nm  f=0.0000  <S**2>=0.000
      11 -> 26         0.11296
      11 -> 27         0.47969
      12 -> 26        -0.47874
      12 -> 27         0.11277

 Excited State  43:      Singlet-A'    13.1478 eV   94.30 nm  f=0.0000  <S**2>=0.000
       8 -> 13         0.64311
       9 -> 19         0.18140
      10 -> 20         0.18142

 Excited State  44:      Singlet-A'    13.4464 eV   92.21 nm  f=0.1177  <S**2>=0.000
       9 -> 19        -0.30140
       9 -> 20         0.10493
      10 -> 19         0.10503
      10 -> 20         0.30139
      12 -> 28         0.51729

 Excited State  45:      Singlet-A'    13.4465 eV   92.21 nm  f=0.1176  <S**2>=0.000
       9 -> 19         0.10505
       9 -> 20         0.30144
      10 -> 19         0.30177
      10 -> 20        -0.10507
      11 -> 28         0.51703

 Excited State  46:      Singlet-A'    13.5818 eV   91.29 nm  f=0.0145  <S**2>=0.000
       9 -> 19         0.34344
       9 -> 20        -0.12733
       9 -> 25        -0.10545
      10 -> 19        -0.12858
      10 -> 20        -0.34338
      11 -> 18        -0.10052
      12 -> 28         0.41256

 Excited State  47:      Singlet-A'    13.5818 eV   91.29 nm  f=0.0146  <S**2>=0.000
       9 -> 19        -0.12772
       9 -> 20        -0.34130
      10 -> 19        -0.34514
      10 -> 20         0.12807
      10 -> 25        -0.10546
      11 -> 28         0.41287
      12 -> 18         0.10052

 Excited State  48:      Singlet-A'    13.5956 eV   91.19 nm  f=0.0000  <S**2>=0.000
       9 -> 20         0.47644
       9 -> 26         0.13891
      10 -> 19        -0.47310
      10 -> 27        -0.13920

 Excited State  49:      Singlet-A"    13.6951 eV   90.53 nm  f=0.0000  <S**2>=0.000
       7 -> 15         0.20302
       9 -> 21         0.44754
      10 -> 22         0.45514

 Excited State  50:      Singlet-A"    13.6951 eV   90.53 nm  f=0.0000  <S**2>=0.000
       7 -> 14        -0.20303
       9 -> 22        -0.45047
      10 -> 21         0.45222

 Excited State  51:      Singlet-A"    13.6975 eV   90.52 nm  f=0.0000  <S**2>=0.000
       9 -> 15        -0.10874
       9 -> 21         0.46450
       9 -> 22         0.11382
      10 -> 14        -0.10801
      10 -> 21         0.10771
      10 -> 22        -0.45694

 Excited State  52:      Singlet-A'    13.8100 eV   89.78 nm  f=0.2575  <S**2>=0.000
       8 -> 14         0.68103
      12 -> 28         0.12728

 Excited State  53:      Singlet-A'    13.8100 eV   89.78 nm  f=0.2575  <S**2>=0.000
       8 -> 15         0.68102
      11 -> 28        -0.12733

 Excited State  54:      Singlet-A"    13.9292 eV   89.01 nm  f=0.0021  <S**2>=0.000
       8 -> 16         0.46150
       9 -> 22        -0.33618
       9 -> 23         0.12974
      10 -> 21        -0.33601
      10 -> 24        -0.12972

 Excited State  55:      Singlet-A'    13.9647 eV   88.78 nm  f=0.0000  <S**2>=0.000
       8 -> 13        -0.22867
       8 -> 17         0.12779
       9 -> 19         0.41450
      10 -> 20         0.41445
      11 -> 21        -0.16592
      12 -> 22        -0.16590

 Excited State  56:      Singlet-A"    14.0204 eV   88.43 nm  f=0.1406  <S**2>=0.000
       7 -> 13         0.22864
       8 -> 16         0.46094
       9 -> 22         0.31657
      10 -> 21         0.31647

 Excited State  57:      Singlet-A"    14.0661 eV   88.14 nm  f=0.1462  <S**2>=0.000
       7 -> 13         0.64792
       8 -> 16        -0.14469
       9 -> 22        -0.12743
      10 -> 21        -0.12740

 Excited State  58:      Singlet-A"    14.6692 eV   84.52 nm  f=0.0000  <S**2>=0.000
       9 -> 24        -0.48511
      10 -> 23         0.48542

 Excited State  59:      Singlet-A"    14.6692 eV   84.52 nm  f=0.0000  <S**2>=0.000
       9 -> 23         0.48519
      10 -> 24         0.48534

 Excited State  60:      Singlet-A'    14.7351 eV   84.14 nm  f=0.0000  <S**2>=0.000
       8 -> 18        -0.15089
       9 -> 20         0.14043
       9 -> 26        -0.46004
      10 -> 19        -0.14043
      10 -> 27         0.46012

 Excited State  61:      Singlet-A"    14.8011 eV   83.77 nm  f=0.0000  <S**2>=0.000
       7 -> 14         0.65625
       9 -> 22        -0.14424
      10 -> 21         0.14421

 Excited State  62:      Singlet-A"    14.8011 eV   83.77 nm  f=0.0000  <S**2>=0.000
       7 -> 15         0.65625
       9 -> 21        -0.14421
      10 -> 22        -0.14422

 Excited State  63:      Singlet-A'    14.8053 eV   83.74 nm  f=0.1662  <S**2>=0.000
      10 -> 25         0.65019
      11 -> 30        -0.13633
      12 -> 29        -0.13646

 Excited State  64:      Singlet-A'    14.8054 eV   83.74 nm  f=0.1663  <S**2>=0.000
       9 -> 25         0.65017
      11 -> 29        -0.13639
      12 -> 30         0.13642

 Excited State  65:      Singlet-A"    14.8652 eV   83.41 nm  f=1.0119  <S**2>=0.000
       8 -> 16        -0.18775
       9 -> 23         0.44754
      10 -> 24        -0.44738
      11 -> 26        -0.11325
      12 -> 27        -0.11324

 Excited State  66:      Singlet-A"    14.8724 eV   83.37 nm  f=0.0000  <S**2>=0.000
       9 -> 24         0.48197
      10 -> 23         0.48165

 Excited State  67:      Singlet-A'    14.9544 eV   82.91 nm  f=0.0000  <S**2>=0.000
       8 -> 18         0.51220
       9 -> 26        -0.10202
      10 -> 27         0.10201
      11 -> 30         0.31132
      12 -> 29        -0.31133

 Excited State  68:      Singlet-A'    15.0091 eV   82.61 nm  f=0.0000  <S**2>=0.000
       7 -> 16        -0.46414
       8 -> 17         0.47678
       9 -> 27         0.11776
      10 -> 26         0.11804

 Excited State  69:      Singlet-A'    15.0623 eV   82.31 nm  f=0.4458  <S**2>=0.000
       9 -> 26         0.44836
       9 -> 27         0.17154
      10 -> 26        -0.17162
      10 -> 27         0.44831

 Excited State  70:      Singlet-A'    15.0623 eV   82.31 nm  f=0.4457  <S**2>=0.000
       9 -> 26         0.17160
       9 -> 27        -0.44826
      10 -> 26         0.44841
      10 -> 27         0.17156

 Excited State  71:      Singlet-A'    15.2503 eV   81.30 nm  f=0.0000  <S**2>=0.000
       8 -> 17        -0.24086
       9 -> 27         0.45960
      10 -> 26         0.45936

 Excited State  72:      Singlet-A"    15.2661 eV   81.22 nm  f=0.0000  <S**2>=0.000
      10 -> 28         0.67728

 Excited State  73:      Singlet-A"    15.2662 eV   81.21 nm  f=0.0000  <S**2>=0.000
       9 -> 28         0.67728

 Excited State  74:      Singlet-A'    15.4837 eV   80.07 nm  f=0.0000  <S**2>=0.000
       8 -> 18         0.44787
      11 -> 30        -0.36943
      12 -> 29         0.36961

 Excited State  75:      Singlet-A'    15.5102 eV   79.94 nm  f=0.0000  <S**2>=0.000
       7 -> 16         0.38019
       8 -> 17         0.37888
       9 -> 27         0.11199
      10 -> 26         0.11197
      11 -> 29         0.28541
      12 -> 30         0.28556

 Excited State  76:      Singlet-A'    15.6806 eV   79.07 nm  f=0.0000  <S**2>=0.000
       7 -> 16        -0.30674
       8 -> 17        -0.18247
      11 -> 29         0.38620
      12 -> 30         0.38676

 Excited State  77:      Singlet-A'    15.7547 eV   78.70 nm  f=0.3084  <S**2>=0.000
      10 -> 25         0.18667
      11 -> 29        -0.14033
      11 -> 30         0.41722
      11 -> 31        -0.10980
      12 -> 29         0.41703
      12 -> 30         0.14020
      12 -> 33        -0.16362

 Excited State  78:      Singlet-A'    15.7547 eV   78.70 nm  f=0.3084  <S**2>=0.000
       9 -> 25         0.18669
      11 -> 29         0.41742
      11 -> 30         0.14031
      11 -> 33         0.16359
      12 -> 29         0.14022
      12 -> 30        -0.41683
      12 -> 31        -0.10986

 Excited State  79:      Singlet-A"    15.8925 eV   78.01 nm  f=0.0000  <S**2>=0.000
       7 -> 18         0.68042
       7 -> 33         0.10084

 Excited State  80:      Singlet-A'    16.0437 eV   77.28 nm  f=0.0165  <S**2>=0.000
      12 -> 31         0.68018

 Excited State  81:      Singlet-A'    16.0439 eV   77.28 nm  f=0.0165  <S**2>=0.000
      11 -> 31         0.68018

 Excited State  82:      Singlet-A"    16.1991 eV   76.54 nm  f=0.0000  <S**2>=0.000
       5 -> 16        -0.16164
       8 -> 19         0.66541
      12 -> 34         0.10515

 Excited State  83:      Singlet-A"    16.1991 eV   76.54 nm  f=0.0000  <S**2>=0.000
       6 -> 16        -0.16165
       8 -> 20         0.66541
      11 -> 34         0.10513

 Excited State  84:      Singlet-A"    16.2188 eV   76.44 nm  f=0.1339  <S**2>=0.000
       7 -> 17         0.67887
       8 -> 25         0.12160

 Excited State  85:      Singlet-A'    16.2519 eV   76.29 nm  f=0.0016  <S**2>=0.000
       6 -> 13         0.20873
       8 -> 21         0.33743
      12 -> 33         0.53232

 Excited State  86:      Singlet-A'    16.2520 eV   76.29 nm  f=0.0016  <S**2>=0.000
       5 -> 13        -0.20871
       8 -> 22        -0.33747
      11 -> 33         0.53232

 Excited State  87:      Singlet-A"    16.6296 eV   74.56 nm  f=0.0000  <S**2>=0.000
      11 -> 34        -0.20327
      12 -> 32         0.66312

 Excited State  88:      Singlet-A"    16.6297 eV   74.56 nm  f=0.0000  <S**2>=0.000
      11 -> 32         0.66266
      12 -> 34         0.20473

 Excited State  89:      Singlet-A"    16.6773 eV   74.34 nm  f=0.0000  <S**2>=0.000
       8 -> 19        -0.12708
      11 -> 32        -0.20925
      12 -> 34         0.65159

 Excited State  90:      Singlet-A"    16.6775 eV   74.34 nm  f=0.0000  <S**2>=0.000
       8 -> 20        -0.12704
      11 -> 34         0.65205
      12 -> 32         0.20776

 Excited State  91:      Singlet-A'    16.8021 eV   73.79 nm  f=0.0277  <S**2>=0.000
       6 -> 13         0.54436
       8 -> 21        -0.40918

 Excited State  92:      Singlet-A'    16.8022 eV   73.79 nm  f=0.0277  <S**2>=0.000
       5 -> 13         0.54433
       8 -> 22        -0.40921

 Excited State  93:      Singlet-A'    16.9785 eV   73.02 nm  f=0.0342  <S**2>=0.000
       5 -> 15         0.17278
       6 -> 13         0.28335
       6 -> 14        -0.17282
       7 -> 20         0.40298
       8 -> 21         0.26673
       8 -> 24        -0.15979
      12 -> 33        -0.25470

 Excited State  94:      Singlet-A'    16.9786 eV   73.02 nm  f=0.0342  <S**2>=0.000
       5 -> 13         0.28340
       5 -> 14         0.17278
       6 -> 15         0.17280
       7 -> 19         0.40303
       8 -> 22         0.26664
       8 -> 23         0.15979
      11 -> 33         0.25469

 Excited State  95:      Singlet-A"    17.3057 eV   71.64 nm  f=0.0910  <S**2>=0.000
       9 -> 30         0.47948
      10 -> 29         0.48096

 Excited State  96:      Singlet-A"    17.3315 eV   71.54 nm  f=0.0000  <S**2>=0.000
       6 -> 16        -0.21011
       7 -> 21        -0.21164
       8 -> 26        -0.12585
       9 -> 29         0.37554
       9 -> 30         0.10728
       9 -> 33        -0.17386
      10 -> 29        -0.10695
      10 -> 30         0.37576
      10 -> 31        -0.13255

 Excited State  97:      Singlet-A"    17.3316 eV   71.54 nm  f=0.0000  <S**2>=0.000
       5 -> 16         0.21006
       7 -> 22         0.21163
       8 -> 27         0.12584
       9 -> 29        -0.10724
       9 -> 30         0.37653
       9 -> 31         0.13254
      10 -> 29        -0.37481
      10 -> 30        -0.10700
      10 -> 33        -0.17388

 Excited State  98:      Singlet-A'    17.4487 eV   71.06 nm  f=0.0037  <S**2>=0.000
       5 -> 14        -0.25964
       6 -> 15        -0.25992
       7 -> 19         0.47806
       8 -> 23        -0.24112
      11 -> 33        -0.11030

 Excited State  99:      Singlet-A'    17.4487 eV   71.06 nm  f=0.0037  <S**2>=0.000
       5 -> 15        -0.25951
       6 -> 14         0.26009
       7 -> 20         0.47808
       8 -> 24         0.24108
      12 -> 33         0.11026

 Excited State 100:      Singlet-A"    17.5004 eV   70.85 nm  f=0.0000  <S**2>=0.000
       7 -> 21         0.54827
       8 -> 26         0.17244
       9 -> 29         0.18838
       9 -> 30         0.10166
       9 -> 33         0.19789
      10 -> 29        -0.10166
      10 -> 30         0.18848

 Excited State 101:      Singlet-A"    17.5004 eV   70.85 nm  f=0.0000  <S**2>=0.000
       7 -> 22         0.54825
       8 -> 27         0.17245
       9 -> 29         0.10168
       9 -> 30        -0.18848
      10 -> 29         0.18840
      10 -> 30         0.10165
      10 -> 33        -0.19790

 Excited State 102:      Singlet-A'    17.5101 eV   70.81 nm  f=0.0000  <S**2>=0.000
       5 -> 15         0.47803
       6 -> 14         0.47807

 Excited State 103:      Singlet-A'    17.5108 eV   70.80 nm  f=0.0000  <S**2>=0.000
       5 -> 14        -0.47543
       6 -> 15         0.47544

 Excited State 104:      Singlet-A'    17.5567 eV   70.62 nm  f=0.1024  <S**2>=0.000
       5 -> 15        -0.22403
       6 -> 13         0.19134
       6 -> 14         0.22354
       6 -> 17        -0.11110
       7 -> 20        -0.22485
       8 -> 21         0.31323
       8 -> 24         0.20495
      11 -> 37        -0.13208
      12 -> 33        -0.20214
      12 -> 38         0.13215

 Excited State 105:      Singlet-A'    17.5568 eV   70.62 nm  f=0.1024  <S**2>=0.000
       5 -> 13         0.19137
       5 -> 14        -0.22394
       5 -> 17        -0.11109

 The electronic state is 1-A'.
 Alpha  occ. eigenvalues --  -10.25814 -10.25785 -10.25785  -0.93099  -0.66838
 Alpha  occ. eigenvalues --   -0.66838  -0.56826  -0.53663  -0.42809  -0.42809
 Alpha  occ. eigenvalues --   -0.36198  -0.36197
 Alpha virt. eigenvalues --    0.06199   0.08174   0.08174   0.10673   0.14237
 Alpha virt. eigenvalues --    0.17584   0.17908   0.17908   0.20452   0.20452
 Alpha virt. eigenvalues --    0.23104   0.23104   0.23866   0.24374   0.24374

 Mulliken charges:
               1
     1  C    0.610786
     2  C    0.610864
     3  C    0.610768
     4  H   -0.305398
     5  H   -0.305398
     6  H   -0.305410
     7  H   -0.305410
     8  H   -0.305401
     9  H   -0.305401
 Sum of Mulliken charges =  -0.00000

 Dipole moment (field-independent basis, Debye):
    X=             -0.0000    Y=              0.0000    Z=             -0.0000  Tot=              0.0000
 Quadrupole moment (field-independent basis, Debye-Ang):
   XX=            -20.9161   YY=            -20.9161   ZZ=            -18.7126
   XY=             -0.0001   XZ=             -0.0000   YZ=             -0.0000

 1\1\GINC-HEL12\SP\RCAM-B3LYP TD-FC\Gen\C3H6\SABYASACHI\21-Mar-2022\0\\
 #P TD(Nstates=10000) cam-b3lyp/Gen SCF(maxcycles=100) Int(Grid=ultrafi
 ne)\\xGDB7_00001_tier4.com\\0,1\C,0,0.516845,0.69483,0.\C,0,-0.860166,
 0.100195,0.\C,0,0.343308,-0.795021,0.\H,0,0.866514,1.164858,0.909176\H
 ,0,0.866513,1.164859,-0.909176\H,0,-1.442047,0.167964,-0.909177\H,0,-1
 .442048,0.167965,0.909176\H,0,0.575574,-1.332837,-0.909179\H,0,0.57557
 4,-1.332837,0.909179\\Version=EM64L-G16RevC.01\State=1-A'\HF=-117.7404
 835\RMSD=2.151e-09\PG=CS [SG(C3),X(H6)]\\@

 Normal termination of Gaussian 16 at Mon Mar 21 20:09:33 2022.
