 Gaussian 16, Revision C.01,
 Gaussian 16:  EM64L-G16RevC.01  3-Jul-2019

 ----------------------------------------------------------------------
 #P TD(Nstates=10000) cam-b3lyp/Gen SCF(maxcycles=100) Int(Grid=ultrafi
 ne)
 ----------------------------------------------------------------------

 ---------------------
 xGDB7_00001_tier4.com
 ---------------------
 Symbolic Z-matrix:
 Charge =  0 Multiplicity = 1

                         Standard orientation:
 ---------------------------------------------------------------------
 Center     Atomic      Atomic             Coordinates (Angstroms)
 Number     Number       Type             X           Y           Z
 ---------------------------------------------------------------------
      1          6           0        0.037922   -0.393776    0.738519
      2          6           0        0.037922   -0.393776   -0.738519
      3          7           0        0.037922    0.865964    0.000000
      4          1           0        0.953211   -0.606479    1.276872
      5          1           0       -0.870248   -0.700655    1.244917
      6          1           0       -0.870248   -0.700655   -1.244917
      7          1           0        0.953211   -0.606479   -1.276872
      8          1           0       -0.886454    1.277834    0.000000
 ---------------------------------------------------------------------

 SCF Done:  E(RCAM-B3LYP) =  -133.758985226     A.U. after   13 cycles

 Excitation energies and oscillator strengths:

 Excited State   1:      Singlet-A'     6.8218 eV  181.75 nm  f=0.0015  <S**2>=0.000
      12 -> 13         0.63385
      12 -> 15         0.29988
 This state for optimization and/or second-order correction.
 Total Energy, E(TD-HF/TD-DFT) =  -133.508289492
 Copying the excited state density for this state as the 1-particle RhoCI density.

 Excited State   2:      Singlet-A'     7.7295 eV  160.40 nm  f=0.0334  <S**2>=0.000
      12 -> 13        -0.29606
      12 -> 15         0.62842

 Excited State   3:      Singlet-A"     7.7735 eV  159.50 nm  f=0.0059  <S**2>=0.000
      12 -> 14         0.69637

 Excited State   4:      Singlet-A'     8.4183 eV  147.28 nm  f=0.0771  <S**2>=0.000
      12 -> 16         0.69042

 Excited State   5:      Singlet-A"     8.9477 eV  138.57 nm  f=0.0450  <S**2>=0.000
      12 -> 18         0.67693
      12 -> 21         0.10494

 Excited State   6:      Singlet-A'     9.1145 eV  136.03 nm  f=0.0156  <S**2>=0.000
      11 -> 13         0.65445
      11 -> 15         0.19441
      12 -> 17        -0.11359

 Excited State   7:      Singlet-A"     9.4307 eV  131.47 nm  f=0.0000  <S**2>=0.000
      10 -> 13         0.65324
      10 -> 15         0.24415

 Excited State   8:      Singlet-A'     9.5046 eV  130.45 nm  f=0.0063  <S**2>=0.000
      11 -> 13         0.15978
      11 -> 15        -0.11625
      12 -> 17         0.66188

 Excited State   9:      Singlet-A"     9.9554 eV  124.54 nm  f=0.0423  <S**2>=0.000
       9 -> 13        -0.28916
      10 -> 15         0.18755
      11 -> 14         0.60283

 Excited State  10:      Singlet-A'     9.9634 eV  124.44 nm  f=0.0567  <S**2>=0.000
      11 -> 13        -0.16724
      11 -> 15         0.64893
      12 -> 17         0.16045
      12 -> 20         0.10092

 Excited State  11:      Singlet-A"    10.2630 eV  120.81 nm  f=0.0289  <S**2>=0.000
       9 -> 13         0.51053
      10 -> 13         0.14369
      10 -> 15        -0.27184
      11 -> 14         0.34553

 Excited State  12:      Singlet-A"    10.3038 eV  120.33 nm  f=0.0679  <S**2>=0.000
       9 -> 13         0.36531
      10 -> 13        -0.18435
      10 -> 15         0.56019

 Excited State  13:      Singlet-A"    10.3133 eV  120.22 nm  f=0.0363  <S**2>=0.000
      12 -> 19         0.68473
      12 -> 21         0.10788

 Excited State  14:      Singlet-A'    10.3735 eV  119.52 nm  f=0.0129  <S**2>=0.000
      10 -> 14         0.53928
      12 -> 20        -0.42801

 Excited State  15:      Singlet-A'    10.4054 eV  119.15 nm  f=0.0211  <S**2>=0.000
      10 -> 14         0.43968
      12 -> 20         0.52140

 Excited State  16:      Singlet-A'    10.6463 eV  116.46 nm  f=0.0312  <S**2>=0.000
      11 -> 16         0.68671

 Excited State  17:      Singlet-A"    10.8773 eV  113.98 nm  f=0.0102  <S**2>=0.000
       9 -> 15        -0.41148
      10 -> 16         0.49215
      11 -> 18        -0.17449
      12 -> 21         0.18286

 Excited State  18:      Singlet-A"    10.9778 eV  112.94 nm  f=0.0023  <S**2>=0.000
       9 -> 15        -0.24612
      10 -> 16        -0.34711
      11 -> 18         0.16679
      12 -> 19        -0.10603
      12 -> 21         0.48005
      12 -> 22        -0.14752

 Excited State  19:      Singlet-A'    11.0376 eV  112.33 nm  f=0.0881  <S**2>=0.000
       9 -> 14         0.67093

 Excited State  20:      Singlet-A"    11.1207 eV  111.49 nm  f=0.0444  <S**2>=0.000
       9 -> 15         0.47151
      10 -> 16         0.29895
      11 -> 18         0.12519
      12 -> 21         0.34594
      12 -> 22        -0.14195

 Excited State  21:      Singlet-A"    11.4723 eV  108.07 nm  f=0.1251  <S**2>=0.000
       9 -> 16        -0.15127
      10 -> 16         0.14539
      11 -> 18         0.50236
      12 -> 22         0.39607

 Excited State  22:      Singlet-A'    11.5086 eV  107.73 nm  f=0.0402  <S**2>=0.000
      10 -> 18        -0.41345
      12 -> 23         0.50736
      12 -> 24         0.17344

 Excited State  23:      Singlet-A"    11.6176 eV  106.72 nm  f=0.0269  <S**2>=0.000
       9 -> 15         0.11218
      11 -> 18        -0.31913
      12 -> 21         0.27085
      12 -> 22         0.52635

 Excited State  24:      Singlet-A'    11.7017 eV  105.95 nm  f=0.0434  <S**2>=0.000
      10 -> 18        -0.25112
      11 -> 17         0.43118
      12 -> 23        -0.30595
      12 -> 24         0.33335
      12 -> 27        -0.10518

 Excited State  25:      Singlet-A'    11.8670 eV  104.48 nm  f=0.0139  <S**2>=0.000
      11 -> 17         0.49960
      12 -> 23         0.25022
      12 -> 24        -0.37240
      12 -> 25         0.11314

 Excited State  26:      Singlet-A"    11.8883 eV  104.29 nm  f=0.0752  <S**2>=0.000
       9 -> 16         0.63526
      10 -> 17         0.21704
      11 -> 18         0.13039

 Excited State  27:      Singlet-A'    12.0545 eV  102.85 nm  f=0.0074  <S**2>=0.000
       9 -> 18         0.65940
      12 -> 24         0.12167
      12 -> 25         0.10991

 Excited State  28:      Singlet-A"    12.0862 eV  102.58 nm  f=0.0265  <S**2>=0.000
       9 -> 16        -0.20539
      10 -> 17         0.65705

 Excited State  29:      Singlet-A'    12.2190 eV  101.47 nm  f=0.0253  <S**2>=0.000
      10 -> 18        -0.31865
      11 -> 17        -0.16775
      11 -> 20        -0.28435
      12 -> 23        -0.18615
      12 -> 24        -0.28445
      12 -> 25         0.34451
      12 -> 27        -0.13747

 Excited State  30:      Singlet-A'    12.3001 eV  100.80 nm  f=0.0098  <S**2>=0.000
       9 -> 18        -0.13783
      10 -> 18         0.15058
      12 -> 24         0.25361
      12 -> 25         0.56698
      12 -> 27         0.15846

 Excited State  31:      Singlet-A"    12.4824 eV   99.33 nm  f=0.0007  <S**2>=0.000
      11 -> 19         0.68427

 Excited State  32:      Singlet-A"    12.7983 eV   96.88 nm  f=0.0014  <S**2>=0.000
       8 -> 14         0.13388
       9 -> 17         0.62480
      12 -> 26        -0.18900

 Excited State  33:      Singlet-A'    12.8370 eV   96.58 nm  f=0.0307  <S**2>=0.000
       8 -> 13        -0.10190
      10 -> 19         0.65219
      11 -> 20        -0.18067

 Excited State  34:      Singlet-A"    12.9011 eV   96.10 nm  f=0.0439  <S**2>=0.000
       9 -> 17         0.20583
      10 -> 20        -0.27431
      12 -> 26         0.58537

 Excited State  35:      Singlet-A"    12.9223 eV   95.95 nm  f=0.0132  <S**2>=0.000
      10 -> 20         0.62169
      12 -> 26         0.28295

 Excited State  36:      Singlet-A'    12.9471 eV   95.76 nm  f=0.0370  <S**2>=0.000
       9 -> 19        -0.13924
      10 -> 19         0.18993
      10 -> 21        -0.14280
      11 -> 20         0.48131
      12 -> 25         0.12515
      12 -> 27        -0.31631
      12 -> 28         0.15762

 Excited State  37:      Singlet-A'    13.1095 eV   94.58 nm  f=0.0184  <S**2>=0.000
       8 -> 13         0.63163
       8 -> 15         0.17016
       9 -> 19        -0.14059
      10 -> 19         0.10603

 Excited State  38:      Singlet-A'    13.2734 eV   93.41 nm  f=0.1263  <S**2>=0.000
       8 -> 15         0.10690
      10 -> 18        -0.21440
      11 -> 20         0.21225
      11 -> 23         0.13265
      11 -> 24         0.11167
      12 -> 23        -0.10495
      12 -> 24        -0.11666
      12 -> 27         0.52229
      12 -> 28         0.11658

 Excited State  39:      Singlet-A"    13.3334 eV   92.99 nm  f=0.0123  <S**2>=0.000
       9 -> 20        -0.12563
      11 -> 21         0.60392
      11 -> 22        -0.29005

 Excited State  40:      Singlet-A'    13.5799 eV   91.30 nm  f=0.0502  <S**2>=0.000
       8 -> 13        -0.12846
       9 -> 19        -0.43123
      10 -> 21         0.46214
      11 -> 23        -0.13995

 Excited State  41:      Singlet-A'    13.6871 eV   90.59 nm  f=0.0886  <S**2>=0.000
       8 -> 13        -0.11204
       8 -> 15         0.21127
       9 -> 19         0.14333
      10 -> 18         0.13445
      11 -> 20        -0.14201
      11 -> 23         0.17365
      11 -> 24        -0.14766
      12 -> 28         0.52454

 Excited State  42:      Singlet-A"    13.7139 eV   90.41 nm  f=0.0081  <S**2>=0.000
       8 -> 14         0.31010
       9 -> 17        -0.17908
       9 -> 20         0.49518
      11 -> 22        -0.28191

 Excited State  43:      Singlet-A"    13.7675 eV   90.06 nm  f=0.0737  <S**2>=0.000
       8 -> 14         0.26451
       9 -> 20         0.13448
      11 -> 21         0.27754
      11 -> 22         0.54435

 Excited State  44:      Singlet-A'    13.7702 eV   90.04 nm  f=0.0055  <S**2>=0.000
       8 -> 15        -0.40395
       9 -> 19        -0.11598
       9 -> 21         0.10054
      11 -> 23         0.51980

 Excited State  45:      Singlet-A'    13.8362 eV   89.61 nm  f=0.1431  <S**2>=0.000
       8 -> 13        -0.12917
       8 -> 15         0.41212
       9 -> 19        -0.13373
       9 -> 21        -0.10131
      11 -> 23         0.35290
      12 -> 28        -0.33360

 Excited State  46:      Singlet-A"    13.9910 eV   88.62 nm  f=0.0749  <S**2>=0.000
       8 -> 14         0.45211
       9 -> 20        -0.28710
      10 -> 23         0.41263

 Excited State  47:      Singlet-A'    14.0317 eV   88.36 nm  f=0.0017  <S**2>=0.000
       7 -> 13        -0.25469
       9 -> 19        -0.26537
      10 -> 21        -0.24120
      10 -> 22         0.28711
      11 -> 20        -0.13027
      11 -> 24         0.38263

 Excited State  48:      Singlet-A"    14.0817 eV   88.05 nm  f=0.0020  <S**2>=0.000
       8 -> 14        -0.26642
       9 -> 20         0.29324
      10 -> 23         0.52243
      12 -> 29         0.16722

 Excited State  49:      Singlet-A'    14.1286 eV   87.75 nm  f=0.0020  <S**2>=0.000
       7 -> 13         0.16699
       8 -> 15         0.12694
       9 -> 19         0.26203
      10 -> 21         0.31030
      10 -> 22         0.45101
      11 -> 24         0.22534

 Excited State  50:      Singlet-A"    14.1642 eV   87.53 nm  f=0.0003  <S**2>=0.000
       8 -> 14         0.11019
       8 -> 18         0.10239
      10 -> 23        -0.19511
      10 -> 24         0.15534
      12 -> 29         0.61603

 Excited State  51:      Singlet-A'    14.2491 eV   87.01 nm  f=0.0310  <S**2>=0.000
       8 -> 16        -0.11082
       9 -> 19         0.17774
      10 -> 22        -0.41144
      11 -> 24         0.46124
      12 -> 27        -0.10972

 Excited State  52:      Singlet-A"    14.3994 eV   86.10 nm  f=0.0451  <S**2>=0.000
      10 -> 24         0.65424
      12 -> 29        -0.18903

 Excited State  53:      Singlet-A'    14.5125 eV   85.43 nm  f=0.1060  <S**2>=0.000
       7 -> 13        -0.27656
       7 -> 15        -0.15297
       8 -> 16        -0.32733
       9 -> 21         0.45591
       9 -> 22        -0.18031

 Excited State  54:      Singlet-A'    14.6905 eV   84.40 nm  f=0.0629  <S**2>=0.000
       7 -> 13         0.26075
       7 -> 15        -0.11323
       8 -> 16         0.34441
       9 -> 21         0.36066
      11 -> 25         0.31811
      12 -> 30        -0.11772

 Excited State  55:      Singlet-A"    14.7310 eV   84.17 nm  f=0.0059  <S**2>=0.000
       9 -> 23         0.51425
      10 -> 25         0.43167

 Excited State  56:      Singlet-A'    14.7353 eV   84.14 nm  f=0.2716  <S**2>=0.000
       7 -> 13        -0.27149
       8 -> 15        -0.10721
       9 -> 21        -0.21358
      11 -> 25         0.49950
      12 -> 30        -0.22828

 Excited State  57:      Singlet-A"    14.7617 eV   83.99 nm  f=0.0255  <S**2>=0.000
       8 -> 14         0.10061
       8 -> 18         0.62230
       9 -> 23        -0.13197
      12 -> 29        -0.10773

 Excited State  58:      Singlet-A'    14.8251 eV   83.63 nm  f=0.0212  <S**2>=0.000
       7 -> 13        -0.17668
       8 -> 16         0.22015
       8 -> 17         0.10648
       9 -> 22        -0.14531
      10 -> 26        -0.11455
      11 -> 25         0.13663
      12 -> 30         0.54793
      12 -> 32         0.10217

 Excited State  59:      Singlet-A'    14.8868 eV   83.28 nm  f=0.0483  <S**2>=0.000
       7 -> 13        -0.27144
       8 -> 16         0.32509
       8 -> 17         0.12944
       9 -> 22        -0.17261
      10 -> 21         0.17127
      10 -> 26        -0.12818
      11 -> 25        -0.22943
      11 -> 27        -0.14162
      11 -> 28         0.10652
      12 -> 30        -0.30500
      12 -> 32        -0.10953

 Excited State  60:      Singlet-A'    14.9799 eV   82.77 nm  f=0.3261  <S**2>=0.000
       7 -> 13        -0.19790
       7 -> 15         0.14770
       9 -> 21         0.16217
       9 -> 22         0.56532
      10 -> 26         0.14241

 Excited State  61:      Singlet-A"    15.0470 eV   82.40 nm  f=0.0819  <S**2>=0.000
       7 -> 14        -0.17183
       8 -> 18        -0.11418
       9 -> 23        -0.30061
       9 -> 24        -0.24798
      10 -> 25         0.40696
      11 -> 26         0.31766

 Excited State  62:      Singlet-A"    15.2216 eV   81.45 nm  f=0.0166  <S**2>=0.000
       7 -> 14        -0.22624
       9 -> 23         0.24839
       9 -> 24         0.16707
      10 -> 25        -0.18868
      11 -> 26         0.49503
      12 -> 31         0.20840

 Excited State  63:      Singlet-A"    15.2443 eV   81.33 nm  f=0.2159  <S**2>=0.000
       7 -> 14         0.16279
       9 -> 23        -0.16394
       9 -> 24         0.36790
      10 -> 25         0.17993
      12 -> 31         0.46442

 Excited State  64:      Singlet-A'    15.2774 eV   81.16 nm  f=0.1376  <S**2>=0.000
       7 -> 15         0.48370
       9 -> 21         0.15461
       9 -> 22        -0.13920
      11 -> 25         0.11910
      11 -> 27        -0.33136
      12 -> 32         0.18758

 Excited State  65:      Singlet-A"    15.2966 eV   81.05 nm  f=0.0210  <S**2>=0.000
       7 -> 14        -0.23848
       8 -> 18         0.10016
       8 -> 19         0.11225
       9 -> 24        -0.35298
       9 -> 25        -0.11996
      10 -> 25        -0.14515
      10 -> 27         0.14708
      10 -> 28        -0.11843
      11 -> 26        -0.22200
      12 -> 31         0.38173

 Excited State  66:      Singlet-A'    15.3876 eV   80.57 nm  f=0.0429  <S**2>=0.000
       7 -> 13        -0.11744
       7 -> 15         0.36291
       8 -> 17        -0.13101
      10 -> 26        -0.17483
      11 -> 27         0.50344

 Excited State  67:      Singlet-A"    15.4024 eV   80.50 nm  f=0.2328  <S**2>=0.000
       7 -> 14         0.52750
       9 -> 24        -0.26920
       9 -> 25        -0.11244
      11 -> 26         0.25354
      12 -> 31         0.13699

 Excited State  68:      Singlet-A'    15.4229 eV   80.39 nm  f=0.1402  <S**2>=0.000
       7 -> 15        -0.12343
       9 -> 22         0.10890
      10 -> 26        -0.30931
      11 -> 27         0.11239
      12 -> 30        -0.10480
      12 -> 32         0.53221

 Excited State  69:      Singlet-A"    15.5248 eV   79.86 nm  f=0.0010  <S**2>=0.000
       7 -> 14         0.15143
       9 -> 25         0.22725
      10 -> 27         0.58803
      10 -> 28        -0.12950
      12 -> 31        -0.11776

 Excited State  70:      Singlet-A'    15.6495 eV   79.23 nm  f=0.1228  <S**2>=0.000
       7 -> 16        -0.17792
       8 -> 16         0.14938
       8 -> 17        -0.21288
       9 -> 22        -0.13550
       9 -> 26         0.13508
      10 -> 26         0.43943
      11 -> 27         0.10652
      11 -> 28         0.11133
      12 -> 32         0.26877
      12 -> 33        -0.17500

 Excited State  71:      Singlet-A"    15.7763 eV   78.59 nm  f=0.0579  <S**2>=0.000
       7 -> 18         0.19159
       9 -> 24        -0.14168
       9 -> 25         0.57166
       9 -> 27         0.11382
      10 -> 27        -0.19970
      11 -> 29         0.12713
      12 -> 31         0.11158

 Excited State  72:      Singlet-A'    15.7767 eV   78.59 nm  f=0.1900  <S**2>=0.000
       7 -> 16         0.18063
       8 -> 17         0.56993
      10 -> 26         0.21892
      11 -> 27         0.13825
      12 -> 33        -0.15890

 Excited State  73:      Singlet-A"    16.0246 eV   77.37 nm  f=0.0021  <S**2>=0.000
       7 -> 18         0.49005
       7 -> 21         0.10388
       9 -> 25        -0.18702
      10 -> 27         0.15372
      10 -> 28         0.26243
      11 -> 29         0.27921

 Excited State  74:      Singlet-A'    16.0315 eV   77.34 nm  f=0.0992  <S**2>=0.000
      10 -> 26         0.15637
      11 -> 28        -0.43600
      12 -> 33         0.46458

 Excited State  75:      Singlet-A'    16.1232 eV   76.90 nm  f=0.1357  <S**2>=0.000
       7 -> 16        -0.22307
       8 -> 17         0.14369
      11 -> 27         0.16675
      11 -> 28         0.44369
      11 -> 30         0.10635
      12 -> 33         0.38033

 Excited State  76:      Singlet-A'    16.2084 eV   76.49 nm  f=0.0008  <S**2>=0.000
       7 -> 16         0.54411
       8 -> 16         0.10722
       8 -> 17        -0.15241
       9 -> 26        -0.17106
      10 -> 26         0.12243
      11 -> 28         0.14883
      12 -> 33         0.18773

 Excited State  77:      Singlet-A"    16.2885 eV   76.12 nm  f=0.0648  <S**2>=0.000
       7 -> 18        -0.20026
       8 -> 19         0.40178
       9 -> 27        -0.12508
      10 -> 27         0.13422
      10 -> 28         0.45593

 Excited State  78:      Singlet-A'    16.3490 eV   75.84 nm  f=0.2982  <S**2>=0.000
       7 -> 16         0.18601
       8 -> 20         0.14074
       9 -> 26         0.61256

 Excited State  79:      Singlet-A"    16.3572 eV   75.80 nm  f=0.0056  <S**2>=0.000
       7 -> 18         0.21271
       8 -> 19         0.48021
       9 -> 27         0.15522
      10 -> 28        -0.25481
      11 -> 29        -0.19389

 Excited State  80:      Singlet-A"    16.4768 eV   75.25 nm  f=0.0309  <S**2>=0.000
       9 -> 27        -0.25730
      12 -> 34         0.61422
      12 -> 35        -0.12135

 Excited State  81:      Singlet-A"    16.5170 eV   75.06 nm  f=0.0003  <S**2>=0.000
       7 -> 18        -0.25449
       9 -> 27         0.47988
      11 -> 29         0.30674
      12 -> 34         0.23859

 Excited State  82:      Singlet-A'    16.5524 eV   74.90 nm  f=0.0154  <S**2>=0.000
       8 -> 20         0.61697
       9 -> 26        -0.17524
      10 -> 29        -0.19190

 Excited State  83:      Singlet-A"    16.6133 eV   74.63 nm  f=0.1838  <S**2>=0.000
       6 -> 13        -0.10115
       7 -> 18        -0.11045
       8 -> 19         0.17744
       9 -> 27        -0.28493
       9 -> 28         0.17552
      10 -> 28        -0.21675
      11 -> 29         0.45845
      11 -> 31        -0.10791

 Excited State  84:      Singlet-A'    16.9418 eV   73.18 nm  f=0.0045  <S**2>=0.000
      11 -> 28        -0.10811
      11 -> 30         0.54928
      12 -> 38         0.31484
      12 -> 39         0.21349

 Excited State  85:      Singlet-A"    16.9686 eV   73.07 nm  f=0.0006  <S**2>=0.000
      10 -> 30         0.10018
      12 -> 35         0.37217
      12 -> 36         0.52373

 Excited State  86:      Singlet-A'    17.0759 eV   72.61 nm  f=0.1147  <S**2>=0.000
       7 -> 17         0.22522
       7 -> 20         0.10880
       8 -> 20         0.16144
      10 -> 29         0.51052
      11 -> 30         0.20051
      12 -> 38        -0.17779

 Excited State  87:      Singlet-A"    17.1102 eV   72.46 nm  f=0.0010  <S**2>=0.000
       6 -> 13         0.59470
       6 -> 15         0.11876
      10 -> 30         0.16670
      11 -> 31        -0.21576
      12 -> 36        -0.11148

 Excited State  88:      Singlet-A'    17.1348 eV   72.36 nm  f=0.0853  <S**2>=0.000
       7 -> 17         0.50357
      10 -> 29        -0.31448
      11 -> 30         0.11443
      12 -> 38        -0.20098
      12 -> 39        -0.13980

 Excited State  89:      Singlet-A"    17.1649 eV   72.23 nm  f=0.0090  <S**2>=0.000
       8 -> 21        -0.15491
      10 -> 30        -0.10655
      12 -> 34         0.14717
      12 -> 35         0.54485
      12 -> 36        -0.32995

 Excited State  90:      Singlet-A"    17.2095 eV   72.04 nm  f=0.0037  <S**2>=0.000
       6 -> 15        -0.18193
       8 -> 21         0.47240
       9 -> 28         0.21279
      10 -> 30        -0.22574
      10 -> 32        -0.12931
      11 -> 31        -0.26015

 Excited State  91:      Singlet-A'    17.2316 eV   71.95 nm  f=0.0811  <S**2>=0.000
       7 -> 17         0.36994
      11 -> 30        -0.30921
      12 -> 38         0.35346
      12 -> 39         0.24352

 Excited State  92:      Singlet-A"    17.3477 eV   71.47 nm  f=0.0439  <S**2>=0.000
       8 -> 21        -0.19919
       9 -> 27         0.17718
       9 -> 28         0.56234
      11 -> 31         0.10945
      12 -> 36         0.13676

 Excited State  93:      Singlet-A"    17.4406 eV   71.09 nm  f=0.0062  <S**2>=0.000
       6 -> 13        -0.13252
       8 -> 21         0.20857
       8 -> 22        -0.21815

 The electronic state is 1-A'.
 Alpha  occ. eigenvalues --  -14.39922 -10.28841 -10.28817  -1.03873  -0.73132
 Alpha  occ. eigenvalues --   -0.68957  -0.59692  -0.54355  -0.44272  -0.41644
 Alpha  occ. eigenvalues --   -0.40469  -0.31867
 Alpha virt. eigenvalues --    0.05707   0.07852   0.08836   0.11927   0.15450
 Alpha virt. eigenvalues --    0.15775   0.17382   0.19112   0.21944   0.22817
 Alpha virt. eigenvalues --    0.22879   0.24425   0.26356   0.28174   0.29522

 Mulliken charges:
               1
     1  C    0.765246
     2  C    0.765246
     3  N   -0.343299
     4  H   -0.321090
     5  H   -0.248586
     6  H   -0.248586
     7  H   -0.321090
     8  H   -0.047840
 Sum of Mulliken charges =   0.00000

 Dipole moment (field-independent basis, Debye):
    X=             -1.3338    Y=             -1.1216    Z=              0.0000  Tot=              1.7427
 Quadrupole moment (field-independent basis, Debye-Ang):
   XX=            -17.9531   YY=            -21.4790   ZZ=            -18.8261
   XY=             -2.1651   XZ=              0.0000   YZ=              0.0000

 Normal termination of Gaussian 16 at Mon Mar 21 20:19:52 2022.
