 Gaussian 16, Revision C.01,
 Gaussian 16:  EM64L-G16RevC.01  3-Jul-2019

 ----------------------------------------------------------------------
 #P TD(Nstates=10000) cam-b3lyp/Gen SCF(maxcycles=100) Int(Grid=ultrafi
 ne)
 ----------------------------------------------------------------------

 ---------------------
 xGDB7_00001_tier4.com
 ---------------------
 Symbolic Z-matrix:
 Charge =  0 Multiplicity = 1

                         Standard orientation:
 ---------------------------------------------------------------------
 Center     Atomic      Atomic             Coordinates (Angstroms)
 Number     Number       Type             X           Y           Z
 ---------------------------------------------------------------------
      1          6           0        0.000284   -0.018657   -1.236532
      2          6           0       -0.000055    0.003295    0.218717
      3          6           0       -0.000323    0.021367    1.415619
      4          1           0        0.273656    0.958689   -1.636635
      5          1           0       -0.987794   -0.279414   -1.618263
      6          1           0        0.715256   -0.752703   -1.610700
      7          1           0       -0.000556    0.037402    2.478776
 ---------------------------------------------------------------------

 SCF Done:  E(RCAM-B3LYP) =  -116.499558108     A.U. after   12 cycles

 Excitation energies and oscillator strengths:

 Excited State   1:      Singlet-A      6.7101 eV  184.77 nm  f=0.0000  <S**2>=0.000
      10 -> 14        -0.31825
      10 -> 15         0.36707
      11 -> 14         0.36711
      11 -> 15         0.31824
 This state for optimization and/or second-order correction.
 Total Energy, E(TD-HF/TD-DFT) =  -116.252965267
 Copying the excited state density for this state as the 1-particle RhoCI density.

 Excited State   2:      Singlet-A      6.9750 eV  177.75 nm  f=0.0008  <S**2>=0.000
      10 -> 14        -0.19018
      10 -> 15         0.44893
      11 -> 14        -0.44891
      11 -> 15        -0.19016

 Excited State   3:      Singlet-A      6.9750 eV  177.75 nm  f=0.0008  <S**2>=0.000
      10 -> 14         0.44891
      10 -> 15         0.19018
      11 -> 14        -0.19016
      11 -> 15         0.44893

 Excited State   4:      Singlet-A      7.4324 eV  166.82 nm  f=0.0202  <S**2>=0.000
      11 -> 12         0.68143
      11 -> 13         0.10908
      11 -> 16         0.12462

 Excited State   5:      Singlet-A      7.4324 eV  166.82 nm  f=0.0202  <S**2>=0.000
      10 -> 12         0.68143
      10 -> 13         0.10908
      10 -> 16         0.12462

 Excited State   6:      Singlet-A      8.4588 eV  146.57 nm  f=0.0231  <S**2>=0.000
      11 -> 13         0.67435
      11 -> 16        -0.18078

 Excited State   7:      Singlet-A      8.4588 eV  146.57 nm  f=0.0231  <S**2>=0.000
      10 -> 13         0.67435
      10 -> 16        -0.18078

 Excited State   8:      Singlet-A      9.1687 eV  135.23 nm  f=0.0616  <S**2>=0.000
      11 -> 12        -0.14275
      11 -> 13         0.16310
      11 -> 16         0.65328
      11 -> 21         0.10414

 Excited State   9:      Singlet-A      9.1687 eV  135.23 nm  f=0.0616  <S**2>=0.000
      10 -> 12        -0.14275
      10 -> 13         0.16310
      10 -> 16         0.65328
      10 -> 21         0.10414

 Excited State  10:      Singlet-A      9.6820 eV  128.06 nm  f=0.8288  <S**2>=0.000
      10 -> 14        -0.33250
      10 -> 15        -0.28826
      10 -> 17        -0.19560
      11 -> 14        -0.28826
      11 -> 15         0.33250
      11 -> 18         0.19561

 Excited State  11:      Singlet-A     10.2967 eV  120.41 nm  f=0.0000  <S**2>=0.000
      10 -> 17         0.12801
      10 -> 18         0.44002
      10 -> 19        -0.14032
      11 -> 17         0.44099
      11 -> 18        -0.12769
      11 -> 20         0.14040

 Excited State  12:      Singlet-A     10.3055 eV  120.31 nm  f=0.0058  <S**2>=0.000
      10 -> 17         0.36419
      10 -> 18        -0.30860
      11 -> 17         0.30780
      11 -> 18         0.36443

 Excited State  13:      Singlet-A     10.3055 eV  120.31 nm  f=0.0058  <S**2>=0.000
      10 -> 17         0.30828
      10 -> 18         0.36455
      11 -> 17        -0.36407
      11 -> 18         0.30813

 Excited State  14:      Singlet-A     10.7740 eV  115.08 nm  f=0.0000  <S**2>=0.000
      10 -> 18        -0.14213
      10 -> 19        -0.42049
      10 -> 20        -0.19332
      11 -> 17        -0.14211
      11 -> 19        -0.19334
      11 -> 20         0.42050

 Excited State  15:      Singlet-A     10.8160 eV  114.63 nm  f=0.4634  <S**2>=0.000
      10 -> 14        -0.14805
      10 -> 15        -0.12835
      10 -> 17         0.38866
      10 -> 18        -0.11280
      10 -> 20         0.16338
      11 -> 14        -0.12835
      11 -> 15         0.14805
      11 -> 17        -0.11279
      11 -> 18        -0.38864
      11 -> 19         0.16350

 Excited State  16:      Singlet-A     10.8737 eV  114.02 nm  f=0.0007  <S**2>=0.000
      10 -> 19        -0.15770
      10 -> 20        -0.41385
      10 -> 21        -0.22935
      11 -> 19         0.41393
      11 -> 20        -0.15765
      11 -> 21         0.11748

 Excited State  17:      Singlet-A     10.8737 eV  114.02 nm  f=0.0007  <S**2>=0.000
      10 -> 19         0.41395
      10 -> 20        -0.15777
      10 -> 21        -0.11747
      11 -> 19         0.15758
      11 -> 20         0.41385
      11 -> 21        -0.22934

 Excited State  18:      Singlet-A     10.9464 eV  113.26 nm  f=0.0001  <S**2>=0.000
      10 -> 17        -0.18455
      10 -> 19        -0.18911
      10 -> 20         0.41156
      11 -> 18         0.18456
      11 -> 19         0.41155
      11 -> 20         0.18933

 Excited State  19:      Singlet-A     11.0331 eV  112.37 nm  f=0.0185  <S**2>=0.000
      10 -> 19         0.17931
      10 -> 21         0.14133
      11 -> 20         0.17926
      11 -> 21         0.61810

 Excited State  20:      Singlet-A     11.0331 eV  112.37 nm  f=0.0185  <S**2>=0.000
      10 -> 20        -0.17934
      10 -> 21         0.61810
      11 -> 19         0.17924
      11 -> 21        -0.14132

 Excited State  21:      Singlet-A     11.7010 eV  105.96 nm  f=0.1124  <S**2>=0.000
       9 -> 12         0.67253
       9 -> 13        -0.16338

 Excited State  22:      Singlet-A     11.7011 eV  105.96 nm  f=0.1124  <S**2>=0.000
       8 -> 12         0.67252
       8 -> 13        -0.16338

 Excited State  23:      Singlet-A     11.8430 eV  104.69 nm  f=0.0000  <S**2>=0.000
      10 -> 23         0.47366
      11 -> 22         0.47407

 Excited State  24:      Singlet-A     11.8686 eV  104.46 nm  f=0.0162  <S**2>=0.000
      10 -> 22         0.47269
      11 -> 23         0.47268

 Excited State  25:      Singlet-A     11.8686 eV  104.46 nm  f=0.0162  <S**2>=0.000
      10 -> 23         0.47289
      11 -> 22        -0.47248

 Excited State  26:      Singlet-A     12.2523 eV  101.19 nm  f=0.0059  <S**2>=0.000
       7 -> 14         0.46601
       7 -> 15        -0.17014
       8 -> 15         0.10997
       9 -> 14        -0.11040
      10 -> 24        -0.21450
      11 -> 24        -0.38670

 Excited State  27:      Singlet-A     12.2523 eV  101.19 nm  f=0.0059  <S**2>=0.000
       7 -> 14         0.17016
       7 -> 15         0.46601
       8 -> 14         0.11027
       9 -> 15         0.10989
      10 -> 24        -0.38674
      11 -> 24         0.21455

 Excited State  28:      Singlet-A     12.2719 eV  101.03 nm  f=0.0000  <S**2>=0.000
       8 -> 14        -0.40612
       8 -> 15         0.26638
       9 -> 14         0.26644
       9 -> 15         0.40643

 Excited State  29:      Singlet-A     12.3719 eV  100.21 nm  f=0.0126  <S**2>=0.000
       7 -> 12         0.65581
      10 -> 22         0.13458
      11 -> 23        -0.13459

 Excited State  30:      Singlet-A     12.4449 eV   99.63 nm  f=0.0119  <S**2>=0.000
       8 -> 14        -0.12132
       8 -> 15        -0.40942
       9 -> 14         0.40942
       9 -> 15        -0.12147
      10 -> 24        -0.12616
      11 -> 24        -0.29438

 Excited State  31:      Singlet-A     12.4450 eV   99.63 nm  f=0.0120  <S**2>=0.000
       8 -> 14         0.40953
       8 -> 15        -0.12147
       9 -> 14         0.12136
       9 -> 15         0.40937
      10 -> 24         0.29429
      11 -> 24        -0.12606

 Excited State  32:      Singlet-A     12.7123 eV   97.53 nm  f=0.0146  <S**2>=0.000
       7 -> 15         0.44852
       8 -> 14        -0.16837
       8 -> 15         0.10436
       9 -> 14        -0.10430
       9 -> 15        -0.16834
      10 -> 24         0.32327
      11 -> 24        -0.25679

 Excited State  33:      Singlet-A     12.7124 eV   97.53 nm  f=0.0146  <S**2>=0.000
       7 -> 14         0.44854
       8 -> 14        -0.10434
       8 -> 15        -0.16837
       9 -> 14         0.16835
       9 -> 15        -0.10433
      10 -> 24         0.25679
      11 -> 24         0.32323

 Excited State  34:      Singlet-A     12.8372 eV   96.58 nm  f=0.2277  <S**2>=0.000
       6 -> 13         0.15133
       7 -> 12        -0.21661
      10 -> 22         0.41001
      11 -> 23        -0.41001

 Excited State  35:      Singlet-A     13.1005 eV   94.64 nm  f=0.0447  <S**2>=0.000
       7 -> 13         0.14844
       7 -> 16         0.10178
       8 -> 14         0.24589
       8 -> 15         0.37500
       9 -> 14         0.37492
       9 -> 15        -0.24585

 Excited State  36:      Singlet-A     13.3083 eV   93.16 nm  f=0.0003  <S**2>=0.000
       9 -> 12         0.11650
       9 -> 13         0.48983
       9 -> 16         0.46567

 Excited State  37:      Singlet-A     13.3084 eV   93.16 nm  f=0.0003  <S**2>=0.000
       8 -> 12         0.11650
       8 -> 13         0.48983
       8 -> 16         0.46567

 Excited State  38:      Singlet-A     13.5529 eV   91.48 nm  f=0.0000  <S**2>=0.000
      10 -> 26         0.47116
      11 -> 25         0.47117

 Excited State  39:      Singlet-A     13.6238 eV   91.01 nm  f=0.0231  <S**2>=0.000
      10 -> 25        -0.44642
      10 -> 28         0.13976
      11 -> 26         0.44643
      11 -> 27         0.13975

 Excited State  40:      Singlet-A     13.8691 eV   89.40 nm  f=0.0181  <S**2>=0.000
       6 -> 12        -0.18097
       7 -> 13         0.59181
       7 -> 16         0.18321
      10 -> 22         0.10058
      11 -> 23        -0.10058

 Excited State  41:      Singlet-A     13.8960 eV   89.22 nm  f=0.1242  <S**2>=0.000
       6 -> 14        -0.26754
       6 -> 15         0.17199
      10 -> 25         0.20621
      10 -> 26         0.36874
      11 -> 25        -0.36872
      11 -> 26         0.20623

 Excited State  42:      Singlet-A     13.8960 eV   89.22 nm  f=0.1242  <S**2>=0.000
       6 -> 14        -0.17199
       6 -> 15        -0.26754
      10 -> 25         0.36873
      10 -> 26        -0.20622
      11 -> 25         0.20622
      11 -> 26         0.36873

 Excited State  43:      Singlet-A     14.0996 eV   87.93 nm  f=0.0133  <S**2>=0.000
       9 -> 12        -0.11931
       9 -> 13        -0.45525
       9 -> 16         0.46671
       9 -> 21        -0.16057

 Excited State  44:      Singlet-A     14.0998 eV   87.93 nm  f=0.0133  <S**2>=0.000
       8 -> 12        -0.11931
       8 -> 13        -0.45525
       8 -> 16         0.46671
       8 -> 21        -0.16058

 Excited State  45:      Singlet-A     14.1985 eV   87.32 nm  f=0.0402  <S**2>=0.000
       8 -> 17         0.16702
       8 -> 18        -0.42684
       9 -> 17         0.42830
       9 -> 18         0.16703
      10 -> 28        -0.15096
      11 -> 27         0.15115

 Excited State  46:      Singlet-A     14.1985 eV   87.32 nm  f=0.0402  <S**2>=0.000
       8 -> 17         0.42756
       8 -> 18         0.16676
       9 -> 17        -0.16727
       9 -> 18         0.42759
      10 -> 27         0.15103
      11 -> 28         0.15115

 Excited State  47:      Singlet-A     14.2360 eV   87.09 nm  f=0.0000  <S**2>=0.000
       8 -> 18         0.47437
       9 -> 17         0.47293
      10 -> 27         0.12098
      11 -> 28        -0.12069

 Excited State  48:      Singlet-A     14.3121 eV   86.63 nm  f=0.2756  <S**2>=0.000
       6 -> 13         0.19403
       7 -> 13        -0.11732
       7 -> 16         0.61187
      10 -> 28        -0.11675
      11 -> 27        -0.11682

 Excited State  49:      Singlet-A     14.3476 eV   86.41 nm  f=0.0119  <S**2>=0.000
       6 -> 15        -0.12080
       8 -> 18         0.15054
       9 -> 17        -0.15087
      10 -> 27        -0.10365
      10 -> 28        -0.42959
      11 -> 27         0.43028
      11 -> 28        -0.10500

 Excited State  50:      Singlet-A     14.3476 eV   86.41 nm  f=0.0119  <S**2>=0.000
       6 -> 14        -0.12086
       8 -> 17        -0.15071
       9 -> 18        -0.15074
      10 -> 27         0.42972
      10 -> 28        -0.10442
      11 -> 27         0.10423
      11 -> 28         0.43010

 Excited State  51:      Singlet-A     14.3545 eV   86.37 nm  f=0.0000  <S**2>=0.000
       8 -> 18        -0.13859
       9 -> 17        -0.13798
      10 -> 26        -0.11233
      10 -> 27         0.39190
      10 -> 28         0.21068
      11 -> 25        -0.11212
      11 -> 27         0.20934
      11 -> 28        -0.39114

 Excited State  52:      Singlet-A     14.5641 eV   85.13 nm  f=0.0411  <S**2>=0.000
       6 -> 14         0.18355
       6 -> 15        -0.18036
       7 -> 18        -0.20214
      11 -> 29         0.55536
      11 -> 30         0.11878
      11 -> 34        -0.10787

 Excited State  53:      Singlet-A     14.5641 eV   85.13 nm  f=0.0411  <S**2>=0.000
       6 -> 14         0.18035
       6 -> 15         0.18360
       7 -> 17         0.20216
      10 -> 29         0.55527
      10 -> 30         0.11878
      10 -> 34        -0.10787

 Excited State  54:      Singlet-A     14.6607 eV   84.57 nm  f=0.0000  <S**2>=0.000
       8 -> 19        -0.36083
       8 -> 20        -0.30832
       9 -> 19        -0.30839
       9 -> 20         0.36089
      10 -> 27         0.10013
      11 -> 28        -0.10015

 Excited State  55:      Singlet-A     14.7896 eV   83.83 nm  f=0.1059  <S**2>=0.000
       7 -> 17        -0.14380
       7 -> 18         0.54932
      10 -> 29         0.15598
      11 -> 29         0.26107

 Excited State  56:      Singlet-A     14.7896 eV   83.83 nm  f=0.1059  <S**2>=0.000
       7 -> 17         0.54933
       7 -> 18         0.14381
      10 -> 29        -0.26119
      11 -> 29         0.15602

 Excited State  57:      Singlet-A     14.8024 eV   83.76 nm  f=0.0041  <S**2>=0.000
       7 -> 13        -0.11764
       8 -> 17         0.27872
       8 -> 19        -0.24783
       8 -> 20         0.28998
       9 -> 18        -0.27861
       9 -> 19         0.29008
       9 -> 20         0.24783

 Excited State  58:      Singlet-A     14.8813 eV   83.32 nm  f=0.0102  <S**2>=0.000
       6 -> 12         0.60543
       6 -> 13         0.15058
       6 -> 16         0.13198
       7 -> 13         0.22237
       7 -> 16        -0.12207

 Excited State  59:      Singlet-A     15.0171 eV   82.56 nm  f=0.0070  <S**2>=0.000
       6 -> 14        -0.25883
       7 -> 18        -0.21785
       8 -> 19         0.28285
       8 -> 20        -0.22255
       9 -> 19         0.22254
       9 -> 20         0.28284
      11 -> 29         0.16099

 Excited State  60:      Singlet-A     15.0172 eV   82.56 nm  f=0.0070  <S**2>=0.000
       6 -> 15         0.25884
       7 -> 17        -0.21780
       8 -> 19         0.22255
       8 -> 20         0.28290
       9 -> 19        -0.28276
       9 -> 20         0.22254
      10 -> 29        -0.16117

 Excited State  61:      Singlet-A     15.1127 eV   82.04 nm  f=0.0737  <S**2>=0.000
       6 -> 12         0.12028
       7 -> 16         0.10909
       8 -> 17         0.26351
       8 -> 19         0.12527
       8 -> 20        -0.14653
       9 -> 18        -0.26348
       9 -> 19        -0.14650
       9 -> 20        -0.12513
      10 -> 27        -0.14079
      10 -> 28         0.26245
      11 -> 27         0.26244
      11 -> 28         0.14076

 Excited State  62:      Singlet-A     15.3333 eV   80.86 nm  f=0.0147  <S**2>=0.000
       6 -> 12        -0.12402
       7 -> 16        -0.12185
       7 -> 21        -0.11703
       8 -> 17         0.25899
       8 -> 19         0.14853
       8 -> 20        -0.17381
       9 -> 18        -0.25896
       9 -> 19        -0.17382
       9 -> 20        -0.14851
      10 -> 27         0.11656
      10 -> 28        -0.21731
      11 -> 27        -0.21731
      11 -> 28        -0.11657

 Excited State  63:      Singlet-A     15.4590 eV   80.20 nm  f=0.2277  <S**2>=0.000
       6 -> 14         0.25486
       6 -> 15        -0.19469
       7 -> 18         0.17365
       8 -> 19         0.18331
       9 -> 16         0.17276
       9 -> 20         0.18332
       9 -> 21         0.38301
       9 -> 24         0.15877
      11 -> 30         0.11484

 Excited State  64:      Singlet-A     15.4590 eV   80.20 nm  f=0.2277  <S**2>=0.000
       6 -> 14         0.19468
       6 -> 15         0.25483
       7 -> 17        -0.17368
       8 -> 16         0.17274
       8 -> 20        -0.18335
       8 -> 21         0.38297
       8 -> 24         0.15875
       9 -> 19         0.18333
      10 -> 30         0.11486

 Excited State  65:      Singlet-A     15.5272 eV   79.85 nm  f=0.0649  <S**2>=0.000
       6 -> 15         0.13012
       6 -> 19         0.10447
       7 -> 19         0.65985

 Excited State  66:      Singlet-A     15.5272 eV   79.85 nm  f=0.0649  <S**2>=0.000
       6 -> 14        -0.13009
       6 -> 20         0.10447
       7 -> 20         0.65985

 Excited State  67:      Singlet-A     15.7006 eV   78.97 nm  f=0.1807  <S**2>=0.000
       6 -> 14        -0.12358
       8 -> 19        -0.16733
       9 -> 16         0.10208
       9 -> 20        -0.16729
       9 -> 21         0.42474
       9 -> 24         0.14901
      10 -> 32         0.12934
      11 -> 29         0.15369
      11 -> 30        -0.24512
      11 -> 31        -0.12943
      11 -> 34         0.13196

 Excited State  68:      Singlet-A     15.7006 eV   78.97 nm  f=0.1807  <S**2>=0.000
       6 -> 15        -0.12356
       8 -> 16         0.10212
       8 -> 20         0.16733
       8 -> 21         0.42479
       8 -> 24         0.14905
       9 -> 19        -0.16729
      10 -> 29         0.15370
      10 -> 30        -0.24507
      10 -> 31         0.12946
      10 -> 34         0.13195
      11 -> 32         0.12938

 Excited State  69:      Singlet-A     15.7296 eV   78.82 nm  f=0.0042  <S**2>=0.000
       6 -> 12        -0.12719
       6 -> 13         0.52148
       6 -> 16        -0.23000
       7 -> 16        -0.14637
      10 -> 31        -0.12900
      10 -> 32        -0.16537
      11 -> 31        -0.16533
      11 -> 32         0.12905

 Excited State  70:      Singlet-A     15.9753 eV   77.61 nm  f=0.2075  <S**2>=0.000
       6 -> 15        -0.15290
      10 -> 30         0.38740
      10 -> 31         0.28670
      11 -> 30        -0.33621
      11 -> 32         0.28465

 Excited State  71:      Singlet-A     15.9753 eV   77.61 nm  f=0.2076  <S**2>=0.000
       6 -> 14        -0.15291
      10 -> 30         0.33622
      10 -> 32         0.28471
      11 -> 30         0.38743
      11 -> 31        -0.28655

 Excited State  72:      Singlet-A     15.9812 eV   77.58 nm  f=0.0000  <S**2>=0.000
      10 -> 31        -0.38223
      10 -> 32         0.29962
      11 -> 31         0.29824
      11 -> 32         0.38397

 Excited State  73:      Singlet-A     16.0315 eV   77.34 nm  f=0.1877  <S**2>=0.000
       8 -> 19         0.10781
       9 -> 20         0.10779
       9 -> 21        -0.21640
      10 -> 30        -0.12520
      10 -> 32         0.35291
      11 -> 30        -0.29855
      11 -> 31        -0.35276

 Excited State  74:      Singlet-A     16.0315 eV   77.34 nm  f=0.1878  <S**2>=0.000
       8 -> 20        -0.10783
       8 -> 21        -0.21639
       9 -> 19         0.10781
      10 -> 30        -0.29861
      10 -> 31         0.35277
      11 -> 30         0.12525
      11 -> 32         0.35280

 Excited State  75:      Singlet-A     16.3456 eV   75.85 nm  f=0.0035  <S**2>=0.000
       6 -> 12         0.12381
       6 -> 16        -0.37865
       7 -> 21         0.46975
      10 -> 31         0.10911
      10 -> 32         0.13985
      11 -> 31         0.13984
      11 -> 32        -0.10912

 Excited State  76:      Singlet-A     16.4977 eV   75.15 nm  f=0.0001  <S**2>=0.000
      11 -> 35         0.61721
      11 -> 36        -0.28835

 Excited State  77:      Singlet-A     16.4977 eV   75.15 nm  f=0.0001  <S**2>=0.000
      10 -> 35         0.61721
      10 -> 36        -0.28834

 Excited State  78:      Singlet-A     16.6216 eV   74.59 nm  f=0.0019  <S**2>=0.000
       6 -> 13         0.33036
       6 -> 16         0.25113
       8 -> 22        -0.11447
       9 -> 23         0.11452
      10 -> 31         0.20123
      10 -> 32         0.25792
      11 -> 31         0.25789
      11 -> 32        -0.20125

 Excited State  79:      Singlet-A     16.6347 eV   74.53 nm  f=0.0025  <S**2>=0.000
      10 -> 33         0.15363
      11 -> 33         0.68573

 Excited State  80:      Singlet-A     16.6347 eV   74.53 nm  f=0.0025  <S**2>=0.000
      10 -> 33         0.68573
      11 -> 33        -0.15363

 Excited State  81:      Singlet-A     16.7281 eV   74.12 nm  f=0.0727  <S**2>=0.000
       6 -> 16         0.39639
       6 -> 21         0.11305
       7 -> 21         0.45435
      10 -> 31        -0.10862
      10 -> 32        -0.13921
      11 -> 31        -0.13920
      11 -> 32         0.10863

 Excited State  82:      Singlet-A     16.8659 eV   73.51 nm  f=0.0652  <S**2>=0.000
       8 -> 22        -0.21952
       8 -> 23        -0.18377
       9 -> 22         0.18406
       9 -> 23        -0.21964
       9 -> 24        -0.15240
      11 -> 34         0.48250

 The electronic state is 1-A.
 Alpha  occ. eigenvalues --  -10.28311 -10.26466 -10.25014  -0.85873  -0.77715
 Alpha  occ. eigenvalues --   -0.59692  -0.52613  -0.50424  -0.50424  -0.33619
 Alpha  occ. eigenvalues --   -0.33619
 Alpha virt. eigenvalues --    0.05059   0.08475   0.08867   0.08867   0.11313
 Alpha virt. eigenvalues --    0.15608   0.15608   0.18057   0.18057   0.19122
 Alpha virt. eigenvalues --    0.23217   0.23217   0.25687   0.30542   0.30543

 Mulliken charges:
               1
     1  C    0.605675
     2  C    0.843025
     3  C   -0.909954
     4  H   -0.109634
     5  H   -0.109641
     6  H   -0.109645
     7  H   -0.209825
 Sum of Mulliken charges =  -0.00000

 Dipole moment (field-independent basis, Debye):
    X=              0.0002    Y=             -0.0119    Z=             -0.7888  Tot=              0.7889
 Quadrupole moment (field-independent basis, Debye-Ang):
   XX=            -19.7131   YY=            -19.7118   ZZ=            -14.4696
   XY=             -0.0000   XZ=             -0.0011   YZ=              0.0791

 1\1\GINC-HEL25\SP\RCAM-B3LYP TD-FC\Gen\C3H4\SABYASACHI\21-Mar-2022\0\\
 #P TD(Nstates=10000) cam-b3lyp/Gen SCF(maxcycles=100) Int(Grid=ultrafi
 ne)\\xGDB7_00001_tier4.com\\0,1\C,0,1.236673,0.000003,0.000003\C,0,-0.
 218742,-0.000006,-0.000005\C,0,-1.41578,0.000004,-0.000001\H,0,1.62204
 5,0.979039,0.288094\H,0,1.62207,-0.240023,-0.991898\H,0,1.622037,-0.73
 9019,0.703815\H,0,-2.479058,-0.000005,0.000008\\Version=EM64L-G16RevC.
 01\State=1-A\HF=-116.4995581\RMSD=9.413e-09\PG=C01 [X(C3H4)]\\@
 The archive entry for this job was punched.

 Normal termination of Gaussian 16 at Mon Mar 21 20:11:30 2022.
