 Gaussian 16, Revision C.01,
 Gaussian 16:  EM64L-G16RevC.01  3-Jul-2019

 ----------------------------------------------------------------------
 #P TD(Nstates=10000) cam-b3lyp/Gen SCF(maxcycles=100) Int(Grid=ultrafi
 ne)
 ----------------------------------------------------------------------

 ---------------------
 xGDB7_00001_tier4.com
 ---------------------
 Symbolic Z-matrix:
 Charge =  0 Multiplicity = 1

                         Standard orientation:
 ---------------------------------------------------------------------
 Center     Atomic      Atomic             Coordinates (Angstroms)
 Number     Number       Type             X           Y           Z
 ---------------------------------------------------------------------
      1          6           0        0.000000    0.000000   -0.524273
      2          8           0        0.000000    0.000000    0.670793
      3          1           0        0.000000    0.939221   -1.110351
      4          1           0       -0.000000   -0.939221   -1.110351
 ---------------------------------------------------------------------

 SCF Done:  E(RCAM-B3LYP) =  -114.376199417     A.U. after   11 cycles

 Excitation energies and oscillator strengths:

 Excited State   1:      Singlet-A2     4.0048 eV  309.59 nm  f=0.0000  <S**2>=0.000
       8 ->  9         0.70350
 This state for optimization and/or second-order correction.
 Total Energy, E(TD-HF/TD-DFT) =  -114.229024357
 Copying the excited state density for this state as the 1-particle RhoCI density.

 Excited State   2:      Singlet-B2     7.4577 eV  166.25 nm  f=0.0264  <S**2>=0.000
       8 -> 10         0.69708

 Excited State   3:      Singlet-B2     8.9003 eV  139.30 nm  f=0.0601  <S**2>=0.000
       8 -> 12         0.68682
       8 -> 14        -0.12335

 Excited State   4:      Singlet-A1     9.0113 eV  137.59 nm  f=0.1071  <S**2>=0.000
       8 -> 11         0.70318

 Excited State   5:      Singlet-B1     9.2493 eV  134.05 nm  f=0.0004  <S**2>=0.000
       6 ->  9         0.70137

 Excited State   6:      Singlet-A2     9.5234 eV  130.19 nm  f=0.0000  <S**2>=0.000
       8 -> 13         0.70379

 Excited State   7:      Singlet-A1     9.7186 eV  127.57 nm  f=0.1010  <S**2>=0.000
       7 ->  9         0.64485
       8 -> 16        -0.25668

 Excited State   8:      Singlet-B2    10.2378 eV  121.10 nm  f=0.0352  <S**2>=0.000
       8 -> 12         0.12931
       8 -> 14         0.68898

 Excited State   9:      Singlet-A2    10.3172 eV  120.17 nm  f=0.0000  <S**2>=0.000
       5 ->  9         0.70166

 Excited State  10:      Singlet-B2    10.8876 eV  113.88 nm  f=0.0311  <S**2>=0.000
       8 -> 15         0.70158

 Excited State  11:      Singlet-B1    11.1776 eV  110.92 nm  f=0.0483  <S**2>=0.000
       7 -> 10         0.69536

 Excited State  12:      Singlet-A1    11.8124 eV  104.96 nm  f=0.2176  <S**2>=0.000
       6 -> 10        -0.15558
       7 ->  9         0.23178
       7 -> 13        -0.12219
       8 -> 16         0.62773

 Excited State  13:      Singlet-B1    11.9363 eV  103.87 nm  f=0.0171  <S**2>=0.000
       8 -> 17         0.69917

 Excited State  14:      Singlet-A2    12.6265 eV   98.19 nm  f=0.0000  <S**2>=0.000
       7 -> 11         0.70225

 Excited State  15:      Singlet-B1    12.6757 eV   97.81 nm  f=0.0562  <S**2>=0.000
       7 -> 12         0.68986

 Excited State  16:      Singlet-A1    12.8223 eV   96.69 nm  f=0.0312  <S**2>=0.000
       6 -> 10         0.65618
       7 -> 13        -0.19333
       8 -> 16         0.10878

 Excited State  17:      Singlet-A2    12.8634 eV   96.39 nm  f=0.0000  <S**2>=0.000
       8 -> 18         0.69739

 Excited State  18:      Singlet-A1    13.4930 eV   91.89 nm  f=0.0001  <S**2>=0.000
       6 -> 10         0.15924
       7 -> 13         0.65369
       8 -> 16         0.13723

 Excited State  19:      Singlet-B2    13.6629 eV   90.74 nm  f=0.1588  <S**2>=0.000
       5 -> 10         0.69616

 Excited State  20:      Singlet-B1    13.8992 eV   89.20 nm  f=0.0053  <S**2>=0.000
       7 -> 14         0.66435
       7 -> 15        -0.18747

 Excited State  21:      Singlet-A1    13.9548 eV   88.85 nm  f=0.1973  <S**2>=0.000
       6 -> 12         0.69258

 Excited State  22:      Singlet-B2    14.0713 eV   88.11 nm  f=0.0415  <S**2>=0.000
       6 -> 11         0.69870

 Excited State  23:      Singlet-B1    14.3563 eV   86.36 nm  f=0.0121  <S**2>=0.000
       4 ->  9         0.31209
       7 -> 14         0.20633
       7 -> 15         0.58917

 Excited State  24:      Singlet-B1    14.5472 eV   85.23 nm  f=0.0198  <S**2>=0.000
       6 -> 13         0.69551

 Excited State  25:      Singlet-B2    14.6267 eV   84.77 nm  f=0.0101  <S**2>=0.000
       5 -> 12        -0.16401
       8 -> 19         0.66765
       8 -> 21         0.10179

 Excited State  26:      Singlet-A2    14.6554 eV   84.60 nm  f=0.0000  <S**2>=0.000
       7 -> 16         0.69993

 Excited State  27:      Singlet-A1    14.9000 eV   83.21 nm  f=0.2127  <S**2>=0.000
       6 -> 14        -0.10917
       8 -> 20         0.68486

 Excited State  28:      Singlet-B2    15.2992 eV   81.04 nm  f=0.0294  <S**2>=0.000
       5 -> 12         0.49936
       5 -> 14        -0.11242
       5 -> 15        -0.12097
       7 -> 17        -0.20401
       8 -> 19         0.20116
       8 -> 21        -0.36319

 Excited State  29:      Singlet-A1    15.3951 eV   80.54 nm  f=0.0231  <S**2>=0.000
       5 -> 11         0.24125
       6 -> 14         0.63550

 Excited State  30:      Singlet-B2    15.4243 eV   80.38 nm  f=0.0174  <S**2>=0.000
       5 -> 12         0.40905
       7 -> 17         0.14517
       8 -> 21         0.52324
       8 -> 22         0.11915

 Excited State  31:      Singlet-B1    15.4278 eV   80.36 nm  f=0.2518  <S**2>=0.000
       4 ->  9         0.59246
       5 -> 17        -0.12106
       6 -> 13         0.10629
       7 -> 15        -0.31913
       8 -> 24        -0.11636

 Excited State  32:      Singlet-A1    15.6993 eV   78.97 nm  f=0.0005  <S**2>=0.000
       5 -> 11         0.55696
       6 -> 14        -0.20966
       6 -> 15         0.34371

 Excited State  33:      Singlet-B2    15.7138 eV   78.90 nm  f=0.0830  <S**2>=0.000
       5 -> 14         0.12096
       5 -> 15        -0.13565
       6 -> 16         0.12806
       7 -> 17         0.62110
       8 -> 21        -0.22086

 Excited State  34:      Singlet-A1    15.8974 eV   77.99 nm  f=0.0126  <S**2>=0.000
       5 -> 11        -0.28602
       6 -> 14         0.12200
       6 -> 15         0.59788
       8 -> 23         0.13610

 Excited State  35:      Singlet-A2    16.0069 eV   77.46 nm  f=0.0000  <S**2>=0.000
       5 -> 13         0.69364

 Excited State  36:      Singlet-B2    16.0925 eV   77.04 nm  f=0.0016  <S**2>=0.000
       6 -> 16         0.66832
       8 -> 22        -0.10604

 Excited State  37:      Singlet-B2    16.3612 eV   75.78 nm  f=0.1444  <S**2>=0.000
       5 -> 14         0.11488
       6 -> 16         0.11567
       7 -> 17        -0.12919
       8 -> 22         0.65686

 Excited State  38:      Singlet-A1    16.6678 eV   74.39 nm  f=0.0698  <S**2>=0.000
       5 -> 11         0.11627
       5 -> 16        -0.10342
       7 -> 18        -0.21993
       8 -> 23         0.62224

 Excited State  39:      Singlet-A1    16.8377 eV   73.63 nm  f=0.0300  <S**2>=0.000
       4 -> 10        -0.10835
       5 -> 16         0.21225
       7 -> 18         0.59242
       8 -> 23         0.25483

 Excited State  40:      Singlet-B2    16.8570 eV   73.55 nm  f=0.2745  <S**2>=0.000
       5 -> 12         0.11844
       5 -> 14         0.61470
       5 -> 15        -0.15329
       7 -> 17        -0.13152
       8 -> 21         0.10327
       8 -> 22        -0.16160
       8 -> 26        -0.11157

 Excited State  41:      Singlet-B1    16.8644 eV   73.52 nm  f=0.1754  <S**2>=0.000
       4 ->  9         0.10427
       8 -> 24         0.68790

 Excited State  42:      Singlet-A2    17.1202 eV   72.42 nm  f=0.0000  <S**2>=0.000
       6 -> 17         0.69808

 Excited State  43:      Singlet-B2    17.3582 eV   71.43 nm  f=0.0687  <S**2>=0.000
       5 -> 12         0.15582
       5 -> 14         0.11583
       5 -> 15         0.60379
       8 -> 26        -0.27032

 Excited State  44:      Singlet-A2    17.3904 eV   71.29 nm  f=0.0000  <S**2>=0.000
       8 -> 25         0.70257

 Excited State  45:      Singlet-A1    17.4013 eV   71.25 nm  f=0.0000  <S**2>=0.000
       4 -> 10         0.54025
       5 -> 16         0.43290

 Excited State  46:      Singlet-B2    17.5649 eV   70.59 nm  f=0.0037  <S**2>=0.000
       5 -> 14         0.17649
       5 -> 15         0.23061
       8 -> 26         0.61893

 Excited State  47:      Singlet-A1    17.9857 eV   68.93 nm  f=0.0469  <S**2>=0.000
       4 -> 10        -0.40266
       5 -> 16         0.48485
       7 -> 18        -0.24735

 Excited State  48:      Singlet-B1    18.0433 eV   68.71 nm  f=0.0396  <S**2>=0.000
       4 -> 13         0.14166
       5 -> 17         0.12766
       6 -> 18         0.66975

 Excited State  49:      Singlet-B1    18.2702 eV   67.86 nm  f=0.1974  <S**2>=0.000
       5 -> 17         0.62706
       6 -> 18        -0.14874
       7 -> 19        -0.21234
       7 -> 21        -0.11557

 Excited State  50:      Singlet-B1    18.4218 eV   67.30 nm  f=0.0014  <S**2>=0.000
       5 -> 17         0.20493
       7 -> 19         0.66126

 Excited State  51:      Singlet-A2    18.5230 eV   66.94 nm  f=0.0000  <S**2>=0.000
       7 -> 20         0.70306

 Excited State  52:      Singlet-A1    18.9751 eV   65.34 nm  f=0.0935  <S**2>=0.000
       4 -> 12         0.61257
       4 -> 14        -0.21172
       6 -> 19         0.10160
       8 -> 27         0.20408

 Excited State  53:      Singlet-B2    18.9998 eV   65.26 nm  f=0.0088  <S**2>=0.000
       4 -> 11         0.67967
       4 -> 16         0.12260

 Excited State  54:      Singlet-B1    19.0438 eV   65.10 nm  f=0.0970  <S**2>=0.000
       7 -> 21         0.67733

 Excited State  55:      Singlet-A2    19.0752 eV   65.00 nm  f=0.0000  <S**2>=0.000
       5 -> 18         0.69320

 Excited State  56:      Singlet-A1    19.6212 eV   63.19 nm  f=0.0109  <S**2>=0.000
       4 -> 12        -0.20270
       6 -> 19         0.43569
       6 -> 21         0.11803
       6 -> 26         0.10521
       8 -> 27         0.46426

 Excited State  57:      Singlet-B1    19.7781 eV   62.69 nm  f=0.0000  <S**2>=0.000
       4 -> 13         0.66394
       6 -> 18        -0.12406
       7 -> 22         0.12828

 Excited State  58:      Singlet-B2    19.9570 eV   62.13 nm  f=0.0236  <S**2>=0.000
       4 -> 16         0.14070
       6 -> 20         0.68381

 Excited State  59:      Singlet-A1    20.0741 eV   61.76 nm  f=0.0360  <S**2>=0.000
       4 -> 12         0.12646
       4 -> 14         0.53248
       4 -> 15        -0.33986
       6 -> 19        -0.22468
       8 -> 27         0.10744

 Excited State  60:      Singlet-A2    20.1305 eV   61.59 nm  f=0.0000  <S**2>=0.000
       7 -> 23         0.69671

 Excited State  61:      Singlet-B1    20.3356 eV   60.97 nm  f=0.1129  <S**2>=0.000
       4 -> 13        -0.11815
       7 -> 22         0.67205

 Excited State  62:      Singlet-A1    20.4513 eV   60.62 nm  f=0.0436  <S**2>=0.000
       4 -> 14         0.17014
       4 -> 15        -0.14046
       6 -> 19         0.43968
       6 -> 21        -0.27752
       7 -> 25         0.24551
       8 -> 27        -0.28906

 Excited State  63:      Singlet-B2    20.6049 eV   60.17 nm  f=0.0558  <S**2>=0.000
       4 -> 16        -0.10866
       7 -> 24         0.67113

 Excited State  64:      Singlet-B2    20.6199 eV   60.13 nm  f=0.0045  <S**2>=0.000
       5 -> 19         0.12131
       8 -> 26        -0.10607
       8 -> 28         0.64157
       8 -> 30         0.19887

 Excited State  65:      Singlet-A1    20.6808 eV   59.95 nm  f=0.0357  <S**2>=0.000
       4 -> 15        -0.20183
       5 -> 20        -0.10933
       6 -> 21         0.57356
       6 -> 22         0.12010
       7 -> 25         0.19345
       8 -> 27        -0.18534

 Excited State  66:      Singlet-B2    20.9420 eV   59.20 nm  f=0.0315  <S**2>=0.000
       4 -> 11         0.10150
       4 -> 16        -0.37888
       5 -> 19         0.55275
       7 -> 24        -0.10251

 Excited State  67:      Singlet-A1    21.0200 eV   58.98 nm  f=0.0076  <S**2>=0.000
       4 -> 12         0.16584
       4 -> 14         0.26791
       4 -> 15         0.51025
       5 -> 20        -0.23387
       6 -> 22         0.12081
       7 -> 25         0.21110

 Excited State  68:      Singlet-B2    21.1046 eV   58.75 nm  f=0.0623  <S**2>=0.000
       4 -> 16         0.53314
       5 -> 19         0.40091
       6 -> 20        -0.10317
       8 -> 28        -0.13996

 Excited State  69:      Singlet-A1    21.1540 eV   58.61 nm  f=0.0012  <S**2>=0.000
       4 -> 14         0.16713
       4 -> 15         0.12507
       5 -> 20         0.61010
       8 -> 29        -0.19784

 Excited State  70:      Singlet-B1    21.2901 eV   58.24 nm  f=0.0039  <S**2>=0.000
       7 -> 26         0.67614
       7 -> 28         0.11024

 Excited State  71:      Singlet-A1    21.4846 eV   57.71 nm  f=0.0036  <S**2>=0.000
       4 -> 14        -0.15266
       4 -> 15        -0.11585
       6 -> 19        -0.17764
       6 -> 21        -0.12898
       6 -> 26         0.18862
       7 -> 25         0.54863
       8 -> 27         0.18509
       8 -> 29        -0.15631

 Excited State  72:      Singlet-A2    21.5462 eV   57.54 nm  f=0.0000  <S**2>=0.000
       4 -> 17         0.61875
       6 -> 24        -0.31111
       8 -> 31         0.10233

 Excited State  73:      Singlet-B2    21.5826 eV   57.45 nm  f=0.0003  <S**2>=0.000
       5 -> 21         0.54333
       6 -> 23         0.29983
       8 -> 30         0.29341

 Excited State  74:      Singlet-A1    21.6102 eV   57.37 nm  f=0.0152  <S**2>=0.000
       4 -> 15        -0.11023
       6 -> 21        -0.16851
       6 -> 22         0.66102

 Excited State  75:      Singlet-B2    21.6217 eV   57.34 nm  f=0.0048  <S**2>=0.000
       5 -> 21         0.39994
       5 -> 22         0.14566
       6 -> 23        -0.36525
       8 -> 28         0.14620
       8 -> 30        -0.38971

 Excited State  76:      Singlet-A2    21.7784 eV   56.93 nm  f=0.0000  <S**2>=0.000
       8 -> 31         0.69349

 Excited State  77:      Singlet-B2    21.8877 eV   56.65 nm  f=0.0757  <S**2>=0.000
       5 -> 22         0.13357
       6 -> 23         0.48579
       8 -> 28         0.12698
       8 -> 30        -0.41100
       8 -> 32         0.16985

 Excited State  78:      Singlet-A2    22.0596 eV   56.20 nm  f=0.0000  <S**2>=0.000
       4 -> 17         0.31856
       6 -> 24         0.61887

 Excited State  79:      Singlet-A1    22.1874 eV   55.88 nm  f=0.0998  <S**2>=0.000
       5 -> 20         0.20470
       7 -> 25         0.13888
       8 -> 29         0.64057

 Excited State  80:      Singlet-B1    22.5486 eV   54.99 nm  f=0.0094  <S**2>=0.000
       4 -> 18        -0.26591
       6 -> 25         0.64365

 Excited State  81:      Singlet-B2    22.7739 eV   54.44 nm  f=0.1448  <S**2>=0.000
       5 -> 21        -0.15427
       5 -> 22         0.64644
       5 -> 26         0.11806
       8 -> 30         0.12294

 Excited State  82:      Singlet-B1    22.7823 eV   54.42 nm  f=0.0055  <S**2>=0.000
       4 -> 18         0.63265
       6 -> 25         0.27690

 Excited State  83:      Singlet-A2    22.8402 eV   54.28 nm  f=0.0000  <S**2>=0.000
       7 -> 27         0.69960

 Excited State  84:      Singlet-A1    23.2316 eV   53.37 nm  f=0.0892  <S**2>=0.000
       5 -> 23         0.65794
       7 -> 31        -0.10002

 Excited State  85:      Singlet-B1    23.2398 eV   53.35 nm  f=0.0983  <S**2>=0.000
       5 -> 24         0.68341

 Excited State  86:      Singlet-B2    23.2614 eV   53.30 nm  f=0.1830  <S**2>=0.000
       5 -> 22        -0.11811
       5 -> 26         0.13129
       8 -> 32         0.65412

 Excited State  87:      Singlet-A2    23.7168 eV   52.28 nm  f=0.0000  <S**2>=0.000
       5 -> 25         0.69976

 Excited State  88:      Singlet-A1    23.8571 eV   51.97 nm  f=0.4456  <S**2>=0.000
       4 -> 19         0.17715
       6 -> 26         0.59011
       6 -> 28         0.10787
       8 -> 27        -0.16689

 Excited State  89:      Singlet-B2    24.1074 eV   51.43 nm  f=0.0403  <S**2>=0.000
       4 -> 20        -0.14230
       5 -> 26         0.48882
       6 -> 27         0.46575

 Excited State  90:      Singlet-B1    24.2381 eV   51.15 nm  f=0.0013  <S**2>=0.000
       3 ->  9        -0.13290
       7 -> 26        -0.12139
       7 -> 28         0.65471
       7 -> 30         0.15988

 Excited State  91:      Singlet-B2    24.4703 eV   50.67 nm  f=0.1712  <S**2>=0.000
       4 -> 20        -0.13954
       5 -> 26        -0.43515
       6 -> 27         0.46792
       6 -> 29         0.10565
       8 -> 32         0.13157

 Excited State  92:      Singlet-B1    24.6191 eV   50.36 nm  f=0.0579  <S**2>=0.000
       3 ->  9        -0.10222
       7 -> 28         0.11528
       7 -> 30        -0.16865
       8 -> 33         0.65532

 Excited State  93:      Singlet-B2    24.7745 eV   50.05 nm  f=0.0037  <S**2>=0.000
       4 -> 20         0.66657
       6 -> 27         0.18506

 Excited State  94:      Singlet-A1    24.7750 eV   50.04 nm  f=0.0112  <S**2>=0.000
       4 -> 19         0.61975
       4 -> 21         0.17909
       5 -> 27        -0.19706
       6 -> 26        -0.10779

 Excited State  95:      Singlet-A2    25.2816 eV   49.04 nm  f=0.0000  <S**2>=0.000
       8 -> 34         0.69671

 Excited State  96:      Singlet-A2    25.3490 eV   48.91 nm  f=0.0000  <S**2>=0.000
       7 -> 29         0.70309

 Excited State  97:      Singlet-B1    25.3977 eV   48.82 nm  f=0.1151  <S**2>=0.000
       3 ->  9        -0.13648
       6 -> 31         0.12618
       7 -> 28        -0.15623
       7 -> 30         0.61929
       7 -> 32         0.16089
       8 -> 33         0.14965

 Excited State  98:      Singlet-A1    25.4368 eV   48.74 nm  f=0.0853  <S**2>=0.000
       4 -> 21        -0.37159
       4 -> 22        -0.17387
       6 -> 26        -0.10504
       6 -> 28         0.40529
       6 -> 30         0.16972
       7 -> 31        -0.32697

 Excited State  99:      Singlet-A1    25.6194 eV   48.39 nm  f=0.0023  <S**2>=0.000
       4 -> 19        -0.12414
       4 -> 21         0.47739
       4 -> 22         0.11124
       6 -> 28         0.20912
       7 -> 31        -0.40053

 Excited State 100:      Singlet-A1    26.0316 eV   47.63 nm  f=0.0079  <S**2>=0.000
       4 -> 19         0.16525
       5 -> 27         0.60010
       6 -> 28        -0.22487
       6 -> 30         0.16327

 Excited State 101:      Singlet-B1    26.1393 eV   47.43 nm  f=0.0018  <S**2>=0.000
       3 ->  9         0.62515
       7 -> 28         0.13374
       7 -> 32         0.25028

 Excited State 102:      Singlet-A1    26.1745 eV   47.37 nm  f=0.0277  <S**2>=0.000
       4 -> 21        -0.13186
       4 -> 22         0.60626
       6 -> 28         0.24603
       6 -> 32        -0.10627
       7 -> 31         0.14931

 Excited State 103:      Singlet-B2    26.3428 eV   47.07 nm  f=0.0216  <S**2>=0.000
       4 -> 23         0.69084

 Excited State 104:      Singlet-A1    26.3711 eV   47.02 nm  f=0.0050  <S**2>=0.000
       4 -> 21         0.20069
       4 -> 22        -0.23509
       5 -> 27         0.26642
       6 -> 26        -0.11941
       6 -> 28         0.36807
       6 -> 30        -0.21281
       7 -> 31         0.32106

 Excited State 105:      Singlet-B1    26.5407 eV   46.71 nm  f=0.0015  <S**2>=0.000
       3 ->  9        -0.13446
       6 -> 31        -0.43146
       7 -> 32         0.53085

 Excited State 106:      Singlet-A2    26.6757 eV   46.48 nm  f=0.0000  <S**2>=0.000
       4 -> 24         0.69855

 Excited State 107:      Singlet-B2    26.8373 eV   46.20 nm  f=0.1367  <S**2>=0.000
       5 -> 28         0.29112
       6 -> 29         0.61956

 Excited State 108:      Singlet-B1    27.1973 eV   45.59 nm  f=0.3758  <S**2>=0.000
       3 ->  9        -0.11167
       4 -> 25        -0.41805
       6 -> 31         0.43088
       7 -> 30        -0.15732
       7 -> 32         0.27993
       8 -> 33        -0.10560

 Excited State 109:      Singlet-B2    27.2045 eV   45.57 nm  f=0.1076  <S**2>=0.000
       5 -> 26        -0.12279
       5 -> 28         0.62405
       6 -> 29        -0.26441

 Excited State 110:      Singlet-A1    27.2273 eV   45.54 nm  f=0.3389  <S**2>=0.000
       4 -> 26         0.18896
       5 -> 29        -0.14118
       6 -> 30         0.57705
       7 -> 31         0.18446
       7 -> 34        -0.15139

 Excited State 111:      Singlet-B1    27.4820 eV   45.11 nm  f=0.1289  <S**2>=0.000
       3 ->  9        -0.13811
       4 -> 25         0.56305
       6 -> 31         0.29908
       7 -> 30        -0.11787
       7 -> 32         0.20916

 Excited State 112:      Singlet-A1    27.8539 eV   44.51 nm  f=0.0552  <S**2>=0.000
       4 -> 26         0.26516
       6 -> 32         0.62953

 Excited State 113:      Singlet-A1    27.9499 eV   44.36 nm  f=0.0214  <S**2>=0.000
       4 -> 26         0.54874
       5 -> 29         0.29588
       6 -> 32        -0.26864

 Excited State 114:      Singlet-B2    28.2131 eV   43.95 nm  f=0.0711  <S**2>=0.000
       5 -> 30        -0.41872
       7 -> 33         0.54752

 Excited State 115:      Singlet-B2    28.3669 eV   43.71 nm  f=0.0586  <S**2>=0.000
       5 -> 30         0.55619
       7 -> 33         0.40577

 Excited State 116:      Singlet-A2    28.5937 eV   43.36 nm  f=0.0000  <S**2>=0.000
       5 -> 31         0.69597

 Excited State 117:      Singlet-A1    28.8447 eV   42.98 nm  f=0.0002  <S**2>=0.000
       4 -> 26        -0.25570
       5 -> 29         0.56290
       6 -> 30         0.12339
       7 -> 34        -0.25255

 Excited State 118:      Singlet-A1    29.1641 eV   42.51 nm  f=0.0001  <S**2>=0.000
       3 -> 10         0.67377
       7 -> 34        -0.15774

 Excited State 119:      Singlet-B2    29.4100 eV   42.16 nm  f=0.0158  <S**2>=0.000
       4 -> 27         0.63049
       5 -> 32         0.23900
       8 -> 35        -0.17370

 Excited State 120:      Singlet-A2    29.4209 eV   42.14 nm  f=0.0000  <S**2>=0.000
       6 -> 33         0.69947

 Excited State 121:      Singlet-B2    29.5658 eV   41.93 nm  f=0.0023  <S**2>=0.000
       4 -> 27        -0.17087
       5 -> 32         0.63455
       8 -> 35         0.20125
       8 -> 37        -0.12604

 Excited State 122:      Singlet-A1    29.6450 eV   41.82 nm  f=0.0004  <S**2>=0.000
       3 -> 10         0.13502
       5 -> 29         0.20015
       6 -> 30         0.11791
       7 -> 34         0.58471
       8 -> 36        -0.15162

 The electronic state is 1-A1.
 Alpha  occ. eigenvalues --  -19.24049 -10.37022  -1.14629  -0.71090  -0.57973
 Alpha  occ. eigenvalues --   -0.53309  -0.48303  -0.34501
 Alpha virt. eigenvalues --   -0.00516   0.05150   0.11299   0.11854   0.13703
 Alpha virt. eigenvalues --    0.15990   0.18588   0.18901   0.23236   0.26745
 Alpha virt. eigenvalues --    0.32444   0.33274   0.35617   0.39071   0.39940

 Mulliken charges:
               1
     1  C    0.616483
     2  O   -0.265799
     3  H   -0.175342
     4  H   -0.175342
 Sum of Mulliken charges =   0.00000

 Dipole moment (field-independent basis, Debye):
    X=              0.0000    Y=             -0.0000    Z=             -2.4872  Tot=              2.4872
 Quadrupole moment (field-independent basis, Debye-Ang):
   XX=            -11.7622   YY=            -11.7369   ZZ=            -12.4351
   XY=             -0.0000   XZ=             -0.0000   YZ=              0.0000

 Normal termination of Gaussian 16 at Mon Mar 21 20:07:35 2022.
