 Gaussian 16, Revision C.01,
 Gaussian 16:  EM64L-G16RevC.01  3-Jul-2019

 ----------------------------------------------------------------------
 #P TD(Nstates=10000) cam-b3lyp/Gen SCF(maxcycles=100) Int(Grid=ultrafi
 ne)
 ----------------------------------------------------------------------

 ---------------------
 xGDB7_00001_tier4.com
 ---------------------
 Symbolic Z-matrix:
 Charge =  0 Multiplicity = 1

                         Standard orientation:
 ---------------------------------------------------------------------
 Center     Atomic      Atomic             Coordinates (Angstroms)
 Number     Number       Type             X           Y           Z
 ---------------------------------------------------------------------
      1          6           0        0.000000    1.163894   -0.193136
      2          8           0       -0.000000   -0.000000    0.585449
      3          6           0       -0.000000   -1.163894   -0.193136
      4          1           0        0.000000    2.015478    0.485827
      5          1           0       -0.890390    1.219204   -0.834404
      6          1           0        0.890390    1.219204   -0.834404
      7          1           0       -0.000000   -2.015478    0.485827
      8          1           0        0.890390   -1.219204   -0.834404
      9          1           0       -0.890390   -1.219204   -0.834404
 ---------------------------------------------------------------------

 SCF Done:  E(RCAM-B3LYP) =  -154.845051844     A.U. after   12 cycles

 Excitation energies and oscillator strengths:

 Excited State   1:      Singlet-B1     7.1217 eV  174.09 nm  f=0.0267  <S**2>=0.000
      13 -> 14         0.67536
      13 -> 16        -0.15332
      13 -> 18        -0.12408
 This state for optimization and/or second-order correction.
 Total Energy, E(TD-HF/TD-DFT) =  -154.583334365
 Copying the excited state density for this state as the 1-particle RhoCI density.

 Excited State   2:      Singlet-A2     8.1502 eV  152.12 nm  f=0.0000  <S**2>=0.000
      13 -> 15         0.69825

 Excited State   3:      Singlet-B1     8.1968 eV  151.26 nm  f=0.0326  <S**2>=0.000
      13 -> 14         0.18397
      13 -> 16         0.64139
      13 -> 18         0.20520

 Excited State   4:      Singlet-A1     8.7608 eV  141.52 nm  f=0.0341  <S**2>=0.000
      12 -> 14        -0.20601
      13 -> 17         0.66729

 Excited State   5:      Singlet-B1     8.8217 eV  140.54 nm  f=0.0255  <S**2>=0.000
      13 -> 16        -0.23319
      13 -> 18         0.65419

 Excited State   6:      Singlet-A1     8.8617 eV  139.91 nm  f=0.0341  <S**2>=0.000
      12 -> 14         0.62830
      12 -> 16        -0.19409
      13 -> 17         0.21693

 Excited State   7:      Singlet-A2     9.5293 eV  130.11 nm  f=0.0000  <S**2>=0.000
      13 -> 19         0.69077

 Excited State   8:      Singlet-B2     9.7241 eV  127.50 nm  f=0.0006  <S**2>=0.000
      11 -> 14         0.28633
      12 -> 15         0.63720

 Excited State   9:      Singlet-A1     9.8060 eV  126.44 nm  f=0.0511  <S**2>=0.000
      12 -> 14         0.18518
      12 -> 16         0.60645
      12 -> 18         0.15202
      13 -> 20         0.23352

 Excited State  10:      Singlet-B1     9.8120 eV  126.36 nm  f=0.0018  <S**2>=0.000
      13 -> 21         0.68886
      13 -> 23         0.11662

 Excited State  11:      Singlet-A1    10.0957 eV  122.81 nm  f=0.0772  <S**2>=0.000
      12 -> 14        -0.10743
      12 -> 16        -0.19527
      13 -> 20         0.65381

 Excited State  12:      Singlet-B2    10.4449 eV  118.70 nm  f=0.0136  <S**2>=0.000
      11 -> 14        -0.34374
      12 -> 15         0.18162
      13 -> 22         0.55831

 Excited State  13:      Singlet-B1    10.4490 eV  118.66 nm  f=0.0582  <S**2>=0.000
      12 -> 17         0.70052

 Excited State  14:      Singlet-B2    10.5175 eV  117.88 nm  f=0.1598  <S**2>=0.000
      11 -> 14         0.50317
      11 -> 18        -0.14265
      12 -> 15        -0.20993
      13 -> 22         0.40410

 Excited State  15:      Singlet-A1    10.5550 eV  117.46 nm  f=0.0046  <S**2>=0.000
      12 -> 16        -0.18643
      12 -> 18         0.66241

 Excited State  16:      Singlet-A2    10.7401 eV  115.44 nm  f=0.0000  <S**2>=0.000
      10 -> 14         0.64210
      10 -> 18        -0.17735
      13 -> 24        -0.16550

 Excited State  17:      Singlet-B1    11.0076 eV  112.63 nm  f=0.0018  <S**2>=0.000
      13 -> 21        -0.12061
      13 -> 23         0.68362

 Excited State  18:      Singlet-B2    11.0764 eV  111.94 nm  f=0.0311  <S**2>=0.000
      11 -> 14        -0.12116
      11 -> 16        -0.30903
      12 -> 19         0.59688

 Excited State  19:      Singlet-A2    11.1529 eV  111.17 nm  f=0.0000  <S**2>=0.000
      10 -> 14         0.20706
      13 -> 24         0.64362
      13 -> 27        -0.10647

 Excited State  20:      Singlet-A1    11.3420 eV  109.31 nm  f=0.0234  <S**2>=0.000
       9 -> 14        -0.15183
      11 -> 15         0.65525
      12 -> 14        -0.10548
      12 -> 18        -0.10063

 Excited State  21:      Singlet-B2    11.3566 eV  109.17 nm  f=0.0003  <S**2>=0.000
      13 -> 22         0.10309
      13 -> 25         0.68053

 Excited State  22:      Singlet-B1    11.4842 eV  107.96 nm  f=0.0151  <S**2>=0.000
      12 -> 20         0.69300

 Excited State  23:      Singlet-B2    11.6139 eV  106.76 nm  f=0.2031  <S**2>=0.000
      11 -> 14         0.13158
      11 -> 16         0.44076
      11 -> 18         0.36653
      12 -> 19         0.32894
      13 -> 25        -0.10932

 Excited State  24:      Singlet-A1    11.6976 eV  105.99 nm  f=0.0758  <S**2>=0.000
      12 -> 21         0.68229

 Excited State  25:      Singlet-B1    11.7458 eV  105.56 nm  f=0.1307  <S**2>=0.000
       8 -> 14        -0.17470
      10 -> 15         0.66525

 Excited State  26:      Singlet-A2    11.8122 eV  104.96 nm  f=0.0000  <S**2>=0.000
      11 -> 17         0.51937
      12 -> 22        -0.45235

 Excited State  27:      Singlet-A2    11.9495 eV  103.76 nm  f=0.0000  <S**2>=0.000
      10 -> 16        -0.38053
      10 -> 18        -0.12325
      13 -> 24         0.18656
      13 -> 27         0.47793
      13 -> 28        -0.15660

 Excited State  28:      Singlet-A2    12.0194 eV  103.15 nm  f=0.0000  <S**2>=0.000
      10 -> 16         0.45177
      10 -> 18         0.24010
      13 -> 27         0.42752

 Excited State  29:      Singlet-B2    12.1764 eV  101.82 nm  f=0.1305  <S**2>=0.000
      10 -> 17         0.16672
      11 -> 16        -0.38791
      11 -> 18         0.52106
      12 -> 24         0.13353

 Excited State  30:      Singlet-A1    12.2894 eV  100.89 nm  f=0.0159  <S**2>=0.000
      11 -> 19        -0.10541
      12 -> 23         0.25463
      13 -> 26         0.62470

 Excited State  31:      Singlet-A2    12.3285 eV  100.57 nm  f=0.0000  <S**2>=0.000
      10 -> 16         0.15022
      11 -> 17         0.43537
      12 -> 22         0.50475
      12 -> 25        -0.12651

 Excited State  32:      Singlet-A2    12.6739 eV   97.83 nm  f=0.0000  <S**2>=0.000
      10 -> 14         0.10335
      10 -> 16        -0.28395
      10 -> 18         0.57619
      12 -> 25         0.10243
      13 -> 24        -0.10820

 Excited State  33:      Singlet-B2    12.6809 eV   97.77 nm  f=0.0092  <S**2>=0.000
      10 -> 17         0.64178
      11 -> 16         0.13719
      11 -> 18        -0.13526

 Excited State  34:      Singlet-A2    12.7342 eV   97.36 nm  f=0.0000  <S**2>=0.000
      10 -> 21        -0.22950
      11 -> 20        -0.36218
      12 -> 22         0.10581
      12 -> 25         0.47124
      13 -> 28        -0.22224

 Excited State  35:      Singlet-A1    12.9181 eV   95.98 nm  f=0.1311  <S**2>=0.000
       9 -> 14        -0.13623
       9 -> 16         0.15982
      11 -> 19         0.50027
      11 -> 24        -0.10567
      12 -> 23        -0.31538
      13 -> 26         0.22516

 Excited State  36:      Singlet-B2    12.9336 eV   95.86 nm  f=0.0062  <S**2>=0.000
      10 -> 17        -0.10170
      11 -> 18        -0.13697
      11 -> 21        -0.17629
      12 -> 24         0.64318

 Excited State  37:      Singlet-A1    13.0869 eV   94.74 nm  f=0.0234  <S**2>=0.000
       9 -> 14        -0.21690
      11 -> 19         0.32889
      12 -> 23         0.53477
      13 -> 26        -0.15159

 Excited State  38:      Singlet-A2    13.0896 eV   94.72 nm  f=0.0000  <S**2>=0.000
      10 -> 18        -0.13734
      10 -> 21         0.19809
      11 -> 20        -0.11649
      12 -> 25         0.25892
      13 -> 27         0.19870
      13 -> 28         0.52995

 Excited State  39:      Singlet-B1    13.1593 eV   94.22 nm  f=0.0357  <S**2>=0.000
       8 -> 14         0.46196
       8 -> 16        -0.21242
      10 -> 19        -0.44816

 Excited State  40:      Singlet-B2    13.1723 eV   94.13 nm  f=0.0034  <S**2>=0.000
       7 -> 14        -0.23723
      10 -> 17        -0.10505
      11 -> 21         0.59378
      12 -> 24         0.16999
      12 -> 27         0.17576

 Excited State  41:      Singlet-A1    13.3051 eV   93.19 nm  f=0.0046  <S**2>=0.000
       9 -> 14         0.57983
       9 -> 18        -0.18437
      11 -> 15         0.12143
      11 -> 19         0.26862
      11 -> 24         0.10697

 Excited State  42:      Singlet-A2    13.3223 eV   93.06 nm  f=0.0000  <S**2>=0.000
      11 -> 20         0.54001
      12 -> 25         0.40646

 Excited State  43:      Singlet-B1    13.3331 eV   92.99 nm  f=0.0001  <S**2>=0.000
       9 -> 17         0.18620
      11 -> 22         0.58175
      12 -> 26         0.29814

 Excited State  44:      Singlet-B2    13.3656 eV   92.76 nm  f=0.0043  <S**2>=0.000
       7 -> 14         0.63456
      11 -> 21         0.23014

 Excited State  45:      Singlet-B1    13.3730 eV   92.71 nm  f=0.0551  <S**2>=0.000
       8 -> 14         0.45781
       8 -> 16         0.11456
       8 -> 18        -0.13682
      10 -> 15         0.15688
      10 -> 19         0.43761
      11 -> 22        -0.11662

 Excited State  46:      Singlet-B1    13.6238 eV   91.01 nm  f=0.0099  <S**2>=0.000
       8 -> 18         0.11072
      10 -> 19        -0.11783
      13 -> 29         0.45481
      13 -> 30        -0.45481
      13 -> 34        -0.13409

 Excited State  47:      Singlet-A2    13.6369 eV   90.92 nm  f=0.0000  <S**2>=0.000
       8 -> 15        -0.10743
      10 -> 21         0.59663
      11 -> 20        -0.18480
      13 -> 27        -0.14219
      13 -> 28        -0.20692

 Excited State  48:      Singlet-B2    13.6978 eV   90.51 nm  f=0.0106  <S**2>=0.000
       7 -> 14        -0.11989
      10 -> 17         0.10867
      10 -> 20         0.55555
      11 -> 23        -0.10781
      12 -> 27         0.31743
      12 -> 28        -0.13125

 Excited State  49:      Singlet-B2    13.8661 eV   89.42 nm  f=0.1669  <S**2>=0.000
       7 -> 16         0.10412
       9 -> 15        -0.12420
      10 -> 20        -0.34969
      11 -> 21        -0.17808
      11 -> 23        -0.13984
      12 -> 27         0.50898

 Excited State  50:      Singlet-B1    13.9500 eV   88.88 nm  f=0.0061  <S**2>=0.000
       9 -> 20         0.10760
      11 -> 22        -0.26344
      11 -> 25         0.26884
      12 -> 26         0.53991
      13 -> 30        -0.16028

 Excited State  51:      Singlet-A1    14.0387 eV   88.32 nm  f=0.0178  <S**2>=0.000
       7 -> 15         0.22610
       9 -> 14        -0.21644
       9 -> 16        -0.22499
       9 -> 18        -0.29087
      10 -> 22        -0.26468
      11 -> 24         0.39701

 Excited State  52:      Singlet-B1    14.1402 eV   87.68 nm  f=0.0746  <S**2>=0.000
      12 -> 26         0.15933
      13 -> 29         0.49621
      13 -> 30         0.42506

 Excited State  53:      Singlet-A1    14.2281 eV   87.14 nm  f=0.0007  <S**2>=0.000
       7 -> 15         0.53686
       8 -> 17         0.13862
      10 -> 22         0.38182

 Excited State  54:      Singlet-B2    14.2665 eV   86.91 nm  f=0.1253  <S**2>=0.000
       7 -> 16         0.20807
       9 -> 15         0.61484
      11 -> 23         0.11876
      12 -> 27         0.16104

 Excited State  55:      Singlet-B1    14.2687 eV   86.89 nm  f=0.0026  <S**2>=0.000
       8 -> 14         0.13442
       8 -> 16         0.34376
       8 -> 18         0.27576
       9 -> 20        -0.12270
      10 -> 19        -0.11458
      10 -> 24        -0.23342
      11 -> 25        -0.33104
      12 -> 26         0.23490

 Excited State  56:      Singlet-A2    14.2741 eV   86.86 nm  f=0.0000  <S**2>=0.000
       8 -> 15         0.65982
      13 -> 28        -0.13820

 Excited State  57:      Singlet-A1    14.4398 eV   85.86 nm  f=0.0448  <S**2>=0.000
       7 -> 15         0.28486
       9 -> 14         0.10928
       9 -> 16         0.45628
      10 -> 22        -0.33284
      11 -> 19        -0.17229
      12 -> 23         0.10198
      13 -> 31        -0.13631

 Excited State  58:      Singlet-B2    14.4841 eV   85.60 nm  f=0.2807  <S**2>=0.000
       7 -> 16         0.61270
       7 -> 18         0.14215
       9 -> 15        -0.19880
      10 -> 20         0.14336

 Excited State  59:      Singlet-B1    14.5362 eV   85.29 nm  f=0.0985  <S**2>=0.000
       8 -> 16         0.44139
       8 -> 21         0.10363
       9 -> 17         0.14842
      10 -> 19        -0.15887
      11 -> 25         0.39720
      12 -> 26        -0.13267
      13 -> 30         0.13699

 Excited State  60:      Singlet-B2    14.5943 eV   84.95 nm  f=0.1009  <S**2>=0.000
       9 -> 15        -0.13294
      11 -> 23         0.64463
      12 -> 27         0.14043

 Excited State  61:      Singlet-A2    14.6900 eV   84.40 nm  f=0.0000  <S**2>=0.000
       7 -> 17        -0.10025
       8 -> 19         0.14192
      10 -> 23         0.37176
      13 -> 28         0.14518
      13 -> 33         0.51342

 Excited State  62:      Singlet-A1    14.6958 eV   84.37 nm  f=0.0907  <S**2>=0.000
       7 -> 15         0.13744
       8 -> 17         0.15052
       9 -> 16        -0.11265
      10 -> 22        -0.20564
      11 -> 24        -0.25940
      11 -> 27         0.15367
      13 -> 31         0.51133

 Excited State  63:      Singlet-A1    14.7834 eV   83.87 nm  f=0.0450  <S**2>=0.000
       8 -> 17        -0.23531
       9 -> 16         0.31137
      10 -> 22         0.21086
      10 -> 25        -0.11317
      11 -> 24         0.24262
      11 -> 27        -0.12415
      13 -> 31         0.44263

 Excited State  64:      Singlet-A2    14.8340 eV   83.58 nm  f=0.0000  <S**2>=0.000
       7 -> 17         0.67713
       7 -> 20        -0.12183

 Excited State  65:      Singlet-B1    14.8804 eV   83.32 nm  f=0.0436  <S**2>=0.000
       9 -> 17        -0.31240
      10 -> 24         0.16284
      10 -> 27         0.10973
      11 -> 22         0.10308
      13 -> 32         0.55720

 Excited State  66:      Singlet-B1    14.8865 eV   83.29 nm  f=0.1443  <S**2>=0.000
       8 -> 16        -0.27493
       8 -> 18         0.33147
       9 -> 17         0.17545
      10 -> 19         0.12264
      10 -> 24        -0.27582
      11 -> 25         0.15307
      13 -> 30         0.11274
      13 -> 32         0.29319
      13 -> 34        -0.19343
      13 -> 36        -0.10516

 Excited State  67:      Singlet-B2    14.9795 eV   82.77 nm  f=0.0032  <S**2>=0.000
       7 -> 16        -0.16353
       7 -> 18         0.52487
      12 -> 27        -0.13457
      12 -> 28        -0.35377

 Excited State  68:      Singlet-B1    14.9807 eV   82.76 nm  f=0.0398  <S**2>=0.000
       8 -> 18        -0.14031
       9 -> 17         0.53353
      10 -> 27         0.10347
      11 -> 22        -0.18207
      11 -> 25        -0.17316
      13 -> 32         0.21452
      13 -> 34         0.17329

 Excited State  69:      Singlet-A1    14.9982 eV   82.67 nm  f=0.0089  <S**2>=0.000
       7 -> 15        -0.10701
       8 -> 17         0.57915
       8 -> 20        -0.10501
       9 -> 16         0.16033
      11 -> 24         0.16753
      11 -> 27        -0.18714
      13 -> 38        -0.10061

 Excited State  70:      Singlet-A2    15.0871 eV   82.18 nm  f=0.0000  <S**2>=0.000
       8 -> 19         0.15661
      10 -> 23         0.51239
      11 -> 26        -0.10251
      13 -> 28        -0.10928
      13 -> 33        -0.38989

 Excited State  71:      Singlet-A1    15.1299 eV   81.95 nm  f=0.0333  <S**2>=0.000
       9 -> 18         0.47842
       9 -> 21        -0.10817
      11 -> 24         0.36036
      11 -> 27         0.27621

 Excited State  72:      Singlet-A1    15.1799 eV   81.68 nm  f=0.0993  <S**2>=0.000
       7 -> 19        -0.11961
       8 -> 20         0.21547
       9 -> 16         0.19517
       9 -> 21        -0.15319
      10 -> 22         0.14307
      10 -> 25         0.55343

 Excited State  73:      Singlet-B2    15.2009 eV   81.56 nm  f=0.2144  <S**2>=0.000
       7 -> 18         0.38214
      12 -> 28         0.51795

 Excited State  74:      Singlet-B1    15.2081 eV   81.53 nm  f=0.0389  <S**2>=0.000
       8 -> 18         0.26663
       8 -> 21         0.10127
      13 -> 34         0.60303

 Excited State  75:      Singlet-A1    15.2603 eV   81.25 nm  f=0.1039  <S**2>=0.000
       7 -> 15         0.12547
       8 -> 20         0.11599
       9 -> 18         0.13839
      10 -> 25         0.11845
      11 -> 27        -0.31808
      12 -> 29         0.35536
      12 -> 30        -0.33766
      12 -> 34        -0.15095

 Excited State  76:      Singlet-A2    15.3306 eV   80.87 nm  f=0.0000  <S**2>=0.000
       9 -> 22        -0.23581
      11 -> 26         0.64181

 Excited State  77:      Singlet-B1    15.3946 eV   80.54 nm  f=0.1198  <S**2>=0.000
       8 -> 18         0.37074
      10 -> 24         0.53748
      11 -> 25        -0.10869
      13 -> 34        -0.13399

 Excited State  78:      Singlet-A1    15.5766 eV   79.60 nm  f=0.0517  <S**2>=0.000
       8 -> 17         0.11368
       9 -> 18        -0.28752
       9 -> 21        -0.14093
      10 -> 25        -0.17281
      11 -> 27         0.33786
      12 -> 29         0.42024
      12 -> 30        -0.12778
      13 -> 38        -0.12320

 Excited State  79:      Singlet-B1    15.6325 eV   79.31 nm  f=0.1618  <S**2>=0.000
       8 -> 21         0.50221
       9 -> 20         0.11596
      10 -> 27        -0.28355
      11 -> 25        -0.15442
      12 -> 31         0.10518
      13 -> 32         0.16714
      13 -> 36         0.21735

 Excited State  80:      Singlet-B2    15.7168 eV   78.89 nm  f=0.0502  <S**2>=0.000
       7 -> 21         0.20915
       8 -> 22        -0.19585
       9 -> 19         0.49222
      10 -> 26         0.35878

 Excited State  81:      Singlet-A1    15.7745 eV   78.60 nm  f=0.0346  <S**2>=0.000
       7 -> 19         0.50328
       8 -> 20        -0.10489
      11 -> 27         0.11918
      12 -> 29        -0.21238
      12 -> 30        -0.30169
      13 -> 35        -0.12461
      13 -> 38        -0.16771

 Excited State  82:      Singlet-B2    15.8082 eV   78.43 nm  f=0.2591  <S**2>=0.000
       7 -> 21        -0.21661
       8 -> 22        -0.20209
       9 -> 19        -0.34612
      10 -> 26         0.48641
      13 -> 37         0.14161

 Excited State  83:      Singlet-A2    15.8121 eV   78.41 nm  f=0.0000  <S**2>=0.000
       7 -> 20        -0.15241
       8 -> 19         0.62874
      10 -> 23        -0.22474

 Excited State  84:      Singlet-A1    15.8366 eV   78.29 nm  f=0.0001  <S**2>=0.000
       7 -> 19         0.31210
       8 -> 20        -0.11811
      10 -> 25         0.10810
      11 -> 27        -0.13715
      12 -> 29         0.32244
      12 -> 30         0.41798
      12 -> 32        -0.10017
      13 -> 35        -0.21007

 Excited State  85:      Singlet-B2    15.8864 eV   78.04 nm  f=0.0189  <S**2>=0.000
       7 -> 21         0.58095
       8 -> 22         0.10099
       9 -> 19        -0.24939
      13 -> 37         0.20967

 Excited State  86:      Singlet-B1    15.8912 eV   78.02 nm  f=0.0017  <S**2>=0.000
       9 -> 20        -0.13760
      10 -> 27         0.16921
      11 -> 25         0.10413
      13 -> 36         0.63268

 Excited State  87:      Singlet-A2    15.9024 eV   77.97 nm  f=0.0000  <S**2>=0.000
       7 -> 17         0.12384
       7 -> 20         0.66565
       8 -> 19         0.14616

 Excited State  88:      Singlet-B1    16.0691 eV   77.16 nm  f=0.0037  <S**2>=0.000
       8 -> 21         0.30908
       8 -> 23         0.15442
      10 -> 27         0.54979
      10 -> 28        -0.16328

 Excited State  89:      Singlet-A1    16.0751 eV   77.13 nm  f=0.0102  <S**2>=0.000
       7 -> 19         0.27669
       8 -> 20         0.26076
       9 -> 21         0.14135
      12 -> 30         0.13957
      13 -> 35         0.50257

 Excited State  90:      Singlet-B1    16.1283 eV   76.87 nm  f=0.1251  <S**2>=0.000
       7 -> 22         0.13769
       8 -> 21        -0.14450
       9 -> 20         0.62845
      11 -> 25        -0.14077

 Excited State  91:      Singlet-A1    16.1740 eV   76.66 nm  f=0.0141  <S**2>=0.000
       8 -> 20        -0.21137
       9 -> 21         0.47295
      10 -> 25         0.13495
      11 -> 27         0.20221
      13 -> 35        -0.10836
      13 -> 38         0.33463

 Excited State  92:      Singlet-A1    16.2293 eV   76.40 nm  f=0.0208  <S**2>=0.000
       8 -> 20         0.50183
       9 -> 21         0.10922
      10 -> 25        -0.22281
      13 -> 35        -0.38879
      13 -> 38         0.11798

 Excited State  93:      Singlet-B2    16.2906 eV   76.11 nm  f=0.0799  <S**2>=0.000
       7 -> 21        -0.15613
       8 -> 22         0.13518
       9 -> 19         0.13046
      12 -> 28        -0.10546
      12 -> 33        -0.23616
      13 -> 37         0.56920

 Excited State  94:      Singlet-B1    16.4141 eV   75.54 nm  f=0.1099  <S**2>=0.000
       7 -> 22         0.57577
       9 -> 20        -0.11164
      12 -> 31         0.35352

 Excited State  95:      Singlet-A1    16.4580 eV   75.33 nm  f=0.0747  <S**2>=0.000
       8 -> 20        -0.12265
       9 -> 21        -0.32922
      12 -> 30        -0.10271
      12 -> 32        -0.31929
      13 -> 38         0.46586

 Excited State  96:      Singlet-B1    16.4631 eV   75.31 nm  f=0.1866  <S**2>=0.000
       7 -> 22        -0.31806
       8 -> 21        -0.11134
      12 -> 31         0.58566

 Excited State  97:      Singlet-B2    16.4944 eV   75.17 nm  f=0.0002  <S**2>=0.000
       7 -> 23         0.11049
      11 -> 29        -0.17891
      11 -> 30         0.12051
      12 -> 28         0.13104

 The electronic state is 1-A1.
 Alpha  occ. eigenvalues --  -19.21694 -10.30318 -10.30317  -1.11380  -0.80064
 Alpha  occ. eigenvalues --   -0.71035  -0.55326  -0.54953  -0.54905  -0.46509
 Alpha  occ. eigenvalues --   -0.44647  -0.39004  -0.32873
 Alpha virt. eigenvalues --    0.05148   0.07868   0.10369   0.11317   0.12147
 Alpha virt. eigenvalues --    0.14219   0.16116   0.16291   0.17186   0.20119
 Alpha virt. eigenvalues --    0.20756   0.21229   0.23935   0.24002   0.29525

 Mulliken charges:
               1
     1  C    0.792638
     2  O   -0.779996
     3  C    0.792638
     4  H   -0.268528
     5  H   -0.067056
     6  H   -0.067056
     7  H   -0.268528
     8  H   -0.067056
     9  H   -0.067056
 Sum of Mulliken charges =   0.00000

 Dipole moment (field-independent basis, Debye):
    X=              0.0000    Y=             -0.0000    Z=             -1.3652  Tot=              1.3652
 Quadrupole moment (field-independent basis, Debye-Ang):
   XX=            -20.4629   YY=            -17.6609   ZZ=            -21.6329
   XY=             -0.0000   XZ=              0.0000   YZ=             -0.0000

 Normal termination of Gaussian 16 at Mon Mar 21 20:11:23 2022.
