 Gaussian 16, Revision C.01,
 Gaussian 16:  EM64L-G16RevC.01  3-Jul-2019

 ----------------------------------------------------------------------
 #P TD(Nstates=10000) cam-b3lyp/Gen SCF(maxcycles=100) Int(Grid=ultrafi
 ne)
 ----------------------------------------------------------------------

 ---------------------
 xGDB7_00001_tier4.com
 ---------------------
 Symbolic Z-matrix:
 Charge =  0 Multiplicity = 1

                         Standard orientation:
 ---------------------------------------------------------------------
 Center     Atomic      Atomic             Coordinates (Angstroms)
 Number     Number       Type             X           Y           Z
 ---------------------------------------------------------------------
      1          9           0        0.000000    0.000000    0.688193
      2          9           0        0.000000    0.000000   -0.688193
 ---------------------------------------------------------------------

 SCF Done:  E(RCAM-B3LYP) =  -199.315276401     A.U. after   10 cycles

 Excitation energies and oscillator strengths:

 Excited state symmetry could not be determined.
 Excited State   1:      Singlet-?Sym    4.8612 eV  255.05 nm  f=0.0001  <S**2>=0.000
       8 -> 10        -0.33652
       9 -> 10         0.62041
 This state for optimization and/or second-order correction.
 Total Energy, E(TD-HF/TD-DFT) =  -199.136628846
 Copying the excited state density for this state as the 1-particle RhoCI density.

 Excited state symmetry could not be determined.
 Excited State   2:      Singlet-?Sym    4.8612 eV  255.05 nm  f=0.0001  <S**2>=0.000
       8 -> 10         0.62041
       9 -> 10         0.33652

 Excited state symmetry could not be determined.
 Excited State   3:      Singlet-?Sym    8.7638 eV  141.47 nm  f=0.0000  <S**2>=0.000
       6 -> 10         0.22642
       7 -> 10         0.66673

 Excited state symmetry could not be determined.
 Excited State   4:      Singlet-?Sym    8.7638 eV  141.47 nm  f=0.0000  <S**2>=0.000
       6 -> 10         0.66673
       7 -> 10        -0.22642

 Excited state symmetry could not be determined.
 Excited State   5:      Singlet-?Sym   12.8514 eV   96.48 nm  f=0.0000  <S**2>=0.000
       8 -> 12         0.69103
       8 -> 17        -0.11369

 Excited state symmetry could not be determined.
 Excited State   6:      Singlet-?Sym   12.8514 eV   96.48 nm  f=0.0000  <S**2>=0.000
       9 -> 12         0.69103
       9 -> 17        -0.11369

 Excited state symmetry could not be determined.
 Excited State   7:      Singlet-?Sym   13.2496 eV   93.58 nm  f=0.0341  <S**2>=0.000
       9 -> 11         0.69064

 Excited state symmetry could not be determined.
 Excited State   8:      Singlet-?Sym   13.2496 eV   93.58 nm  f=0.0341  <S**2>=0.000
       8 -> 11         0.69064

 Excited State   9:      Singlet-SGU   13.2763 eV   93.39 nm  f=0.4007  <S**2>=0.000
       5 -> 10         0.47100
       8 -> 14        -0.36882
       9 -> 13        -0.36882

 Excited state symmetry could not be determined.
 Excited State  10:      Singlet-?Sym   13.9601 eV   88.81 nm  f=0.0000  <S**2>=0.000
       8 -> 13        -0.49830
       9 -> 14         0.49830

 Excited state symmetry could not be determined.
 Excited State  11:      Singlet-?Sym   13.9765 eV   88.71 nm  f=0.0000  <S**2>=0.000
       8 -> 13         0.49844
       9 -> 14         0.49844

 Excited state symmetry could not be determined.
 Excited State  12:      Singlet-?Sym   13.9765 eV   88.71 nm  f=0.0000  <S**2>=0.000
       8 -> 14        -0.49844
       9 -> 13         0.49844

 Excited state symmetry could not be determined.
 Excited State  13:      Singlet-?Sym   15.6904 eV   79.02 nm  f=0.0000  <S**2>=0.000
       7 -> 11        -0.17175
       9 -> 17         0.67847

 Excited state symmetry could not be determined.
 Excited State  14:      Singlet-?Sym   15.6904 eV   79.02 nm  f=0.0000  <S**2>=0.000
       6 -> 11        -0.17175
       8 -> 17         0.67847

 Excited state symmetry could not be determined.
 Excited State  15:      Singlet-?Sym   15.9080 eV   77.94 nm  f=0.0000  <S**2>=0.000
       6 -> 13         0.11207
       7 -> 14        -0.11207
       8 -> 15         0.48674
       9 -> 16        -0.48674

 Excited state symmetry could not be determined.
 Excited State  16:      Singlet-?Sym   15.9140 eV   77.91 nm  f=0.0000  <S**2>=0.000
       6 -> 14        -0.10328
       7 -> 13         0.10328
       8 -> 16        -0.48876
       9 -> 15         0.48876

 Excited state symmetry could not be determined.
 Excited State  17:      Singlet-?Sym   15.9140 eV   77.91 nm  f=0.0000  <S**2>=0.000
       6 -> 13         0.10328
       7 -> 14         0.10328
       8 -> 15         0.48876
       9 -> 16         0.48876

 Excited State  18:      Singlet-SGU   15.9980 eV   77.50 nm  f=0.2861  <S**2>=0.000
       5 -> 10         0.48646
       5 -> 11         0.19425
       8 -> 14         0.32507
       9 -> 13         0.32507

 Excited state symmetry could not be determined.
 Excited State  19:      Singlet-?Sym   16.5183 eV   75.06 nm  f=0.0000  <S**2>=0.000
       8 -> 16         0.49162
       9 -> 15         0.49162

 Excited state symmetry could not be determined.
 Excited State  20:      Singlet-?Sym   16.9736 eV   73.05 nm  f=0.1037  <S**2>=0.000
       6 -> 12        -0.19812
       7 -> 12         0.66081
       7 -> 17        -0.11437

 Excited state symmetry could not be determined.
 Excited State  21:      Singlet-?Sym   16.9736 eV   73.05 nm  f=0.1037  <S**2>=0.000
       6 -> 12         0.66081
       6 -> 17        -0.11437
       7 -> 12         0.19812

 Excited state symmetry could not be determined.
 Excited State  22:      Singlet-?Sym   17.4254 eV   71.15 nm  f=0.0000  <S**2>=0.000
       6 -> 11        -0.44947
       7 -> 11         0.50424
       8 -> 17        -0.10554
       9 -> 17         0.11841

 Excited state symmetry could not be determined.
 Excited State  23:      Singlet-?Sym   17.4254 eV   71.15 nm  f=0.0000  <S**2>=0.000
       6 -> 11         0.50424
       7 -> 11         0.44947
       8 -> 17         0.11841
       9 -> 17         0.10554

 Excited state symmetry could not be determined.
 Excited State  24:      Singlet-?Sym   17.9996 eV   68.88 nm  f=0.0000  <S**2>=0.000
       6 -> 13        -0.48697
       7 -> 14         0.48697
       8 -> 15         0.11234
       9 -> 16        -0.11234

 Excited state symmetry could not be determined.
 Excited State  25:      Singlet-?Sym   18.0012 eV   68.88 nm  f=0.0000  <S**2>=0.000
       6 -> 14        -0.48898
       7 -> 13         0.48898
       8 -> 16         0.10342
       9 -> 15        -0.10342

 Excited state symmetry could not be determined.
 Excited State  26:      Singlet-?Sym   18.0012 eV   68.88 nm  f=0.0000  <S**2>=0.000
       6 -> 13         0.48898
       7 -> 14         0.48898
       8 -> 15        -0.10342
       9 -> 16        -0.10342

 Excited State  27:      Singlet-SGG   18.2515 eV   67.93 nm  f=0.0000  <S**2>=0.000
       5 -> 12         0.56910
       6 -> 14        -0.28862
       7 -> 13        -0.28862

 Excited state symmetry could not be determined.
 Excited State  28:      Singlet-?Sym   19.0801 eV   64.98 nm  f=0.0000  <S**2>=0.000
       5 -> 12         0.37652
       5 -> 17        -0.17104
       6 -> 14         0.39600
       7 -> 13         0.39600

 Excited State  29:      Singlet-SGU   19.2160 eV   64.52 nm  f=0.0107  <S**2>=0.000
       5 -> 11         0.62740
       6 -> 16         0.20310
       7 -> 15         0.20310

 Excited state symmetry could not be determined.
 Excited State  30:      Singlet-?Sym   19.4047 eV   63.89 nm  f=0.0177  <S**2>=0.000
       5 -> 13         0.60251
       5 -> 14        -0.36886

 Excited state symmetry could not be determined.
 Excited State  31:      Singlet-?Sym   19.4047 eV   63.89 nm  f=0.0177  <S**2>=0.000
       5 -> 13         0.36886
       5 -> 14         0.60251

 Excited state symmetry could not be determined.
 Excited State  32:      Singlet-?Sym   19.8295 eV   62.53 nm  f=0.0566  <S**2>=0.000
       6 -> 17         0.38138
       7 -> 17         0.57942

 Excited state symmetry could not be determined.
 Excited State  33:      Singlet-?Sym   19.8295 eV   62.53 nm  f=0.0566  <S**2>=0.000
       6 -> 17         0.57942
       7 -> 17        -0.38138

 Excited state symmetry could not be determined.
 Excited State  34:      Singlet-?Sym   19.9380 eV   62.18 nm  f=0.0000  <S**2>=0.000
       6 -> 15         0.49798
       7 -> 16         0.49798

 Excited state symmetry could not be determined.
 Excited State  35:      Singlet-?Sym   19.9380 eV   62.18 nm  f=0.0000  <S**2>=0.000
       6 -> 16        -0.49798
       7 -> 15         0.49798

 Excited state symmetry could not be determined.
 Excited State  36:      Singlet-?Sym   19.9574 eV   62.12 nm  f=0.0000  <S**2>=0.000
       6 -> 15        -0.49789
       7 -> 16         0.49789

 Excited state symmetry could not be determined.
 Excited State  37:      Singlet-?Sym   20.4665 eV   60.58 nm  f=0.0101  <S**2>=0.000
       5 -> 10         0.14060
       5 -> 11        -0.24942
       6 -> 16         0.44696
       7 -> 15         0.44696

 Excited State  38:      Singlet-SGG   21.3324 eV   58.12 nm  f=0.0000  <S**2>=0.000
       5 -> 12         0.15629
       5 -> 17         0.67760

 Excited state symmetry could not be determined.
 Excited State  39:      Singlet-?Sym   21.3681 eV   58.02 nm  f=0.0000  <S**2>=0.000
       5 -> 15         0.67813
       5 -> 16         0.19709

 Excited state symmetry could not be determined.
 Excited State  40:      Singlet-?Sym   21.3681 eV   58.02 nm  f=0.0000  <S**2>=0.000
       5 -> 15        -0.19709
       5 -> 16         0.67813

 Excited state symmetry could not be determined.
 Excited State  41:      Singlet-?Sym   21.4144 eV   57.90 nm  f=0.0519  <S**2>=0.000
       8 -> 18        -0.13077
       9 -> 18         0.68994

 Excited state symmetry could not be determined.
 Excited State  42:      Singlet-?Sym   21.4144 eV   57.90 nm  f=0.0519  <S**2>=0.000
       8 -> 18         0.68994
       9 -> 18         0.13077

 Excited state symmetry could not be determined.
 Excited State  43:      Singlet-?Sym   22.6292 eV   54.79 nm  f=0.0000  <S**2>=0.000
       8 -> 19         0.43842
       8 -> 20         0.23850
       9 -> 19         0.23851
       9 -> 20        -0.43841

 Excited state symmetry could not be determined.
 Excited State  44:      Singlet-?Sym   22.6292 eV   54.79 nm  f=0.0000  <S**2>=0.000
       8 -> 19        -0.23851
       8 -> 20         0.43841
       9 -> 19         0.43842
       9 -> 20         0.23850

 Excited state symmetry could not be determined.
 Excited State  45:      Singlet-?Sym   22.9973 eV   53.91 nm  f=0.0000  <S**2>=0.000
       8 -> 20         0.49870
       9 -> 19        -0.49869

 Excited state symmetry could not be determined.
 Excited State  46:      Singlet-?Sym   22.9973 eV   53.91 nm  f=0.0000  <S**2>=0.000
       8 -> 19         0.49869
       9 -> 20         0.49870

 Excited State  47:      Singlet-SGG   25.1463 eV   49.31 nm  f=0.0000  <S**2>=0.000
       4 -> 10         0.68423

 Excited state symmetry could not be determined.
 Excited State  48:      Singlet-?Sym   25.2763 eV   49.05 nm  f=0.0000  <S**2>=0.000
       6 -> 18         0.68676
       7 -> 18         0.15135

 Excited state symmetry could not be determined.
 Excited State  49:      Singlet-?Sym   25.2763 eV   49.05 nm  f=0.0000  <S**2>=0.000
       6 -> 18        -0.15135
       7 -> 18         0.68676

 Excited state symmetry could not be determined.
 Excited State  50:      Singlet-?Sym   26.4523 eV   46.87 nm  f=0.0000  <S**2>=0.000
       6 -> 19         0.48640
       7 -> 20        -0.48640
       8 -> 24         0.11288
       9 -> 25        -0.11288

 Excited state symmetry could not be determined.
 Excited State  51:      Singlet-?Sym   26.4523 eV   46.87 nm  f=0.0000  <S**2>=0.000
       6 -> 20         0.48640
       7 -> 19         0.48640
       8 -> 25         0.11288
       9 -> 24         0.11288

 Excited state symmetry could not be determined.
 Excited State  52:      Singlet-?Sym   26.7602 eV   46.33 nm  f=0.0000  <S**2>=0.000
       8 -> 22        -0.49831
       9 -> 21         0.49831

 Excited state symmetry could not be determined.
 Excited State  53:      Singlet-?Sym   26.7602 eV   46.33 nm  f=0.0000  <S**2>=0.000
       8 -> 21         0.49831
       9 -> 22         0.49831

 Excited state symmetry could not be determined.
 Excited State  54:      Singlet-?Sym   26.8104 eV   46.24 nm  f=0.0000  <S**2>=0.000
       8 -> 21        -0.49855
       9 -> 22         0.49855

 Excited State  55:      Singlet-SGU   26.8128 eV   46.24 nm  f=0.1622  <S**2>=0.000
       5 -> 18         0.65944
       8 -> 22         0.17436
       9 -> 21         0.17436

 Excited state symmetry could not be determined.
 Excited State  56:      Singlet-?Sym   27.4347 eV   45.19 nm  f=0.4308  <S**2>=0.000
       6 -> 19         0.38199
       6 -> 20        -0.30833
       7 -> 19         0.30833
       7 -> 20         0.38199

 Excited state symmetry could not be determined.
 Excited State  57:      Singlet-?Sym   27.4347 eV   45.19 nm  f=0.4308  <S**2>=0.000
       6 -> 19        -0.30833
       6 -> 20        -0.38199
       7 -> 19         0.38199
       7 -> 20        -0.30833

 Excited state symmetry could not be determined.
 Excited State  58:      Singlet-?Sym   28.1165 eV   44.10 nm  f=0.0000  <S**2>=0.000
       5 -> 20         0.70686

 Excited state symmetry could not be determined.
 Excited State  59:      Singlet-?Sym   28.1165 eV   44.10 nm  f=0.0000  <S**2>=0.000
       5 -> 19         0.70686

 Excited state symmetry could not be determined.
 Excited State  60:      Singlet-?Sym   28.4664 eV   43.55 nm  f=1.0615  <S**2>=0.000
       4 -> 12        -0.13334
       5 -> 10        -0.12277
       5 -> 18        -0.23720
       8 -> 22         0.44514
       9 -> 21         0.44514

 Excited state symmetry could not be determined.
 Excited State  61:      Singlet-?Sym   28.8874 eV   42.92 nm  f=0.0197  <S**2>=0.000
       8 -> 23         0.53877
       8 -> 24         0.10439
       9 -> 23         0.39862
       9 -> 25         0.10441

 Excited state symmetry could not be determined.
 Excited State  62:      Singlet-?Sym   28.8874 eV   42.92 nm  f=0.0197  <S**2>=0.000
       8 -> 23        -0.39862
       8 -> 25         0.10441
       9 -> 23         0.53877
       9 -> 24        -0.10439

 Excited state symmetry could not be determined.
 Excited State  63:      Singlet-?Sym   29.0606 eV   42.66 nm  f=0.0000  <S**2>=0.000
       6 -> 20        -0.10030
       7 -> 19        -0.10030
       8 -> 24        -0.22457
       8 -> 25         0.43218
       9 -> 24         0.43220
       9 -> 25         0.22456

 Excited state symmetry could not be determined.
 Excited State  64:      Singlet-?Sym   29.0606 eV   42.66 nm  f=0.0000  <S**2>=0.000
       6 -> 19        -0.10030
       7 -> 20         0.10030
       8 -> 24         0.43220
       8 -> 25         0.22456
       9 -> 24         0.22457
       9 -> 25        -0.43218

 Excited state symmetry could not be determined.
 Excited State  65:      Singlet-?Sym   29.5112 eV   42.01 nm  f=0.4432  <S**2>=0.000
       5 -> 21        -0.12152
       8 -> 25         0.46685
       9 -> 23        -0.17139
       9 -> 24        -0.46683

 Excited state symmetry could not be determined.
 Excited State  66:      Singlet-?Sym   29.5112 eV   42.01 nm  f=0.4432  <S**2>=0.000
       5 -> 22        -0.12152
       8 -> 23        -0.17139
       8 -> 24         0.46683
       9 -> 25         0.46685

 Excited state symmetry could not be determined.
 Excited State  67:      Singlet-?Sym   30.3784 eV   40.81 nm  f=0.0000  <S**2>=0.000
       6 -> 21         0.40857
       7 -> 22         0.40857
       8 -> 28         0.28762
       9 -> 27         0.28762

 Excited state symmetry could not be determined.
 Excited State  68:      Singlet-?Sym   30.3784 eV   40.81 nm  f=0.0000  <S**2>=0.000
       6 -> 22        -0.40857
       7 -> 21         0.40857
       8 -> 27        -0.28762
       9 -> 28         0.28762

 Excited state symmetry could not be determined.
 Excited State  69:      Singlet-?Sym   30.3908 eV   40.80 nm  f=0.0000  <S**2>=0.000
       6 -> 21        -0.41222
       7 -> 22         0.41222
       8 -> 28        -0.28241
       9 -> 27         0.28241

 Excited state symmetry could not be determined.
 Excited State  70:      Singlet-?Sym   30.8443 eV   40.20 nm  f=0.0000  <S**2>=0.000
       6 -> 23         0.24944
       8 -> 26         0.64389
       9 -> 26        -0.12291

 Excited state symmetry could not be determined.
 Excited State  71:      Singlet-?Sym   30.8443 eV   40.20 nm  f=0.0000  <S**2>=0.000
       7 -> 23         0.24944
       8 -> 26         0.12291
       9 -> 26         0.64389

 Excited State  72:      Singlet-SGG   31.4411 eV   39.43 nm  f=0.0000  <S**2>=0.000
       4 -> 10         0.10703
       4 -> 11         0.47699
       6 -> 22         0.34934
       7 -> 21         0.34934

 Excited state symmetry could not be determined.
 Excited State  73:      Singlet-?Sym   31.4871 eV   39.38 nm  f=0.0000  <S**2>=0.000
       6 -> 21         0.28231
       7 -> 22        -0.28231
       8 -> 28        -0.41134
       9 -> 27         0.41134

 Excited state symmetry could not be determined.
 Excited State  74:      Singlet-?Sym   31.5326 eV   39.32 nm  f=0.0000  <S**2>=0.000
       6 -> 22         0.28772
       7 -> 21        -0.28772
       8 -> 27        -0.40792
       9 -> 28         0.40792

 Excited state symmetry could not be determined.
 Excited State  75:      Singlet-?Sym   31.5326 eV   39.32 nm  f=0.0000  <S**2>=0.000
       6 -> 21        -0.28771
       7 -> 22        -0.28771
       8 -> 28         0.40792
       9 -> 27         0.40792

 Excited State  76:      Singlet-SGU   31.5739 eV   39.27 nm  f=0.0447  <S**2>=0.000
       3 -> 10         0.10864
       4 -> 12         0.67113
       4 -> 17        -0.12789

 Excited State  77:      Singlet-SGG   32.1311 eV   38.59 nm  f=0.0000  <S**2>=0.000
       4 -> 11         0.47554
       6 -> 22        -0.25726
       7 -> 21        -0.25726
       8 -> 27        -0.24623
       9 -> 28        -0.24623

 Excited state symmetry could not be determined.
 Excited State  78:      Singlet-?Sym   32.4330 eV   38.23 nm  f=0.0000  <S**2>=0.000
       4 -> 14         0.68158
       6 -> 24        -0.11928
       7 -> 25        -0.11928

 Excited state symmetry could not be determined.
 Excited State  79:      Singlet-?Sym   32.4330 eV   38.23 nm  f=0.0000  <S**2>=0.000
       4 -> 13         0.68158
       6 -> 25        -0.11928
       7 -> 24         0.11928

 Excited state symmetry could not be determined.
 Excited State  80:      Singlet-?Sym   32.5381 eV   38.10 nm  f=0.0000  <S**2>=0.000
       4 -> 11         0.20326
       6 -> 22        -0.23115
       7 -> 21        -0.23115
       8 -> 27         0.41078
       9 -> 28         0.41078

 Excited State  81:      Singlet-SGU   32.5430 eV   38.10 nm  f=0.0557  <S**2>=0.000
       3 -> 10         0.65166
       5 -> 23        -0.12809
       6 -> 27        -0.13714
       7 -> 28        -0.13714

 Excited state symmetry could not be determined.
 Excited State  82:      Singlet-?Sym   32.7129 eV   37.90 nm  f=0.4423  <S**2>=0.000
       4 -> 16        -0.12477
       5 -> 21        -0.32571
       5 -> 22         0.59141

 Excited state symmetry could not be determined.
 Excited State  83:      Singlet-?Sym   32.7129 eV   37.90 nm  f=0.4423  <S**2>=0.000
       4 -> 15        -0.12477
       5 -> 21         0.59141
       5 -> 22         0.32571

 Excited state symmetry could not be determined.
 Excited State  84:      Singlet-?Sym   32.8499 eV   37.74 nm  f=0.0000  <S**2>=0.000
       6 -> 24         0.14311
       6 -> 25         0.47813
       7 -> 24         0.47814
       7 -> 25        -0.14310

 Excited state symmetry could not be determined.
 Excited State  85:      Singlet-?Sym   32.8499 eV   37.74 nm  f=0.0000  <S**2>=0.000
       6 -> 24         0.47814
       6 -> 25        -0.14310
       7 -> 24        -0.14311
       7 -> 25        -0.47813

 Excited state symmetry could not be determined.
 Excited State  86:      Singlet-?Sym   33.2074 eV   37.34 nm  f=0.0000  <S**2>=0.000
       6 -> 23         0.55789
       7 -> 23        -0.30572
       8 -> 26        -0.22772
       9 -> 26         0.12479

 Excited state symmetry could not be determined.
 Excited State  87:      Singlet-?Sym   33.2074 eV   37.34 nm  f=0.0000  <S**2>=0.000
       6 -> 23         0.30572
       7 -> 23         0.55789
       8 -> 26        -0.12479
       9 -> 26        -0.22772

 Excited state symmetry could not be determined.
 Excited State  88:      Singlet-?Sym   33.2684 eV   37.27 nm  f=0.0000  <S**2>=0.000
       4 -> 14         0.16234
       6 -> 23        -0.17030
       6 -> 24         0.46972
       7 -> 25         0.46972

 Excited state symmetry could not be determined.
 Excited State  89:      Singlet-?Sym   33.2684 eV   37.27 nm  f=0.0000  <S**2>=0.000
       4 -> 13        -0.16234
       6 -> 25        -0.46972
       7 -> 23         0.17030
       7 -> 24         0.46972

 Excited State  90:      Singlet-SGU   33.9814 eV   36.49 nm  f=0.0462  <S**2>=0.000
       4 -> 12         0.10952
       4 -> 17         0.57765
       5 -> 23        -0.37893

 Excited state symmetry could not be determined.
 Excited State  91:      Singlet-?Sym   34.3284 eV   36.12 nm  f=0.0000  <S**2>=0.000
       5 -> 24         0.70434

 Excited state symmetry could not be determined.
 Excited State  92:      Singlet-?Sym   34.3284 eV   36.12 nm  f=0.0000  <S**2>=0.000
       5 -> 25         0.70434

 Excited state symmetry could not be determined.
 Excited State  93:      Singlet-?Sym   34.4716 eV   35.97 nm  f=0.0015  <S**2>=0.000
       4 -> 16         0.67986
       5 -> 22         0.12287
       6 -> 26         0.11327

 Excited state symmetry could not be determined.
 Excited State  94:      Singlet-?Sym   34.4716 eV   35.97 nm  f=0.0015  <S**2>=0.000
       4 -> 15         0.67986
       5 -> 21         0.12287
       7 -> 26         0.11327

 Excited State  95:      Singlet-SGU   34.5950 eV   35.84 nm  f=0.0039  <S**2>=0.000
       4 -> 17         0.37034
       5 -> 23         0.53015
       6 -> 27        -0.18901
       7 -> 28        -0.18901

 Excited state symmetry could not be determined.
 Excited State  96:      Singlet-?Sym   35.0766 eV   35.35 nm  f=0.0000  <S**2>=0.000
       6 -> 28        -0.49681
       7 -> 27         0.49681

 Excited state symmetry could not be determined.
 Excited State  97:      Singlet-?Sym   35.0976 eV   35.33 nm  f=0.0000  <S**2>=0.000
       6 -> 28         0.49597
       7 -> 27         0.49597

 Excited state symmetry could not be determined.
 Excited State  98:      Singlet-?Sym   35.0976 eV   35.33 nm  f=0.0000  <S**2>=0.000
       6 -> 27        -0.49597
       7 -> 28         0.49597

 Excited state symmetry could not be determined.
 Excited State  99:      Singlet-?Sym   35.2696 eV   35.15 nm  f=0.0615  <S**2>=0.000
       6 -> 26        -0.20309
       7 -> 26         0.65809

 Excited state symmetry could not be determined.
 Excited State 100:      Singlet-?Sym   35.2696 eV   35.15 nm  f=0.0615  <S**2>=0.000
       6 -> 26         0.65809
       7 -> 26         0.20309

 Excited state symmetry could not be determined.
 Excited State 101:      Singlet-?Sym   36.4946 eV   33.97 nm  f=0.0577  <S**2>=0.000
       3 -> 10         0.20087
       5 -> 23         0.22261
       6 -> 27         0.42908
       7 -> 28         0.42908
       8 -> 30        -0.10772
       9 -> 29        -0.10772

 Excited state symmetry could not be determined.

 The electronic state is 1-SGG.
 Alpha  occ. eigenvalues --  -24.89185 -24.89167  -1.44800  -1.16979  -0.69340
 Alpha  occ. eigenvalues --   -0.63972  -0.63972  -0.49625  -0.49625
 Alpha virt. eigenvalues --   -0.08769   0.12549   0.13438   0.17101   0.17101
 Alpha virt. eigenvalues --    0.22867   0.22867   0.23597   0.43732   0.52500
 Alpha virt. eigenvalues --    0.52500   0.67974   0.67974   0.73729   0.74585

 Mulliken charges:
               1
     1  F   -0.000000
     2  F   -0.000000
 Sum of Mulliken charges =  -0.00000

 Dipole moment (field-independent basis, Debye):
    X=             -0.0000    Y=              0.0000    Z=              0.0000  Tot=              0.0000
 Quadrupole moment (field-independent basis, Debye-Ang):
   XX=             -9.8282   YY=             -9.8282   ZZ=             -9.0685
   XY=              0.0000   XZ=              0.0000   YZ=              0.0000

 Normal termination of Gaussian 16 at Mon Mar 21 20:18:05 2022.
