 Gaussian 16, Revision C.01,
 Gaussian 16:  EM64L-G16RevC.01  3-Jul-2019

 ----------------------------------------------------------------------
 #P TD(Nstates=10000) cam-b3lyp/Gen SCF(maxcycles=100) Int(Grid=ultrafi
 ne)
 ----------------------------------------------------------------------

 ---------------------
 xGDB7_00001_tier4.com
 ---------------------
 Symbolic Z-matrix:
 Charge =  0 Multiplicity = 1

                         Standard orientation:
 ---------------------------------------------------------------------
 Center     Atomic      Atomic             Coordinates (Angstroms)
 Number     Number       Type             X           Y           Z
 ---------------------------------------------------------------------
      1          6           0        0.000000    0.000000    0.660866
      2          6           0        0.000000    0.000000   -0.660866
      3          1           0        0.000000    0.922586    1.229258
      4          1           0       -0.000000   -0.922586    1.229258
      5          1           0        0.000000    0.922586   -1.229258
      6          1           0       -0.000000   -0.922586   -1.229258
 ---------------------------------------------------------------------

 SCF Done:  E(RCAM-B3LYP) =  -78.4808105492     A.U. after   10 cycles

 Excitation energies and oscillator strengths:

 Excited State   1:      Singlet-B3U    7.6879 eV  161.27 nm  f=0.0705  <S**2>=0.000
       8 -> 10         0.70081
 This state for optimization and/or second-order correction.
 Total Energy, E(TD-HF/TD-DFT) =  -78.1982849785
 Copying the excited state density for this state as the 1-particle RhoCI density.

 Excited State   2:      Singlet-B1U    7.8616 eV  157.71 nm  f=0.3729  <S**2>=0.000
       8 ->  9         0.70104

 Excited State   3:      Singlet-B1G    8.1613 eV  151.92 nm  f=0.0000  <S**2>=0.000
       7 ->  9         0.70058

 Excited State   4:      Singlet-B2G    8.4853 eV  146.12 nm  f=0.0000  <S**2>=0.000
       8 -> 11         0.70346

 Excited State   5:      Singlet-B1G    9.0771 eV  136.59 nm  f=0.0000  <S**2>=0.000
       8 -> 12         0.69797

 Excited State   6:      Singlet-B2G    9.7258 eV  127.48 nm  f=0.0000  <S**2>=0.000
       6 ->  9         0.69866

 Excited State   7:      Singlet-B3G    9.8351 eV  126.06 nm  f=0.0000  <S**2>=0.000
       7 -> 10         0.69902

 Excited State   8:      Singlet-B3U   10.2037 eV  121.51 nm  f=0.0628  <S**2>=0.000
       8 -> 13         0.69945

 Excited State   9:      Singlet-B2U   10.5882 eV  117.10 nm  f=0.1289  <S**2>=0.000
       7 -> 11         0.69613

 Excited State  10:      Singlet-AU    10.8750 eV  114.01 nm  f=0.0000  <S**2>=0.000
       8 -> 14         0.69657

 Excited State  11:      Singlet-B3U   11.2626 eV  110.09 nm  f=0.1744  <S**2>=0.000
       8 -> 15         0.69737

 Excited State  12:      Singlet-AU    11.3247 eV  109.48 nm  f=0.0000  <S**2>=0.000
       5 ->  9         0.69632

 Excited State  13:      Singlet-AG    11.5228 eV  107.60 nm  f=0.0000  <S**2>=0.000
       6 -> 10         0.27658
       7 -> 14        -0.11504
       8 -> 16         0.62971

 Excited State  14:      Singlet-B1U   11.5703 eV  107.16 nm  f=0.2040  <S**2>=0.000
       7 -> 12         0.69531

 Excited State  15:      Singlet-B2U   11.6257 eV  106.65 nm  f=0.1065  <S**2>=0.000
       8 -> 17         0.69141

 Excited State  16:      Singlet-AG    11.9971 eV  103.35 nm  f=0.0000  <S**2>=0.000
       6 -> 10         0.63727
       7 -> 14         0.14660
       8 -> 16        -0.24310

 Excited State  17:      Singlet-B2G   12.1164 eV  102.33 nm  f=0.0000  <S**2>=0.000
       8 -> 18         0.69982

 Excited State  18:      Singlet-B1G   12.2456 eV  101.25 nm  f=0.0000  <S**2>=0.000
       8 -> 19         0.70135

 Excited State  19:      Singlet-B3G   12.3640 eV  100.28 nm  f=0.0000  <S**2>=0.000
       5 -> 11         0.12571
       7 -> 13         0.68635

 Excited State  20:      Singlet-B1U   12.5466 eV   98.82 nm  f=0.2472  <S**2>=0.000
       6 -> 11         0.69678

 Excited State  21:      Singlet-B3G   13.1484 eV   94.30 nm  f=0.0000  <S**2>=0.000
       5 -> 11         0.21269
       7 -> 15         0.66087

 Excited State  22:      Singlet-B2U   13.2905 eV   93.29 nm  f=0.0669  <S**2>=0.000
       5 -> 10        -0.14693
       6 -> 12         0.66944
       7 -> 18         0.10754

 Excited State  23:      Singlet-B2U   13.3119 eV   93.14 nm  f=0.2582  <S**2>=0.000
       5 -> 10         0.67988
       6 -> 12         0.14081

 Excited State  24:      Singlet-AU    13.4058 eV   92.49 nm  f=0.0000  <S**2>=0.000
       7 -> 16         0.70152

 Excited State  25:      Singlet-AG    13.5022 eV   91.83 nm  f=0.0000  <S**2>=0.000
       6 -> 13         0.10969
       6 -> 15         0.10796
       7 -> 14         0.66472
       8 -> 16         0.14760

 Excited State  26:      Singlet-B2G   13.6389 eV   90.91 nm  f=0.0000  <S**2>=0.000
       7 -> 17         0.62252
       8 -> 20        -0.32410

 Excited State  27:      Singlet-B2G   13.9519 eV   88.87 nm  f=0.0000  <S**2>=0.000
       7 -> 17         0.32227
       8 -> 20         0.62235

 Excited State  28:      Singlet-B1U   14.0778 eV   88.07 nm  f=0.0509  <S**2>=0.000
       7 -> 19        -0.12101
       8 -> 22         0.67175

 Excited State  29:      Singlet-B3G   14.0883 eV   88.00 nm  f=0.0000  <S**2>=0.000
       5 -> 11         0.27149
       8 -> 21         0.64354

 Excited State  30:      Singlet-B3G   14.1697 eV   87.50 nm  f=0.0000  <S**2>=0.000
       5 -> 11         0.59339
       7 -> 15        -0.22966
       8 -> 21        -0.27943

 Excited State  31:      Singlet-AG    14.2221 eV   87.18 nm  f=0.0000  <S**2>=0.000
       5 -> 12        -0.10595
       6 -> 13         0.67483
       6 -> 15        -0.12415

 Excited State  32:      Singlet-B2U   14.6414 eV   84.68 nm  f=0.5823  <S**2>=0.000
       6 -> 12        -0.10794
       6 -> 19         0.12084
       7 -> 18         0.67288

 Excited State  33:      Singlet-B1U   14.8660 eV   83.40 nm  f=0.3870  <S**2>=0.000
       5 -> 14        -0.12485
       7 -> 19         0.67629
       8 -> 22         0.10173

 Excited State  34:      Singlet-B3G   14.8788 eV   83.33 nm  f=0.0000  <S**2>=0.000
       4 -> 12        -0.11538
       6 -> 14         0.68900

 Excited State  35:      Singlet-AG    14.8826 eV   83.31 nm  f=0.0000  <S**2>=0.000
       5 -> 12         0.52039
       6 -> 15        -0.45615

 Excited State  36:      Singlet-B3U   15.0506 eV   82.38 nm  f=0.0448  <S**2>=0.000
       4 ->  9         0.57985
       5 -> 17        -0.13903
       6 -> 16         0.29417
       7 -> 21        -0.12849
       8 -> 23        -0.16521

 Excited State  37:      Singlet-B1G   15.3894 eV   80.56 nm  f=0.0000  <S**2>=0.000
       5 -> 16        -0.21887
       6 -> 17         0.52269
       7 -> 22        -0.41440

 Excited State  38:      Singlet-B3U   15.4742 eV   80.12 nm  f=0.2081  <S**2>=0.000
       4 ->  9        -0.22145
       6 -> 16         0.62420
       8 -> 23         0.20869

 Excited State  39:      Singlet-B3U   15.5445 eV   79.76 nm  f=0.0000  <S**2>=0.000
       4 ->  9         0.23288
       6 -> 16        -0.12463
       8 -> 23         0.64930

 Excited State  40:      Singlet-B1G   15.6507 eV   79.22 nm  f=0.0000  <S**2>=0.000
       5 -> 16         0.18848
       6 -> 17         0.46919
       7 -> 22         0.48759

 Excited State  41:      Singlet-B2U   15.7908 eV   78.52 nm  f=0.0183  <S**2>=0.000
       5 -> 13        -0.41811
       5 -> 15        -0.20555
       6 -> 19        -0.15981
       7 -> 18         0.11281
       7 -> 20         0.48285

 Excited State  42:      Singlet-B2U   15.8720 eV   78.11 nm  f=0.0826  <S**2>=0.000
       5 -> 13         0.47261
       5 -> 15        -0.28013
       6 -> 19         0.21056
       7 -> 20         0.37729

 Excited State  43:      Singlet-AG    15.8836 eV   78.06 nm  f=0.0000  <S**2>=0.000
       5 -> 12         0.42901
       6 -> 13         0.14445
       6 -> 15         0.49622
       8 -> 16        -0.11448

 Excited State  44:      Singlet-B1G   16.0807 eV   77.10 nm  f=0.0000  <S**2>=0.000
       8 -> 24         0.69631

 Excited State  45:      Singlet-B3U   16.2452 eV   76.32 nm  f=0.4125  <S**2>=0.000
       4 ->  9         0.14769
       5 -> 17         0.16477
       7 -> 21         0.65637

 Excited State  46:      Singlet-B1U   16.2513 eV   76.29 nm  f=0.0182  <S**2>=0.000
       4 -> 10         0.36078
       5 -> 14         0.15282
       6 -> 18         0.57723

 Excited State  47:      Singlet-AG    16.3107 eV   76.01 nm  f=0.0000  <S**2>=0.000
       8 -> 27         0.68871

 Excited State  48:      Singlet-B1U   16.4082 eV   75.56 nm  f=0.0079  <S**2>=0.000
       4 -> 10         0.48744
       5 -> 14         0.31602
       6 -> 18        -0.38119

 Excited State  49:      Singlet-B2G   16.4945 eV   75.17 nm  f=0.0000  <S**2>=0.000
       8 -> 26         0.70195

 Excited State  50:      Singlet-B2U   16.6957 eV   74.26 nm  f=0.1615  <S**2>=0.000
       5 -> 13        -0.16061
       5 -> 15         0.37793
       6 -> 19         0.51869
       7 -> 20         0.19726

 Excited State  51:      Singlet-B2U   16.7751 eV   73.91 nm  f=0.0742  <S**2>=0.000
       5 -> 13         0.22914
       5 -> 15         0.47810
       6 -> 19        -0.36190
       7 -> 20         0.27330

 Excited State  52:      Singlet-B1U   16.7869 eV   73.86 nm  f=0.0114  <S**2>=0.000
       4 -> 10        -0.32753
       5 -> 14         0.57602
       6 -> 20         0.13440
       8 -> 22         0.11240

 Excited State  53:      Singlet-AU    16.7909 eV   73.84 nm  f=0.0000  <S**2>=0.000
       8 -> 25         0.70409

 Excited State  54:      Singlet-B1G   17.0226 eV   72.83 nm  f=0.0000  <S**2>=0.000
       5 -> 16         0.64369
       7 -> 22        -0.28571

 Excited State  55:      Singlet-AG    17.1362 eV   72.35 nm  f=0.0000  <S**2>=0.000
       4 -> 11         0.68339

 Excited State  56:      Singlet-B3U   17.2563 eV   71.85 nm  f=0.0925  <S**2>=0.000
       5 -> 17         0.62956
       7 -> 21        -0.21290
       8 -> 28        -0.20537

 Excited State  57:      Singlet-B2G   17.4692 eV   70.97 nm  f=0.0000  <S**2>=0.000
       4 -> 16         0.15711
       6 -> 22         0.67644

 Excited State  58:      Singlet-B3G   17.5739 eV   70.55 nm  f=0.0000  <S**2>=0.000
       4 -> 12         0.46023
       5 -> 18        -0.19758
       6 -> 14         0.10349
       7 -> 23         0.47600

 Excited State  59:      Singlet-B3G   17.7148 eV   69.99 nm  f=0.0000  <S**2>=0.000
       4 -> 12         0.31713
       5 -> 18         0.61407

 Excited State  60:      Singlet-B3G   17.8930 eV   69.29 nm  f=0.0000  <S**2>=0.000
       4 -> 12        -0.40588
       5 -> 18         0.25017
       7 -> 23         0.50871

 Excited State  61:      Singlet-AG    17.9775 eV   68.97 nm  f=0.0000  <S**2>=0.000
       5 -> 19         0.66223
       7 -> 25         0.20184

 Excited State  62:      Singlet-B1U   17.9951 eV   68.90 nm  f=0.2845  <S**2>=0.000
       4 -> 15        -0.18779
       5 -> 14        -0.10445
       6 -> 20         0.60317
       7 -> 24         0.24751

 Excited State  63:      Singlet-AU    18.0362 eV   68.74 nm  f=0.0000  <S**2>=0.000
       4 -> 17         0.14744
       6 -> 21         0.68219

 Excited State  64:      Singlet-B3U   18.0730 eV   68.60 nm  f=0.2770  <S**2>=0.000
       4 ->  9         0.11917
       5 -> 17         0.19556
       8 -> 28         0.66091

 Excited State  65:      Singlet-B1G   18.2976 eV   67.76 nm  f=0.0000  <S**2>=0.000
       8 -> 29         0.70251

 Excited State  66:      Singlet-AU    18.3610 eV   67.53 nm  f=0.0000  <S**2>=0.000
       5 -> 22        -0.19042
       7 -> 27         0.67480

 Excited State  67:      Singlet-AU    18.5294 eV   66.91 nm  f=0.0000  <S**2>=0.000
       8 -> 30         0.69858

 Excited State  68:      Singlet-B2U   18.6680 eV   66.42 nm  f=0.0443  <S**2>=0.000
       4 -> 14        -0.11867
       7 -> 26         0.61750
       8 -> 32        -0.29072

 Excited State  69:      Singlet-B2G   18.6833 eV   66.36 nm  f=0.0000  <S**2>=0.000
       8 -> 33         0.68913
       8 -> 36        -0.10520

 Excited State  70:      Singlet-B1U   18.6896 eV   66.34 nm  f=0.2544  <S**2>=0.000
       4 -> 13         0.46050
       4 -> 15        -0.13116
       6 -> 20        -0.17274
       7 -> 24         0.47294

 Excited State  71:      Singlet-B1U   18.7418 eV   66.15 nm  f=0.0976  <S**2>=0.000
       4 -> 13         0.50646
       6 -> 20         0.22413
       7 -> 24        -0.41057

 Excited State  72:      Singlet-B3U   18.7869 eV   66.00 nm  f=0.1132  <S**2>=0.000
       8 -> 31         0.69261

 Excited State  73:      Singlet-B2U   18.8336 eV   65.83 nm  f=0.1471  <S**2>=0.000
       7 -> 26         0.30269
       8 -> 32         0.61738

 Excited State  74:      Singlet-AG    18.9876 eV   65.30 nm  f=0.0000  <S**2>=0.000
       5 -> 19        -0.20051
       7 -> 25         0.66797

 Excited State  75:      Singlet-AU    19.2279 eV   64.48 nm  f=0.0000  <S**2>=0.000
       5 -> 22         0.66245
       6 -> 21         0.10400
       7 -> 27         0.18542

 Excited State  76:      Singlet-B3G   19.3092 eV   64.21 nm  f=0.0000  <S**2>=0.000
       5 -> 20         0.66970
       7 -> 28         0.18745

 Excited State  77:      Singlet-B1U   19.4584 eV   63.72 nm  f=0.0008  <S**2>=0.000
       4 -> 15        -0.20046
       8 -> 34         0.67308

 Excited State  78:      Singlet-B2G   19.4932 eV   63.60 nm  f=0.0000  <S**2>=0.000
       3 ->  9         0.18230
       4 -> 16        -0.16057
       5 -> 21         0.62419
       6 -> 22         0.10247
       7 -> 32         0.16919

 Excited State  79:      Singlet-B2U   19.5483 eV   63.42 nm  f=0.0185  <S**2>=0.000
       4 -> 14         0.67992

 Excited State  80:      Singlet-B2G   19.6145 eV   63.21 nm  f=0.0000  <S**2>=0.000
       3 ->  9         0.60302
       4 -> 16        -0.15122
       5 -> 21        -0.24954
       8 -> 35         0.16362

 Excited State  81:      Singlet-B1U   19.6504 eV   63.09 nm  f=0.0582  <S**2>=0.000
       4 -> 15         0.61819
       6 -> 20         0.11685
       6 -> 26         0.12076
       7 -> 24         0.17375
       8 -> 34         0.20589

 Excited State  82:      Singlet-AG    19.7408 eV   62.81 nm  f=0.0000  <S**2>=0.000
       3 -> 10         0.11279
       4 -> 18        -0.10572
       6 -> 23         0.67230

 Excited State  83:      Singlet-B3G   19.8801 eV   62.37 nm  f=0.0000  <S**2>=0.000
       4 -> 19         0.14938
       5 -> 20        -0.18828
       7 -> 28         0.64876

 Excited State  84:      Singlet-B2G   19.9114 eV   62.27 nm  f=0.0000  <S**2>=0.000
       3 ->  9         0.16117
       4 -> 16         0.64221
       5 -> 21         0.10991
       6 -> 22        -0.11926
       8 -> 35         0.15265

 Excited State  85:      Singlet-AU    20.0746 eV   61.76 nm  f=0.0000  <S**2>=0.000
       4 -> 17         0.68240
       6 -> 21        -0.14029

 Excited State  86:      Singlet-B2U   20.3140 eV   61.03 nm  f=0.0162  <S**2>=0.000
       5 -> 23         0.11541
       6 -> 24         0.62963
       7 -> 33         0.25991

 Excited State  87:      Singlet-B3U   20.3938 eV   60.80 nm  f=0.2002  <S**2>=0.000
       4 -> 22        -0.14098
       6 -> 27         0.68375

 Excited State  88:      Singlet-B3G   20.6214 eV   60.12 nm  f=0.0000  <S**2>=0.000
       4 -> 19         0.41319
       6 -> 25         0.53924
       7 -> 28        -0.13325

 Excited State  89:      Singlet-B1U   20.6389 eV   60.07 nm  f=0.1478  <S**2>=0.000
       4 -> 15        -0.12099
       6 -> 26         0.68533

 Excited State  90:      Singlet-AG    20.6928 eV   59.92 nm  f=0.0000  <S**2>=0.000
       4 -> 18         0.64984
       6 -> 28        -0.15267
       7 -> 30         0.16849

 Excited State  91:      Singlet-B2G   20.7906 eV   59.63 nm  f=0.0000  <S**2>=0.000
       3 ->  9        -0.15922
       7 -> 32        -0.44527
       8 -> 35         0.48899
       8 -> 36        -0.11540

 Excited State  92:      Singlet-B1U   20.8160 eV   59.56 nm  f=0.0892  <S**2>=0.000
       5 -> 25         0.13093
       6 -> 20         0.10261
       7 -> 29         0.66917

 Excited State  93:      Singlet-B3G   20.8705 eV   59.41 nm  f=0.0000  <S**2>=0.000
       4 -> 19        -0.10500
       5 -> 26         0.16049
       6 -> 25         0.17277
       7 -> 31         0.64617

 Excited State  94:      Singlet-B2G   21.0942 eV   58.78 nm  f=0.0000  <S**2>=0.000
       3 ->  9        -0.18234
       5 -> 21        -0.15451
       7 -> 32         0.51608
       8 -> 35         0.40466

 Excited State  95:      Singlet-AG    21.1077 eV   58.74 nm  f=0.0000  <S**2>=0.000
       3 -> 10         0.53359
       4 -> 18         0.12154
       7 -> 30        -0.41443

 Excited State  96:      Singlet-B2U   21.1844 eV   58.53 nm  f=0.1552  <S**2>=0.000
       5 -> 23         0.67031

 Excited State  97:      Singlet-B3G   21.2572 eV   58.33 nm  f=0.0000  <S**2>=0.000
       4 -> 19         0.52818
       6 -> 25        -0.40681
       7 -> 31         0.17991

 Excited State  98:      Singlet-B1G   21.3252 eV   58.14 nm  f=0.0000  <S**2>=0.000
       5 -> 27         0.43398
       7 -> 34         0.54932

 Excited State  99:      Singlet-AG    21.5679 eV   57.49 nm  f=0.0000  <S**2>=0.000
       3 -> 10         0.42641
       4 -> 20         0.15736
       6 -> 23        -0.14410
       6 -> 28         0.15640
       6 -> 31         0.10372
       7 -> 30         0.46561

 Excited State 100:      Singlet-B2U   21.5900 eV   57.43 nm  f=0.2699  <S**2>=0.000
       3 -> 12        -0.12649
       6 -> 24        -0.23656
       6 -> 29        -0.28057
       7 -> 33         0.54481
       7 -> 35         0.14506

 Excited State 101:      Singlet-AG    21.8516 eV   56.74 nm  f=0.0000  <S**2>=0.000
       4 -> 18         0.15154
       4 -> 20         0.12368
       5 -> 24         0.21707
       6 -> 28         0.60593
       6 -> 31        -0.12990
       7 -> 30        -0.14074

 Excited State 102:      Singlet-B1G   21.9602 eV   56.46 nm  f=0.0000  <S**2>=0.000
       4 -> 21         0.24973
       5 -> 27         0.52225
       6 -> 32         0.15884
       7 -> 34        -0.37082

 Excited State 103:      Singlet-AG    21.9846 eV   56.40 nm  f=0.0000  <S**2>=0.000
       4 -> 18        -0.10372
       4 -> 20         0.26586
       5 -> 24         0.55496
       6 -> 28        -0.20545
       6 -> 31         0.20890

 Excited State 104:      Singlet-B1U   22.0732 eV   56.17 nm  f=0.0045  <S**2>=0.000
       3 -> 11         0.66370
       5 -> 25        -0.15028
       6 -> 33         0.11715

 Excited State 105:      Singlet-B3G   22.1567 eV   55.96 nm  f=0.0000  <S**2>=0.000
       5 -> 26         0.67004
       7 -> 31        -0.17019

 Excited State 106:      Singlet-B3U   22.3120 eV   55.57 nm  f=0.0003  <S**2>=0.000
       4 -> 22         0.67996
       6 -> 27         0.13018

 Excited State 107:      Singlet-B1U   22.3506 eV   55.47 nm  f=0.0539  <S**2>=0.000
       3 -> 11         0.16323
       5 -> 25         0.67215
       7 -> 29        -0.11964

 Excited State 108:      Singlet-B1G   22.3932 eV   55.37 nm  f=0.0000  <S**2>=0.000
       4 -> 21         0.51570
       5 -> 27        -0.18969
       6 -> 32         0.36411
       7 -> 34         0.23957

 Excited State 109:      Singlet-B2U   22.4691 eV   55.18 nm  f=0.0452  <S**2>=0.000
       3 -> 12        -0.25103
       5 -> 28        -0.18477
       6 -> 29         0.49623
       7 -> 35         0.35568
       7 -> 36        -0.10751

 Excited State 110:      Singlet-AG    22.5018 eV   55.10 nm  f=0.0000  <S**2>=0.000
       4 -> 20         0.58628
       5 -> 24        -0.23847
       6 -> 28        -0.11666
       6 -> 31        -0.22984

 Excited State 111:      Singlet-B3G   22.5564 eV   54.97 nm  f=0.0000  <S**2>=0.000
       4 -> 24         0.11830
       6 -> 30         0.63476
       8 -> 37        -0.24561

 Excited State 112:      Singlet-B2G   22.5880 eV   54.89 nm  f=0.0000  <S**2>=0.000
       8 -> 35         0.17234
       8 -> 36         0.67435

 Excited State 113:      Singlet-B2U   22.7617 eV   54.47 nm  f=0.1884  <S**2>=0.000
       3 -> 12         0.27994
       5 -> 23        -0.11963
       5 -> 28        -0.29552
       6 -> 29        -0.24756
       7 -> 33        -0.19202
       7 -> 35         0.45095

 Excited State 114:      Singlet-B3G   22.7994 eV   54.38 nm  f=0.0000  <S**2>=0.000
       6 -> 30         0.23508
       8 -> 37         0.64822

 Excited State 115:      Singlet-B1G   22.9630 eV   53.99 nm  f=0.0000  <S**2>=0.000
       4 -> 21        -0.39100
       6 -> 32         0.58110

 Excited State 116:      Singlet-B2U   23.0617 eV   53.76 nm  f=0.0931  <S**2>=0.000
       3 -> 12         0.53375
       5 -> 28        -0.15056
       5 -> 31         0.16998
       6 -> 29         0.25050
       7 -> 33         0.24657
       7 -> 35        -0.12444

 Excited State 117:      Singlet-AG    23.1691 eV   53.51 nm  f=0.0000  <S**2>=0.000
       3 -> 15        -0.11542
       4 -> 20         0.12217
       5 -> 24        -0.22472
       6 -> 28         0.13384
       6 -> 31         0.58752
       7 -> 30        -0.11830
       8 -> 40         0.14733

 Excited State 118:      Singlet-B1U   23.2003 eV   53.44 nm  f=0.1494  <S**2>=0.000
       5 -> 30         0.10502
       6 -> 33         0.66619

 Excited State 119:      Singlet-B2U   23.4382 eV   52.90 nm  f=0.0002  <S**2>=0.000
       3 -> 12         0.20400
       5 -> 28         0.57445
       7 -> 35         0.29191
       7 -> 36        -0.17964

 Excited State 120:      Singlet-B2G   23.4877 eV   52.79 nm  f=0.0000  <S**2>=0.000
       4 -> 27         0.15135
       6 -> 34         0.68798

 Excited State 121:      Singlet-AU    23.5312 eV   52.69 nm  f=0.0000  <S**2>=0.000
       8 -> 38         0.70523

 Excited State 122:      Singlet-AG    23.7067 eV   52.30 nm  f=0.0000  <S**2>=0.000
       3 -> 13         0.67317
       3 -> 15        -0.14641

 Excited State 123:      Singlet-AG    24.0168 eV   51.62 nm  f=0.0000  <S**2>=0.000
       5 -> 29         0.68482

 Excited State 124:      Singlet-B1U   24.1648 eV   51.31 nm  f=0.0127  <S**2>=0.000
       4 -> 23         0.46921
       5 -> 30         0.51358

 Excited State 125:      Singlet-B3U   24.2879 eV   51.05 nm  f=0.1050  <S**2>=0.000
       5 -> 32         0.66029
       7 -> 37        -0.14354
       8 -> 39        -0.16871

 Excited State 126:      Singlet-B1U   24.3515 eV   50.91 nm  f=0.1231  <S**2>=0.000
       4 -> 23         0.45757
       5 -> 30        -0.35421
       6 -> 35        -0.35942
       6 -> 36         0.13087

 Excited State 127:      Singlet-B3G   24.4866 eV   50.63 nm  f=0.0000  <S**2>=0.000
       3 -> 14         0.53447
       4 -> 24         0.19476
       5 -> 33         0.38801

 Excited State 128:      Singlet-B2U   24.4935 eV   50.62 nm  f=0.2207  <S**2>=0.000
       5 -> 31         0.46981
       6 -> 29        -0.14488

 The electronic state is 1-AG.
 Alpha  occ. eigenvalues --  -10.26179 -10.26091  -0.83964  -0.65062  -0.54341
 Alpha  occ. eigenvalues --   -0.49293  -0.42033  -0.34203
 Alpha virt. eigenvalues --    0.04690   0.06493   0.08395   0.13112   0.16395
 Alpha virt. eigenvalues --    0.17923   0.20232   0.21084   0.21929   0.23287
 Alpha virt. eigenvalues --    0.24962   0.29726   0.29870   0.29996   0.36109

 Mulliken charges:
               1
     1  C    0.340636
     2  C    0.340636
     3  H   -0.170318
     4  H   -0.170318
     5  H   -0.170318
     6  H   -0.170318
 Sum of Mulliken charges =  -0.00000

 Dipole moment (field-independent basis, Debye):
    X=              0.0000    Y=              0.0000    Z=              0.0000  Tot=              0.0000
 Quadrupole moment (field-independent basis, Debye-Ang):
   XX=            -15.4778   YY=            -12.5714   ZZ=            -12.4853
   XY=              0.0000   XZ=              0.0000   YZ=             -0.0000

 1\1\GINC-HEL22\SP\RCAM-B3LYP TD-FC\Gen\C2H4\SABYASACHI\21-Mar-2022\0\\
 #P TD(Nstates=10000) cam-b3lyp/Gen SCF(maxcycles=100) Int(Grid=ultrafi
 ne)\\xGDB7_00001_tier4.com\\0,1\C,0,0.,0.,0.660866\C,0,0.,0.,-0.660866
 \H,0,0.,0.922586,1.229258\H,0,0.,-0.922586,1.229258\H,0,0.,0.922586,-1
 .229258\H,0,0.,-0.922586,-1.229258\\Version=EM64L-G16RevC.01\State=1-A
 G\HF=-78.4808105\RMSD=3.044e-09\PG=D02H [C2"(C1.C1),SG(H4)]\\@
 The archive entry for this job was punched.

 Normal termination of Gaussian 16 at Mon Mar 21 20:18:11 2022.
