 Gaussian 16, Revision C.01,
 Gaussian 16:  EM64L-G16RevC.01  3-Jul-2019

 ----------------------------------------------------------------------
 #P TD(Nstates=10000) cam-b3lyp/Gen SCF(maxcycles=100) Int(Grid=ultrafi
 ne)
 ----------------------------------------------------------------------

 ---------------------
 xGDB7_00001_tier4.com
 ---------------------
 Symbolic Z-matrix:
 Charge =  0 Multiplicity = 1

                         Standard orientation:
 ---------------------------------------------------------------------
 Center     Atomic      Atomic             Coordinates (Angstroms)
 Number     Number       Type             X           Y           Z
 ---------------------------------------------------------------------
      1          6           0        0.000000    1.267731   -0.259082
      2          6           0       -0.000000   -0.000000    0.585552
      3          6           0       -0.000000   -1.267731   -0.259082
      4          1           0        0.000000    2.164308    0.363087
      5          1           0       -0.881453    1.307675   -0.903652
      6          1           0        0.881453    1.307675   -0.903652
      7          1           0       -0.874532    0.000000    1.242055
      8          1           0        0.874532   -0.000000    1.242055
      9          1           0       -0.881453   -1.307675   -0.903652
     10          1           0       -0.000000   -2.164308    0.363087
     11          1           0        0.881453   -1.307675   -0.903652
 ---------------------------------------------------------------------

 SCF Done:  E(RCAM-B3LYP) =  -118.980216495     A.U. after   11 cycles

 Excitation energies and oscillator strengths:

 Excited State   1:      Singlet-B1     8.8873 eV  139.51 nm  f=0.0020  <S**2>=0.000
      13 -> 14         0.68549
      13 -> 16         0.11569
 This state for optimization and/or second-order correction.
 Total Energy, E(TD-HF/TD-DFT) =  -118.653614469
 Copying the excited state density for this state as the 1-particle RhoCI density.

 Excited State   2:      Singlet-A1     9.2723 eV  133.71 nm  f=0.0058  <S**2>=0.000
      12 -> 14         0.68319

 Excited State   3:      Singlet-B2     9.2727 eV  133.71 nm  f=0.0429  <S**2>=0.000
      11 -> 14         0.69326

 Excited State   4:      Singlet-A2     9.7763 eV  126.82 nm  f=0.0000  <S**2>=0.000
      10 -> 14        -0.30151
      13 -> 15         0.62854

 Excited State   5:      Singlet-B1     9.9530 eV  124.57 nm  f=0.1528  <S**2>=0.000
      13 -> 14        -0.10452
      13 -> 16         0.68226

 Excited State   6:      Singlet-B2    10.0729 eV  123.09 nm  f=0.0081  <S**2>=0.000
       9 -> 14        -0.25800
      12 -> 15         0.64436

 Excited State   7:      Singlet-A1    10.1885 eV  121.69 nm  f=0.0446  <S**2>=0.000
       8 -> 14         0.13039
      11 -> 15         0.63250
      12 -> 16         0.25711

 Excited State   8:      Singlet-A1    10.2971 eV  120.41 nm  f=0.1042  <S**2>=0.000
      11 -> 15        -0.24307
      12 -> 14        -0.11546
      12 -> 16         0.62822
      13 -> 17        -0.12233

 Excited State   9:      Singlet-B2    10.3957 eV  119.27 nm  f=0.0239  <S**2>=0.000
      11 -> 16         0.69581

 Excited State  10:      Singlet-A2    10.5818 eV  117.17 nm  f=0.0000  <S**2>=0.000
      10 -> 14         0.60141
      11 -> 17        -0.15682
      13 -> 15         0.29005

 Excited State  11:      Singlet-A1    10.6060 eV  116.90 nm  f=0.2252  <S**2>=0.000
      12 -> 16         0.12018
      13 -> 17         0.68005

 Excited State  12:      Singlet-B1    10.7943 eV  114.86 nm  f=0.1076  <S**2>=0.000
      12 -> 17         0.66789
      13 -> 18         0.17411

 Excited State  13:      Singlet-A2    10.8378 eV  114.40 nm  f=0.0000  <S**2>=0.000
      10 -> 14         0.13490
      11 -> 17         0.67941

 Excited State  14:      Singlet-B1    10.8692 eV  114.07 nm  f=0.0001  <S**2>=0.000
      10 -> 15         0.22387
      12 -> 17        -0.17361
      13 -> 18         0.62659
      13 -> 20        -0.10342

 Excited State  15:      Singlet-B2    11.1896 eV  110.80 nm  f=0.1210  <S**2>=0.000
       8 -> 15         0.10885
       9 -> 14         0.60076
      11 -> 18        -0.19763
      12 -> 15         0.25342

 Excited State  16:      Singlet-A1    11.2018 eV  110.68 nm  f=0.0141  <S**2>=0.000
       9 -> 15         0.19519
      12 -> 18         0.65710
      12 -> 20        -0.11197

 Excited State  17:      Singlet-B2    11.2405 eV  110.30 nm  f=0.1256  <S**2>=0.000
       9 -> 14         0.21411
      11 -> 18         0.64318

 Excited State  18:      Singlet-B1    11.3990 eV  108.77 nm  f=0.0272  <S**2>=0.000
      10 -> 15         0.53712
      12 -> 19         0.10473
      13 -> 18        -0.12992
      13 -> 20         0.38232

 Excited State  19:      Singlet-A2    11.4441 eV  108.34 nm  f=0.0000  <S**2>=0.000
      10 -> 16         0.56237
      13 -> 21         0.38197

 Excited State  20:      Singlet-A1    11.6050 eV  106.84 nm  f=0.0078  <S**2>=0.000
      12 -> 20        -0.13312
      13 -> 19         0.67291

 Excited State  21:      Singlet-B1    11.6604 eV  106.33 nm  f=0.0237  <S**2>=0.000
      12 -> 19         0.68045

 Excited State  22:      Singlet-A2    11.7090 eV  105.89 nm  f=0.0000  <S**2>=0.000
      11 -> 19         0.68529

 Excited State  23:      Singlet-B1    11.8010 eV  105.06 nm  f=0.0820  <S**2>=0.000
       7 -> 14        -0.11363
      10 -> 15        -0.31863
      13 -> 18         0.18923
      13 -> 20         0.55954

 Excited State  24:      Singlet-A1    11.8498 eV  104.63 nm  f=0.0128  <S**2>=0.000
       8 -> 14         0.24168
       9 -> 15         0.48721
      12 -> 18        -0.10158
      12 -> 20         0.38714
      13 -> 19         0.10116

 Excited State  25:      Singlet-B2    11.8563 eV  104.57 nm  f=0.0093  <S**2>=0.000
       9 -> 16         0.41002
      10 -> 17        -0.29723
      11 -> 20         0.16389
      12 -> 21         0.39771
      13 -> 22         0.16089

 Excited State  26:      Singlet-B2    11.9147 eV  104.06 nm  f=0.1335  <S**2>=0.000
       8 -> 15        -0.10885
      10 -> 17         0.14920
      11 -> 20         0.64388

 Excited State  27:      Singlet-A2    12.0887 eV  102.56 nm  f=0.0000  <S**2>=0.000
      10 -> 16        -0.36171
      10 -> 18        -0.22182
      12 -> 23         0.10558
      13 -> 21         0.52356

 Excited State  28:      Singlet-B2    12.1289 eV  102.22 nm  f=0.2633  <S**2>=0.000
       9 -> 16         0.31417
      10 -> 17         0.49908
      11 -> 18        -0.11432
      11 -> 20        -0.10804
      12 -> 21         0.18724
      13 -> 22        -0.24248

 Excited State  29:      Singlet-A1    12.1435 eV  102.10 nm  f=0.0462  <S**2>=0.000
       8 -> 14        -0.36007
       9 -> 15        -0.18366
      11 -> 21        -0.12483
      12 -> 18         0.15956
      12 -> 20         0.49787

 Excited State  30:      Singlet-A1    12.1947 eV  101.67 nm  f=0.0836  <S**2>=0.000
       8 -> 14        -0.13628
       8 -> 16        -0.19241
      11 -> 21         0.64033

 Excited State  31:      Singlet-A2    12.2259 eV  101.41 nm  f=0.0000  <S**2>=0.000
       9 -> 17         0.51163
      10 -> 18         0.10407
      12 -> 22        -0.42830
      12 -> 23        -0.12162

 Excited State  32:      Singlet-A2    12.3523 eV  100.37 nm  f=0.0000  <S**2>=0.000
       7 -> 15        -0.14821
       9 -> 17        -0.15690
      10 -> 16        -0.11574
      10 -> 18         0.51414
      12 -> 23        -0.12653
      13 -> 21         0.19981
      13 -> 25         0.29842

 Excited State  33:      Singlet-B2    12.3747 eV  100.19 nm  f=0.0047  <S**2>=0.000
       9 -> 16        -0.27591
       9 -> 18        -0.10389
      10 -> 19         0.20069
      12 -> 21         0.35534
      13 -> 22        -0.19285
      13 -> 23         0.43222

 Excited State  34:      Singlet-A1    12.4285 eV   99.76 nm  f=0.0038  <S**2>=0.000
       8 -> 14         0.48388
       8 -> 18         0.12519
       9 -> 15        -0.38834
      12 -> 18         0.10955
      12 -> 20         0.20256

 Excited State  35:      Singlet-B2    12.4674 eV   99.45 nm  f=0.0619  <S**2>=0.000
       9 -> 16         0.30785
       9 -> 18         0.18595
      10 -> 19         0.19179
      12 -> 21        -0.34398
      12 -> 25         0.10580
      13 -> 22        -0.19531
      13 -> 23         0.37847

 Excited State  36:      Singlet-B1    12.4989 eV   99.20 nm  f=0.0000  <S**2>=0.000
       7 -> 14        -0.16191
       7 -> 16        -0.14412
       8 -> 17         0.16102
      10 -> 21         0.21249
      11 -> 22         0.42295
      11 -> 23         0.14330
      13 -> 24         0.40387

 Excited State  37:      Singlet-B1    12.5639 eV   98.68 nm  f=0.0205  <S**2>=0.000
       7 -> 14         0.11557
       7 -> 16         0.13270
       8 -> 17         0.15844
      10 -> 21        -0.20222
      11 -> 22         0.44677
      11 -> 23         0.16410
      13 -> 24        -0.39460

 Excited State  38:      Singlet-A2    12.6090 eV   98.33 nm  f=0.0000  <S**2>=0.000
       9 -> 19         0.22272
      10 -> 20         0.23795
      12 -> 22        -0.15196
      12 -> 23         0.53439
      13 -> 25         0.19377
      13 -> 27        -0.10211

 Excited State  39:      Singlet-B1    12.6214 eV   98.23 nm  f=0.0216  <S**2>=0.000
       8 -> 19        -0.12269
      11 -> 22        -0.20865
      11 -> 23         0.64598

 Excited State  40:      Singlet-B2    12.6660 eV   97.89 nm  f=0.0318  <S**2>=0.000
       9 -> 18        -0.16028
      10 -> 17         0.31163
      12 -> 21        -0.10106
      12 -> 25        -0.13817
      13 -> 22         0.50154
      13 -> 23         0.24954

 Excited State  41:      Singlet-B2    12.8286 eV   96.65 nm  f=0.0501  <S**2>=0.000
       8 -> 15        -0.12631
       9 -> 16        -0.14797
       9 -> 18         0.46645
      10 -> 17         0.10542
      12 -> 21         0.14405
      12 -> 25         0.35524
      13 -> 22         0.24360

 Excited State  42:      Singlet-A2    12.8883 eV   96.20 nm  f=0.0000  <S**2>=0.000
      10 -> 18        -0.24807
      10 -> 20         0.50513
      12 -> 23        -0.27813
      13 -> 25         0.22785
      13 -> 27        -0.10446

 Excited State  43:      Singlet-B1    12.8979 eV   96.13 nm  f=0.0843  <S**2>=0.000
       7 -> 14         0.63609
      10 -> 15        -0.15025
      13 -> 24         0.21508

 Excited State  44:      Singlet-A1    12.9409 eV   95.81 nm  f=0.0054  <S**2>=0.000
       8 -> 14         0.10583
       8 -> 16        -0.23487
       9 -> 21         0.17896
      11 -> 21        -0.10288
      11 -> 25         0.36031
      12 -> 24         0.46911

 Excited State  45:      Singlet-A2    13.0346 eV   95.12 nm  f=0.0000  <S**2>=0.000
       9 -> 17         0.44058
      12 -> 22         0.51228
      12 -> 23         0.13036

 Excited State  46:      Singlet-B2    13.1432 eV   94.33 nm  f=0.1114  <S**2>=0.000
       8 -> 21        -0.10162
       9 -> 20        -0.12292
      10 -> 19         0.24406
      11 -> 20        -0.10076
      11 -> 24         0.59412

 Excited State  47:      Singlet-B2    13.1960 eV   93.96 nm  f=0.0549  <S**2>=0.000
       8 -> 15         0.26251
      10 -> 19         0.49717
      11 -> 24        -0.24499
      12 -> 25         0.15248
      13 -> 23        -0.24674

 Excited State  48:      Singlet-A2    13.2448 eV   93.61 nm  f=0.0000  <S**2>=0.000
       9 -> 19        -0.11450
      10 -> 18        -0.22261
      10 -> 20        -0.31595
      10 -> 24        -0.13892
      13 -> 25         0.49996
      13 -> 27        -0.12823
      13 -> 30         0.13671

 Excited State  49:      Singlet-A1    13.2544 eV   93.54 nm  f=0.0004  <S**2>=0.000
       7 -> 17        -0.16492
       8 -> 16        -0.21020
      10 -> 22        -0.25960
      11 -> 25         0.36607
      12 -> 24        -0.34551
      13 -> 26         0.26285

 Excited State  50:      Singlet-B2    13.2956 eV   93.25 nm  f=0.0101  <S**2>=0.000
       8 -> 15        -0.21934
       9 -> 18        -0.30970
       9 -> 20         0.36375
      11 -> 24         0.16899
      12 -> 25         0.32115
      12 -> 27        -0.23823

 Excited State  51:      Singlet-B2    13.3617 eV   92.79 nm  f=0.0001  <S**2>=0.000
       8 -> 15         0.53710
       9 -> 20         0.17994
      10 -> 19        -0.24814
      11 -> 24         0.11531
      12 -> 25         0.21952

 Excited State  52:      Singlet-A1    13.4054 eV   92.49 nm  f=0.0007  <S**2>=0.000
       8 -> 16         0.53829
       8 -> 18        -0.10840
      10 -> 22        -0.17131
      11 -> 21         0.17017
      11 -> 25         0.17335
      12 -> 24         0.20192
      13 -> 26         0.18693

 Excited State  53:      Singlet-B1    13.5197 eV   91.71 nm  f=0.0317  <S**2>=0.000
       7 -> 16        -0.25253
       7 -> 18         0.11324
      10 -> 21         0.52603
      13 -> 24        -0.33731

 Excited State  54:      Singlet-A2    13.5616 eV   91.42 nm  f=0.0000  <S**2>=0.000
       9 -> 19         0.50409
      11 -> 26         0.15588
      12 -> 23        -0.23565
      13 -> 27        -0.33463

 Excited State  55:      Singlet-A2    13.5930 eV   91.21 nm  f=0.0000  <S**2>=0.000
       7 -> 15         0.12778
       9 -> 19         0.34595
      10 -> 24         0.11824
      13 -> 25         0.19754
      13 -> 27         0.50660

 Excited State  56:      Singlet-B1    13.6144 eV   91.07 nm  f=0.0090  <S**2>=0.000
       8 -> 17        -0.29867
       9 -> 22        -0.26566
       9 -> 23         0.10413
      11 -> 22         0.16197
      12 -> 26         0.43153
      13 -> 28        -0.27219

 Excited State  57:      Singlet-A1    13.7444 eV   90.21 nm  f=0.0004  <S**2>=0.000
       8 -> 16        -0.11241
       8 -> 18        -0.27993
       8 -> 20         0.15314
       9 -> 21        -0.10939
      11 -> 25        -0.17355
      11 -> 27         0.50785
      12 -> 28         0.10198
      13 -> 26         0.15469
      13 -> 29        -0.12740

 Excited State  58:      Singlet-B1    13.7939 eV   89.88 nm  f=0.0450  <S**2>=0.000
       7 -> 18        -0.11209
       8 -> 17        -0.35158
       9 -> 22        -0.17714
       9 -> 23        -0.18476
      11 -> 22         0.12396
      12 -> 29        -0.30965
      13 -> 28         0.37828

 Excited State  59:      Singlet-A2    13.8684 eV   89.40 nm  f=0.0000  <S**2>=0.000
       7 -> 15         0.60761
      10 -> 18         0.11894
      11 -> 26        -0.22410
      13 -> 27        -0.15396

 Excited State  60:      Singlet-A1    13.8931 eV   89.24 nm  f=0.2317  <S**2>=0.000
       8 -> 16        -0.16032
       9 -> 21        -0.17935
      10 -> 23         0.18269
      11 -> 25        -0.16770
      11 -> 27        -0.15590
      12 -> 24         0.18141
      12 -> 28        -0.15555
      13 -> 26         0.41660
      13 -> 29         0.28539

 Excited State  61:      Singlet-B2    13.8937 eV   89.24 nm  f=0.0054  <S**2>=0.000
       9 -> 18         0.28179
       9 -> 20         0.37616
      11 -> 28         0.14855
      12 -> 25        -0.35084
      12 -> 27        -0.32139

 Excited State  62:      Singlet-A2    13.9245 eV   89.04 nm  f=0.0000  <S**2>=0.000
       7 -> 15         0.23120
       8 -> 22         0.11551
       9 -> 19        -0.16040
      11 -> 26         0.58863
      11 -> 29         0.17426

 Excited State  63:      Singlet-B1    13.9719 eV   88.74 nm  f=0.0060  <S**2>=0.000
       7 -> 16         0.60206
      10 -> 21         0.29316
      10 -> 25        -0.12318

 Excited State  64:      Singlet-B1    14.0254 eV   88.40 nm  f=0.0241  <S**2>=0.000
       8 -> 17         0.44277
       9 -> 22        -0.15057
      11 -> 22        -0.12458
      12 -> 26         0.42892
      12 -> 29        -0.17060
      13 -> 28         0.18282

 Excited State  65:      Singlet-B2    14.0323 eV   88.36 nm  f=0.0820  <S**2>=0.000
       8 -> 15        -0.12028
       9 -> 20         0.25837
       9 -> 24         0.15552
      11 -> 28         0.32022
      11 -> 31         0.10899
      12 -> 27         0.46806
      12 -> 30        -0.14264

 Excited State  66:      Singlet-A1    14.0485 eV   88.25 nm  f=0.0960  <S**2>=0.000
       8 -> 16         0.12357
       8 -> 20         0.14051
       9 -> 21         0.26168
      10 -> 22         0.26269
      10 -> 23         0.19883
      11 -> 25         0.20486
      11 -> 27         0.19049
      12 -> 24        -0.19842
      13 -> 29         0.33793

 Excited State  67:      Singlet-A1    14.1494 eV   87.62 nm  f=0.0046  <S**2>=0.000
       7 -> 17         0.23326
       9 -> 21         0.20239
      10 -> 23        -0.10396
      11 -> 27        -0.14655
      12 -> 28         0.40872
      13 -> 26         0.35296
      13 -> 29        -0.18581

 Excited State  68:      Singlet-A2    14.2197 eV   87.19 nm  f=0.0000  <S**2>=0.000
      10 -> 24        -0.16402
      11 -> 26        -0.17487
      11 -> 29         0.63608

 Excited State  69:      Singlet-A1    14.2330 eV   87.11 nm  f=0.0016  <S**2>=0.000
       7 -> 17        -0.15126
       8 -> 18        -0.10226
       9 -> 21        -0.22361
      10 -> 22        -0.11107
      10 -> 23         0.21100
      11 -> 27        -0.14829
      12 -> 28         0.48877
      13 -> 26        -0.19553
      13 -> 29         0.17358

 Excited State  70:      Singlet-A1    14.2958 eV   86.73 nm  f=0.0158  <S**2>=0.000
      10 -> 23         0.52129
      13 -> 29        -0.40733

 Excited State  71:      Singlet-B1    14.3574 eV   86.36 nm  f=0.0623  <S**2>=0.000
       7 -> 18         0.26530
       8 -> 17        -0.10547
       9 -> 22         0.12444
       9 -> 23         0.17690
      10 -> 25        -0.33746
      12 -> 29         0.25616
      13 -> 28         0.38861

 Excited State  72:      Singlet-A2    14.3578 eV   86.35 nm  f=0.0000  <S**2>=0.000
       7 -> 21        -0.13853
      10 -> 20        -0.16244
      10 -> 24         0.60089
      11 -> 29         0.16138
      13 -> 27        -0.17677

 Excited State  73:      Singlet-A1    14.4330 eV   85.90 nm  f=0.0062  <S**2>=0.000
       7 -> 17        -0.21261
       8 -> 18         0.25578
       9 -> 21        -0.35433
      10 -> 22         0.40670
      10 -> 23        -0.13586
      11 -> 25         0.14732

 Excited State  74:      Singlet-B1    14.4790 eV   85.63 nm  f=0.0031  <S**2>=0.000
       8 -> 19         0.28235
       9 -> 23        -0.31155
      10 -> 25         0.20639
      12 -> 26         0.15867
      12 -> 29         0.44678
      13 -> 28         0.10698

 Excited State  75:      Singlet-B2    14.5069 eV   85.47 nm  f=0.2216  <S**2>=0.000
       9 -> 20        -0.22002
      10 -> 19        -0.11168
      11 -> 28         0.56849
      12 -> 25         0.12233
      12 -> 27        -0.21661

 Excited State  76:      Singlet-A1    14.5149 eV   85.42 nm  f=0.0014  <S**2>=0.000
       7 -> 17         0.28824
       8 -> 18         0.41825
       9 -> 21        -0.11709
       9 -> 25        -0.17926
      10 -> 22        -0.29919
      11 -> 27         0.24524

 Excited State  77:      Singlet-B1    14.6738 eV   84.49 nm  f=0.1071  <S**2>=0.000
       8 -> 17        -0.10881
       9 -> 22         0.50115
       9 -> 23         0.19661
      10 -> 25         0.23801
      12 -> 26         0.25938
      12 -> 29        -0.17298

 Excited State  78:      Singlet-B1    14.7725 eV   83.93 nm  f=0.0625  <S**2>=0.000
       7 -> 18         0.10968
       7 -> 20        -0.21728
       8 -> 19        -0.31132
       9 -> 22        -0.19336
      10 -> 25         0.37321
      10 -> 27        -0.23598
      12 -> 26        -0.11092
      12 -> 29         0.10197
      13 -> 28         0.18947
      13 -> 31         0.14308

 Excited State  79:      Singlet-A1    14.8269 eV   83.62 nm  f=0.0229  <S**2>=0.000
       7 -> 17         0.42932
       8 -> 18        -0.19708
       8 -> 20         0.20274
       9 -> 21        -0.26352
       9 -> 25         0.17797
      10 -> 22         0.13408
      11 -> 25         0.19168
      11 -> 27        -0.12291

 Excited State  80:      Singlet-B2    14.9012 eV   83.20 nm  f=0.0527  <S**2>=0.000
       8 -> 21        -0.25816
       9 -> 20        -0.17612
       9 -> 24         0.56846
      10 -> 26        -0.12447
      12 -> 27        -0.15841

 Excited State  81:      Singlet-B1    14.9235 eV   83.08 nm  f=0.0097  <S**2>=0.000
       8 -> 19         0.50491
       9 -> 22        -0.18021
       9 -> 23         0.38011
      11 -> 23         0.10700

 Excited State  82:      Singlet-B1    15.0394 eV   82.44 nm  f=0.3903  <S**2>=0.000
       7 -> 18         0.52062
       7 -> 20        -0.10041
       8 -> 19         0.10229
       9 -> 23        -0.23858
      12 -> 29        -0.16667
      13 -> 28        -0.12432
      13 -> 31         0.24832

 Excited State  83:      Singlet-A1    15.0838 eV   82.20 nm  f=0.3886  <S**2>=0.000
       7 -> 17        -0.13534
       7 -> 19         0.18935
       8 -> 20         0.49737
       9 -> 25        -0.31673
      10 -> 23        -0.13054
      11 -> 27        -0.12238
      11 -> 30         0.10441
      13 -> 29        -0.10575

 Excited State  84:      Singlet-A2    15.1967 eV   81.59 nm  f=0.0000  <S**2>=0.000
       7 -> 21        -0.11841
      10 -> 20         0.11644
      13 -> 27         0.12812
      13 -> 30         0.64988

 Excited State  85:      Singlet-A1    15.2319 eV   81.40 nm  f=0.0002  <S**2>=0.000
       7 -> 17        -0.11372
       7 -> 19         0.30969
       8 -> 18         0.15699
       8 -> 20         0.13830
       9 -> 25         0.46502
      11 -> 30         0.22410
      12 -> 31         0.17712

 Excited State  86:      Singlet-B2    15.2531 eV   81.28 nm  f=0.1991  <S**2>=0.000
       7 -> 22         0.17688
       8 -> 21         0.13787
       9 -> 24         0.18240
      10 -> 26         0.58495
      10 -> 29        -0.13346
      13 -> 32        -0.10298

 Excited State  87:      Singlet-B1    15.3027 eV   81.02 nm  f=0.1962  <S**2>=0.000
       7 -> 18         0.19103
       9 -> 23         0.13391
      10 -> 25         0.20852
      10 -> 27         0.46191
      13 -> 31        -0.37398

 Excited State  88:      Singlet-B2    15.3616 eV   80.71 nm  f=0.0010  <S**2>=0.000
       8 -> 21         0.57177
       9 -> 24         0.23693
      10 -> 26        -0.14890

 The electronic state is 1-A1.
 Alpha  occ. eigenvalues --  -10.25196 -10.24490 -10.24487  -0.85850  -0.75391
 Alpha  occ. eigenvalues --   -0.65484  -0.52920  -0.50748  -0.46621  -0.44657
 Alpha  occ. eigenvalues --   -0.40292  -0.40114  -0.39010
 Alpha virt. eigenvalues --    0.05473   0.08137   0.08947   0.11761   0.13325
 Alpha virt. eigenvalues --    0.15129   0.15975   0.16353   0.17816   0.19284
 Alpha virt. eigenvalues --    0.19935   0.20848   0.22693   0.23444   0.24478

 Mulliken charges:
               1
     1  C    0.598975
     2  C   -0.372850
     3  C    0.598975
     4  H   -0.115041
     5  H   -0.073611
     6  H   -0.073611
     7  H   -0.150287
     8  H   -0.150287
     9  H   -0.073611
    10  H   -0.115041
    11  H   -0.073611
 Sum of Mulliken charges =  -0.00000

 Dipole moment (field-independent basis, Debye):
    X=              0.0000    Y=             -0.0000    Z=              0.0877  Tot=              0.0877
 Quadrupole moment (field-independent basis, Debye-Ang):
   XX=            -21.6937   YY=            -22.5723   ZZ=            -22.2013
   XY=             -0.0000   XZ=              0.0000   YZ=             -0.0000

 1\1\GINC-HEL22\SP\RCAM-B3LYP TD-FC\Gen\C3H8\SABYASACHI\21-Mar-2022\0\\
 #P TD(Nstates=10000) cam-b3lyp/Gen SCF(maxcycles=100) Int(Grid=ultrafi
 ne)\\xGDB7_00001_tier4.com\\0,1\C,0,0.,1.267731,-0.259082\C,0,0.,0.,0.
 585552\C,0,0.,-1.267731,-0.259082\H,0,0.,2.164308,0.363087\H,0,-0.8814
 53,1.307675,-0.903652\H,0,0.881453,1.307675,-0.903652\H,0,-0.874532,0.
 ,1.242055\H,0,0.874532,0.,1.242055\H,0,-0.881453,-1.307675,-0.903652\H
 ,0,0.,-2.164308,0.363087\H,0,0.881453,-1.307675,-0.903652\\Version=EM6
 4L-G16RevC.01\State=1-A1\HF=-118.9802165\RMSD=3.383e-09\PG=C02V [C2(C1

 Normal termination of Gaussian 16 at Mon Mar 21 20:19:39 2022.
