 Gaussian 16, Revision C.01,
 Gaussian 16:  EM64L-G16RevC.01  3-Jul-2019

 ----------------------------------------------------------------------
 #P TD(Nstates=10000) cam-b3lyp/Gen SCF(maxcycles=100) Int(Grid=ultrafi
 ne)
 ----------------------------------------------------------------------

 ---------------------
 xGDB7_00001_tier4.com
 ---------------------
 Symbolic Z-matrix:
 Charge =  0 Multiplicity = 1

                         Standard orientation:
 ---------------------------------------------------------------------
 Center     Atomic      Atomic             Coordinates (Angstroms)
 Number     Number       Type             X           Y           Z
 ---------------------------------------------------------------------
      1          6           0        0.000000    0.000000    0.761397
      2          6           0       -0.000000   -0.000000   -0.761397
      3          1           0        0.000000    1.017110    1.157248
      4          1           0        0.880843   -0.508555    1.157248
      5          1           0       -0.880843   -0.508555    1.157248
      6          1           0        0.880843    0.508555   -1.157248
      7          1           0       -0.880843    0.508555   -1.157248
      8          1           0       -0.000000   -1.017110   -1.157248
 ---------------------------------------------------------------------

 SCF Done:  E(RCAM-B3LYP) =  -79.7173647892     A.U. after   10 cycles

 Excitation energies and oscillator strengths:

 Excited State   1:      Singlet-EG     9.2277 eV  134.36 nm  f=0.0000  <S**2>=0.000
       8 -> 10         0.69917
 This state for optimization and/or second-order correction.
 Total Energy, E(TD-HF/TD-DFT) =  -79.3782515579
 Copying the excited state density for this state as the 1-particle RhoCI density.

 Excited State   2:      Singlet-EG     9.2277 eV  134.36 nm  f=0.0000  <S**2>=0.000
       9 -> 10         0.69917

 Excited State   3:      Singlet-A1G   10.0668 eV  123.16 nm  f=0.0000  <S**2>=0.000
       7 -> 10         0.69926

 Excited State   4:      Singlet-EU    10.2103 eV  121.43 nm  f=0.1256  <S**2>=0.000
       5 -> 10         0.12774
       9 -> 11         0.68959

 Excited State   5:      Singlet-EU    10.2103 eV  121.43 nm  f=0.1256  <S**2>=0.000
       6 -> 10         0.12774
       8 -> 11         0.68959

 Excited State   6:      Singlet-A2U   11.0245 eV  112.46 nm  f=0.2572  <S**2>=0.000
       7 -> 11         0.70258

 Excited State   7:      Singlet-EG    11.2415 eV  110.29 nm  f=0.0747  <S**2>=0.000
       8 -> 12         0.49148
       9 -> 13        -0.49148

 Excited State   8:      Singlet-EG    11.2415 eV  110.29 nm  f=0.0747  <S**2>=0.000
       8 -> 13         0.49149
       9 -> 12         0.49147

 Excited State   9:      Singlet-EG    11.2487 eV  110.22 nm  f=0.0000  <S**2>=0.000
       8 -> 13        -0.49403
       9 -> 12         0.49404

 Excited State  10:      Singlet-EU    11.5685 eV  107.17 nm  f=0.0000  <S**2>=0.000
       8 -> 15         0.49181
       9 -> 14        -0.49180

 Excited State  11:      Singlet-EG    11.5909 eV  106.97 nm  f=0.2748  <S**2>=0.000
       8 -> 12         0.49502
       9 -> 13         0.49502

 Excited State  12:      Singlet-EU    11.8035 eV  105.04 nm  f=0.0000  <S**2>=0.000
       8 -> 14         0.49459
       9 -> 15        -0.49452

 Excited State  13:      Singlet-EU    11.8035 eV  105.04 nm  f=0.0000  <S**2>=0.000
       8 -> 15         0.49455
       9 -> 14         0.49456

 Excited State  14:      Singlet-EU    11.8135 eV  104.95 nm  f=0.0000  <S**2>=0.000
       8 -> 14         0.48480
       9 -> 15         0.48487

 Excited State  15:      Singlet-EU    11.9608 eV  103.66 nm  f=0.0044  <S**2>=0.000
       5 -> 10         0.31074
       7 -> 13         0.62106

 Excited State  16:      Singlet-EU    11.9608 eV  103.66 nm  f=0.0044  <S**2>=0.000
       6 -> 10         0.31073
       7 -> 12         0.62106

 Excited State  17:      Singlet-EU    12.0261 eV  103.10 nm  f=0.1422  <S**2>=0.000
       5 -> 10         0.60447
       7 -> 13        -0.31844
       9 -> 11        -0.11700

 Excited State  18:      Singlet-EU    12.0261 eV  103.10 nm  f=0.1422  <S**2>=0.000
       6 -> 10         0.60447
       7 -> 12        -0.31843
       8 -> 11        -0.11700

 Excited State  19:      Singlet-EG    12.2695 eV  101.05 nm  f=0.0000  <S**2>=0.000
       7 -> 14         0.67199
       8 -> 16        -0.14884

 Excited State  20:      Singlet-EG    12.2695 eV  101.05 nm  f=0.0000  <S**2>=0.000
       7 -> 15         0.67199
       9 -> 16        -0.14885

 Excited State  21:      Singlet-EG    12.3412 eV  100.46 nm  f=0.0000  <S**2>=0.000
       5 -> 11         0.36785
       7 -> 15         0.18589
       9 -> 16         0.56366

 Excited State  22:      Singlet-EG    12.3412 eV  100.46 nm  f=0.0000  <S**2>=0.000
       6 -> 11         0.36785
       7 -> 14         0.18589
       8 -> 16         0.56366

 Excited State  23:      Singlet-EU    12.9112 eV   96.03 nm  f=0.0000  <S**2>=0.000
       5 -> 12        -0.21014
       6 -> 13         0.21014
       8 -> 18         0.44760
       9 -> 17        -0.44760

 Excited State  24:      Singlet-EU    12.9482 eV   95.75 nm  f=0.0000  <S**2>=0.000
       5 -> 12         0.20000
       6 -> 13         0.20000
       8 -> 18         0.44099
       9 -> 16        -0.12428
       9 -> 17         0.44099

 Excited State  25:      Singlet-EU    12.9482 eV   95.75 nm  f=0.0000  <S**2>=0.000
       5 -> 13        -0.20000
       6 -> 12         0.20000
       8 -> 16         0.12428
       8 -> 17         0.44099
       9 -> 18        -0.44099

 Excited State  26:      Singlet-EG    13.2649 eV   93.47 nm  f=0.0000  <S**2>=0.000
       6 -> 11         0.58306
       8 -> 16        -0.36604

 Excited State  27:      Singlet-EG    13.2649 eV   93.47 nm  f=0.0000  <S**2>=0.000
       5 -> 11         0.58306
       9 -> 16        -0.36604

 Excited State  28:      Singlet-A1G   13.3383 eV   92.95 nm  f=0.0000  <S**2>=0.000
       7 -> 16         0.55653
       8 -> 17         0.28757
       9 -> 18         0.28757

 Excited State  29:      Singlet-EG    13.3830 eV   92.64 nm  f=0.0000  <S**2>=0.000
       5 -> 14        -0.21202
       6 -> 15         0.21202
       8 -> 20        -0.44673
       9 -> 19         0.44673

 Excited State  30:      Singlet-EU    13.5545 eV   91.47 nm  f=0.0002  <S**2>=0.000
       5 -> 10        -0.10659
       5 -> 16        -0.10886
       8 -> 20         0.22858
       9 -> 19         0.22858
       9 -> 21         0.58756

 Excited State  31:      Singlet-EU    13.5545 eV   91.47 nm  f=0.0002  <S**2>=0.000
       6 -> 10        -0.10659
       6 -> 16        -0.10886
       8 -> 19        -0.22858
       8 -> 21         0.58756
       9 -> 20         0.22858

 Excited State  32:      Singlet-EU    13.7909 eV   89.90 nm  f=0.0000  <S**2>=0.000
       5 -> 13        -0.21942
       6 -> 12        -0.21942
       7 -> 16        -0.31592
       8 -> 17         0.37389
       9 -> 18         0.37389

 Excited State  33:      Singlet-EG    13.8183 eV   89.72 nm  f=0.0000  <S**2>=0.000
       7 -> 18         0.70043

 Excited State  34:      Singlet-EG    13.8183 eV   89.72 nm  f=0.0000  <S**2>=0.000
       7 -> 17         0.70043

 Excited State  35:      Singlet-EG    13.8878 eV   89.28 nm  f=0.1760  <S**2>=0.000
       5 -> 15        -0.19370
       6 -> 14        -0.19370
       7 -> 21         0.13927
       8 -> 19         0.44644
       9 -> 20         0.44644

 Excited State  36:      Singlet-EU    13.9021 eV   89.18 nm  f=0.1725  <S**2>=0.000
       7 -> 19         0.36776
       8 -> 19        -0.36013
       8 -> 21        -0.27429
       9 -> 20         0.36014

 Excited State  37:      Singlet-EU    13.9021 eV   89.18 nm  f=0.1725  <S**2>=0.000
       7 -> 20         0.36776
       8 -> 20         0.36014
       9 -> 19         0.36014
       9 -> 21        -0.27429

 Excited State  38:      Singlet-EU    14.1157 eV   87.83 nm  f=0.0000  <S**2>=0.000
       5 -> 12        -0.44836
       6 -> 13         0.44837
       8 -> 18        -0.20849
       9 -> 17         0.20848

 Excited State  39:      Singlet-EU    14.1374 eV   87.70 nm  f=0.0000  <S**2>=0.000
       5 -> 12         0.45046
       6 -> 13         0.45045
       8 -> 18        -0.20663
       9 -> 17        -0.20664

 Excited State  40:      Singlet-EU    14.1374 eV   87.70 nm  f=0.0000  <S**2>=0.000
       5 -> 13        -0.45046
       6 -> 12         0.45046
       8 -> 17        -0.20663
       9 -> 18         0.20663

 Excited State  41:      Singlet-EG    14.2458 eV   87.03 nm  f=0.0030  <S**2>=0.000
       5 -> 15         0.37481
       6 -> 14         0.37480
       7 -> 21         0.36717
       8 -> 19         0.11082
       8 -> 22        -0.14103
       9 -> 20         0.11083
       9 -> 23        -0.14103

 Excited State  42:      Singlet-EU    14.3153 eV   86.61 nm  f=0.0091  <S**2>=0.000
       5 -> 14        -0.26392
       6 -> 15        -0.26392
       7 -> 20         0.48041
       8 -> 20        -0.18266
       8 -> 23         0.12708
       9 -> 19        -0.18266
       9 -> 21         0.10344
       9 -> 22         0.12708

 Excited State  43:      Singlet-EU    14.3153 eV   86.61 nm  f=0.0091  <S**2>=0.000
       5 -> 15        -0.26391
       6 -> 14         0.26392
       7 -> 19         0.48041
       8 -> 19         0.18266
       8 -> 21         0.10344
       8 -> 22        -0.12708
       9 -> 20        -0.18266
       9 -> 23         0.12708

 Excited State  44:      Singlet-EG    14.4171 eV   86.00 nm  f=0.0000  <S**2>=0.000
       5 -> 14         0.42916
       6 -> 15        -0.42916
       8 -> 20        -0.20982
       8 -> 23         0.13136
       9 -> 19         0.20982
       9 -> 22        -0.13136

 Excited State  45:      Singlet-EG    14.7615 eV   83.99 nm  f=0.3744  <S**2>=0.000
       5 -> 14         0.39812
       5 -> 16         0.13505
       6 -> 15         0.39812
       7 -> 20         0.29985
       9 -> 21         0.17748

 Excited State  46:      Singlet-EG    14.7615 eV   83.99 nm  f=0.3744  <S**2>=0.000
       5 -> 15        -0.39812
       6 -> 14         0.39812
       6 -> 16        -0.13505
       7 -> 19        -0.29985
       8 -> 21        -0.17748

 Excited State  47:      Singlet-EU    14.9755 eV   82.79 nm  f=0.0000  <S**2>=0.000
       5 -> 13         0.42478
       6 -> 12         0.42478
       7 -> 16        -0.26748
       8 -> 17         0.11574
       9 -> 18         0.11574

 Excited State  48:      Singlet-EG    15.0427 eV   82.42 nm  f=0.0000  <S**2>=0.000
       5 -> 14         0.13241
       5 -> 17         0.18348
       6 -> 15        -0.13241
       6 -> 18        -0.18348
       8 -> 23        -0.44009
       9 -> 22         0.44009

 Excited State  49:      Singlet-A2U   15.0659 eV   82.29 nm  f=0.2174  <S**2>=0.000
       5 -> 15        -0.23644
       5 -> 18         0.10277
       6 -> 14        -0.23644
       6 -> 17         0.10277
       7 -> 21         0.49289
       8 -> 19        -0.17169
       8 -> 22        -0.16033
       9 -> 20        -0.17169
       9 -> 23        -0.16033

 Excited State  50:      Singlet-EG    15.1964 eV   81.59 nm  f=0.2456  <S**2>=0.000
       5 -> 18        -0.12517
       6 -> 17         0.12517
       7 -> 19         0.14753
       8 -> 19         0.13225
       8 -> 22         0.44252
       9 -> 20        -0.13225
       9 -> 23        -0.44252

 Excited State  51:      Singlet-EG    15.1964 eV   81.59 nm  f=0.2456  <S**2>=0.000
       5 -> 17         0.12517
       6 -> 18         0.12517
       7 -> 20        -0.14753
       8 -> 20         0.13225
       8 -> 23         0.44252
       9 -> 19         0.13225
       9 -> 22         0.44252

 Excited State  52:      Singlet-EG    15.3820 eV   80.60 nm  f=0.7150  <S**2>=0.000
       5 -> 18         0.21091
       6 -> 17         0.21091
       7 -> 21         0.22725
       8 -> 22         0.40809
       9 -> 23         0.40809

 Excited State  53:      Singlet-EU    15.4461 eV   80.27 nm  f=0.0701  <S**2>=0.000
       5 -> 16         0.65169
       7 -> 23        -0.16534

 Excited State  54:      Singlet-EU    15.4461 eV   80.27 nm  f=0.0701  <S**2>=0.000
       6 -> 16         0.65169
       7 -> 22        -0.16534

 Excited State  55:      Singlet-EU    15.9727 eV   77.62 nm  f=0.0713  <S**2>=0.000
       5 -> 17        -0.28609
       6 -> 18        -0.28608
       7 -> 23         0.53762
       8 -> 23         0.11930
       9 -> 22         0.11930

 Excited State  56:      Singlet-EU    15.9727 eV   77.62 nm  f=0.0713  <S**2>=0.000
       5 -> 18        -0.28608
       6 -> 17         0.28608
       7 -> 22         0.53762
       8 -> 22        -0.11930
       9 -> 23         0.11930

 Excited State  57:      Singlet-EG    16.0232 eV   77.38 nm  f=0.0000  <S**2>=0.000
       5 -> 17        -0.45639
       6 -> 18         0.45639
       8 -> 23        -0.19154
       9 -> 22         0.19154

 Excited State  58:      Singlet-EU    16.0741 eV   77.13 nm  f=0.1772  <S**2>=0.000
       5 -> 18         0.36026
       6 -> 16         0.14655
       6 -> 17        -0.36027
       7 -> 22         0.39521
       8 -> 22         0.10178
       9 -> 23        -0.10178

 Excited State  59:      Singlet-EU    16.0741 eV   77.13 nm  f=0.1772  <S**2>=0.000
       5 -> 16         0.14655
       5 -> 17         0.36026
       6 -> 18         0.36027
       7 -> 23         0.39521
       8 -> 23        -0.10178
       9 -> 22        -0.10178

 Excited State  60:      Singlet-EG    16.1755 eV   76.65 nm  f=0.0034  <S**2>=0.000
       5 -> 18         0.42104
       6 -> 17         0.42103
       7 -> 21        -0.16986
       7 -> 24         0.17491
       8 -> 22        -0.16246
       9 -> 23        -0.16246

 Excited State  61:      Singlet-EU    16.2021 eV   76.52 nm  f=0.0000  <S**2>=0.000
       5 -> 19         0.48733
       6 -> 20        -0.48732

 Excited State  62:      Singlet-EG    16.2254 eV   76.41 nm  f=0.0000  <S**2>=0.000
       5 -> 19         0.19494
       5 -> 21         0.62462
       6 -> 20         0.19496

 Excited State  63:      Singlet-EG    16.2254 eV   76.41 nm  f=0.0000  <S**2>=0.000
       5 -> 20         0.19495
       6 -> 19        -0.19495
       6 -> 21         0.62463

 Excited State  64:      Singlet-EU    16.4959 eV   75.16 nm  f=0.0509  <S**2>=0.000
       8 -> 24         0.68926

 Excited State  65:      Singlet-EU    16.4959 eV   75.16 nm  f=0.0509  <S**2>=0.000
       9 -> 24         0.68926

 Excited State  66:      Singlet-EU    16.5375 eV   74.97 nm  f=0.0000  <S**2>=0.000
       5 -> 20         0.49253
       6 -> 19         0.49249

 Excited State  67:      Singlet-EU    16.5482 eV   74.92 nm  f=0.0000  <S**2>=0.000
       5 -> 20        -0.44435
       6 -> 19         0.44440
       6 -> 21         0.27468

 Excited State  68:      Singlet-EU    16.5482 eV   74.92 nm  f=0.0000  <S**2>=0.000
       5 -> 19         0.44437
       5 -> 21        -0.27468
       6 -> 20         0.44437

 Excited State  69:      Singlet-A2U   17.0110 eV   72.88 nm  f=0.0468  <S**2>=0.000
       4 -> 10         0.62761
       7 -> 24        -0.29592

 Excited State  70:      Singlet-EG    17.1058 eV   72.48 nm  f=0.0000  <S**2>=0.000
       8 -> 25         0.68698

 Excited State  71:      Singlet-EG    17.1058 eV   72.48 nm  f=0.0000  <S**2>=0.000
       9 -> 25         0.68698

 Excited State  72:      Singlet-EU    17.2876 eV   71.72 nm  f=0.0142  <S**2>=0.000
       8 -> 26         0.69912

 Excited State  73:      Singlet-EU    17.2876 eV   71.72 nm  f=0.0142  <S**2>=0.000
       9 -> 26         0.69912

 Excited State  74:      Singlet-A2U   17.5810 eV   70.52 nm  f=0.3125  <S**2>=0.000
       4 -> 10         0.27224
       7 -> 24         0.60149

 Excited State  75:      Singlet-EU    17.7974 eV   69.66 nm  f=0.0000  <S**2>=0.000
       5 -> 22        -0.48200
       6 -> 23         0.48207

 Excited State  76:      Singlet-EU    17.8107 eV   69.61 nm  f=0.0000  <S**2>=0.000
       5 -> 22         0.47052
       6 -> 23         0.47046
       8 -> 29        -0.11672
       9 -> 28        -0.11673

 Excited State  77:      Singlet-EU    17.8107 eV   69.61 nm  f=0.0000  <S**2>=0.000
       5 -> 23         0.47049
       6 -> 22        -0.47049
       8 -> 28         0.11672
       9 -> 29        -0.11673

 Excited State  78:      Singlet-A1G   17.8345 eV   69.52 nm  f=0.0000  <S**2>=0.000
       5 -> 23         0.21932
       6 -> 22         0.21932
       7 -> 25         0.59750

 Excited State  79:      Singlet-A1G   17.9421 eV   69.10 nm  f=0.0000  <S**2>=0.000
       4 -> 11         0.65809
       7 -> 25         0.12275
       8 -> 28        -0.12935
       9 -> 29        -0.12935

 Excited State  80:      Singlet-EU    18.0091 eV   68.85 nm  f=0.0000  <S**2>=0.000
       5 -> 23         0.42768
       6 -> 22         0.42768
       7 -> 25        -0.27903
       8 -> 28        -0.15271
       9 -> 29        -0.15271

 Excited State  81:      Singlet-A1U   18.0318 eV   68.76 nm  f=0.0000  <S**2>=0.000
       7 -> 26         0.70559

 Excited State  82:      Singlet-EU    18.3429 eV   67.59 nm  f=0.0000  <S**2>=0.000
       8 -> 29         0.46664
       8 -> 33        -0.12285
       9 -> 28        -0.46664
       9 -> 34         0.12285

 Excited State  83:      Singlet-EU    18.3755 eV   67.47 nm  f=0.1030  <S**2>=0.000
       4 -> 15        -0.11108
       5 -> 25         0.16093
       8 -> 32        -0.11969
       9 -> 27         0.64885
       9 -> 31        -0.11969

 Excited State  84:      Singlet-EU    18.3755 eV   67.47 nm  f=0.1030  <S**2>=0.000
       4 -> 14        -0.11108
       6 -> 25         0.16093
       8 -> 27         0.64885
       8 -> 31         0.11969
       9 -> 32        -0.11969

 Excited State  85:      Singlet-EG    18.5004 eV   67.02 nm  f=0.0000  <S**2>=0.000
       8 -> 32        -0.49013
       9 -> 31         0.49013

 Excited State  86:      Singlet-EG    18.5734 eV   66.75 nm  f=0.0000  <S**2>=0.000
       4 -> 13        -0.10215
       8 -> 29         0.33424
       9 -> 28         0.33425
       9 -> 30         0.43453

 Excited State  87:      Singlet-EG    18.5735 eV   66.75 nm  f=0.0000  <S**2>=0.000
       4 -> 12        -0.10215
       8 -> 28        -0.33424
       8 -> 30         0.43453
       9 -> 29         0.33425

 Excited State  88:      Singlet-EG    18.7173 eV   66.24 nm  f=0.0000  <S**2>=0.000
       4 -> 13        -0.21188
       5 -> 24         0.28330
       7 -> 29         0.38144
       8 -> 29         0.16820
       9 -> 28         0.16820
       9 -> 30        -0.37691

 Excited State  89:      Singlet-EG    18.7173 eV   66.24 nm  f=0.0000  <S**2>=0.000
       4 -> 12        -0.21187
       6 -> 24         0.28330
       7 -> 28         0.38144
       8 -> 28        -0.16821
       8 -> 30        -0.37691
       9 -> 29         0.16819

 Excited State  90:      Singlet-EG    18.7269 eV   66.21 nm  f=0.1290  <S**2>=0.000
       7 -> 32         0.16820
       8 -> 32         0.45513
       9 -> 27         0.17307
       9 -> 31         0.45513

 Excited State  91:      Singlet-EG    18.7269 eV   66.21 nm  f=0.1290  <S**2>=0.000
       7 -> 31         0.16820
       8 -> 27         0.17307
       8 -> 31        -0.45513
       9 -> 32         0.45513

 Excited State  92:      Singlet-EU    18.7657 eV   66.07 nm  f=0.0000  <S**2>=0.000
       4 -> 11         0.18070
       5 -> 23         0.11091
       6 -> 22         0.11091
       7 -> 25        -0.15103
       8 -> 28         0.43142
       9 -> 29         0.43141

 Excited State  93:      Singlet-EG    18.9039 eV   65.59 nm  f=0.0000  <S**2>=0.000
       4 -> 12         0.45168
       7 -> 28        -0.27039
       8 -> 28        -0.25660
       8 -> 30        -0.24362
       9 -> 29         0.25661

 Excited State  94:      Singlet-EG    18.9039 eV   65.59 nm  f=0.0000  <S**2>=0.000
       4 -> 13         0.45168
       7 -> 29        -0.27039
       8 -> 29         0.25661
       9 -> 28         0.25661
       9 -> 30        -0.24362

 Excited State  95:      Singlet-EG    18.9886 eV   65.29 nm  f=0.2758  <S**2>=0.000
       8 -> 31         0.47801
       9 -> 32         0.47800

 Excited State  96:      Singlet-EG    19.0344 eV   65.14 nm  f=0.0000  <S**2>=0.000
       4 -> 13         0.37884
       5 -> 24        -0.33204
       7 -> 29         0.45520
       7 -> 33        -0.12398

 Excited State  97:      Singlet-EG    19.0344 eV   65.14 nm  f=0.0000  <S**2>=0.000
       4 -> 12         0.37885
       6 -> 24        -0.33204
       7 -> 28         0.45519
       7 -> 34        -0.12398

 Excited State  98:      Singlet-EU    19.0432 eV   65.11 nm  f=0.0001  <S**2>=0.000
       5 -> 25         0.20305
       7 -> 32         0.39502
       9 -> 35         0.52516

 Excited State  99:      Singlet-EU    19.0432 eV   65.11 nm  f=0.0001  <S**2>=0.000
       6 -> 25         0.20305
       7 -> 31         0.39502
       8 -> 35         0.52516

 Excited State 100:      Singlet-A2U   19.1553 eV   64.73 nm  f=0.0496  <S**2>=0.000
       7 -> 27         0.69214

 Excited State 101:      Singlet-EG    19.2473 eV   64.42 nm  f=0.0000  <S**2>=0.000
       4 -> 12         0.28470
       6 -> 24         0.49665
       7 -> 28         0.15118
       8 -> 28         0.12301
       8 -> 30         0.28508
       9 -> 29        -0.12301

 Excited State 102:      Singlet-EG    19.2473 eV   64.42 nm  f=0.0000  <S**2>=0.000
       4 -> 13         0.28470
       5 -> 24         0.49665
       7 -> 29         0.15119
       8 -> 29        -0.12301
       9 -> 28        -0.12301
       9 -> 30         0.28508

 Excited State 103:      Singlet-EU    19.3650 eV   64.03 nm  f=0.0579  <S**2>=0.000
       4 -> 15         0.53125
       7 -> 32        -0.34942
       9 -> 35         0.23058

 Excited State 104:      Singlet-EU    19.3650 eV   64.03 nm  f=0.0579  <S**2>=0.000
       4 -> 14         0.53125
       7 -> 31        -0.34942
       8 -> 35         0.23058

 Excited State 105:      Singlet-A1G   19.4134 eV   63.87 nm  f=0.0000  <S**2>=0.000
       7 -> 30         0.59989
       8 -> 34         0.24221
       9 -> 33         0.24220

 Excited State 106:      Singlet-EU    19.4936 eV   63.60 nm  f=0.0000  <S**2>=0.000
       5 -> 26         0.10033
       6 -> 24         0.10686
       8 -> 30         0.10387
       8 -> 34        -0.45473
       9 -> 33         0.45473
       9 -> 36         0.11548

 Excited State 107:      Singlet-EU    19.4936 eV   63.60 nm  f=0.0000  <S**2>=0.000
       5 -> 24         0.10685
       6 -> 26        -0.10033
       8 -> 33         0.45473
       8 -> 36        -0.11548

 The electronic state is 1-A1G.
 Alpha  occ. eigenvalues --  -10.24732 -10.24723  -0.82969  -0.68680  -0.50516
 Alpha  occ. eigenvalues --   -0.50516  -0.43566  -0.40689  -0.40689
 Alpha virt. eigenvalues --    0.05556   0.08471   0.13506   0.13506   0.15388
 Alpha virt. eigenvalues --    0.15388   0.18833   0.19660   0.19660   0.22878
 Alpha virt. eigenvalues --    0.22878   0.23429   0.27583   0.27583   0.32899

 Mulliken charges:
               1
     1  C    0.300154
     2  C    0.300154
     3  H   -0.100051
     4  H   -0.100051
     5  H   -0.100051
     6  H   -0.100051
     7  H   -0.100051
     8  H   -0.100051
 Sum of Mulliken charges =  -0.00000

 Dipole moment (field-independent basis, Debye):
    X=              0.0000    Y=             -0.0000    Z=              0.0000  Tot=              0.0000
 Quadrupole moment (field-independent basis, Debye-Ang):
   XX=            -15.0595   YY=            -15.0595   ZZ=            -15.8104
   XY=             -0.0000   XZ=              0.0000   YZ=             -0.0000

 1\1\GINC-HEL25\SP\RCAM-B3LYP TD-FC\Gen\C2H6\SABYASACHI\21-Mar-2022\0\\
 #P TD(Nstates=10000) cam-b3lyp/Gen SCF(maxcycles=100) Int(Grid=ultrafi
 ne)\\xGDB7_00001_tier4.com\\0,1\C,0,0.,0.,0.761397\C,0,0.,0.,-0.761397
 \H,0,0.,1.01711,1.157248\H,0,0.880843,-0.508555,1.157248\H,0,-0.880843
 ,-0.508555,1.157248\H,0,0.880843,0.508555,-1.157248\H,0,-0.880843,0.50
 8555,-1.157248\H,0,0.,-1.01711,-1.157248\\Version=EM64L-G16RevC.01\Sta
 te=1-A1G\HF=-79.7173648\RMSD=2.805e-09\PG=D03D [C3(C1.C1),3SGD(H2)]\\@
 The archive entry for this job was punched.

 Normal termination of Gaussian 16 at Mon Mar 21 20:09:58 2022.
