 Gaussian 16, Revision C.01,
 Gaussian 16:  EM64L-G16RevC.01  3-Jul-2019

 ----------------------------------------------------------------------
 #P TD(Nstates=10000) cam-b3lyp/Gen SCF(maxcycles=100) Int(Grid=ultrafi
 ne)
 ----------------------------------------------------------------------

 ---------------------
 xGDB7_00001_tier4.com
 ---------------------
 Symbolic Z-matrix:
 Charge =  0 Multiplicity = 1

                         Standard orientation:
 ---------------------------------------------------------------------
 Center     Atomic      Atomic             Coordinates (Angstroms)
 Number     Number       Type             X           Y           Z
 ---------------------------------------------------------------------
      1          6           0        0.046419    0.658432    0.000000
      2          8           0        0.046419   -0.751929    0.000000
      3          1           0       -0.438905    1.073261    0.890797
      4          1           0       -0.438905    1.073261   -0.890797
      5          1           0        1.087855    0.977571    0.000000
      6          1           0       -0.859911   -1.059251    0.000000
 ---------------------------------------------------------------------

 SCF Done:  E(RCAM-B3LYP) =  -115.595410052     A.U. after   12 cycles

 Excitation energies and oscillator strengths:

 Excited State   1:      Singlet-A"     6.9228 eV  179.10 nm  f=0.0026  <S**2>=0.000
       9 -> 10         0.67622
       9 -> 11        -0.17647
 This state for optimization and/or second-order correction.
 Total Energy, E(TD-HF/TD-DFT) =  -115.341001273
 Copying the excited state density for this state as the 1-particle RhoCI density.

 Excited State   2:      Singlet-A"     8.2921 eV  149.52 nm  f=0.0363  <S**2>=0.000
       9 -> 10         0.17894
       9 -> 11         0.67692

 Excited State   3:      Singlet-A'     8.6654 eV  143.08 nm  f=0.0026  <S**2>=0.000
       8 -> 10         0.68039
       8 -> 11        -0.13024

 Excited State   4:      Singlet-A"     9.2515 eV  134.02 nm  f=0.0128  <S**2>=0.000
       9 -> 13         0.68557

 Excited State   5:      Singlet-A'     9.3288 eV  132.90 nm  f=0.0625  <S**2>=0.000
       9 -> 12         0.69347

 Excited State   6:      Singlet-A'     9.8203 eV  126.25 nm  f=0.0634  <S**2>=0.000
       8 -> 10         0.13138
       8 -> 11         0.67649

 Excited State   7:      Singlet-A"     9.9966 eV  124.03 nm  f=0.0044  <S**2>=0.000
       9 -> 13         0.10594
       9 -> 14         0.68005

 Excited State   8:      Singlet-A"    10.3767 eV  119.48 nm  f=0.0122  <S**2>=0.000
       9 -> 15         0.67780

 Excited State   9:      Singlet-A'    10.8417 eV  114.36 nm  f=0.0810  <S**2>=0.000
       8 -> 13         0.66725
       8 -> 14        -0.14655
       9 -> 16         0.10136

 Excited State  10:      Singlet-A'    10.8688 eV  114.07 nm  f=0.0092  <S**2>=0.000
       9 -> 16         0.67271
       9 -> 18         0.14460

 Excited State  11:      Singlet-A"    10.8871 eV  113.88 nm  f=0.0356  <S**2>=0.000
       8 -> 12         0.69946

 Excited State  12:      Singlet-A'    11.3146 eV  109.58 nm  f=0.0516  <S**2>=0.000
       7 -> 10         0.63147
       7 -> 11        -0.13813
       8 -> 14         0.18378
       8 -> 15         0.13031

 Excited State  13:      Singlet-A"    11.4180 eV  108.59 nm  f=0.0052  <S**2>=0.000
       6 -> 10        -0.23861
       9 -> 17         0.64022

 Excited State  14:      Singlet-A'    11.6331 eV  106.58 nm  f=0.0352  <S**2>=0.000
       8 -> 14        -0.27919
       8 -> 15         0.17367
       9 -> 16        -0.10268
       9 -> 18         0.59453

 Excited State  15:      Singlet-A"    11.7075 eV  105.90 nm  f=0.0553  <S**2>=0.000
       6 -> 10         0.60790
       9 -> 17         0.25517
       9 -> 19        -0.17756

 Excited State  16:      Singlet-A'    11.7324 eV  105.68 nm  f=0.0024  <S**2>=0.000
       7 -> 10        -0.25679
       7 -> 11        -0.19820
       8 -> 13         0.13788
       8 -> 14         0.52809
       8 -> 15         0.20201
       9 -> 18         0.18726

 Excited State  17:      Singlet-A"    12.1772 eV  101.82 nm  f=0.0006  <S**2>=0.000
       6 -> 10         0.18557
       8 -> 16         0.32934
       9 -> 19         0.56126

 Excited State  18:      Singlet-A'    12.2687 eV  101.06 nm  f=0.0120  <S**2>=0.000
       7 -> 11         0.28042
       8 -> 15         0.58209
       8 -> 17        -0.19412
       9 -> 18        -0.14944

 Excited State  19:      Singlet-A"    12.3019 eV  100.78 nm  f=0.0247  <S**2>=0.000
       6 -> 10        -0.11727
       8 -> 16         0.60568
       9 -> 19        -0.28917
       9 -> 20         0.11001

 Excited State  20:      Singlet-A'    12.4716 eV   99.41 nm  f=0.1441  <S**2>=0.000
       5 -> 10        -0.10544
       7 -> 11         0.58213
       8 -> 14         0.22201
       8 -> 15        -0.14969
       8 -> 17         0.11864
       9 -> 18         0.17764

 Excited State  21:      Singlet-A"    12.5897 eV   98.48 nm  f=0.0521  <S**2>=0.000
       6 -> 11         0.64862
       9 -> 20         0.17088

 Excited State  22:      Singlet-A"    12.8998 eV   96.11 nm  f=0.0014  <S**2>=0.000
       7 -> 12        -0.29766
       8 -> 18         0.62206

 Excited State  23:      Singlet-A'    13.1332 eV   94.41 nm  f=0.0192  <S**2>=0.000
       5 -> 10         0.10359
       6 -> 12         0.19898
       7 -> 13         0.21810
       8 -> 15         0.13941
       8 -> 17         0.58819
       9 -> 18        -0.11751

 Excited State  24:      Singlet-A"    13.1439 eV   94.33 nm  f=0.0275  <S**2>=0.000
       6 -> 11        -0.20934
       9 -> 19         0.14597
       9 -> 20         0.61980
       9 -> 21         0.13591

 Excited State  25:      Singlet-A"    13.5677 eV   91.38 nm  f=0.0047  <S**2>=0.000
       7 -> 12         0.62366
       8 -> 18         0.29862

 Excited State  26:      Singlet-A'    13.5814 eV   91.29 nm  f=0.1135  <S**2>=0.000
       5 -> 10         0.12712
       7 -> 13         0.60158
       7 -> 14        -0.11020
       8 -> 17        -0.26317

 Excited State  27:      Singlet-A'    13.6445 eV   90.87 nm  f=0.0478  <S**2>=0.000
       5 -> 10         0.59452
       5 -> 11        -0.11950
       6 -> 12        -0.27764

 Excited State  28:      Singlet-A"    13.8081 eV   89.79 nm  f=0.0001  <S**2>=0.000
       6 -> 13         0.64654
       6 -> 14        -0.20704

 Excited State  29:      Singlet-A'    14.0322 eV   88.36 nm  f=0.0472  <S**2>=0.000
       5 -> 10         0.11632
       5 -> 11        -0.14041
       6 -> 12         0.18351
       6 -> 16         0.10476
       7 -> 14         0.19691
       8 -> 19         0.54936
       8 -> 20        -0.17155

 Excited State  30:      Singlet-A"    14.2362 eV   87.09 nm  f=0.0033  <S**2>=0.000
       9 -> 20        -0.17944
       9 -> 21         0.65505

 Excited State  31:      Singlet-A'    14.2579 eV   86.96 nm  f=0.0800  <S**2>=0.000
       5 -> 10         0.16503
       6 -> 12         0.42850
       7 -> 14         0.18869
       7 -> 15         0.32612
       8 -> 19        -0.27274
       9 -> 22         0.14378
       9 -> 24         0.11890

 Excited State  32:      Singlet-A'    14.4322 eV   85.91 nm  f=0.0547  <S**2>=0.000
       7 -> 13        -0.10361
       7 -> 14        -0.36475
       7 -> 15         0.15521
       8 -> 19         0.12716
       8 -> 20        -0.10358
       9 -> 22         0.50701

 Excited State  33:      Singlet-A'    14.4612 eV   85.74 nm  f=0.0007  <S**2>=0.000
       5 -> 11         0.11031
       6 -> 12        -0.32986
       7 -> 13         0.17898
       7 -> 14         0.11569
       7 -> 15         0.49619
       7 -> 17        -0.10304

 Excited State  34:      Singlet-A"    14.6124 eV   84.85 nm  f=0.0039  <S**2>=0.000
       6 -> 14         0.17994
       6 -> 15         0.31988
       7 -> 16         0.53289
       8 -> 22         0.10573
       9 -> 23         0.17791

 Excited State  35:      Singlet-A'    14.6240 eV   84.78 nm  f=0.0865  <S**2>=0.000
       5 -> 10         0.13520
       5 -> 11         0.52254
       7 -> 14        -0.10083
       8 -> 19         0.18607
       8 -> 20         0.30993
       9 -> 24        -0.15794

 Excited State  36:      Singlet-A'    14.7285 eV   84.18 nm  f=0.1780  <S**2>=0.000
       5 -> 11         0.12632
       6 -> 12        -0.10392
       7 -> 14         0.45209
       7 -> 15        -0.20012
       9 -> 22         0.42240

 Excited State  37:      Singlet-A"    14.7866 eV   83.85 nm  f=0.0886  <S**2>=0.000
       6 -> 13         0.18663
       6 -> 14         0.44115
       6 -> 17         0.11586
       6 -> 19         0.11139
       7 -> 16        -0.27603
       9 -> 21         0.14783
       9 -> 23         0.34072

 Excited State  38:      Singlet-A'    14.8388 eV   83.55 nm  f=0.0074  <S**2>=0.000
       5 -> 10        -0.10473
       5 -> 11        -0.32847
       6 -> 16        -0.13881
       7 -> 15         0.12185
       8 -> 19         0.11924
       8 -> 20         0.52258
       9 -> 24         0.14145

 Excited State  39:      Singlet-A"    15.0120 eV   82.59 nm  f=0.0001  <S**2>=0.000
       6 -> 14        -0.33871
       6 -> 15        -0.24230
       9 -> 23         0.53472

 Excited State  40:      Singlet-A'    15.0320 eV   82.48 nm  f=0.3831  <S**2>=0.000
       5 -> 11         0.16520
       6 -> 18        -0.13052
       7 -> 15        -0.11749
       8 -> 19         0.14928
       9 -> 24         0.61858

 Excited State  41:      Singlet-A"    15.1338 eV   81.93 nm  f=0.2785  <S**2>=0.000
       6 -> 14        -0.20283
       6 -> 15         0.52956
       7 -> 16        -0.32499
       9 -> 23         0.11786

 Excited State  42:      Singlet-A'    15.3873 eV   80.58 nm  f=0.1316  <S**2>=0.000
       5 -> 13         0.12334
       6 -> 16         0.56558
       7 -> 15         0.11492
       7 -> 17         0.27842
       8 -> 20         0.13496
       8 -> 21         0.10958

 Excited State  43:      Singlet-A"    15.5194 eV   79.89 nm  f=0.0378  <S**2>=0.000
       5 -> 12         0.11568
       6 -> 15        -0.10230
       7 -> 18         0.65817
       8 -> 24         0.13338

 Excited State  44:      Singlet-A'    15.6182 eV   79.38 nm  f=0.1873  <S**2>=0.000
       5 -> 13         0.10956
       6 -> 16        -0.30396
       7 -> 17         0.52127
       7 -> 19        -0.11594
       8 -> 21         0.26197

 Excited State  45:      Singlet-A"    15.7035 eV   78.95 nm  f=0.0531  <S**2>=0.000
       5 -> 12         0.65915
       8 -> 24        -0.10615
       9 -> 25        -0.14841

 Excited State  46:      Singlet-A"    15.7531 eV   78.70 nm  f=0.0115  <S**2>=0.000
       5 -> 12         0.13593
       6 -> 15         0.11790
       6 -> 17         0.22990
       9 -> 25         0.61057

 Excited State  47:      Singlet-A'    15.8718 eV   78.12 nm  f=0.0047  <S**2>=0.000
       5 -> 13         0.41726
       6 -> 18         0.21906
       7 -> 17        -0.28310
       8 -> 21         0.37681

 Excited State  48:      Singlet-A"    15.9087 eV   77.93 nm  f=0.0069  <S**2>=0.000
       6 -> 14        -0.11523
       6 -> 17         0.56408
       8 -> 22        -0.22328
       9 -> 25        -0.26129

 Excited State  49:      Singlet-A'    15.9949 eV   77.51 nm  f=0.0709  <S**2>=0.000
       5 -> 13         0.49980
       6 -> 18        -0.22343
       8 -> 21        -0.33601
       8 -> 23         0.14141

 Excited State  50:      Singlet-A'    16.0518 eV   77.24 nm  f=0.0142  <S**2>=0.000
       6 -> 16        -0.10815
       6 -> 18         0.56077
       7 -> 17         0.17374
       7 -> 19         0.19156
       8 -> 21        -0.21052
       9 -> 24         0.12749

 Excited State  51:      Singlet-A"    16.2262 eV   76.41 nm  f=0.1221  <S**2>=0.000
       6 -> 17         0.24738
       8 -> 22         0.63678

 Excited State  52:      Singlet-A'    16.5030 eV   75.13 nm  f=0.0400  <S**2>=0.000
       5 -> 14         0.25044
       8 -> 21         0.17427
       8 -> 23         0.57121
       9 -> 26        -0.19736

 Excited State  53:      Singlet-A"    16.5154 eV   75.07 nm  f=0.0370  <S**2>=0.000
       5 -> 12         0.10120
       7 -> 18        -0.11006
       8 -> 24         0.49308
       9 -> 27        -0.43730

 Excited State  54:      Singlet-A"    16.5960 eV   74.71 nm  f=0.0066  <S**2>=0.000
       8 -> 24         0.44987
       9 -> 27         0.47130
       9 -> 30         0.14714

 Excited State  55:      Singlet-A'    16.6159 eV   74.62 nm  f=0.0070  <S**2>=0.000
       5 -> 14         0.13145
       8 -> 23         0.14628
       9 -> 26         0.66097

 Excited State  56:      Singlet-A'    16.7145 eV   74.18 nm  f=0.0028  <S**2>=0.000
       5 -> 14         0.40416
       5 -> 15        -0.33378
       7 -> 19         0.35589
       8 -> 23        -0.17292

 Excited State  57:      Singlet-A'    16.7209 eV   74.15 nm  f=0.0243  <S**2>=0.000
       5 -> 14         0.44347
       5 -> 15         0.22471
       7 -> 19        -0.35480
       7 -> 20         0.13107
       8 -> 23        -0.25118

 Excited State  58:      Singlet-A"    16.8787 eV   73.46 nm  f=0.0182  <S**2>=0.000
       5 -> 16         0.14989
       6 -> 14        -0.12744
       6 -> 19         0.56744
       6 -> 20        -0.14932
       9 -> 27        -0.13147
       9 -> 29        -0.23565

 Excited State  59:      Singlet-A"    17.0425 eV   72.75 nm  f=0.0024  <S**2>=0.000
       5 -> 16         0.47423
       6 -> 19        -0.26572
       6 -> 20         0.10461
       9 -> 29        -0.36284
       9 -> 30         0.13984

 Excited State  60:      Singlet-A'    17.0427 eV   72.75 nm  f=0.0612  <S**2>=0.000
       5 -> 15         0.44207
       5 -> 17        -0.11917
       7 -> 19         0.29165
       7 -> 20         0.17722
       8 -> 27        -0.10698
       9 -> 28         0.32483

 Excited State  61:      Singlet-A'    17.1891 eV   72.13 nm  f=0.0800  <S**2>=0.000
       5 -> 15        -0.14068
       7 -> 19        -0.20748
       7 -> 20        -0.19714
       7 -> 21        -0.10529
       8 -> 25        -0.27006
       9 -> 28         0.52842

 Excited State  62:      Singlet-A"    17.2661 eV   71.81 nm  f=0.1539  <S**2>=0.000
       5 -> 16         0.45791
       9 -> 27         0.10643
       9 -> 29         0.39939
       9 -> 30        -0.25970

 Excited State  63:      Singlet-A'    17.3501 eV   71.46 nm  f=0.1306  <S**2>=0.000
       7 -> 19        -0.15685
       8 -> 21        -0.12783
       8 -> 25         0.59031
       9 -> 28         0.22936

 Excited State  64:      Singlet-A"    17.5155 eV   70.79 nm  f=0.0010  <S**2>=0.000
       6 -> 20         0.11561
       9 -> 27        -0.14134
       9 -> 29         0.34319
       9 -> 30         0.55740

 Excited State  65:      Singlet-A'    17.6149 eV   70.39 nm  f=0.1699  <S**2>=0.000
       4 -> 10        -0.14789
       5 -> 14        -0.11225
       5 -> 15        -0.18090
       5 -> 17         0.25505
       7 -> 20         0.52199
       8 -> 25        -0.18158

 Excited State  66:      Singlet-A"    17.7003 eV   70.05 nm  f=0.0029  <S**2>=0.000
       5 -> 18         0.19184
       6 -> 19         0.19221
       6 -> 20         0.57814
       6 -> 21         0.12893
       9 -> 30        -0.13557
       9 -> 31         0.12594

 Excited State  67:      Singlet-A"    17.9159 eV   69.20 nm  f=0.0009  <S**2>=0.000
       5 -> 18         0.65134
       6 -> 20        -0.17017
       8 -> 26        -0.10204

 Excited State  68:      Singlet-A'    17.9521 eV   69.06 nm  f=0.0193  <S**2>=0.000
       5 -> 15         0.16782
       5 -> 17         0.59098
       7 -> 20        -0.17215
       8 -> 27         0.19141

 Excited State  69:      Singlet-A"    18.1154 eV   68.44 nm  f=0.0088  <S**2>=0.000
       8 -> 26         0.68630

 Excited State  70:      Singlet-A'    18.2877 eV   67.80 nm  f=0.0629  <S**2>=0.000
       4 -> 10         0.12806
       5 -> 17        -0.15186
       7 -> 20         0.16983
       7 -> 21        -0.19223
       8 -> 27         0.58909

 Excited State  71:      Singlet-A'    18.3715 eV   67.49 nm  f=0.0053  <S**2>=0.000
       4 -> 10        -0.30363
       5 -> 17        -0.11818
       7 -> 20        -0.12950
       7 -> 21         0.50948
       8 -> 27         0.25203

 Excited State  72:      Singlet-A"    18.3759 eV   67.47 nm  f=0.0084  <S**2>=0.000
       6 -> 21        -0.19668
       9 -> 31         0.64019

 Excited State  73:      Singlet-A"    18.5685 eV   66.77 nm  f=0.0153  <S**2>=0.000
       6 -> 21        -0.13708
       7 -> 22         0.43386
       8 -> 28         0.50353

 Excited State  74:      Singlet-A'    18.5831 eV   66.72 nm  f=0.0073  <S**2>=0.000
       4 -> 10         0.55972
       5 -> 19         0.13882
       7 -> 21         0.28091
       8 -> 30        -0.12704
       9 -> 32         0.17744

 Excited State  75:      Singlet-A"    18.7212 eV   66.23 nm  f=0.0117  <S**2>=0.000
       7 -> 22         0.52337
       7 -> 24        -0.23506
       8 -> 28        -0.37533

 Excited State  76:      Singlet-A'    18.7362 eV   66.17 nm  f=0.0319  <S**2>=0.000
       4 -> 11         0.12887
       5 -> 19        -0.12119
       7 -> 25         0.10179
       8 -> 29         0.62947
       8 -> 30        -0.16240

 Excited State  77:      Singlet-A'    18.7869 eV   66.00 nm  f=0.0621  <S**2>=0.000
       5 -> 19        -0.43200
       6 -> 22         0.20374
       7 -> 23        -0.17956
       9 -> 32         0.44496

 Excited State  78:      Singlet-A"    18.8364 eV   65.82 nm  f=0.0130  <S**2>=0.000
       6 -> 20        -0.20434
       6 -> 21         0.57503
       6 -> 23        -0.13909
       7 -> 24         0.14074
       8 -> 28         0.10714
       9 -> 31         0.17452
       9 -> 33        -0.15500

 Excited State  79:      Singlet-A'    18.9528 eV   65.42 nm  f=0.0466  <S**2>=0.000
       5 -> 19        -0.25795
       5 -> 20         0.15206
       7 -> 21         0.11716
       7 -> 23         0.53396
       8 -> 29        -0.12933
       8 -> 30        -0.21754

 Excited State  80:      Singlet-A"    19.0759 eV   65.00 nm  f=0.0702  <S**2>=0.000
       6 -> 21        -0.10004
       7 -> 22         0.11987
       7 -> 24         0.63131
       8 -> 28        -0.22355

 Excited State  81:      Singlet-A'    19.1196 eV   64.85 nm  f=0.0326  <S**2>=0.000
       4 -> 10        -0.10122
       4 -> 11         0.13420
       5 -> 19         0.23898
       6 -> 22         0.43754
       6 -> 24        -0.17643
       7 -> 21        -0.17972
       8 -> 30        -0.33658

 Excited State  82:      Singlet-A'    19.2586 eV   64.38 nm  f=0.0049  <S**2>=0.000
       5 -> 19         0.24645
       7 -> 23         0.31027
       8 -> 29         0.12245
       8 -> 30         0.22501
       8 -> 31         0.12158
       9 -> 32         0.42086
       9 -> 35         0.17363

 Excited State  83:      Singlet-A'    19.2899 eV   64.27 nm  f=0.0181  <S**2>=0.000
       4 -> 11        -0.29379
       6 -> 22         0.45786
       7 -> 23         0.16263
       8 -> 29         0.14250
       8 -> 30         0.29345
       9 -> 32        -0.18176

 Excited State  84:      Singlet-A"    19.3432 eV   64.10 nm  f=0.0005  <S**2>=0.000
       6 -> 23        -0.18328
       9 -> 31         0.11230
       9 -> 33         0.63496
       9 -> 34        -0.11651

 Excited State  85:      Singlet-A"    19.3774 eV   63.98 nm  f=0.0470  <S**2>=0.000
       6 -> 21         0.17043
       6 -> 23         0.64030
       9 -> 33         0.13221
       9 -> 34        -0.10686

 Excited State  86:      Singlet-A'    19.4207 eV   63.84 nm  f=0.0070  <S**2>=0.000
       4 -> 11        -0.32941
       5 -> 19         0.11238
       5 -> 20         0.14371
       6 -> 24         0.51164
       7 -> 25         0.10293
       8 -> 30        -0.20079

 Excited State  87:      Singlet-A'    19.4913 eV   63.61 nm  f=0.0415  <S**2>=0.000
       4 -> 11         0.44081
       5 -> 20        -0.18511
       6 -> 22         0.15907
       6 -> 24         0.42960
       8 -> 30         0.13968

 Excited State  88:      Singlet-A'    19.6579 eV   63.07 nm  f=0.1103  <S**2>=0.000
       4 -> 11         0.11077
       5 -> 20         0.51307
       7 -> 23        -0.12809
       7 -> 25        -0.27557
       8 -> 30         0.10899
       8 -> 31         0.15142
       9 -> 35        -0.11907

 Excited State  89:      Singlet-A"    19.7316 eV   62.84 nm  f=0.0031  <S**2>=0.000
       6 -> 21         0.12291
       9 -> 33         0.13773
       9 -> 34         0.66728

 Excited State  90:      Singlet-A'    19.9409 eV   62.18 nm  f=0.0077  <S**2>=0.000
       5 -> 20         0.12802
       7 -> 25         0.54988
       8 -> 30         0.13532
       8 -> 31         0.26244
       9 -> 35        -0.10479

 Excited State  91:      Singlet-A'    20.1265 eV   61.60 nm  f=0.0504  <S**2>=0.000
       4 -> 13        -0.10997
       5 -> 19        -0.12122
       5 -> 20        -0.18478
       6 -> 28         0.10631
       7 -> 25        -0.17569
       8 -> 31         0.57576
       8 -> 33        -0.17323

 Excited State  92:      Singlet-A"    20.1581 eV   61.51 nm  f=0.0568  <S**2>=0.000
       6 -> 25         0.64886
       8 -> 32        -0.14026
       9 -> 36         0.11566

 Excited State  93:      Singlet-A"    20.3878 eV   60.81 nm  f=0.0002  <S**2>=0.000
       5 -> 22         0.17493
       7 -> 26         0.11639
       8 -> 32         0.62721
       9 -> 36         0.17154

 Excited State  94:      Singlet-A"    20.4458 eV   60.64 nm  f=0.0086  <S**2>=0.000
       6 -> 25        -0.15718
       6 -> 27        -0.13151
       8 -> 32        -0.17245
       9 -> 36         0.64089

 Excited State  95:      Singlet-A'    20.4782 eV   60.54 nm  f=0.0845  <S**2>=0.000
       4 -> 13        -0.28214
       4 -> 14         0.18119
       5 -> 19        -0.10300
       5 -> 20         0.15155
       5 -> 21        -0.20811
       5 -> 23         0.18503
       7 -> 29        -0.10194
       8 -> 33         0.14337
       9 -> 35         0.43810

 Excited State  96:      Singlet-A'    20.5732 eV   60.26 nm  f=0.0271  <S**2>=0.000
       4 -> 13         0.49541
       5 -> 21         0.16869
       6 -> 26         0.11214
       7 -> 27         0.10695

 The electronic state is 1-A'.
 Alpha  occ. eigenvalues --  -19.21770 -10.30536  -1.09739  -0.75967  -0.58686
 Alpha  occ. eigenvalues --   -0.51641  -0.50218  -0.40825  -0.35040
 Alpha virt. eigenvalues --    0.04451   0.07492   0.11887   0.12041   0.14932
 Alpha virt. eigenvalues --    0.17188   0.17854   0.19595   0.19758   0.24241
 Alpha virt. eigenvalues --    0.27879   0.31106   0.31373   0.33010   0.33132

 Mulliken charges:
               1
     1  C    0.763068
     2  O   -0.408478
     3  H   -0.137173
     4  H   -0.137173
     5  H   -0.215435
     6  H    0.135191
 Sum of Mulliken charges =   0.00000

 Dipole moment (field-independent basis, Debye):
    X=             -1.4101    Y=              1.0157    Z=             -0.0000  Tot=              1.7378
 Quadrupole moment (field-independent basis, Debye-Ang):
   XX=            -11.9935   YY=            -13.6425   ZZ=            -14.0370
   XY=              2.1394   XZ=              0.0000   YZ=              0.0000

 Normal termination of Gaussian 16 at Mon Mar 21 20:10:26 2022.
