 Gaussian 16, Revision C.01,
 Gaussian 16:  EM64L-G16RevC.01  3-Jul-2019

 ----------------------------------------------------------------------
 #P TD(Nstates=10000) cam-b3lyp/Gen SCF(maxcycles=100) Int(Grid=ultrafi
 ne)
 ----------------------------------------------------------------------

 ---------------------
 xGDB7_00001_tier4.com
 ---------------------
 Symbolic Z-matrix:
 Charge =  0 Multiplicity = 1

                         Standard orientation:
 ---------------------------------------------------------------------
 Center     Atomic      Atomic             Coordinates (Angstroms)
 Number     Number       Type             X           Y           Z
 ---------------------------------------------------------------------
      1          6           0       -0.000001    0.000006    0.000000
      2          1           0       -0.991926    0.448073    0.033817
      3          1           0        0.066172   -0.671147   -0.854975
      4          1           0        0.176250   -0.561167    0.916416
      5          1           0        0.749514    0.784204   -0.095260
 ---------------------------------------------------------------------

 SCF Done:  E(RCAM-B3LYP) =  -40.4565045614     A.U. after    8 cycles

 Excitation energies and oscillator strengths:

 Excited State   1:      Singlet-A     10.5348 eV  117.69 nm  f=0.1368  <S**2>=0.000
       5 ->  6         0.70372
 This state for optimization and/or second-order correction.
 Total Energy, E(TD-HF/TD-DFT) =  -40.0693589746
 Copying the excited state density for this state as the 1-particle RhoCI density.

 Excited State   2:      Singlet-A     10.5349 eV  117.69 nm  f=0.1368  <S**2>=0.000
       4 ->  6         0.70366

 Excited State   3:      Singlet-A     10.5349 eV  117.69 nm  f=0.1368  <S**2>=0.000
       3 ->  6         0.70368

 Excited State   4:      Singlet-A     12.9652 eV   95.63 nm  f=0.0000  <S**2>=0.000
       4 ->  8         0.15621
       4 ->  9         0.43985
       4 -> 11        -0.10165
       5 ->  7        -0.20048
       5 ->  8        -0.39634
       5 ->  9         0.17047
       5 -> 12         0.14009

 Excited State   5:      Singlet-A     12.9652 eV   95.63 nm  f=0.0000  <S**2>=0.000
       3 ->  8         0.17771
       3 ->  9         0.43145
       3 -> 11        -0.10253
       5 ->  7         0.42490
       5 ->  8        -0.21015
       5 -> 10        -0.10221

 Excited State   6:      Singlet-A     12.9653 eV   95.63 nm  f=0.0000  <S**2>=0.000
       3 ->  7         0.16080
       3 ->  8         0.40172
       3 ->  9        -0.19291
       3 -> 12        -0.13924
       4 ->  7         0.43965
       4 ->  8        -0.17822
       4 -> 10        -0.10103

 Excited State   7:      Singlet-A     12.9903 eV   95.44 nm  f=0.1179  <S**2>=0.000
       3 ->  7         0.16138
       4 ->  9         0.43625
       5 ->  7         0.15339
       5 ->  8         0.47063

 Excited State   8:      Singlet-A     12.9903 eV   95.44 nm  f=0.1179  <S**2>=0.000
       3 ->  7         0.43378
       3 ->  8        -0.12034
       4 ->  9        -0.21732
       5 ->  7        -0.10952
       5 ->  9         0.45422

 Excited State   9:      Singlet-A     12.9904 eV   95.44 nm  f=0.1179  <S**2>=0.000
       3 ->  7        -0.15138
       3 ->  8        -0.44655
       3 ->  9         0.12933
       4 ->  7         0.44741
       4 ->  8        -0.18615

 Excited State  10:      Singlet-A     13.0957 eV   94.68 nm  f=0.0000  <S**2>=0.000
       3 ->  8         0.10702
       3 ->  9         0.43945
       4 ->  7         0.11468
       4 ->  8         0.14639
       5 ->  7        -0.42803
       5 ->  8         0.14544
       5 ->  9        -0.18226

 Excited State  11:      Singlet-A     13.0958 eV   94.68 nm  f=0.0000  <S**2>=0.000
       3 ->  7         0.26206
       3 ->  8        -0.15134
       3 ->  9        -0.14822
       4 ->  7         0.18214
       4 ->  8         0.48878
       4 ->  9        -0.10947
       5 ->  7         0.13895
       5 ->  9        -0.24192

 Excited State  12:      Singlet-A     13.5156 eV   91.73 nm  f=0.0000  <S**2>=0.000
       4 ->  9        -0.12674
       4 -> 10        -0.33811
       4 -> 11        -0.32289
       5 ->  8         0.11815
       5 -> 12         0.46130
       5 -> 13         0.11930

 Excited State  13:      Singlet-A     13.5156 eV   91.73 nm  f=0.0000  <S**2>=0.000
       3 ->  9         0.12618
       3 -> 10         0.32018
       3 -> 11         0.33957
       4 -> 14         0.14222
       5 ->  7         0.12677
       5 -> 10         0.33910
       5 -> 11        -0.31563

 Excited State  14:      Singlet-A     13.5156 eV   91.73 nm  f=0.0000  <S**2>=0.000
       3 ->  8         0.11710
       3 -> 12         0.46218
       3 -> 13        -0.12162
       4 ->  7         0.12501
       4 -> 10         0.32174
       4 -> 11        -0.33283

 Excited State  15:      Singlet-A     13.5605 eV   91.43 nm  f=0.0000  <S**2>=0.000
       3 -> 10        -0.31076
       3 -> 11        -0.32728
       4 -> 12        -0.17920
       5 -> 10         0.45608
       5 -> 11        -0.17859

 Excited State  16:      Singlet-A     13.5606 eV   91.43 nm  f=0.0000  <S**2>=0.000
       3 -> 10         0.11262
       3 -> 11        -0.31330
       4 -> 11         0.14169
       4 -> 12         0.51710
       5 -> 11        -0.25648
       5 -> 12         0.11748

 Excited State  17:      Singlet-A     13.6446 eV   90.87 nm  f=0.0000  <S**2>=0.000
       3 ->  7         0.21187
       3 -> 10        -0.24352
       3 -> 11         0.22724
       4 ->  8        -0.19786
       4 -> 12         0.33294
       5 ->  9        -0.21313
       5 -> 10         0.23092
       5 -> 11         0.24438

 Excited State  18:      Singlet-A     14.2778 eV   86.84 nm  f=0.0273  <S**2>=0.000
       3 -> 13        -0.14868
       3 -> 14        -0.33659
       4 -> 10         0.25518
       4 -> 11         0.27739
       4 -> 12        -0.10727
       5 -> 11         0.14155
       5 -> 12         0.37057
       5 -> 13        -0.18821

 Excited State  19:      Singlet-A     14.2778 eV   86.84 nm  f=0.0272  <S**2>=0.000
       3 -> 10         0.33454
       3 -> 11        -0.21075
       4 -> 13         0.39643
       4 -> 14        -0.12758
       5 -> 10         0.20587
       5 -> 11         0.31314

 Excited State  20:      Singlet-A     14.2779 eV   86.84 nm  f=0.0272  <S**2>=0.000
       3 -> 12         0.38947
       3 -> 13         0.20428
       4 -> 10        -0.30054
       4 -> 11         0.24621
       5 -> 14         0.35341

 Excited State  21:      Singlet-A     14.4821 eV   85.61 nm  f=0.0000  <S**2>=0.000
       3 -> 13        -0.15578
       3 -> 14        -0.29405
       5 -> 13         0.59067

 Excited State  22:      Singlet-A     14.4822 eV   85.61 nm  f=0.0000  <S**2>=0.000
       3 -> 13        -0.28410
       3 -> 14         0.14951
       4 -> 13         0.17833
       4 -> 14         0.52855
       5 -> 14         0.23641

 Excited State  23:      Singlet-A     14.4822 eV   85.61 nm  f=0.0000  <S**2>=0.000
       3 -> 13         0.44734
       3 -> 14        -0.24223
       4 -> 13         0.12271
       4 -> 14         0.37626
       5 -> 14        -0.23682

 Excited State  24:      Singlet-A     14.9418 eV   82.98 nm  f=0.0000  <S**2>=0.000
       3 ->  7        -0.30498
       3 ->  8         0.12287
       3 -> 10        -0.16542
       3 -> 11         0.15425
       4 ->  7         0.11404
       4 ->  8         0.28484
       4 ->  9        -0.11821
       4 -> 12         0.22589
       5 ->  8         0.10900
       5 ->  9         0.30680
       5 -> 10         0.15682
       5 -> 11         0.16584

 Excited State  25:      Singlet-A     14.9880 eV   82.72 nm  f=0.7200  <S**2>=0.000
       3 -> 12        -0.28515
       3 -> 13         0.26039
       4 -> 10         0.21638
       4 -> 11        -0.18626
       5 -> 13         0.10766
       5 -> 14         0.45930

 Excited State  26:      Singlet-A     14.9880 eV   82.72 nm  f=0.7199  <S**2>=0.000
       3 -> 10        -0.24623
       3 -> 11         0.15217
       4 -> 13         0.51273
       4 -> 14        -0.16774
       5 -> 10        -0.15067
       5 -> 11        -0.23256

 Excited State  27:      Singlet-A     14.9880 eV   82.72 nm  f=0.7199  <S**2>=0.000
       3 -> 13         0.19561
       3 -> 14         0.43304
       4 -> 10         0.19057
       4 -> 11         0.20095
       5 -> 12         0.27267
       5 -> 13         0.24491

 Excited State  28:      Singlet-A     17.7137 eV   69.99 nm  f=0.0979  <S**2>=0.000
       5 -> 15         0.70026

 Excited State  29:      Singlet-A     17.7138 eV   69.99 nm  f=0.0978  <S**2>=0.000
       4 -> 15         0.70013

 Excited State  30:      Singlet-A     17.7139 eV   69.99 nm  f=0.0978  <S**2>=0.000
       3 -> 15         0.70024

 Excited State  31:      Singlet-A     18.9879 eV   65.30 nm  f=0.0000  <S**2>=0.000
       2 ->  6         0.66832
       5 -> 20         0.11834

 Excited State  32:      Singlet-A     19.0243 eV   65.17 nm  f=0.0636  <S**2>=0.000
       5 -> 16         0.69209

 Excited State  33:      Singlet-A     19.0244 eV   65.17 nm  f=0.0636  <S**2>=0.000
       4 -> 16         0.69198

 Excited State  34:      Singlet-A     19.0245 eV   65.17 nm  f=0.0636  <S**2>=0.000
       3 -> 16         0.69200

 Excited State  35:      Singlet-A     19.2882 eV   64.28 nm  f=0.0000  <S**2>=0.000
       3 -> 17         0.45510
       4 -> 18        -0.17350
       5 -> 17        -0.12623
       5 -> 19         0.47280

 Excited State  36:      Singlet-A     19.2883 eV   64.28 nm  f=0.0000  <S**2>=0.000
       3 -> 17         0.19313
       3 -> 19         0.27674
       4 -> 18         0.53708
       5 -> 17         0.25874
       5 -> 19         0.12620

 Excited State  37:      Singlet-A     19.3155 eV   64.19 nm  f=0.0153  <S**2>=0.000
       4 -> 17         0.48338
       5 -> 18         0.48611

 Excited State  38:      Singlet-A     19.3155 eV   64.19 nm  f=0.0153  <S**2>=0.000
       3 -> 17        -0.48443
       5 -> 19         0.48580

 Excited State  39:      Singlet-A     19.3156 eV   64.19 nm  f=0.0153  <S**2>=0.000
       3 -> 18         0.48534
       4 -> 19         0.48696

 Excited State  40:      Singlet-A     19.4060 eV   63.89 nm  f=0.0000  <S**2>=0.000
       4 -> 17        -0.48046
       5 -> 18         0.48600

 Excited State  41:      Singlet-A     19.4061 eV   63.89 nm  f=0.0000  <S**2>=0.000
       3 -> 19         0.48097
       4 -> 17         0.10815
       5 -> 17        -0.48034

 Excited State  42:      Singlet-A     19.4062 eV   63.89 nm  f=0.0000  <S**2>=0.000
       3 -> 18         0.48386
       4 -> 19        -0.48131

 Excited State  43:      Singlet-A     19.5260 eV   63.50 nm  f=0.0000  <S**2>=0.000
       3 -> 19         0.40143
       4 -> 18        -0.40022
       5 -> 17         0.39849

 Excited State  44:      Singlet-A     19.7703 eV   62.71 nm  f=0.0000  <S**2>=0.000
       3 -> 20         0.43236
       3 -> 21         0.12136
       4 -> 21        -0.14141
       5 -> 20        -0.22362
       5 -> 21         0.28331
       5 -> 22        -0.33785

 Excited State  45:      Singlet-A     19.7704 eV   62.71 nm  f=0.0000  <S**2>=0.000
       3 -> 20         0.11013
       3 -> 21         0.26203
       3 -> 22        -0.18033
       4 -> 20        -0.16210
       4 -> 21         0.31058
       4 -> 22         0.40610
       5 -> 20         0.19351
       5 -> 21         0.21061

 Excited State  46:      Singlet-A     19.7773 eV   62.69 nm  f=0.0000  <S**2>=0.000
       4 -> 20         0.47900
       5 -> 21         0.31481
       5 -> 22         0.36464

 Excited State  47:      Singlet-A     19.7773 eV   62.69 nm  f=0.0000  <S**2>=0.000
       3 -> 20         0.48386
       5 -> 21        -0.35781
       5 -> 22         0.31974

 Excited State  48:      Singlet-A     19.7774 eV   62.69 nm  f=0.0000  <S**2>=0.000
       3 -> 21         0.31048
       3 -> 22         0.36983
       4 -> 21         0.36623
       4 -> 22        -0.31727

 Excited State  49:      Singlet-A     20.3167 eV   61.03 nm  f=0.1764  <S**2>=0.000
       3 -> 27        -0.10845
       4 -> 20         0.41202
       4 -> 21         0.14897
       5 -> 20         0.28231
       5 -> 21        -0.21678
       5 -> 22        -0.33724

 Excited State  50:      Singlet-A     20.3168 eV   61.03 nm  f=0.1764  <S**2>=0.000
       3 -> 20         0.14525
       3 -> 21        -0.31709
       3 -> 22         0.30117
       4 -> 20        -0.16316
       4 -> 26         0.12731
       5 -> 20         0.37312
       5 -> 21         0.25827

 Excited State  51:      Singlet-A     20.3169 eV   61.03 nm  f=0.1764  <S**2>=0.000
       3 -> 20        -0.12127
       3 -> 21         0.28787
       3 -> 22         0.36113
       4 -> 21        -0.35141
       4 -> 22         0.31372
       5 -> 27        -0.12041

 Excited State  52:      Singlet-A     20.4238 eV   60.71 nm  f=0.0000  <S**2>=0.000
       2 ->  6        -0.14885
       3 -> 21         0.26044
       3 -> 22        -0.22579
       3 -> 25        -0.18887
       4 -> 21        -0.21997
       4 -> 22        -0.26281
       4 -> 24        -0.18891
       5 -> 20         0.34007
       5 -> 23        -0.18535

 Excited State  53:      Singlet-A     21.0814 eV   58.81 nm  f=0.0000  <S**2>=0.000
       4 -> 23        -0.48469
       5 -> 24         0.48552

 Excited State  54:      Singlet-A     21.0815 eV   58.81 nm  f=0.0000  <S**2>=0.000
       3 -> 23        -0.48202
       5 -> 25         0.48762

 Excited State  55:      Singlet-A     21.0816 eV   58.81 nm  f=0.0000  <S**2>=0.000
       3 -> 24        -0.48952
       4 -> 25         0.49373

 Excited State  56:      Singlet-A     21.1660 eV   58.58 nm  f=0.0000  <S**2>=0.000
       3 -> 23         0.43562
       3 -> 24        -0.14176
       4 -> 24         0.15778
       5 -> 25         0.48456

 Excited State  57:      Singlet-A     21.1660 eV   58.58 nm  f=0.0000  <S**2>=0.000
       3 -> 23        -0.19923
       3 -> 25        -0.27143
       4 -> 23         0.18911
       4 -> 24         0.51043
       5 -> 23        -0.23625
       5 -> 24         0.13054
       5 -> 25        -0.10417

 Excited State  58:      Singlet-A     21.2507 eV   58.34 nm  f=0.0084  <S**2>=0.000
       2 ->  9        -0.11178
       4 -> 23         0.42470
       4 -> 24        -0.19098
       5 -> 23         0.26530
       5 -> 24         0.40967

 Excited State  59:      Singlet-A     21.2508 eV   58.34 nm  f=0.0084  <S**2>=0.000
       2 ->  8         0.10588
       2 -> 12        -0.11119
       3 -> 25         0.47174
       4 -> 23         0.12590
       5 -> 23        -0.41981
       5 -> 24         0.20868

 Excited State  60:      Singlet-A     21.2509 eV   58.34 nm  f=0.0084  <S**2>=0.000
       2 ->  7        -0.11736
       3 -> 23         0.14188
       3 -> 24         0.45454
       4 -> 25         0.47515

 Excited State  61:      Singlet-A     21.6381 eV   57.30 nm  f=0.0055  <S**2>=0.000
       2 ->  7         0.22472
       2 ->  8         0.39930
       2 ->  9         0.48207

 Excited State  62:      Singlet-A     21.6382 eV   57.30 nm  f=0.0055  <S**2>=0.000
       2 ->  7         0.56800
       2 ->  9        -0.33532

 Excited State  63:      Singlet-A     21.6382 eV   57.30 nm  f=0.0055  <S**2>=0.000
       2 ->  7        -0.26304
       2 ->  8         0.52501
       2 ->  9        -0.31224

 Excited State  64:      Singlet-A     22.2643 eV   55.69 nm  f=0.0269  <S**2>=0.000
       2 ->  7         0.11560
       2 -> 10         0.60993
       2 -> 11        -0.30754

 Excited State  65:      Singlet-A     22.2644 eV   55.69 nm  f=0.0269  <S**2>=0.000
       2 ->  8         0.12086
       2 -> 10         0.12063
       2 -> 11         0.33147
       2 -> 12         0.58695

 Excited State  66:      Singlet-A     22.2644 eV   55.69 nm  f=0.0269  <S**2>=0.000
       2 ->  9         0.12180
       2 -> 10         0.28699
       2 -> 11         0.51427
       2 -> 12        -0.34942

 Excited State  67:      Singlet-A     22.6312 eV   54.78 nm  f=0.0000  <S**2>=0.000
       2 ->  6        -0.16039
       2 -> 15        -0.16349
       3 -> 21         0.11539
       3 -> 22        -0.10003
       3 -> 25         0.33735
       4 -> 22        -0.11654
       4 -> 24         0.33732
       5 -> 20         0.15097
       5 -> 23         0.33085

 Excited State  68:      Singlet-A     22.7808 eV   54.42 nm  f=0.0000  <S**2>=0.000
       3 -> 26        -0.31568
       3 -> 27        -0.19817
       5 -> 26         0.59351

 Excited State  69:      Singlet-A     22.7809 eV   54.42 nm  f=0.0000  <S**2>=0.000
       3 -> 26         0.45973
       3 -> 27        -0.36727
       5 -> 26         0.13227
       5 -> 27        -0.35475

 Excited State  70:      Singlet-A     22.7809 eV   54.42 nm  f=0.0000  <S**2>=0.000
       4 -> 26         0.22291
       4 -> 27         0.65966

 Excited State  71:      Singlet-A     22.9815 eV   53.95 nm  f=0.0000  <S**2>=0.000
       2 -> 13         0.70016

 Excited State  72:      Singlet-A     22.9815 eV   53.95 nm  f=0.0000  <S**2>=0.000
       2 -> 14         0.70016

 Excited State  73:      Singlet-A     23.5982 eV   52.54 nm  f=0.3598  <S**2>=0.000
       2 ->  7        -0.10213
       3 -> 26         0.27654
       3 -> 27        -0.17264
       5 -> 27         0.58015

 Excited State  74:      Singlet-A     23.5982 eV   52.54 nm  f=0.3598  <S**2>=0.000
       3 -> 26         0.21858
       3 -> 27         0.37174
       4 -> 26         0.40429
       4 -> 27        -0.14237
       5 -> 26         0.28755

 Excited State  75:      Singlet-A     23.5982 eV   52.54 nm  f=0.3598  <S**2>=0.000
       2 ->  8        -0.10125
       3 -> 26        -0.19177
       3 -> 27        -0.35201
       4 -> 26         0.48827
       4 -> 27        -0.16234
       5 -> 26        -0.16454

 Excited State  76:      Singlet-A     26.3608 eV   47.03 nm  f=0.0000  <S**2>=0.000
       2 -> 15         0.67304
       2 -> 16        -0.13367

 Excited State  77:      Singlet-A     27.7343 eV   44.70 nm  f=0.0000  <S**2>=0.000
       2 -> 17         0.70457

 Excited State  78:      Singlet-A     27.7344 eV   44.70 nm  f=0.0000  <S**2>=0.000
       2 -> 18         0.70457

 Excited State  79:      Singlet-A     27.7344 eV   44.70 nm  f=0.0000  <S**2>=0.000
       2 -> 19         0.70459

 Excited State  80:      Singlet-A     27.7801 eV   44.63 nm  f=0.0000  <S**2>=0.000
       2 -> 15         0.10647
       2 -> 16         0.68489

 Excited State  81:      Singlet-A     28.4324 eV   43.61 nm  f=0.0001  <S**2>=0.000
       2 -> 20         0.69546

 Excited State  82:      Singlet-A     28.4324 eV   43.61 nm  f=0.0001  <S**2>=0.000
       2 -> 21         0.51087
       2 -> 22         0.47642

 Excited State  83:      Singlet-A     28.4325 eV   43.61 nm  f=0.0001  <S**2>=0.000
       2 -> 21        -0.47192
       2 -> 22         0.51469

 Excited State  84:      Singlet-A     29.6505 eV   41.82 nm  f=0.0095  <S**2>=0.000
       2 -> 23         0.70322

 Excited State  85:      Singlet-A     29.6506 eV   41.82 nm  f=0.0095  <S**2>=0.000
       2 -> 24         0.70320

 Excited State  86:      Singlet-A     29.6506 eV   41.82 nm  f=0.0095  <S**2>=0.000
       2 -> 25         0.70323

 Excited State  87:      Singlet-A     30.9520 eV   40.06 nm  f=0.0000  <S**2>=0.000
       4 -> 28         0.48580
       5 -> 29        -0.48047
       5 -> 30        -0.10900

 Excited State  88:      Singlet-A     30.9521 eV   40.06 nm  f=0.0000  <S**2>=0.000
       3 -> 28         0.48987
       5 -> 29        -0.10655
       5 -> 30         0.48357

 Excited State  89:      Singlet-A     30.9522 eV   40.06 nm  f=0.0000  <S**2>=0.000
       3 -> 29         0.46192
       3 -> 30         0.18310
       4 -> 29        -0.18116
       4 -> 30         0.46029

 Excited State  90:      Singlet-A     31.1759 eV   39.77 nm  f=0.0000  <S**2>=0.000
       2 -> 27         0.14669
       3 -> 28         0.45104
       4 -> 29         0.14671
       4 -> 30         0.11190
       5 -> 28        -0.21021
       5 -> 29         0.17823
       5 -> 30        -0.40052

 Excited State  91:      Singlet-A     31.1760 eV   39.77 nm  f=0.0000  <S**2>=0.000
       2 -> 26        -0.14675
       3 -> 28        -0.13364
       3 -> 29        -0.11866
       3 -> 30         0.28368
       4 -> 29         0.49917
       4 -> 30         0.18153
       5 -> 28        -0.22526
       5 -> 30         0.17290

 Excited State  92:      Singlet-A     31.4541 eV   39.42 nm  f=0.0000  <S**2>=0.000
       2 -> 26         0.68960
       4 -> 29         0.10695

 Excited State  93:      Singlet-A     31.4542 eV   39.42 nm  f=0.0000  <S**2>=0.000
       2 -> 27         0.68961

 Excited State  94:      Singlet-A     31.6358 eV   39.19 nm  f=0.0000  <S**2>=0.000
       3 -> 29         0.14841
       3 -> 30        -0.37706
       4 -> 29         0.37365
       4 -> 30         0.15029
       5 -> 28         0.40207

 Excited State  95:      Singlet-A     32.2949 eV   38.39 nm  f=0.1310  <S**2>=0.000
       4 -> 28         0.46468
       5 -> 29         0.44145
       5 -> 30         0.16260
       5 -> 31        -0.17287

 Excited State  96:      Singlet-A     32.2950 eV   38.39 nm  f=0.1310  <S**2>=0.000
       3 -> 28         0.12529
       3 -> 29        -0.19609
       3 -> 30         0.41100
       4 -> 31        -0.17538
       5 -> 28         0.44880
       5 -> 30        -0.11980

 Excited State  97:      Singlet-A     32.2952 eV   38.39 nm  f=0.1310  <S**2>=0.000
       3 -> 29        -0.42654
       3 -> 30        -0.20460
       3 -> 31        -0.17282
       4 -> 29        -0.17650
       4 -> 30         0.43140

 Excited State  98:      Singlet-A     34.0398 eV   36.42 nm  f=0.0605  <S**2>=0.000
       3 -> 31         0.54664
       3 -> 33         0.24859
       4 -> 32        -0.24853
       5 -> 31        -0.22238

 Excited State  99:      Singlet-A     34.0398 eV   36.42 nm  f=0.0605  <S**2>=0.000
       3 -> 31         0.21138
       4 -> 31        -0.18169
       4 -> 34        -0.25896
       5 -> 31         0.52015
       5 -> 33        -0.23905

 Excited State 100:      Singlet-A     34.0398 eV   36.42 nm  f=0.0605  <S**2>=0.000
       3 -> 32        -0.24364

 The electronic state is 1-A.
 Alpha  occ. eigenvalues --  -10.24491  -0.76873  -0.45967  -0.45967  -0.45966
 Alpha virt. eigenvalues --    0.05646   0.16092   0.16092   0.16092   0.19159
 Alpha virt. eigenvalues --    0.19159   0.19159   0.21305   0.21305   0.32621
 Alpha virt. eigenvalues --    0.37680   0.39022   0.39022   0.39023   0.41711

 Mulliken charges:
               1
     1  C    0.495500
     2  H   -0.123853
     3  H   -0.123886
     4  H   -0.123896
     5  H   -0.123865
 Sum of Mulliken charges =   0.00000

 Dipole moment (field-independent basis, Debye):
    X=              0.0000    Y=             -0.0000    Z=              0.0000  Tot=              0.0000
 Quadrupole moment (field-independent basis, Debye-Ang):
   XX=             -8.5003   YY=             -8.5004   ZZ=             -8.5005
   XY=              0.0000   XZ=              0.0000   YZ=             -0.0000

 1\1\GINC-HEL25\SP\RCAM-B3LYP TD-FC\Gen\C1H4\SABYASACHI\21-Mar-2022\0\\
 #P TD(Nstates=10000) cam-b3lyp/Gen SCF(maxcycles=100) Int(Grid=ultrafi
 ne)\\xGDB7_00001_tier4.com\\0,1\C,0,0.000001,0.000006,0.\H,0,0.985233,
 0.46299,-0.028035\H,0,-0.05618,-0.682943,0.846305\H,0,-0.168125,-0.551
 911,-0.923536\H,0,-0.760937,0.771825,0.105269\\Version=EM64L-G16RevC.0
 1\State=1-A\HF=-40.4565046\RMSD=3.642e-09\PG=C01 [X(C1H4)]\\@
 The archive entry for this job was punched.

 Normal termination of Gaussian 16 at Mon Mar 21 20:09:30 2022.
