 Gaussian 16, Revision C.01,
 Gaussian 16:  EM64L-G16RevC.01  3-Jul-2019

 ----------------------------------------------------------------------
 #P TD(Nstates=10000) cam-b3lyp/Gen SCF(maxcycles=100) Int(Grid=ultrafi
 ne)
 ----------------------------------------------------------------------

 ---------------------
 xGDB7_00001_tier4.com
 ---------------------
 Symbolic Z-matrix:
 Charge =  0 Multiplicity = 1

                         Standard orientation:
 ---------------------------------------------------------------------
 Center     Atomic      Atomic             Coordinates (Angstroms)
 Number     Number       Type             X           Y           Z
 ---------------------------------------------------------------------
      1          6           0       -0.026655   -0.220923    1.206915
      2          7           0       -0.026655    0.579675   -0.000000
      3          6           0       -0.026655   -0.220923   -1.206915
      4          1           0        0.028929    0.427196    2.082330
      5          1           0        0.800836   -0.947383    1.258571
      6          1           0       -0.961718   -0.783094    1.269367
      7          1           0        0.770359    1.199905   -0.000000
      8          1           0       -0.961718   -0.783094   -1.269367
      9          1           0        0.800836   -0.947383   -1.258571
     10          1           0        0.028929    0.427196   -2.082330
 ---------------------------------------------------------------------

 SCF Done:  E(RCAM-B3LYP) =  -134.996511184     A.U. after   13 cycles

 Excitation energies and oscillator strengths:

 Excited State   1:      Singlet-A'     5.9433 eV  208.61 nm  f=0.0017  <S**2>=0.000
      13 -> 14         0.66351
      13 -> 16         0.22590
 This state for optimization and/or second-order correction.
 Total Energy, E(TD-HF/TD-DFT) =  -134.778100097
 Copying the excited state density for this state as the 1-particle RhoCI density.

 Excited State   2:      Singlet-A'     7.1054 eV  174.49 nm  f=0.0431  <S**2>=0.000
      13 -> 14        -0.22026
      13 -> 16         0.66117

 Excited State   3:      Singlet-A"     7.1195 eV  174.15 nm  f=0.0036  <S**2>=0.000
      13 -> 15         0.69909

 Excited State   4:      Singlet-A'     8.0710 eV  153.62 nm  f=0.0239  <S**2>=0.000
      13 -> 17         0.50821
      13 -> 18        -0.46084
      13 -> 20         0.12336

 Excited State   5:      Singlet-A'     8.1586 eV  151.97 nm  f=0.0880  <S**2>=0.000
      13 -> 17         0.46220
      13 -> 18         0.50792

 Excited State   6:      Singlet-A'     8.8186 eV  140.59 nm  f=0.0100  <S**2>=0.000
      13 -> 17        -0.13774
      13 -> 20         0.66810
      13 -> 22        -0.14087

 Excited State   7:      Singlet-A"     8.9559 eV  138.44 nm  f=0.0216  <S**2>=0.000
      13 -> 19         0.69450

 Excited State   8:      Singlet-A'     9.2533 eV  133.99 nm  f=0.0063  <S**2>=0.000
      13 -> 20         0.14301
      13 -> 22         0.67689

 Excited State   9:      Singlet-A"     9.5622 eV  129.66 nm  f=0.0655  <S**2>=0.000
      13 -> 21         0.66816
      13 -> 23         0.18189

 Excited State  10:      Singlet-A"     9.8512 eV  125.86 nm  f=0.0477  <S**2>=0.000
      11 -> 15        -0.12967
      12 -> 14         0.58747
      13 -> 23         0.33593

 Excited State  11:      Singlet-A"     9.8921 eV  125.34 nm  f=0.0200  <S**2>=0.000
      12 -> 14        -0.31792
      13 -> 21        -0.21186
      13 -> 23         0.58097

 Excited State  12:      Singlet-A'     9.9127 eV  125.08 nm  f=0.0246  <S**2>=0.000
      11 -> 14         0.65398
      11 -> 16         0.10479
      12 -> 15        -0.16656
      13 -> 24        -0.12219

 Excited State  13:      Singlet-A'    10.2017 eV  121.53 nm  f=0.0027  <S**2>=0.000
      11 -> 14         0.10601
      13 -> 24         0.68152

 Excited State  14:      Singlet-A"    10.3915 eV  119.31 nm  f=0.0100  <S**2>=0.000
      10 -> 14         0.46269
      11 -> 15        -0.19265
      13 -> 25        -0.45884
      13 -> 26        -0.10418

 Excited State  15:      Singlet-A"    10.4781 eV  118.33 nm  f=0.0157  <S**2>=0.000
      10 -> 14         0.43439
      11 -> 15        -0.16677
      13 -> 25         0.50894

 Excited State  16:      Singlet-A'    10.8516 eV  114.25 nm  f=0.0900  <S**2>=0.000
       8 -> 14         0.12418
      11 -> 16         0.33570
      12 -> 15         0.57136
      13 -> 27        -0.11825

 Excited State  17:      Singlet-A"    10.9173 eV  113.57 nm  f=0.0263  <S**2>=0.000
      11 -> 15        -0.26665
      12 -> 16        -0.13930
      13 -> 26         0.58572
      13 -> 29        -0.13777

 Excited State  18:      Singlet-A"    10.9672 eV  113.05 nm  f=0.0000  <S**2>=0.000
       9 -> 14         0.10793
      10 -> 14         0.20305
      11 -> 15         0.34628
      12 -> 16         0.45698
      13 -> 26         0.29118

 Excited State  19:      Singlet-A'    11.0844 eV  111.85 nm  f=0.1424  <S**2>=0.000
       8 -> 14        -0.12702
      10 -> 15         0.22628
      11 -> 14        -0.14137
      11 -> 16         0.56218
      12 -> 15        -0.27333

 Excited State  20:      Singlet-A"    11.1539 eV  111.16 nm  f=0.0195  <S**2>=0.000
       9 -> 14        -0.12035
      10 -> 14        -0.14408
      11 -> 15        -0.39649
      12 -> 14        -0.14008
      12 -> 16         0.49196
      13 -> 26        -0.11058

 Excited State  21:      Singlet-A'    11.5523 eV  107.32 nm  f=0.0524  <S**2>=0.000
       8 -> 14        -0.16612
      10 -> 15         0.58248
      11 -> 14         0.10990
      11 -> 16        -0.19351
      11 -> 17        -0.11488
      11 -> 18         0.16589
      13 -> 27        -0.11981

 Excited State  22:      Singlet-A'    11.6268 eV  106.64 nm  f=0.0062  <S**2>=0.000
      12 -> 15         0.13420
      13 -> 27         0.62900
      13 -> 28        -0.18291

 Excited State  23:      Singlet-A"    11.7285 eV  105.71 nm  f=0.0062  <S**2>=0.000
      10 -> 16         0.66354
      11 -> 19         0.11816

 Excited State  24:      Singlet-A"    11.8717 eV  104.44 nm  f=0.0001  <S**2>=0.000
       9 -> 14        -0.11113
      11 -> 21         0.11218
      12 -> 17         0.61332
      12 -> 18         0.25173

 Excited State  25:      Singlet-A'    11.9193 eV  104.02 nm  f=0.0299  <S**2>=0.000
      11 -> 17         0.64474
      12 -> 21         0.11913
      13 -> 27        -0.10731
      13 -> 28        -0.14548

 Excited State  26:      Singlet-A"    11.9275 eV  103.95 nm  f=0.2098  <S**2>=0.000
       9 -> 14        -0.24592
      12 -> 17        -0.26304
      12 -> 18         0.54610

 Excited State  27:      Singlet-A"    12.1018 eV  102.45 nm  f=0.1279  <S**2>=0.000
       8 -> 15        -0.12137
       9 -> 14         0.57803
       9 -> 16         0.10611
      11 -> 15        -0.19097
      12 -> 18         0.25490

 Excited State  28:      Singlet-A'    12.1096 eV  102.38 nm  f=0.0626  <S**2>=0.000
      10 -> 15         0.17520
      11 -> 17         0.10983
      11 -> 18        -0.42199
      13 -> 27         0.10330
      13 -> 28         0.45687

 Excited State  29:      Singlet-A'    12.1865 eV  101.74 nm  f=0.0555  <S**2>=0.000
       8 -> 14         0.18838
       9 -> 15        -0.16929
      11 -> 17         0.12249
      11 -> 18         0.45727
      13 -> 27         0.10330
      13 -> 28         0.40463

 Excited State  30:      Singlet-A"    12.3455 eV  100.43 nm  f=0.0139  <S**2>=0.000
      10 -> 17         0.25198
      10 -> 18         0.12004
      10 -> 20         0.15685
      12 -> 20        -0.10534
      13 -> 26         0.14875
      13 -> 29         0.55317
      13 -> 33         0.11216

 Excited State  31:      Singlet-A'    12.3871 eV  100.09 nm  f=0.0410  <S**2>=0.000
       8 -> 14         0.57717
       8 -> 16         0.15535
      10 -> 15         0.16946
      11 -> 18        -0.11829
      12 -> 15        -0.11355
      13 -> 28        -0.17847

 Excited State  32:      Singlet-A"    12.5295 eV   98.95 nm  f=0.0872  <S**2>=0.000
       9 -> 16        -0.11713
      10 -> 17         0.44502
      10 -> 18        -0.27543
      11 -> 19         0.32314
      12 -> 20         0.11965
      13 -> 29        -0.13846

 Excited State  33:      Singlet-A"    12.5978 eV   98.42 nm  f=0.0043  <S**2>=0.000
       9 -> 14         0.11011
      10 -> 18         0.40002
      12 -> 20         0.47959
      12 -> 22        -0.20723

 Excited State  34:      Singlet-A"    12.6466 eV   98.04 nm  f=0.0028  <S**2>=0.000
       8 -> 15        -0.16044
       9 -> 16         0.10603
      10 -> 17        -0.15098
      10 -> 18        -0.37285
      11 -> 19        -0.12249
      12 -> 20         0.41300
      13 -> 29         0.25157

 Excited State  35:      Singlet-A'    12.6614 eV   97.92 nm  f=0.0151  <S**2>=0.000
       9 -> 15        -0.10407
      11 -> 20         0.60776
      11 -> 22        -0.13484
      12 -> 19         0.13278
      13 -> 30         0.18597

 Excited State  36:      Singlet-A'    12.7788 eV   97.02 nm  f=0.1414  <S**2>=0.000
      11 -> 20        -0.18500
      12 -> 23        -0.10186
      13 -> 30         0.63672

 Excited State  37:      Singlet-A'    12.8425 eV   96.54 nm  f=0.0451  <S**2>=0.000
       8 -> 14         0.16672
       8 -> 16        -0.25380
      10 -> 19        -0.11913
      10 -> 21         0.10750
      11 -> 20        -0.16610
      12 -> 19         0.53844

 Excited State  38:      Singlet-A"    12.8521 eV   96.47 nm  f=0.0721  <S**2>=0.000
       9 -> 14         0.15032
       9 -> 16        -0.34664
      10 -> 17        -0.32953
      10 -> 20         0.18556
      11 -> 19         0.38399
      11 -> 21        -0.10572

 Excited State  39:      Singlet-A'    12.9850 eV   95.48 nm  f=0.0182  <S**2>=0.000
       8 -> 16        -0.13602
       9 -> 15        -0.33147
      10 -> 19        -0.14102
      10 -> 21        -0.10037
      11 -> 22         0.50933
      12 -> 23         0.11821

 Excited State  40:      Singlet-A"    13.0005 eV   95.37 nm  f=0.0324  <S**2>=0.000
       9 -> 16         0.18955
      10 -> 17         0.11178
      10 -> 20         0.38192
      11 -> 21        -0.12102
      12 -> 20         0.16195
      12 -> 22         0.43967

 Excited State  41:      Singlet-A'    13.1709 eV   94.14 nm  f=0.0095  <S**2>=0.000
       8 -> 17        -0.10742
      11 -> 17        -0.11838
      11 -> 18        -0.10323
      12 -> 19         0.11814
      12 -> 21         0.58901
      12 -> 23         0.18200

 Excited State  42:      Singlet-A'    13.1808 eV   94.06 nm  f=0.0285  <S**2>=0.000
       8 -> 16        -0.17320
       8 -> 17        -0.14189
       9 -> 15         0.44273
      10 -> 19        -0.36488
      11 -> 20         0.10089
      11 -> 22         0.12542
      12 -> 21         0.11369

 Excited State  43:      Singlet-A"    13.1880 eV   94.01 nm  f=0.0147  <S**2>=0.000
       9 -> 16         0.40195
       9 -> 17        -0.15941
      10 -> 17        -0.17206
      10 -> 18        -0.10908
      10 -> 20         0.22335
      11 -> 19         0.18792
      11 -> 21         0.30686
      12 -> 22        -0.22234

 Excited State  44:      Singlet-A"    13.2716 eV   93.42 nm  f=0.0020  <S**2>=0.000
       9 -> 16        -0.24114
      10 -> 18        -0.13091
      10 -> 20         0.42838
      11 -> 19        -0.34617
      12 -> 22        -0.25281

 Excited State  45:      Singlet-A'    13.3089 eV   93.16 nm  f=0.1114  <S**2>=0.000
       8 -> 16         0.14528
       9 -> 15         0.32488
      10 -> 19         0.29548
      11 -> 18         0.14028
      11 -> 22         0.26351
      11 -> 24        -0.16976
      12 -> 19         0.19797
      12 -> 21        -0.10746
      12 -> 23         0.17571
      13 -> 30         0.10760
      13 -> 31         0.11201

 Excited State  46:      Singlet-A"    13.3412 eV   92.93 nm  f=0.0126  <S**2>=0.000
       9 -> 16        -0.22141
       9 -> 17        -0.25793
      11 -> 21         0.46120
      11 -> 23         0.18053
      12 -> 22         0.26313

 Excited State  47:      Singlet-A'    13.4270 eV   92.34 nm  f=0.0731  <S**2>=0.000
       7 -> 14         0.19925
       8 -> 16        -0.28564
      12 -> 19        -0.21699
      12 -> 23         0.14610
      13 -> 31         0.39492
      13 -> 32        -0.11007
      13 -> 34         0.24685

 Excited State  48:      Singlet-A'    13.4920 eV   91.89 nm  f=0.0494  <S**2>=0.000
       7 -> 14        -0.18946
       8 -> 16         0.25411
       8 -> 18         0.10491
      10 -> 19        -0.13657
      11 -> 22         0.12192
      12 -> 23        -0.30636
      13 -> 31         0.40569
      13 -> 34         0.15922

 Excited State  49:      Singlet-A"    13.5086 eV   91.78 nm  f=0.0090  <S**2>=0.000
       8 -> 15         0.59092
      10 -> 18        -0.13306
      10 -> 22         0.20950
      11 -> 23         0.10625

 Excited State  50:      Singlet-A"    13.6199 eV   91.03 nm  f=0.0291  <S**2>=0.000
       8 -> 15        -0.18103
       9 -> 18        -0.17091
      10 -> 22         0.40649
      11 -> 19         0.11055
      11 -> 23         0.39785
      12 -> 22        -0.14711
      13 -> 33         0.11267

 Excited State  51:      Singlet-A'    13.6622 eV   90.75 nm  f=0.0679  <S**2>=0.000
       7 -> 14         0.58253
       8 -> 16         0.15257
      10 -> 19        -0.11876
      11 -> 24         0.13052
      12 -> 23        -0.13981

 Excited State  52:      Singlet-A'    13.8022 eV   89.83 nm  f=0.0371  <S**2>=0.000
       8 -> 16         0.33961
       8 -> 18        -0.13811
      10 -> 19        -0.31879
      10 -> 21        -0.22543
      11 -> 22        -0.14883
      12 -> 21        -0.14508
      12 -> 23         0.31141

 Excited State  53:      Singlet-A"    13.8756 eV   89.35 nm  f=0.0052  <S**2>=0.000
       8 -> 15        -0.10158
       9 -> 17        -0.12803
       9 -> 18         0.44363
      10 -> 22         0.32132
      11 -> 23        -0.23675
      11 -> 25        -0.24023

 Excited State  54:      Singlet-A"    13.9409 eV   88.94 nm  f=0.0090  <S**2>=0.000
      11 -> 23        -0.11221
      12 -> 24        -0.30626
      13 -> 29        -0.12769
      13 -> 33         0.55040

 Excited State  55:      Singlet-A'    13.9919 eV   88.61 nm  f=0.0525  <S**2>=0.000
      10 -> 21        -0.16043
      12 -> 25         0.14531
      13 -> 31         0.30067
      13 -> 32         0.42759
      13 -> 34        -0.35124

 Excited State  56:      Singlet-A"    14.0315 eV   88.36 nm  f=0.0496  <S**2>=0.000
       9 -> 17         0.54776
       9 -> 18         0.16179
      11 -> 21         0.26370
      12 -> 24         0.24051

 Excited State  57:      Singlet-A'    14.0531 eV   88.23 nm  f=0.0583  <S**2>=0.000
       8 -> 16         0.12224
       8 -> 18         0.14705
       8 -> 20         0.11584
      10 -> 19        -0.13751
      10 -> 21         0.36104
      10 -> 23         0.12776
      12 -> 23         0.24337
      12 -> 25        -0.29883
      12 -> 26         0.12156
      13 -> 32         0.19466

 Excited State  58:      Singlet-A'    14.0964 eV   87.95 nm  f=0.0554  <S**2>=0.000
      13 -> 31        -0.14453
      13 -> 32         0.46561
      13 -> 34         0.45565

 Excited State  59:      Singlet-A"    14.1014 eV   87.92 nm  f=0.0072  <S**2>=0.000
       9 -> 17        -0.19846
      11 -> 21        -0.14832
      12 -> 24         0.51592
      13 -> 33         0.31531

 Excited State  60:      Singlet-A'    14.2080 eV   87.26 nm  f=0.0566  <S**2>=0.000
       8 -> 18         0.12734
       9 -> 19         0.12065
      10 -> 19         0.12730
      10 -> 21        -0.15964
      11 -> 24         0.44309
      12 -> 23         0.14157
      12 -> 25        -0.30844
      12 -> 26        -0.18211

 Excited State  61:      Singlet-A"    14.2774 eV   86.84 nm  f=0.1287  <S**2>=0.000
       9 -> 18         0.32707
       9 -> 22        -0.15322
      10 -> 22        -0.34156
      11 -> 23         0.40950
      11 -> 25        -0.18879

 Excited State  62:      Singlet-A'    14.3856 eV   86.19 nm  f=0.0118  <S**2>=0.000
       8 -> 17         0.37964
       8 -> 18         0.31238
      10 -> 21        -0.32764
      10 -> 23         0.18676
      11 -> 24        -0.13306
      12 -> 21         0.13112

 Excited State  63:      Singlet-A"    14.4193 eV   85.98 nm  f=0.0065  <S**2>=0.000
       8 -> 19         0.12731
       9 -> 18        -0.15919
       9 -> 20         0.42687
      10 -> 24        -0.19595
      11 -> 23        -0.11837
      11 -> 25        -0.37407
      11 -> 26         0.17295

 Excited State  64:      Singlet-A'    14.4937 eV   85.54 nm  f=0.1584  <S**2>=0.000
       7 -> 16         0.15917
       8 -> 17        -0.23615
       8 -> 18         0.22490
      10 -> 21         0.16924
      10 -> 23         0.30416
      12 -> 23         0.17139
      12 -> 25         0.33779

 Excited State  65:      Singlet-A'    14.5567 eV   85.17 nm  f=0.0815  <S**2>=0.000
       7 -> 14        -0.12566
       7 -> 16         0.17582
       8 -> 17         0.36225
       8 -> 18        -0.13869
       8 -> 22         0.10104
      10 -> 21         0.13644
      11 -> 24         0.36206
      12 -> 26         0.10095
      13 -> 37         0.19025
      13 -> 38         0.14248

 Excited State  66:      Singlet-A"    14.6102 eV   84.86 nm  f=0.0906  <S**2>=0.000
       7 -> 15         0.42986
       9 -> 18         0.14002
       9 -> 20         0.33195
      10 -> 24         0.14756
      11 -> 25         0.28148
      13 -> 35         0.16014

 Excited State  67:      Singlet-A"    14.6559 eV   84.60 nm  f=0.0674  <S**2>=0.000
       7 -> 15         0.38139
       9 -> 18        -0.19305
       9 -> 20        -0.12470
      10 -> 24         0.27206
      11 -> 25        -0.25546
      11 -> 26        -0.28711
      13 -> 35        -0.10777

 Excited State  68:      Singlet-A'    14.6816 eV   84.45 nm  f=0.0014  <S**2>=0.000
       8 -> 17        -0.13838
       8 -> 18        -0.22859
       8 -> 20         0.30701
       9 -> 19         0.16402
      10 -> 23         0.35782
      12 -> 26         0.28084
      13 -> 36        -0.10439

 Excited State  69:      Singlet-A'    14.7361 eV   84.14 nm  f=0.0500  <S**2>=0.000
       7 -> 16         0.57340
       9 -> 19         0.18972
      10 -> 19        -0.13917
      10 -> 23        -0.10316
      11 -> 24        -0.13894
      12 -> 26        -0.12358

 Excited State  70:      Singlet-A'    14.8010 eV   83.77 nm  f=0.0363  <S**2>=0.000
      10 -> 23        -0.11705
      10 -> 25         0.10345
      12 -> 26         0.26589
      13 -> 36         0.51022
      13 -> 37        -0.30103

 Excited State  71:      Singlet-A"    14.8035 eV   83.75 nm  f=0.1573  <S**2>=0.000
       7 -> 15         0.15369
       8 -> 19         0.12407
       9 -> 20        -0.17803
      10 -> 24        -0.34720
      11 -> 26        -0.21947
      12 -> 24        -0.12258
      13 -> 33         0.10964
      13 -> 35         0.41589

 Excited State  72:      Singlet-A"    14.8473 eV   83.51 nm  f=0.0053  <S**2>=0.000
       7 -> 15        -0.29103
       8 -> 19        -0.11271
       9 -> 20         0.11908
      10 -> 24         0.34666
      11 -> 25        -0.10622
      11 -> 26        -0.11302
      13 -> 35         0.44827

 Excited State  73:      Singlet-A'    14.8990 eV   83.22 nm  f=0.1688  <S**2>=0.000
       8 -> 18        -0.18730
       8 -> 20        -0.20067
      10 -> 23         0.32433
      10 -> 25        -0.17931
      11 -> 24        -0.13401
      12 -> 26        -0.30330
      13 -> 36         0.30174
      13 -> 38         0.11296

 Excited State  74:      Singlet-A'    15.0260 eV   82.51 nm  f=0.0202  <S**2>=0.000
       7 -> 20        -0.10366
       8 -> 17        -0.11972
       8 -> 18         0.13334
       8 -> 20        -0.24279
       9 -> 19         0.38521
       9 -> 21         0.19022
      10 -> 25        -0.16024
      10 -> 26         0.10257
      12 -> 26         0.25652
      13 -> 37         0.20187
      13 -> 38         0.11465

 Excited State  75:      Singlet-A'    15.0713 eV   82.27 nm  f=0.0340  <S**2>=0.000
       7 -> 16        -0.10867
       7 -> 20         0.10140
       8 -> 18         0.11403
       8 -> 20         0.35003
       9 -> 19         0.20619
       9 -> 21        -0.18374
      10 -> 23        -0.10580
      10 -> 26        -0.14018
      11 -> 27        -0.15202
      12 -> 25         0.12738
      12 -> 26        -0.10776
      13 -> 36         0.21018
      13 -> 37         0.25995

 Excited State  76:      Singlet-A"    15.1051 eV   82.08 nm  f=0.2293  <S**2>=0.000
       7 -> 15         0.13427
       8 -> 19        -0.16617
       8 -> 21        -0.11543
       9 -> 20        -0.22490
       9 -> 22         0.36948
      11 -> 25        -0.19697
      11 -> 26         0.37716
      12 -> 27        -0.14890
      13 -> 35         0.10255

 Excited State  77:      Singlet-A'    15.1695 eV   81.73 nm  f=0.0544  <S**2>=0.000
       8 -> 18        -0.12248
       8 -> 20         0.18055
       9 -> 21         0.39979
      10 -> 21         0.11585
      11 -> 27         0.40196
      12 -> 26        -0.16453
      13 -> 36         0.11607

 Excited State  78:      Singlet-A'    15.2232 eV   81.44 nm  f=0.1286  <S**2>=0.000
       7 -> 18         0.12599
       8 -> 18        -0.14449
       9 -> 23         0.11950
      10 -> 25         0.42824
      11 -> 27        -0.10318
      12 -> 25        -0.16423
      13 -> 36         0.14863
      13 -> 37         0.31934
      13 -> 40         0.14521

 Excited State  79:      Singlet-A"    15.2314 eV   81.40 nm  f=0.0131  <S**2>=0.000
       8 -> 21         0.24972
      11 -> 26         0.12136
      12 -> 27         0.57800
      13 -> 35         0.15074

 Excited State  80:      Singlet-A'    15.2732 eV   81.18 nm  f=0.0114  <S**2>=0.000
       7 -> 16        -0.17531
       8 -> 17         0.15474
       9 -> 19         0.35829
       9 -> 21        -0.10527
      10 -> 21         0.11807
      10 -> 25         0.34221
      10 -> 26         0.14526
      12 -> 23         0.10021

 The electronic state is 1-A'.
 Alpha  occ. eigenvalues --  -14.38510 -10.27392 -10.27390  -0.97617  -0.77479
 Alpha  occ. eigenvalues --   -0.69886  -0.56245  -0.51523  -0.50637  -0.45327
 Alpha  occ. eigenvalues --   -0.43122  -0.42857  -0.28742
 Alpha virt. eigenvalues --    0.05334   0.08129   0.09669   0.13000   0.13590
 Alpha virt. eigenvalues --    0.16041   0.16128   0.17613   0.17735   0.20049
 Alpha virt. eigenvalues --    0.20915   0.22031   0.23974   0.25566   0.29000

 Mulliken charges:
               1
     1  C    0.853110
     2  N   -0.651878
     3  C    0.853110
     4  H   -0.278441
     5  H   -0.051155
     6  H   -0.152957
     7  H   -0.089237
     8  H   -0.152957
     9  H   -0.051155
    10  H   -0.278441
 Sum of Mulliken charges =  -0.00000

 Dipole moment (field-independent basis, Debye):
    X=              0.9455    Y=             -0.3933    Z=             -0.0000  Tot=              1.0240
 Quadrupole moment (field-independent basis, Debye-Ang):
   XX=            -21.1570   YY=            -21.7303   ZZ=            -20.1369
   XY=              2.1047   XZ=              0.0000   YZ=             -0.0000

 Normal termination of Gaussian 16 at Mon Mar 21 20:23:33 2022.
