 Gaussian 16, Revision C.01,
 Gaussian 16:  EM64L-G16RevC.01  3-Jul-2019

 ----------------------------------------------------------------------
 #P TD(Nstates=10000) cam-b3lyp/Gen SCF(maxcycles=100) Int(Grid=ultrafi
 ne)
 ----------------------------------------------------------------------

 ---------------------
 xGDB7_00001_tier4.com
 ---------------------
 Symbolic Z-matrix:
 Charge =  0 Multiplicity = 1

                         Standard orientation:
 ---------------------------------------------------------------------
 Center     Atomic      Atomic             Coordinates (Angstroms)
 Number     Number       Type             X           Y           Z
 ---------------------------------------------------------------------
      1          9           0        0.000000    0.000000    0.091801
      2          1           0        0.000000    0.000000   -0.826212
 ---------------------------------------------------------------------

 SCF Done:  E(RCAM-B3LYP) =  -100.351594851     A.U. after   10 cycles

 Excitation energies and oscillator strengths:

 Excited state symmetry could not be determined.
 Excited State   1:      Singlet-?Sym   10.1355 eV  122.33 nm  f=0.0320  <S**2>=0.000
       4 ->  6         0.63527
       5 ->  6         0.29644
 This state for optimization and/or second-order correction.
 Total Energy, E(TD-HF/TD-DFT) =  -99.9791217857
 Copying the excited state density for this state as the 1-particle RhoCI density.

 Excited state symmetry could not be determined.
 Excited State   2:      Singlet-?Sym   10.1355 eV  122.33 nm  f=0.0320  <S**2>=0.000
       4 ->  6        -0.29644
       5 ->  6         0.63527

 Excited State   3:      Singlet-SG    13.9903 eV   88.62 nm  f=0.1323  <S**2>=0.000
       3 ->  6         0.63791
       4 ->  8         0.20553
       5 ->  9         0.20553

 Excited state symmetry could not be determined.
 Excited State   4:      Singlet-?Sym   14.0505 eV   88.24 nm  f=0.0000  <S**2>=0.000
       4 ->  9        -0.49732
       5 ->  8         0.49732

 Excited state symmetry could not be determined.
 Excited State   5:      Singlet-?Sym   14.1292 eV   87.75 nm  f=0.0000  <S**2>=0.000
       4 ->  9         0.49802
       5 ->  8         0.49802

 Excited state symmetry could not be determined.
 Excited State   6:      Singlet-?Sym   14.1292 eV   87.75 nm  f=0.0000  <S**2>=0.000
       4 ->  8        -0.49802
       5 ->  9         0.49802

 Excited state symmetry could not be determined.
 Excited State   7:      Singlet-?Sym   14.1569 eV   87.58 nm  f=0.0256  <S**2>=0.000
       4 ->  7         0.63869
       4 -> 10         0.12565
       5 ->  7         0.26863

 Excited state symmetry could not be determined.
 Excited State   8:      Singlet-?Sym   14.1569 eV   87.58 nm  f=0.0256  <S**2>=0.000
       4 ->  7        -0.26863
       5 ->  7         0.63869
       5 -> 10         0.12565

 Excited state symmetry could not be determined.
 Excited State   9:      Singlet-?Sym   15.8155 eV   78.39 nm  f=0.0167  <S**2>=0.000
       3 ->  6        -0.25573
       3 ->  7        -0.20497
       3 -> 10        -0.12212
       4 ->  8         0.42449
       5 ->  9         0.42449

 Excited state symmetry could not be determined.
 Excited State  10:      Singlet-?Sym   16.0855 eV   77.08 nm  f=0.0704  <S**2>=0.000
       4 ->  7        -0.13285
       4 -> 10         0.67670
       5 -> 10         0.11733

 Excited state symmetry could not be determined.
 Excited State  11:      Singlet-?Sym   16.0855 eV   77.08 nm  f=0.0704  <S**2>=0.000
       4 -> 10        -0.11733
       5 ->  7        -0.13285
       5 -> 10         0.67670

 Excited state symmetry could not be determined.
 Excited State  12:      Singlet-?Sym   16.9053 eV   73.34 nm  f=0.0000  <S**2>=0.000
       4 -> 12        -0.49748
       5 -> 11         0.49748

 Excited state symmetry could not be determined.
 Excited State  13:      Singlet-?Sym   16.9053 eV   73.34 nm  f=0.0000  <S**2>=0.000
       4 -> 11         0.49748
       5 -> 12         0.49748

 Excited state symmetry could not be determined.
 Excited State  14:      Singlet-?Sym   16.9604 eV   73.10 nm  f=0.0000  <S**2>=0.000
       4 -> 11         0.49678
       5 -> 12        -0.49678

 Excited state symmetry could not be determined.
 Excited State  15:      Singlet-?Sym   17.1421 eV   72.33 nm  f=0.2087  <S**2>=0.000
       3 ->  7        -0.12624
       3 -> 10        -0.12634
       4 -> 12         0.47789
       5 -> 11         0.47789

 Excited state symmetry could not be determined.
 Excited State  16:      Singlet-?Sym   17.7742 eV   69.76 nm  f=0.0001  <S**2>=0.000
       3 ->  8         0.53366
       3 ->  9        -0.45891

 Excited state symmetry could not be determined.
 Excited State  17:      Singlet-?Sym   17.7742 eV   69.76 nm  f=0.0001  <S**2>=0.000
       3 ->  8         0.45891
       3 ->  9         0.53366

 Excited State  18:      Singlet-SG    18.4120 eV   67.34 nm  f=0.0268  <S**2>=0.000
       3 ->  6        -0.11631
       3 ->  7         0.66322
       4 ->  8         0.12365
       5 ->  9         0.12365

 Excited state symmetry could not be determined.
 Excited State  19:      Singlet-?Sym   19.4140 eV   63.86 nm  f=0.0124  <S**2>=0.000
       4 -> 13         0.69762

 Excited state symmetry could not be determined.
 Excited State  20:      Singlet-?Sym   19.4140 eV   63.86 nm  f=0.0124  <S**2>=0.000
       5 -> 13         0.69762

 Excited state symmetry could not be determined.
 Excited State  21:      Singlet-?Sym   20.6259 eV   60.11 nm  f=0.0764  <S**2>=0.000
       3 -> 11         0.50683
       3 -> 12        -0.48350

 Excited state symmetry could not be determined.
 Excited State  22:      Singlet-?Sym   20.6259 eV   60.11 nm  f=0.0764  <S**2>=0.000
       3 -> 11         0.48350
       3 -> 12         0.50683

 Excited State  23:      Singlet-SG    20.7012 eV   59.89 nm  f=0.1257  <S**2>=0.000
       3 -> 10         0.66196
       3 -> 13         0.17455

 Excited State  24:      Singlet-SG    23.8136 eV   52.06 nm  f=0.0741  <S**2>=0.000
       3 -> 10        -0.14490
       3 -> 13         0.67430

 Excited state symmetry could not be determined.
 Excited State  25:      Singlet-?Sym   24.6773 eV   50.24 nm  f=0.0000  <S**2>=0.000
       4 -> 14         0.45714
       4 -> 15         0.20253
       5 -> 14        -0.20253
       5 -> 15         0.45714

 Excited state symmetry could not be determined.
 Excited State  26:      Singlet-?Sym   24.6773 eV   50.24 nm  f=0.0000  <S**2>=0.000
       4 -> 14         0.20253
       4 -> 15        -0.45714
       5 -> 14         0.45714
       5 -> 15         0.20253

 Excited state symmetry could not be determined.
 Excited State  27:      Singlet-?Sym   25.6939 eV   48.25 nm  f=0.4277  <S**2>=0.000
       4 -> 14         0.34412
       4 -> 15         0.32813
       4 -> 16        -0.13876
       5 -> 14         0.32813
       5 -> 15        -0.34412
       5 -> 16        -0.14552

 Excited state symmetry could not be determined.
 Excited State  28:      Singlet-?Sym   25.6939 eV   48.25 nm  f=0.4277  <S**2>=0.000
       4 -> 14        -0.32813
       4 -> 15         0.34412
       4 -> 16        -0.14552
       5 -> 14         0.34412
       5 -> 15         0.32813
       5 -> 16         0.13876

 Excited state symmetry could not be determined.
 Excited State  29:      Singlet-?Sym   27.4230 eV   45.21 nm  f=0.1809  <S**2>=0.000
       4 -> 15         0.13701
       4 -> 16         0.67045
       5 -> 14         0.13701

 Excited state symmetry could not be determined.
 Excited State  30:      Singlet-?Sym   27.4230 eV   45.21 nm  f=0.1809  <S**2>=0.000
       4 -> 14         0.13701
       5 -> 15        -0.13701
       5 -> 16         0.67045

 Excited state symmetry could not be determined.
 Excited State  31:      Singlet-?Sym   28.4184 eV   43.63 nm  f=0.0000  <S**2>=0.000
       3 -> 14         0.70675

 Excited state symmetry could not be determined.
 Excited State  32:      Singlet-?Sym   28.4184 eV   43.63 nm  f=0.0000  <S**2>=0.000
       3 -> 15         0.70675

 Excited state symmetry could not be determined.
 Excited State  33:      Singlet-?Sym   29.3075 eV   42.30 nm  f=0.0000  <S**2>=0.000
       4 -> 18        -0.49900
       5 -> 17         0.49900

 Excited state symmetry could not be determined.
 Excited State  34:      Singlet-?Sym   29.3075 eV   42.30 nm  f=0.0000  <S**2>=0.000
       4 -> 17         0.49900
       5 -> 18         0.49900

 Excited state symmetry could not be determined.
 Excited State  35:      Singlet-?Sym   29.3458 eV   42.25 nm  f=0.0000  <S**2>=0.000
       4 -> 17         0.49919
       5 -> 18        -0.49919

 Excited state symmetry could not be determined.
 Excited State  36:      Singlet-?Sym   29.9636 eV   41.38 nm  f=0.1303  <S**2>=0.000
       3 -> 16         0.35146
       4 -> 18         0.42738
       5 -> 17         0.42738

 Excited State  37:      Singlet-SG    31.6189 eV   39.21 nm  f=0.1437  <S**2>=0.000
       2 ->  6         0.65192
       3 -> 16        -0.24811

 Excited State  38:      Singlet-SG    32.5035 eV   38.14 nm  f=0.4937  <S**2>=0.000
       2 ->  6         0.24146
       3 -> 16         0.55535
       4 -> 18        -0.24827
       5 -> 17        -0.24827

 Excited state symmetry could not be determined.
 Excited State  39:      Singlet-?Sym   33.5608 eV   36.94 nm  f=0.2993  <S**2>=0.000
       2 ->  9        -0.11811
       3 -> 17         0.65690
       3 -> 18         0.21423

 Excited state symmetry could not be determined.
 Excited State  40:      Singlet-?Sym   33.5608 eV   36.94 nm  f=0.2993  <S**2>=0.000
       2 ->  8        -0.11811
       3 -> 17        -0.21423
       3 -> 18         0.65690

 Excited State  41:      Singlet-SG    35.4319 eV   34.99 nm  f=0.0051  <S**2>=0.000
       2 ->  7         0.68857
       2 -> 10         0.12412

 Excited state symmetry could not be determined.
 Excited State  42:      Singlet-?Sym   35.4704 eV   34.95 nm  f=0.0015  <S**2>=0.000
       2 ->  8         0.54003
       2 ->  9         0.42888

 Excited state symmetry could not be determined.
 Excited State  43:      Singlet-?Sym   35.4704 eV   34.95 nm  f=0.0015  <S**2>=0.000
       2 ->  8        -0.42888
       2 ->  9         0.54003

 Excited State  44:      Singlet-SG    37.2366 eV   33.30 nm  f=0.0098  <S**2>=0.000
       2 ->  7        -0.12475
       2 -> 10         0.69386

 Excited state symmetry could not be determined.
 Excited State  45:      Singlet-?Sym   37.5463 eV   33.02 nm  f=0.0021  <S**2>=0.000
       2 -> 11        -0.11968
       4 -> 19         0.41413
       5 -> 19         0.55117

 Excited state symmetry could not be determined.
 Excited State  46:      Singlet-?Sym   37.5463 eV   33.02 nm  f=0.0021  <S**2>=0.000
       2 -> 12        -0.11968
       4 -> 19         0.55117
       5 -> 19        -0.41413

 Excited state symmetry could not be determined.
 Excited State  47:      Singlet-?Sym   37.9524 eV   32.67 nm  f=0.0052  <S**2>=0.000
       2 -> 11         0.68333
       5 -> 19         0.15065

 Excited state symmetry could not be determined.
 Excited State  48:      Singlet-?Sym   37.9524 eV   32.67 nm  f=0.0052  <S**2>=0.000
       2 -> 12         0.68333
       4 -> 19         0.15065

 Excited State  49:      Singlet-SG    40.7453 eV   30.43 nm  f=0.0150  <S**2>=0.000
       2 -> 13         0.66974
       3 -> 19         0.20745

 Excited State  50:      Singlet-SG    41.9393 eV   29.56 nm  f=0.0025  <S**2>=0.000
       2 -> 13        -0.18162
       3 -> 19         0.64863
       4 -> 21        -0.14974
       5 -> 20        -0.14974

 Excited state symmetry could not be determined.
 Excited State  51:      Singlet-?Sym   44.5376 eV   27.84 nm  f=0.0000  <S**2>=0.000
       4 -> 20         0.49973
       5 -> 21        -0.49973

 Excited state symmetry could not be determined.
 Excited State  52:      Singlet-?Sym   44.7301 eV   27.72 nm  f=0.0000  <S**2>=0.000
       2 -> 14        -0.11841
       4 -> 20         0.49273
       5 -> 21         0.49273

 Excited state symmetry could not be determined.
 Excited State  53:      Singlet-?Sym   44.7301 eV   27.72 nm  f=0.0000  <S**2>=0.000
       2 -> 15         0.11841
       4 -> 21        -0.49273
       5 -> 20         0.49273

 Excited state symmetry could not be determined.
 Excited State  54:      Singlet-?Sym   45.9371 eV   26.99 nm  f=0.0000  <S**2>=0.000
       2 -> 14         0.69709

 Excited state symmetry could not be determined.
 Excited State  55:      Singlet-?Sym   45.9371 eV   26.99 nm  f=0.0000  <S**2>=0.000
       2 -> 15         0.69709

 Excited State  56:      Singlet-SG    48.4171 eV   25.61 nm  f=0.0000  <S**2>=0.000
       2 -> 16         0.69527

 Excited state symmetry could not be determined.
 Excited State  57:      Singlet-?Sym   48.5103 eV   25.56 nm  f=0.0000  <S**2>=0.000
       3 -> 20         0.69012
       3 -> 21         0.12677

 Excited state symmetry could not be determined.
 Excited State  58:      Singlet-?Sym   48.5103 eV   25.56 nm  f=0.0000  <S**2>=0.000
       3 -> 20        -0.12677
       3 -> 21         0.69012

 Excited state symmetry could not be determined.
 Excited State  59:      Singlet-?Sym   50.2936 eV   24.65 nm  f=0.0374  <S**2>=0.000
       2 -> 18        -0.18216
       4 -> 22         0.62419
       5 -> 22         0.25872

 Excited state symmetry could not be determined.
 Excited State  60:      Singlet-?Sym   50.2936 eV   24.65 nm  f=0.0374  <S**2>=0.000
       2 -> 17        -0.18216
       4 -> 22        -0.25872
       5 -> 22         0.62419

 Excited state symmetry could not be determined.
 Excited State  61:      Singlet-?Sym   50.6873 eV   24.46 nm  f=0.0150  <S**2>=0.000
       2 -> 17         0.67373
       5 -> 22         0.19196

 Excited state symmetry could not be determined.
 Excited State  62:      Singlet-?Sym   50.6873 eV   24.46 nm  f=0.0150  <S**2>=0.000
       2 -> 18         0.67373
       4 -> 22         0.19196

 Excited State  63:      Singlet-SG    51.2493 eV   24.19 nm  f=0.0844  <S**2>=0.000
       2 -> 16        -0.11527
       3 -> 19        -0.13124
       3 -> 22         0.45539
       4 -> 21        -0.34555
       5 -> 20        -0.34555

 Excited State  64:      Singlet-SG    58.0403 eV   21.36 nm  f=0.0098  <S**2>=0.000
       2 -> 19         0.42586
       3 -> 22        -0.42061
       4 -> 21        -0.19216
       4 -> 23        -0.14624
       5 -> 20        -0.19216
       5 -> 24        -0.14624

 Excited state symmetry could not be determined.
 Excited State  65:      Singlet-?Sym   59.1146 eV   20.97 nm  f=0.0000  <S**2>=0.000
       4 -> 23         0.49994
       5 -> 24        -0.49994

 Excited state symmetry could not be determined.
 Excited State  66:      Singlet-?Sym   59.1146 eV   20.97 nm  f=0.0000  <S**2>=0.000
       4 -> 24         0.49994
       5 -> 23         0.49994

 Excited state symmetry could not be determined.
 Excited State  67:      Singlet-?Sym   59.2222 eV   20.94 nm  f=0.0000  <S**2>=0.000
       4 -> 24        -0.49992
       5 -> 23         0.49992

 Excited State  68:      Singlet-SG    59.4914 eV   20.84 nm  f=0.1083  <S**2>=0.000
       2 -> 19         0.52125
       3 -> 22         0.17491
       4 -> 21         0.12359
       4 -> 23         0.27193
       5 -> 20         0.12359
       5 -> 24         0.27193

 Excited state symmetry could not be determined.
 Excited State  69:      Singlet-?Sym   60.5810 eV   20.47 nm  f=0.0352  <S**2>=0.000
       2 -> 19        -0.19058
       2 -> 22        -0.11509
       3 -> 22        -0.24975
       3 -> 25         0.20066
       4 -> 21        -0.15121
       4 -> 23         0.38338
       5 -> 20        -0.15121
       5 -> 24         0.38338

 Excited state symmetry could not be determined.
 Excited State  70:      Singlet-?Sym   62.0027 eV   20.00 nm  f=0.0092  <S**2>=0.000
       3 -> 23        -0.24688
       4 -> 25         0.65496

 Excited state symmetry could not be determined.
 Excited State  71:      Singlet-?Sym   62.0027 eV   20.00 nm  f=0.0092  <S**2>=0.000
       3 -> 24        -0.24688
       5 -> 25         0.65496

 Excited state symmetry could not be determined.
 Excited State  72:      Singlet-?Sym   63.3675 eV   19.57 nm  f=0.1595  <S**2>=0.000
       3 -> 23         0.63191
       3 -> 24         0.19349
       4 -> 25         0.23710

 Excited state symmetry could not be determined.
 Excited State  73:      Singlet-?Sym   63.3675 eV   19.57 nm  f=0.1595  <S**2>=0.000
       3 -> 23        -0.19349
       3 -> 24         0.63191
       5 -> 25         0.23710

 Excited state symmetry could not be determined.
 Excited State  74:      Singlet-?Sym   66.4269 eV   18.66 nm  f=0.1935  <S**2>=0.000
       2 -> 20         0.70356

 Excited state symmetry could not be determined.
 Excited State  75:      Singlet-?Sym   66.4269 eV   18.66 nm  f=0.1935  <S**2>=0.000
       2 -> 21         0.70356

 Excited State  76:      Singlet-SG    66.6837 eV   18.59 nm  f=0.0191  <S**2>=0.000
       2 -> 22         0.16994
       3 -> 25         0.65956

 Excited state symmetry could not be determined.
 Excited State  77:      Singlet-?Sym   73.1747 eV   16.94 nm  f=0.0191  <S**2>=0.000
       4 -> 26        -0.20415
       5 -> 26         0.67443

 Excited state symmetry could not be determined.
 Excited State  78:      Singlet-?Sym   73.1747 eV   16.94 nm  f=0.0191  <S**2>=0.000
       4 -> 26         0.67443
       5 -> 26         0.20415

 Excited State  79:      Singlet-SG    73.4076 eV   16.89 nm  f=0.0762  <S**2>=0.000
       2 -> 22         0.64395
       2 -> 25         0.13062
       3 -> 25        -0.11574
       3 -> 26        -0.14065

 Excited State  80:      Singlet-SG    78.2771 eV   15.84 nm  f=0.0210  <S**2>=0.000
       2 -> 22         0.11258
       2 -> 25         0.10045
       3 -> 26         0.68223

 Excited state symmetry could not be determined.
 Excited State  81:      Singlet-?Sym   80.2097 eV   15.46 nm  f=0.0013  <S**2>=0.000
       2 -> 23        -0.26170
       2 -> 24         0.65655

 Excited state symmetry could not be determined.
 Excited State  82:      Singlet-?Sym   80.2097 eV   15.46 nm  f=0.0013  <S**2>=0.000
       2 -> 23         0.65655
       2 -> 24         0.26170

 Excited State  83:      Singlet-SG    85.3165 eV   14.53 nm  f=0.0388  <S**2>=0.000
       2 -> 22        -0.10713
       2 -> 25         0.68103

 Excited State  84:      Singlet-SG    94.8639 eV   13.07 nm  f=0.0183  <S**2>=0.000
       2 -> 26         0.70486

 Excited state symmetry could not be determined.
 Excited State  85:      Singlet-?Sym   97.3985 eV   12.73 nm  f=0.0000  <S**2>=0.000
       4 -> 27         0.40467
       4 -> 28         0.29366
       5 -> 27         0.29366
       5 -> 28        -0.40467

 Excited state symmetry could not be determined.
 Excited State  86:      Singlet-?Sym   97.3985 eV   12.73 nm  f=0.0000  <S**2>=0.000
       4 -> 27        -0.29366
       4 -> 28         0.40467
       5 -> 27         0.40467
       5 -> 28         0.29366

 Excited state symmetry could not be determined.
 Excited State  87:      Singlet-?Sym  101.3959 eV   12.23 nm  f=0.0000  <S**2>=0.000
       3 -> 27         0.70608

 Excited state symmetry could not be determined.
 Excited State  88:      Singlet-?Sym  101.3959 eV   12.23 nm  f=0.0000  <S**2>=0.000
       3 -> 28         0.70608

 Excited state symmetry could not be determined.
 Excited State  89:      Singlet-?Sym  101.8439 eV   12.17 nm  f=0.2735  <S**2>=0.000
       3 -> 30        -0.35737
       4 -> 27         0.42543
       5 -> 28         0.42543

 Excited state symmetry could not be determined.
 Excited State  90:      Singlet-?Sym  101.8439 eV   12.17 nm  f=0.2735  <S**2>=0.000
       3 -> 29         0.35737
       4 -> 28        -0.42543
       5 -> 27         0.42543

 Excited state symmetry could not be determined.
 Excited State  91:      Singlet-?Sym  102.2959 eV   12.12 nm  f=0.0000  <S**2>=0.000
       4 -> 29         0.49935
       5 -> 30         0.49935

 Excited state symmetry could not be determined.
 Excited State  92:      Singlet-?Sym  102.2959 eV   12.12 nm  f=0.0000  <S**2>=0.000
       4 -> 30        -0.49935
       5 -> 29         0.49935

 Excited state symmetry could not be determined.
 Excited State  93:      Singlet-?Sym  102.3689 eV   12.11 nm  f=0.0000  <S**2>=0.000
       4 -> 29         0.49997
       5 -> 30        -0.49997

 Excited state symmetry could not be determined.
 Excited State  94:      Singlet-?Sym  108.2431 eV   11.45 nm  f=0.5559  <S**2>=0.000
       4 -> 30         0.49208
       5 -> 29         0.49208

 Excited state symmetry could not be determined.
 Excited State  95:      Singlet-?Sym  110.6904 eV   11.20 nm  f=0.6497  <S**2>=0.000
       3 -> 29         0.46541
       3 -> 30        -0.38658
       4 -> 27        -0.15927
       4 -> 28         0.19175
       5 -> 27        -0.19175
       5 -> 28        -0.15927

 Excited state symmetry could not be determined.
 Excited State  96:      Singlet-?Sym  110.6904 eV   11.20 nm  f=0.6497  <S**2>=0.000
       3 -> 29         0.38658
       3 -> 30         0.46541
       4 -> 27         0.19175
       4 -> 28         0.15927
       5 -> 27        -0.15927
       5 -> 28         0.19175

 Excited state symmetry could not be determined.
 Excited State  97:      Singlet-?Sym  120.1527 eV   10.32 nm  f=0.0000  <S**2>=0.000
       2 -> 27         0.70699

 Excited state symmetry could not be determined.
 Excited State  98:      Singlet-?Sym  120.1527 eV   10.32 nm  f=0.0000  <S**2>=0.000
       2 -> 28         0.70699

 Excited state symmetry could not be determined.
 Excited State  99:      Singlet-?Sym  124.9634 eV    9.92 nm  f=0.0088  <S**2>=0.000
       2 -> 29         0.66978
       2 -> 30        -0.22292

 Excited state symmetry could not be determined.
 Excited State 100:      Singlet-?Sym  124.9634 eV    9.92 nm  f=0.0088  <S**2>=0.000
       2 -> 29         0.22292
       2 -> 30         0.66978

 Excited state symmetry could not be determined.
 Excited State 101:      Singlet-?Sym  128.4813 eV    9.65 nm  f=0.1112  <S**2>=0.000
       4 -> 31        -0.16939
       5 -> 31         0.67937

 Excited state symmetry could not be determined.
 Excited State 102:      Singlet-?Sym  128.4813 eV    9.65 nm  f=0.1112  <S**2>=0.000
       4 -> 31         0.67937
       5 -> 31         0.16939

 Excited State 103:      Singlet-SG   133.7463 eV    9.27 nm  f=0.2282  <S**2>=0.000
       3 -> 31         0.70004

 Excited State 104:      Singlet-SG   149.3938 eV    8.30 nm  f=0.0002  <S**2>=0.000
       2 -> 31         0.70695

 The electronic state is 1-SG.
 Alpha  occ. eigenvalues --  -24.77493  -1.27195  -0.63160  -0.49857  -0.49857
 Alpha virt. eigenvalues --    0.04090   0.17804   0.18354   0.18354   0.26145
 Alpha virt. eigenvalues --    0.27738   0.27738   0.38144   0.61211   0.61211
 Alpha virt. eigenvalues --    0.68591   0.77508   0.77508   1.09259   1.39717

 Mulliken charges:
               1
     1  F   -0.241901
     2  H    0.241901
 Sum of Mulliken charges =  -0.00000

 Dipole moment (field-independent basis, Debye):
    X=              0.0000    Y=              0.0000    Z=             -1.8522  Tot=              1.8522
 Quadrupole moment (field-independent basis, Debye-Ang):
   XX=             -5.9463   YY=             -5.9463   ZZ=             -3.8280
   XY=              0.0000   XZ=              0.0000   YZ=              0.0000

 1\1\GINC-HEL12\SP\RCAM-B3LYP TD-FC\Gen\F1H1\SABYASACHI\21-Mar-2022\0\\
 #P TD(Nstates=10000) cam-b3lyp/Gen SCF(maxcycles=100) Int(Grid=ultrafi
 ne)\\xGDB7_00001_tier4.com\\0,1\F,0,0.,0.,0.091801\H,0,0.,0.,-0.826212
 \\Version=EM64L-G16RevC.01\State=1-SG\HF=-100.3515949\RMSD=1.740e-09\P
 G=C*V [C*(H1F1)]\\@
 The archive entry for this job was punched.

 Normal termination of Gaussian 16 at Mon Mar 21 20:07:16 2022.
