 Gaussian 16, Revision C.01,
 Gaussian 16:  EM64L-G16RevC.01  3-Jul-2019

 ----------------------------------------------------------------------
 #P TD(Nstates=10000) cam-b3lyp/Gen SCF(maxcycles=100) Int(Grid=ultrafi
 ne)
 ----------------------------------------------------------------------

 ---------------------
 xGDB7_00001_tier4.com
 ---------------------
 Symbolic Z-matrix:
 Charge =  0 Multiplicity = 1

                         Standard orientation:
 ---------------------------------------------------------------------
 Center     Atomic      Atomic             Coordinates (Angstroms)
 Number     Number       Type             X           Y           Z
 ---------------------------------------------------------------------
      1          8           0        0.000000    0.000000    0.596896
      2          8           0        0.000000    0.000000   -0.596896
 ---------------------------------------------------------------------

 SCF Done:  E(RCAM-B3LYP) =  -150.108473598     A.U. after   11 cycles

 Excitation energies and oscillator strengths:

 Excited state symmetry could not be determined.
 Excited State   1:      Singlet-?Sym    0.0020 eV 622624.80 nm  f=0.0000  <S**2>=0.000
       6 -> 23        -0.11191
       7 -> 22        -0.11264
       8 ->  9        -8.13872
       8 -> 16         0.32046
       8 -> 26        -0.13538
       6 <- 23        -0.11222
       7 <- 22        -0.11228
       8 <-  9        -8.10802
       8 <- 16         0.31888
       8 <- 26        -0.13464
 This state for optimization and/or second-order correction.
 Total Energy, E(TD-HF/TD-DFT) =  -150.108400419
 Copying the excited state density for this state as the 1-particle RhoCI density.

 Excited state symmetry could not be determined.
 Excited State   2:      Singlet-?Sym    6.8133 eV  181.97 nm  f=0.0000  <S**2>=0.000
       7 ->  9         0.70541

 Excited state symmetry could not be determined.
 Excited State   3:      Singlet-?Sym    7.6824 eV  161.39 nm  f=0.0000  <S**2>=0.000
       5 ->  9         0.70618

 Excited state symmetry could not be determined.
 Excited State   4:      Singlet-?Sym    7.9688 eV  155.59 nm  f=0.0000  <S**2>=0.000
       8 -> 11         0.69086
       8 -> 14        -0.14593

 Excited state symmetry could not be determined.
 Excited State   5:      Singlet-?Sym    8.0649 eV  153.73 nm  f=0.0214  <S**2>=0.000
       8 -> 10         0.69730
       8 -> 17        -0.11136

 Excited state symmetry could not be determined.
 Excited State   6:      Singlet-?Sym    8.7872 eV  141.10 nm  f=0.0000  <S**2>=0.000
       8 -> 12         0.70548

 Excited state symmetry could not be determined.
 Excited State   7:      Singlet-?Sym    8.9470 eV  138.58 nm  f=0.1032  <S**2>=0.000
       6 ->  9         0.25837
       8 -> 13         0.65637

 Excited state symmetry could not be determined.
 Excited State   8:      Singlet-?Sym   10.3335 eV  119.98 nm  f=0.0000  <S**2>=0.000
       8 -> 11         0.14420
       8 -> 14         0.68887

 Excited state symmetry could not be determined.
 Excited State   9:      Singlet-?Sym   10.4915 eV  118.18 nm  f=0.0796  <S**2>=0.000
       5 -> 17        -0.13818
       6 ->  9         0.63962
       8 -> 13        -0.26050
       6 <-  9        -0.10511

 Excited state symmetry could not be determined.
 Excited State  10:      Singlet-?Sym   10.8067 eV  114.73 nm  f=0.0000  <S**2>=0.000
       8 -> 16         0.70379

 Excited state symmetry could not be determined.
 Excited State  11:      Singlet-?Sym   11.1551 eV  111.15 nm  f=0.0000  <S**2>=0.000
       8 -> 15         0.70417

 Excited state symmetry could not be determined.
 Excited State  12:      Singlet-?Sym   11.9156 eV  104.05 nm  f=0.0125  <S**2>=0.000
       8 -> 17         0.65426
       8 -> 18        -0.23740

 Excited state symmetry could not be determined.
 Excited State  13:      Singlet-?Sym   15.1753 eV   81.70 nm  f=0.1338  <S**2>=0.000
       7 -> 11         0.32674
       8 -> 17         0.21945
       8 -> 18         0.57890

 Excited state symmetry could not be determined.
 Excited State  14:      Singlet-?Sym   15.4536 eV   80.23 nm  f=0.0000  <S**2>=0.000
       6 -> 10        -0.33644
       8 -> 19         0.61522

 Excited state symmetry could not be determined.
 Excited State  15:      Singlet-?Sym   15.4724 eV   80.13 nm  f=0.0000  <S**2>=0.000
       7 -> 10         0.32569
       8 -> 20         0.62028

 Excited state symmetry could not be determined.
 Excited State  16:      Singlet-?Sym   15.5528 eV   79.72 nm  f=0.1412  <S**2>=0.000
       4 ->  9         0.12563
       6 -> 11         0.68372
       6 -> 14        -0.12302

 Excited state symmetry could not be determined.
 Excited State  17:      Singlet-?Sym   15.6313 eV   79.32 nm  f=0.0000  <S**2>=0.000
       6 -> 10         0.60721
       6 -> 17        -0.10337
       8 -> 19         0.34521

 Excited state symmetry could not be determined.
 Excited State  18:      Singlet-?Sym   15.6784 eV   79.08 nm  f=0.0000  <S**2>=0.000
       7 -> 10         0.61246
       8 -> 20        -0.33652

 Excited state symmetry could not be determined.
 Excited State  19:      Singlet-?Sym   15.6801 eV   79.07 nm  f=0.0195  <S**2>=0.000
       7 -> 11         0.60847
       7 -> 14        -0.12233
       8 -> 18        -0.32570

 Excited State  20:      Singlet-SGU   15.9356 eV   77.80 nm  f=0.2601  <S**2>=0.000
       5 -> 10         0.69698

 Excited state symmetry could not be determined.
 Excited State  21:      Singlet-?Sym   15.9935 eV   77.52 nm  f=0.0296  <S**2>=0.000
       4 ->  9         0.67759
       6 -> 11        -0.11352

 Excited State  22:      Singlet-SGG   16.1467 eV   76.79 nm  f=0.0000  <S**2>=0.000
       5 -> 11         0.64260
       5 -> 14        -0.10174
       6 -> 12        -0.25255

 Excited state symmetry could not be determined.
 Excited State  23:      Singlet-?Sym   16.3040 eV   76.05 nm  f=0.0000  <S**2>=0.000
       7 -> 12         0.70436

 Excited state symmetry could not be determined.
 Excited State  24:      Singlet-?Sym   16.3929 eV   75.63 nm  f=0.0000  <S**2>=0.000
       5 -> 11         0.12718
       6 -> 12         0.52038
       7 -> 13        -0.45734

 Excited state symmetry could not be determined.
 Excited State  25:      Singlet-?Sym   16.5162 eV   75.07 nm  f=0.0000  <S**2>=0.000
       6 -> 13         0.70615

 Excited state symmetry could not be determined.
 Excited State  26:      Singlet-?Sym   16.7277 eV   74.12 nm  f=0.0660  <S**2>=0.000
       5 -> 12         0.69982

 Excited state symmetry could not be determined.
 Excited State  27:      Singlet-?Sym   16.9381 eV   73.20 nm  f=0.0559  <S**2>=0.000
       5 -> 13         0.70559

 Excited state symmetry could not be determined.
 Excited State  28:      Singlet-?Sym   17.1944 eV   72.11 nm  f=0.0000  <S**2>=0.000
       5 -> 11         0.20122
       5 -> 14        -0.18735
       6 -> 12         0.38612
       7 -> 13         0.51586

 Excited state symmetry could not be determined.
 Excited State  29:      Singlet-?Sym   17.9528 eV   69.06 nm  f=0.0333  <S**2>=0.000
       7 -> 11         0.14133
       7 -> 14         0.68815

 Excited state symmetry could not be determined.
 Excited State  30:      Singlet-?Sym   18.0010 eV   68.88 nm  f=0.0544  <S**2>=0.000
       6 -> 11         0.13808
       6 -> 14         0.68715

 Excited state symmetry could not be determined.
 Excited State  31:      Singlet-?Sym   18.3390 eV   67.61 nm  f=0.0000  <S**2>=0.000
       5 -> 11         0.15646
       5 -> 14         0.66983
       7 -> 13         0.10646

 Excited state symmetry could not be determined.
 Excited State  32:      Singlet-?Sym   18.3484 eV   67.57 nm  f=0.0000  <S**2>=0.000
       6 -> 15         0.20674
       7 -> 16         0.67116

 Excited state symmetry could not be determined.
 Excited State  33:      Singlet-?Sym   18.3561 eV   67.54 nm  f=0.0002  <S**2>=0.000
       6 -> 16         0.52888
       7 -> 15        -0.46503

 Excited state symmetry could not be determined.
 Excited State  34:      Singlet-?Sym   18.3862 eV   67.43 nm  f=0.0000  <S**2>=0.000
       6 -> 15         0.67501
       7 -> 16        -0.20561

 Excited state symmetry could not be determined.
 Excited State  35:      Singlet-?Sym   18.5058 eV   67.00 nm  f=0.0482  <S**2>=0.000
       5 -> 17         0.11745
       6 -> 16         0.45453
       7 -> 15         0.52031

 Excited state symmetry could not be determined.
 Excited State  36:      Singlet-?Sym   18.6586 eV   66.45 nm  f=0.0000  <S**2>=0.000
       5 -> 16         0.70099

 Excited state symmetry could not be determined.
 Excited State  37:      Singlet-?Sym   18.6941 eV   66.32 nm  f=0.0000  <S**2>=0.000
       5 -> 15         0.70214

 Excited state symmetry could not be determined.
 Excited State  38:      Singlet-?Sym   19.2103 eV   64.54 nm  f=0.0000  <S**2>=0.000
       6 -> 10         0.12305
       6 -> 17         0.64373
       6 -> 18        -0.24764

 Excited state symmetry could not be determined.
 Excited State  39:      Singlet-?Sym   19.3231 eV   64.16 nm  f=0.0000  <S**2>=0.000
       7 -> 10         0.11564
       7 -> 17         0.64627
       7 -> 18        -0.24272

 Excited state symmetry could not be determined.
 Excited State  40:      Singlet-?Sym   20.4890 eV   60.51 nm  f=0.0000  <S**2>=0.000
       8 -> 22         0.70328

 Excited state symmetry could not be determined.
 Excited State  41:      Singlet-?Sym   20.5128 eV   60.44 nm  f=0.0036  <S**2>=0.000
       5 -> 17        -0.40668
       8 -> 23         0.55787

 Excited state symmetry could not be determined.
 Excited State  42:      Singlet-?Sym   20.5777 eV   60.25 nm  f=0.0000  <S**2>=0.000
       8 -> 21         0.69913

 Excited state symmetry could not be determined.
 Excited State  43:      Singlet-?Sym   21.6553 eV   57.25 nm  f=0.1267  <S**2>=0.000
       6 -> 19        -0.15969
       8 -> 24         0.67960

 Excited state symmetry could not be determined.
 Excited State  44:      Singlet-?Sym   21.6927 eV   57.15 nm  f=0.1709  <S**2>=0.000
       6 -> 20        -0.18059
       8 -> 25         0.67675

 Excited State  45:      Singlet-SGU   21.9010 eV   56.61 nm  f=0.6258  <S**2>=0.000
       4 -> 11         0.40147
       4 -> 14        -0.10203
       5 -> 17         0.40062
       5 -> 18         0.16844
       8 -> 23         0.35483

 Excited state symmetry could not be determined.
 Excited State  46:      Singlet-?Sym   22.1579 eV   55.95 nm  f=0.0000  <S**2>=0.000
       8 -> 26         0.70282

 Excited state symmetry could not be determined.
 Excited State  47:      Singlet-?Sym   22.2133 eV   55.82 nm  f=0.0610  <S**2>=0.000
       8 -> 28         0.69475

 Excited State  48:      Singlet-SGG   22.5168 eV   55.06 nm  f=0.0000  <S**2>=0.000
       4 -> 10         0.57566
       4 -> 17        -0.10701
       8 -> 27        -0.38685

 Excited state symmetry could not be determined.
 Excited State  49:      Singlet-?Sym   22.7427 eV   54.52 nm  f=0.0000  <S**2>=0.000
       6 -> 17         0.24412
       6 -> 18         0.66081

 Excited state symmetry could not be determined.
 Excited State  50:      Singlet-?Sym   22.7606 eV   54.47 nm  f=0.0000  <S**2>=0.000
       7 -> 17         0.24306
       7 -> 18         0.65844

 Excited state symmetry could not be determined.
 Excited State  51:      Singlet-?Sym   22.9296 eV   54.07 nm  f=0.0048  <S**2>=0.000
       6 -> 20        -0.45344
       7 -> 19         0.51532
       8 -> 25        -0.16932

 Excited state symmetry could not be determined.
 Excited State  52:      Singlet-?Sym   22.9326 eV   54.06 nm  f=0.0078  <S**2>=0.000
       6 -> 19         0.45888
       7 -> 20         0.50810
       8 -> 24         0.16867

 Excited State  53:      Singlet-SGU   23.0515 eV   53.79 nm  f=0.0707  <S**2>=0.000
       4 -> 11         0.50585
       5 -> 17        -0.26528
       5 -> 18        -0.39778

 Excited state symmetry could not be determined.
 Excited State  54:      Singlet-?Sym   23.2841 eV   53.25 nm  f=0.0000  <S**2>=0.000
       4 -> 10         0.39582
       8 -> 27         0.56770

 Excited state symmetry could not be determined.
 Excited State  55:      Singlet-?Sym   23.3662 eV   53.06 nm  f=0.0000  <S**2>=0.000
       5 -> 19         0.70639

 Excited state symmetry could not be determined.
 Excited State  56:      Singlet-?Sym   23.3801 eV   53.03 nm  f=0.0000  <S**2>=0.000
       5 -> 20         0.70287

 Excited state symmetry could not be determined.
 Excited State  57:      Singlet-?Sym   23.3995 eV   52.99 nm  f=0.0000  <S**2>=0.000
       4 -> 12         0.70248

 Excited state symmetry could not be determined.
 Excited State  58:      Singlet-?Sym   23.6269 eV   52.48 nm  f=0.0000  <S**2>=0.000
       4 -> 13         0.70333

 Excited state symmetry could not be determined.
 Excited State  59:      Singlet-?Sym   23.7930 eV   52.11 nm  f=0.6273  <S**2>=0.000
       6 -> 19         0.50109
       7 -> 20        -0.47945

 Excited state symmetry could not be determined.
 Excited State  60:      Singlet-?Sym   23.8751 eV   51.93 nm  f=0.6638  <S**2>=0.000
       4 ->  9         0.10449
       6 -> 20         0.50024
       7 -> 19         0.46751

 Excited state symmetry could not be determined.
 Excited State  61:      Singlet-?Sym   24.8911 eV   49.81 nm  f=0.0682  <S**2>=0.000
       4 -> 11         0.11262
       4 -> 14         0.69034

 Excited State  62:      Singlet-SGU   25.0259 eV   49.54 nm  f=0.6953  <S**2>=0.000
       4 -> 11         0.23682
       5 -> 17        -0.23052
       5 -> 18         0.53053
       6 ->  9        -0.15016
       8 -> 23        -0.21199
       8 -> 30        -0.11255

 Excited state symmetry could not be determined.
 Excited State  63:      Singlet-?Sym   25.4035 eV   48.81 nm  f=0.0021  <S**2>=0.000
       4 -> 16         0.69724

 Excited state symmetry could not be determined.
 Excited State  64:      Singlet-?Sym   25.4253 eV   48.76 nm  f=0.0023  <S**2>=0.000
       4 -> 15         0.69862

 Excited State  65:      Singlet-SGG   27.1605 eV   45.65 nm  f=0.0000  <S**2>=0.000
       4 -> 17         0.61080
       4 -> 18        -0.17916
       5 -> 21         0.11221
       6 -> 22        -0.21972
       7 -> 23        -0.13657

 Excited state symmetry could not be determined.
 Excited State  66:      Singlet-?Sym   28.0311 eV   44.23 nm  f=0.0000  <S**2>=0.000
       7 -> 22         0.70446

 Excited state symmetry could not be determined.
 Excited State  67:      Singlet-?Sym   28.1292 eV   44.08 nm  f=0.0000  <S**2>=0.000
       4 -> 17         0.10273
       5 -> 21         0.10083
       6 -> 22         0.58401
       7 -> 23        -0.36901

 Excited state symmetry could not be determined.
 Excited State  68:      Singlet-?Sym   28.1991 eV   43.97 nm  f=0.0052  <S**2>=0.000
       5 -> 22        -0.31022
       6 -> 21         0.63239

 Excited state symmetry could not be determined.
 Excited State  69:      Singlet-?Sym   28.2847 eV   43.83 nm  f=0.0212  <S**2>=0.000
       5 -> 23        -0.22341
       7 -> 21         0.66552

 Excited state symmetry could not be determined.
 Excited State  70:      Singlet-?Sym   28.3280 eV   43.77 nm  f=0.0000  <S**2>=0.000
       6 -> 23         0.70651

 Excited state symmetry could not be determined.
 Excited State  71:      Singlet-?Sym   28.5671 eV   43.40 nm  f=0.0000  <S**2>=0.000
       3 ->  9         0.62505
       6 -> 24         0.19974
       7 -> 25        -0.24159

 Excited state symmetry could not be determined.
 Excited State  72:      Singlet-?Sym   28.6619 eV   43.26 nm  f=0.0000  <S**2>=0.000
       4 -> 17         0.11273
       5 -> 21         0.46484
       6 -> 22         0.19635
       7 -> 23         0.46710

 Excited state symmetry could not be determined.
 Excited State  73:      Singlet-?Sym   28.8489 eV   42.98 nm  f=0.3226  <S**2>=0.000
       5 -> 22         0.62430
       6 -> 21         0.30448

 Excited state symmetry could not be determined.
 Excited State  74:      Singlet-?Sym   28.9423 eV   42.84 nm  f=0.0000  <S**2>=0.000
       6 -> 25         0.51114
       7 -> 24        -0.48802

 Excited state symmetry could not be determined.
 Excited State  75:      Singlet-?Sym   28.9425 eV   42.84 nm  f=0.0000  <S**2>=0.000
       6 -> 24         0.52758
       7 -> 25         0.47002

 Excited state symmetry could not be determined.
 Excited State  76:      Singlet-?Sym   29.1118 eV   42.59 nm  f=0.2814  <S**2>=0.000
       5 -> 23         0.66232
       7 -> 21         0.21915

 Excited state symmetry could not be determined.
 Excited State  77:      Singlet-?Sym   29.1215 eV   42.57 nm  f=0.0000  <S**2>=0.000
       4 -> 17        -0.28111
       4 -> 18        -0.17165
       5 -> 21         0.48522
       6 -> 22        -0.22640
       7 -> 23        -0.30895

 Excited state symmetry could not be determined.
 Excited State  78:      Singlet-?Sym   29.1481 eV   42.54 nm  f=0.0000  <S**2>=0.000
       4 -> 19         0.33545
       5 -> 25         0.60339
       7 -> 26        -0.12664

 Excited state symmetry could not be determined.
 Excited State  79:      Singlet-?Sym   29.1611 eV   42.52 nm  f=0.0012  <S**2>=0.000
       4 -> 20        -0.33126
       5 -> 24         0.60640
       6 -> 26         0.12773

 Excited state symmetry could not be determined.
 Excited State  80:      Singlet-?Sym   29.2263 eV   42.42 nm  f=0.0000  <S**2>=0.000
       6 -> 25         0.48638
       7 -> 24         0.50914

 Excited state symmetry could not be determined.
 Excited State  81:      Singlet-?Sym   29.3318 eV   42.27 nm  f=0.0000  <S**2>=0.000
       3 ->  9         0.28313
       6 -> 24        -0.41374
       6 -> 28        -0.17630
       7 -> 25         0.45445

 Excited state symmetry could not be determined.
 Excited State  82:      Singlet-?Sym   29.6655 eV   41.79 nm  f=0.0000  <S**2>=0.000
       5 -> 25         0.13346
       7 -> 26         0.67955
       8 -> 29        -0.11701

 Excited state symmetry could not be determined.
 Excited State  83:      Singlet-?Sym   29.7444 eV   41.68 nm  f=0.0000  <S**2>=0.000
       7 -> 28         0.69810

 Excited state symmetry could not be determined.
 Excited State  84:      Singlet-?Sym   29.7743 eV   41.64 nm  f=0.0000  <S**2>=0.000
       3 ->  9         0.14834
       6 -> 28         0.67083
       7 -> 25         0.10810

 Excited state symmetry could not be determined.
 Excited State  85:      Singlet-?Sym   29.7837 eV   41.63 nm  f=0.0063  <S**2>=0.000
       5 -> 24        -0.13361
       5 -> 28         0.10940
       6 -> 26         0.60694
       7 -> 27        -0.30864

 Excited state symmetry could not be determined.
 Excited State  86:      Singlet-?Sym   29.9105 eV   41.45 nm  f=0.0000  <S**2>=0.000
       6 -> 27         0.69855

 Excited state symmetry could not be determined.
 Excited State  87:      Singlet-?Sym   29.9169 eV   41.44 nm  f=0.0083  <S**2>=0.000
       5 -> 24         0.10331
       5 -> 28         0.50546
       6 -> 26         0.15048
       7 -> 27         0.43520

 Excited state symmetry could not be determined.
 Excited State  88:      Singlet-?Sym   30.0657 eV   41.24 nm  f=0.0000  <S**2>=0.000
       5 -> 26         0.69322

 Excited state symmetry could not be determined.
 Excited State  89:      Singlet-?Sym   30.2405 eV   41.00 nm  f=0.0000  <S**2>=0.000
       5 -> 27         0.69782

 Excited state symmetry could not be determined.
 Excited State  90:      Singlet-?Sym   30.2408 eV   41.00 nm  f=0.0000  <S**2>=0.000
       4 -> 19         0.62091
       5 -> 25        -0.33072

 Excited state symmetry could not be determined.
 Excited State  91:      Singlet-?Sym   30.2576 eV   40.98 nm  f=0.0000  <S**2>=0.000
       4 -> 20         0.61428
       5 -> 24         0.31849
       7 -> 27        -0.10889

 Excited State  92:      Singlet-SGG   30.3236 eV   40.89 nm  f=0.0000  <S**2>=0.000
       4 -> 18         0.65649
       5 -> 21         0.10826
       6 -> 22        -0.14129
       7 -> 23        -0.16582

 Excited state symmetry could not be determined.
 Excited State  93:      Singlet-?Sym   31.0047 eV   39.99 nm  f=0.0026  <S**2>=0.000
       5 -> 28        -0.41694
       6 -> 26         0.26295
       7 -> 27         0.42315
       8 -> 30         0.23172

 Excited state symmetry could not be determined.
 Excited State  94:      Singlet-?Sym   32.6336 eV   37.99 nm  f=0.0000  <S**2>=0.000
       7 -> 26         0.12039
       8 -> 29         0.69492

 Excited state symmetry could not be determined.
 Excited State  95:      Singlet-?Sym   34.6934 eV   35.74 nm  f=0.0138  <S**2>=0.000
       3 -> 10         0.20414
       3 -> 17        -0.19084
       4 -> 21         0.23876
       5 -> 28         0.15473
       8 -> 30         0.55727

 Excited state symmetry could not be determined.
 Excited State  96:      Singlet-?Sym   35.1053 eV   35.32 nm  f=0.0000  <S**2>=0.000
       8 -> 31         0.70186

 Excited state symmetry could not be determined.
 Excited State  97:      Singlet-?Sym   35.2267 eV   35.20 nm  f=0.0000  <S**2>=0.000
       4 -> 22         0.70265

 Excited state symmetry could not be determined.
 Excited State  98:      Singlet-?Sym   35.3302 eV   35.09 nm  f=0.0810  <S**2>=0.000
       4 -> 21         0.65820
       8 -> 30        -0.21460

 Excited state symmetry could not be determined.
 Excited State  99:      Singlet-?Sym   35.5484 eV   34.88 nm  f=0.0000  <S**2>=0.000
       4 -> 23         0.70005

 Excited state symmetry could not be determined.
 Excited State 100:      Singlet-?Sym   36.0935 eV   34.35 nm  f=0.0000  <S**2>=0.000
       4 -> 24         0.70588

 Excited state symmetry could not be determined.
 Excited State 101:      Singlet-?Sym   36.0941 eV   34.35 nm  f=0.0000  <S**2>=0.000
       4 -> 25         0.70634

 Excited State 102:      Singlet-SGG   36.4279 eV   34.04 nm  f=0.0000  <S**2>=0.000
       3 -> 11         0.68496
       3 -> 14        -0.15662

 Excited state symmetry could not be determined.
 Excited State 103:      Singlet-?Sym   36.7737 eV   33.72 nm  f=0.0596  <S**2>=0.000
       4 -> 26         0.69853

 Excited state symmetry could not be determined.
 Excited State 104:      Singlet-?Sym   36.8917 eV   33.61 nm  f=0.0000  <S**2>=0.000
       4 -> 28         0.69918

 Excited state symmetry could not be determined.
 Excited State 105:      Singlet-?Sym   36.9650 eV   33.54 nm  f=0.0538  <S**2>=0.000
       4 -> 27         0.69934

 Excited State 106:      Singlet-SGU   37.0786 eV   33.44 nm  f=0.0089  <S**2>=0.000
       3 -> 10         0.66601
       8 -> 30        -0.17208

 Excited state symmetry could not be determined.
 Excited State 107:      Singlet-?Sym   37.3676 eV   33.18 nm  f=0.0000  <S**2>=0.000
       3 -> 12         0.70536

 Excited state symmetry could not be determined.
 Excited State 108:      Singlet-?Sym   37.5819 eV   32.99 nm  f=0.0001  <S**2>=0.000
       3 -> 13         0.70516

 Excited state symmetry could not be determined.
 Excited State 109:      Singlet-?Sym   38.9922 eV   31.80 nm  f=0.0000  <S**2>=0.000
       3 -> 11         0.16274
       3 -> 14         0.68267

 Excited state symmetry could not be determined.
 Excited State 110:      Singlet-?Sym   39.4098 eV   31.46 nm  f=0.0000  <S**2>=0.000
       3 -> 16         0.70466

 Excited state symmetry could not be determined.
 Excited State 111:      Singlet-?Sym   39.4300 eV   31.44 nm  f=0.0000  <S**2>=0.000
       3 -> 15         0.70477

 Excited state symmetry could not be determined.
 Excited State 112:      Singlet-?Sym   39.9855 eV   31.01 nm  f=0.0000  <S**2>=0.000
       7 -> 29         0.70018

 Excited state symmetry could not be determined.
 Excited State 113:      Singlet-?Sym   40.2558 eV   30.80 nm  f=0.0000  <S**2>=0.000
       6 -> 29         0.55491
       7 -> 30        -0.43092

 Excited state symmetry could not be determined.
 Excited State 114:      Singlet-?Sym   40.5688 eV   30.56 nm  f=0.0000  <S**2>=0.000
       6 -> 30         0.70576

 Excited state symmetry could not be determined.
 Excited State 115:      Singlet-?Sym   40.6057 eV   30.53 nm  f=0.0530  <S**2>=0.000
       5 -> 29         0.69960

 Excited state symmetry could not be determined.
 Excited State 116:      Singlet-?Sym   40.9857 eV   30.25 nm  f=0.0112  <S**2>=0.000
       5 -> 30         0.42390
       7 -> 31        -0.19796
       8 -> 32         0.52463

 Excited state symmetry could not be determined.
 Excited State 117:      Singlet-?Sym   41.2176 eV   30.08 nm  f=0.1334  <S**2>=0.000
       5 -> 30         0.55816
       7 -> 31         0.11530

 Unable to determine electronic state:  partially filled degenerate orbitals.
 Alpha  occ. eigenvalues --  -19.38118 -19.38101  -1.38410  -0.86770  -0.62437
 Alpha  occ. eigenvalues --   -0.61172  -0.61137  -0.33543
 Alpha virt. eigenvalues --   -0.13250   0.08614   0.10703   0.13172   0.13934
 Alpha virt. eigenvalues --    0.18225   0.18892   0.18901   0.29598   0.37793
 Alpha virt. eigenvalues --    0.40953   0.40990   0.57924   0.59316   0.60485

 Mulliken charges:
               1
     1  O   -0.000000
     2  O    0.000000
 Sum of Mulliken charges =  -0.00000

 Dipole moment (field-independent basis, Debye):
    X=             -0.0000    Y=              0.0000    Z=              0.0000  Tot=              0.0000
 Quadrupole moment (field-independent basis, Debye-Ang):
   XX=             -9.3203   YY=            -11.2270   ZZ=            -10.8715
   XY=              0.0000   XZ=              0.0000   YZ=              0.0000

 Normal termination of Gaussian 16 at Mon Mar 21 20:18:10 2022.
