 Gaussian 16, Revision C.01,
 Gaussian 16:  EM64L-G16RevC.01  3-Jul-2019

 ----------------------------------------------------------------------
 #P TD(Nstates=10000) cam-b3lyp/Gen SCF(maxcycles=100) Int(Grid=ultrafi
 ne)
 ----------------------------------------------------------------------

 ---------------------
 xGDB7_00001_tier4.com
 ---------------------
 Symbolic Z-matrix:
 Charge =  0 Multiplicity = 1

                         Standard orientation:
 ---------------------------------------------------------------------
 Center     Atomic      Atomic             Coordinates (Angstroms)
 Number     Number       Type             X           Y           Z
 ---------------------------------------------------------------------
      1          8           0       -1.028621   -0.395177   -0.000000
      2          7           0       -0.000000    0.526228   -0.000000
      3          6           0        1.132746   -0.030907    0.000000
      4          1           0       -1.816572    0.151791   -0.000000
      5          1           0        1.994262    0.623439    0.000000
      6          1           0        1.254802   -1.111965    0.000000
 ---------------------------------------------------------------------

 SCF Done:  E(RCAM-B3LYP) =  -169.628135461     A.U. after   13 cycles

 Excitation energies and oscillator strengths:

 Excited State   1:      Singlet-A"     5.9266 eV  209.20 nm  f=0.0010  <S**2>=0.000
      11 -> 13         0.70233
 This state for optimization and/or second-order correction.
 Total Energy, E(TD-HF/TD-DFT) =  -169.410337339
 Copying the excited state density for this state as the 1-particle RhoCI density.

 Excited State   2:      Singlet-A'     6.9765 eV  177.72 nm  f=0.1822  <S**2>=0.000
      12 -> 13         0.68714

 Excited State   3:      Singlet-A"     7.2044 eV  172.10 nm  f=0.0020  <S**2>=0.000
      12 -> 14         0.68416
      12 -> 15        -0.11901

 Excited State   4:      Singlet-A'     7.6828 eV  161.38 nm  f=0.0212  <S**2>=0.000
      11 -> 14         0.68400
      11 -> 15        -0.11716

 Excited State   5:      Singlet-A"     8.2034 eV  151.14 nm  f=0.0193  <S**2>=0.000
      12 -> 14         0.12486
      12 -> 15         0.66772
      12 -> 17         0.14113

 Excited State   6:      Singlet-A'     8.7690 eV  141.39 nm  f=0.0251  <S**2>=0.000
      11 -> 14         0.12080
      11 -> 15         0.67847

 Excited State   7:      Singlet-A"     9.0358 eV  137.21 nm  f=0.0040  <S**2>=0.000
      12 -> 15        -0.15734
      12 -> 17         0.61309
      12 -> 20        -0.18038
      12 -> 21         0.13587
      12 -> 25        -0.15472

 Excited State   8:      Singlet-A"     9.4126 eV  131.72 nm  f=0.0138  <S**2>=0.000
      10 -> 13         0.16232
      12 -> 16         0.66763

 Excited State   9:      Singlet-A"     9.5853 eV  129.35 nm  f=0.0001  <S**2>=0.000
       8 -> 13         0.11631
      10 -> 13         0.67214
      12 -> 16        -0.16586

 Excited State  10:      Singlet-A'     9.6353 eV  128.68 nm  f=0.1032  <S**2>=0.000
      11 -> 16        -0.17801
      11 -> 17         0.56994
      11 -> 20        -0.14043
      11 -> 21         0.12810
      11 -> 25        -0.13923
      12 -> 18         0.26293

 Excited State  11:      Singlet-A'     9.9613 eV  124.47 nm  f=0.0829  <S**2>=0.000
      11 -> 16         0.58084
      12 -> 18         0.38191

 Excited State  12:      Singlet-A'    10.2017 eV  121.53 nm  f=0.1150  <S**2>=0.000
      11 -> 16        -0.32119
      11 -> 17        -0.31137
      12 -> 18         0.50950

 Excited State  13:      Singlet-A"    10.2817 eV  120.59 nm  f=0.0186  <S**2>=0.000
      11 -> 18         0.63101
      12 -> 19        -0.19261
      12 -> 20        -0.21814

 Excited State  14:      Singlet-A"    10.3304 eV  120.02 nm  f=0.0272  <S**2>=0.000
      11 -> 18         0.29565
      12 -> 19         0.51236
      12 -> 20         0.33638

 Excited State  15:      Singlet-A"    10.4938 eV  118.15 nm  f=0.0099  <S**2>=0.000
      12 -> 17         0.19775
      12 -> 19        -0.41795
      12 -> 20         0.50612

 Excited State  16:      Singlet-A'    10.7935 eV  114.87 nm  f=0.0949  <S**2>=0.000
       9 -> 13         0.61807
      11 -> 20         0.25701

 Excited State  17:      Singlet-A'    10.8676 eV  114.09 nm  f=0.0082  <S**2>=0.000
       9 -> 13        -0.15265
      11 -> 16         0.10489
      11 -> 17         0.10189
      11 -> 19         0.54014
      11 -> 20         0.37778

 Excited State  18:      Singlet-A'    10.9623 eV  113.10 nm  f=0.0132  <S**2>=0.000
       9 -> 13        -0.20734
      11 -> 17         0.14806
      11 -> 19        -0.41584
      11 -> 20         0.48828

 Excited State  19:      Singlet-A"    11.0852 eV  111.85 nm  f=0.0004  <S**2>=0.000
       8 -> 13         0.58522
      12 -> 17        -0.11214
      12 -> 21         0.31463

 Excited State  20:      Singlet-A"    11.3020 eV  109.70 nm  f=0.0003  <S**2>=0.000
       8 -> 13        -0.34134
       9 -> 14         0.27263
      12 -> 20         0.15801
      12 -> 21         0.49649

 Excited State  21:      Singlet-A"    11.4418 eV  108.36 nm  f=0.0258  <S**2>=0.000
       9 -> 14         0.59233
       9 -> 15        -0.13745
      12 -> 21        -0.28849

 Excited State  22:      Singlet-A'    11.7052 eV  105.92 nm  f=0.2215  <S**2>=0.000
       8 -> 14        -0.13865
      10 -> 14         0.65026

 Excited State  23:      Singlet-A'    11.8547 eV  104.59 nm  f=0.0010  <S**2>=0.000
       8 -> 14         0.10587
      10 -> 14         0.10928
      10 -> 15         0.18316
      11 -> 17        -0.10274
      11 -> 20         0.10299
      11 -> 21         0.61929

 Excited State  24:      Singlet-A'    12.1820 eV  101.78 nm  f=0.0948  <S**2>=0.000
       8 -> 14         0.15507
      10 -> 15         0.62544
      11 -> 21        -0.17479
      12 -> 22         0.11497

 Excited State  25:      Singlet-A'    12.4186 eV   99.84 nm  f=0.1052  <S**2>=0.000
      12 -> 22         0.65266
      12 -> 23        -0.16347

 Excited State  26:      Singlet-A"    12.5321 eV   98.93 nm  f=0.0221  <S**2>=0.000
       9 -> 14         0.11681
       9 -> 15         0.45920
       9 -> 16         0.10119
       9 -> 17         0.30661
      12 -> 25        -0.33931

 Excited State  27:      Singlet-A"    12.6831 eV   97.76 nm  f=0.0011  <S**2>=0.000
       7 -> 13         0.21614
      11 -> 22         0.63649
      12 -> 24        -0.11162

 Excited State  28:      Singlet-A'    12.7583 eV   97.18 nm  f=0.1540  <S**2>=0.000
       8 -> 14         0.33589
      10 -> 14         0.11284
      10 -> 15        -0.11120
      10 -> 16        -0.17910
      10 -> 17        -0.20271
      11 -> 21        -0.10329
      12 -> 23         0.48996

 Excited State  29:      Singlet-A"    12.7863 eV   96.97 nm  f=0.0126  <S**2>=0.000
       7 -> 13        -0.16956
       9 -> 14         0.13155
       9 -> 15         0.42628
       9 -> 17        -0.10854
      11 -> 22         0.19566
      12 -> 24         0.11848
      12 -> 25         0.40280

 Excited State  30:      Singlet-A"    12.8960 eV   96.14 nm  f=0.0011  <S**2>=0.000
       7 -> 13         0.49907
       9 -> 15         0.12495
      11 -> 22        -0.18290
      12 -> 24        -0.33396
      12 -> 25         0.23819

 Excited State  31:      Singlet-A'    12.9297 eV   95.89 nm  f=0.0313  <S**2>=0.000
       8 -> 14         0.50889
       8 -> 15        -0.13707
      10 -> 14         0.11018
      12 -> 22        -0.15216
      12 -> 23        -0.36655

 Excited State  32:      Singlet-A"    13.0423 eV   95.06 nm  f=0.0153  <S**2>=0.000
       7 -> 13         0.25519
      11 -> 23         0.54995
      12 -> 24         0.31624

 Excited State  33:      Singlet-A"    13.1212 eV   94.49 nm  f=0.0934  <S**2>=0.000
       6 -> 13        -0.10411
       7 -> 13         0.26768
      11 -> 23        -0.40652
      12 -> 24         0.46327

 Excited State  34:      Singlet-A'    13.2739 eV   93.40 nm  f=0.0282  <S**2>=0.000
      10 -> 17        -0.30088
      10 -> 19        -0.12982
      11 -> 24         0.46832
      11 -> 25        -0.31024
      12 -> 23        -0.12668

 Excited State  35:      Singlet-A"    13.4165 eV   92.41 nm  f=0.0038  <S**2>=0.000
       9 -> 15        -0.15914
       9 -> 16        -0.13403
       9 -> 17         0.51660
       9 -> 20        -0.16259
       9 -> 21         0.14448
       9 -> 25        -0.16241
      12 -> 25         0.29116

 Excited State  36:      Singlet-A'    13.5671 eV   91.39 nm  f=0.0103  <S**2>=0.000
       8 -> 14         0.13906
      10 -> 16         0.11438
      11 -> 24         0.42205
      11 -> 25         0.49121

 Excited State  37:      Singlet-A'    13.6578 eV   90.78 nm  f=0.0011  <S**2>=0.000
       8 -> 15        -0.10873
       9 -> 18         0.10181
      10 -> 16         0.27521
      10 -> 17         0.39499
      10 -> 19         0.15629
      11 -> 24         0.24316
      11 -> 25        -0.27214
      12 -> 23         0.17880

 Excited State  38:      Singlet-A"    13.7337 eV   90.28 nm  f=0.0064  <S**2>=0.000
       9 -> 15        -0.11228
       9 -> 16         0.62085
      12 -> 26         0.27307

 Excited State  39:      Singlet-A'    13.8126 eV   89.76 nm  f=0.0068  <S**2>=0.000
       9 -> 18        -0.13627
      10 -> 16         0.56091
      10 -> 17        -0.26624
      10 -> 19        -0.13265
      11 -> 24        -0.12560

 Excited State  40:      Singlet-A"    13.9264 eV   89.03 nm  f=0.0001  <S**2>=0.000
       9 -> 16        -0.25645
      12 -> 25        -0.11114
      12 -> 26         0.63167

 Excited State  41:      Singlet-A'    13.9644 eV   88.79 nm  f=0.0147  <S**2>=0.000
       8 -> 14         0.12518
       8 -> 15         0.53264
       8 -> 16         0.11398
       9 -> 18         0.26608
      10 -> 17         0.10876
      10 -> 19        -0.10488
      11 -> 26         0.22165

 Excited State  42:      Singlet-A'    14.1426 eV   87.67 nm  f=0.0165  <S**2>=0.000
       8 -> 15        -0.31403
       9 -> 18         0.53169
      10 -> 17        -0.12794
      10 -> 19        -0.18577
      11 -> 26         0.10726

 Excited State  43:      Singlet-A"    14.1695 eV   87.50 nm  f=0.0020  <S**2>=0.000
       8 -> 18        -0.11969
      10 -> 18         0.67287
      11 -> 23        -0.10293

 Excited State  44:      Singlet-A'    14.3789 eV   86.23 nm  f=0.0077  <S**2>=0.000
       7 -> 14        -0.12932
       8 -> 15        -0.13578
       8 -> 17         0.11392
       9 -> 18        -0.12460
      10 -> 19         0.23326
      11 -> 26         0.56911
      12 -> 27         0.12178

 Excited State  45:      Singlet-A'    14.4555 eV   85.77 nm  f=0.0272  <S**2>=0.000
       8 -> 17        -0.12336
      10 -> 19        -0.19213
      10 -> 20        -0.13166
      12 -> 27         0.60711

 Excited State  46:      Singlet-A"    14.7073 eV   84.30 nm  f=0.0480  <S**2>=0.000
       6 -> 13        -0.15508
       9 -> 17         0.20231
       9 -> 19         0.34772
       9 -> 20         0.50965
      11 -> 27         0.13306
      12 -> 24        -0.10659

 Excited State  47:      Singlet-A'    14.7150 eV   84.26 nm  f=0.0416  <S**2>=0.000
       8 -> 17         0.21576
       9 -> 18         0.19435
      10 -> 17        -0.10684
      10 -> 19         0.37224
      10 -> 20         0.29454
      11 -> 26        -0.18469
      12 -> 27         0.26365

 Excited State  48:      Singlet-A'    14.7925 eV   83.82 nm  f=0.2134  <S**2>=0.000
      10 -> 17         0.17020
      10 -> 19        -0.30356
      10 -> 20         0.54367
      11 -> 26         0.11980

 Excited State  49:      Singlet-A"    14.8510 eV   83.49 nm  f=0.0000  <S**2>=0.000
       9 -> 20        -0.10771
      11 -> 27         0.67507

 Excited State  50:      Singlet-A"    14.9994 eV   82.66 nm  f=0.0033  <S**2>=0.000
       6 -> 13         0.11500
       9 -> 17        -0.16529
       9 -> 19         0.59171
       9 -> 20        -0.27689

 Excited State  51:      Singlet-A'    15.0024 eV   82.64 nm  f=0.0453  <S**2>=0.000
       7 -> 14         0.52238
       8 -> 16        -0.39028
       8 -> 17        -0.11249
      11 -> 26         0.12003

 Excited State  52:      Singlet-A'    15.1585 eV   81.79 nm  f=0.0315  <S**2>=0.000
       7 -> 14         0.25576
       8 -> 16         0.17794
       8 -> 17         0.45559
       8 -> 20        -0.17365
       9 -> 18        -0.14207
      10 -> 16        -0.10837
      10 -> 17         0.11062
      10 -> 20        -0.22095

 Excited State  53:      Singlet-A'    15.2532 eV   81.28 nm  f=0.2249  <S**2>=0.000
       7 -> 14         0.25953
       7 -> 15         0.10053
       8 -> 16         0.48936
       8 -> 17        -0.30478
      10 -> 19         0.15875

 Excited State  54:      Singlet-A"    15.3615 eV   80.71 nm  f=0.0101  <S**2>=0.000
       6 -> 13         0.29987
       8 -> 18        -0.25231
       9 -> 21        -0.11299
      12 -> 28         0.51191
      12 -> 29        -0.14771

 Excited State  55:      Singlet-A"    15.4297 eV   80.35 nm  f=0.0010  <S**2>=0.000
       8 -> 18         0.59964
      10 -> 18         0.10663
      12 -> 28         0.26606
      12 -> 29        -0.12669

 Excited State  56:      Singlet-A"    15.4792 eV   80.10 nm  f=0.0008  <S**2>=0.000
       9 -> 17        -0.11991
       9 -> 20         0.15777
       9 -> 21         0.59006
      12 -> 29        -0.22508

 Excited State  57:      Singlet-A"    15.6570 eV   79.19 nm  f=0.0799  <S**2>=0.000
       6 -> 13         0.51337
       8 -> 18         0.17352
       9 -> 20         0.19439
       9 -> 21         0.11116
      10 -> 22        -0.23259
      12 -> 28        -0.22745
      12 -> 29         0.11132

 Excited State  58:      Singlet-A'    15.6744 eV   79.10 nm  f=0.0620  <S**2>=0.000
       7 -> 15        -0.31755
       8 -> 16         0.12533
       8 -> 20         0.10758
       8 -> 21        -0.11225
      10 -> 21         0.49784
      11 -> 28         0.23126

 Excited State  59:      Singlet-A'    15.7419 eV   78.76 nm  f=0.0750  <S**2>=0.000
       7 -> 15         0.56924
       8 -> 17         0.11143
      10 -> 17        -0.11872
      10 -> 21         0.28579
      12 -> 30         0.10167

 Excited State  60:      Singlet-A'    15.9502 eV   77.73 nm  f=0.0706  <S**2>=0.000
       8 -> 19         0.24466
      10 -> 21        -0.22326
      11 -> 28         0.55160
      11 -> 29        -0.14762
      12 -> 30         0.15320

 Excited State  61:      Singlet-A'    15.9974 eV   77.50 nm  f=0.0407  <S**2>=0.000
       8 -> 17         0.14263
       8 -> 19         0.25517
       8 -> 20         0.51835
      11 -> 28        -0.11931
      12 -> 30        -0.25392

 Excited State  62:      Singlet-A"    16.0437 eV   77.28 nm  f=0.0211  <S**2>=0.000
       9 -> 21         0.15551
      12 -> 28         0.28277
      12 -> 29         0.59826

 Excited State  63:      Singlet-A'    16.2266 eV   76.41 nm  f=0.1068  <S**2>=0.000
       7 -> 17        -0.11787
       8 -> 19         0.42480
       8 -> 20        -0.33644
      10 -> 21         0.12411
      12 -> 30        -0.34353

 Excited State  64:      Singlet-A"    16.2895 eV   76.11 nm  f=0.2223  <S**2>=0.000
       6 -> 13         0.19615
       8 -> 22         0.10564
      10 -> 22         0.54317
      11 -> 30        -0.14338
      12 -> 29         0.10966
      12 -> 31         0.21434
      12 -> 32        -0.10489
      12 -> 33         0.11417

 Excited State  65:      Singlet-A'    16.3536 eV   75.81 nm  f=0.1151  <S**2>=0.000
       7 -> 17        -0.11561
       8 -> 19         0.27833
      10 -> 21         0.11144
      10 -> 25         0.10823
      11 -> 28        -0.10877
      11 -> 29         0.34946
      12 -> 30         0.43276

 Excited State  66:      Singlet-A"    16.4233 eV   75.49 nm  f=0.0042  <S**2>=0.000
      10 -> 22         0.19607
      10 -> 23         0.10453
      11 -> 30         0.64004
      12 -> 31        -0.11053

 Excited State  67:      Singlet-A'    16.4398 eV   75.42 nm  f=0.0251  <S**2>=0.000
       7 -> 16        -0.13738
       7 -> 17        -0.23261
       8 -> 19        -0.20942
       9 -> 23         0.10628
      11 -> 28         0.26071
      11 -> 29         0.43621
      12 -> 30        -0.21347

 Excited State  68:      Singlet-A"    16.4647 eV   75.30 nm  f=0.0734  <S**2>=0.000
       9 -> 25        -0.14493
      10 -> 22        -0.12492
      10 -> 23        -0.18790
      11 -> 30         0.16921
      12 -> 31         0.57623
      12 -> 32        -0.14986

 Excited State  69:      Singlet-A"    16.5709 eV   74.82 nm  f=0.0043  <S**2>=0.000
       7 -> 18        -0.22316
      10 -> 22        -0.18149
      10 -> 23         0.58476
      12 -> 31         0.18321

 Excited State  70:      Singlet-A'    16.6066 eV   74.66 nm  f=0.0809  <S**2>=0.000
       6 -> 14        -0.18498
       7 -> 16         0.12462
       7 -> 17         0.36419
       8 -> 20        -0.15080
       8 -> 21        -0.20512
       9 -> 23        -0.13267
      10 -> 24         0.12239
      11 -> 29         0.34074

 Excited State  71:      Singlet-A'    16.7944 eV   73.82 nm  f=0.0150  <S**2>=0.000
       7 -> 16        -0.15706
       7 -> 17        -0.13900
       9 -> 22         0.44861
       9 -> 23        -0.29465
      11 -> 31        -0.31714
      11 -> 32         0.15680

 Excited State  72:      Singlet-A'    16.8203 eV   73.71 nm  f=0.0309  <S**2>=0.000
       7 -> 16         0.20438
       8 -> 21         0.30607
       9 -> 22         0.28327
       9 -> 23        -0.21829
      10 -> 24        -0.16597
      11 -> 31         0.37826

 Excited State  73:      Singlet-A'    16.9556 eV   73.12 nm  f=0.0467  <S**2>=0.000
       7 -> 16         0.54906
       7 -> 17        -0.20776
       7 -> 19        -0.10185
      11 -> 31        -0.27851

 Excited State  74:      Singlet-A"    16.9624 eV   73.09 nm  f=0.0040  <S**2>=0.000
       9 -> 24         0.10378
      12 -> 31         0.17660
      12 -> 32         0.63250
      12 -> 33         0.14780

 Excited State  75:      Singlet-A'    17.0993 eV   72.51 nm  f=0.1132  <S**2>=0.000
       6 -> 14         0.24179
       6 -> 15        -0.13300
       7 -> 17         0.18796
       7 -> 19         0.12908
       7 -> 20         0.16745
       8 -> 21         0.37450
       9 -> 22         0.11059
       9 -> 23         0.15575
      10 -> 24         0.17191
      11 -> 31        -0.25247

 Excited State  76:      Singlet-A'    17.1147 eV   72.44 nm  f=0.0418  <S**2>=0.000
       6 -> 14         0.39434
       9 -> 22        -0.27338
       9 -> 23        -0.38254
      10 -> 25        -0.23912
      11 -> 32         0.10054

 Excited State  77:      Singlet-A'    17.1865 eV   72.14 nm  f=0.0137  <S**2>=0.000
       6 -> 14        -0.18261
       6 -> 15         0.11422
       7 -> 16        -0.11211
       7 -> 17         0.18293
       7 -> 19        -0.11627
       8 -> 21         0.19341
       9 -> 22        -0.26485
       9 -> 23        -0.28868
      10 -> 25         0.31134
      11 -> 31        -0.21119

 Excited State  78:      Singlet-A"    17.2025 eV   72.07 nm  f=0.0120  <S**2>=0.000
       9 -> 17         0.12754
       9 -> 21         0.15105
       9 -> 25         0.59485
       9 -> 26         0.11386
      12 -> 31         0.12265
      12 -> 32        -0.13358
      12 -> 33         0.15384

 Excited State  79:      Singlet-A"    17.2211 eV   72.00 nm  f=0.0322  <S**2>=0.000
       9 -> 24         0.60865
       9 -> 25         0.11168
      12 -> 33        -0.28239

 Excited State  80:      Singlet-A'    17.3124 eV   71.62 nm  f=0.0020  <S**2>=0.000
       6 -> 14         0.35541
       7 -> 16         0.10789
       7 -> 17         0.16358
       7 -> 20        -0.12921
       8 -> 21        -0.23264
      10 -> 24        -0.28224
      10 -> 25         0.32177

 Excited State  81:      Singlet-A"    17.3966 eV   71.27 nm  f=0.0004  <S**2>=0.000
       7 -> 18         0.64034
      10 -> 23         0.21983

 Excited State  82:      Singlet-A'    17.3981 eV   71.26 nm  f=0.0766  <S**2>=0.000
       6 -> 15        -0.19297
       7 -> 19         0.11658
      10 -> 24         0.13180
      10 -> 25         0.10751
      11 -> 31         0.14632
      11 -> 32         0.58907

 Excited State  83:      Singlet-A"    17.6008 eV   70.44 nm  f=0.0815  <S**2>=0.000
       9 -> 24         0.26674
       9 -> 25        -0.13820
      12 -> 32        -0.11844
      12 -> 33         0.55701
      12 -> 34        -0.16123

 Excited State  84:      Singlet-A'    17.6477 eV   70.26 nm  f=0.0907  <S**2>=0.000
       7 -> 16         0.11271
       7 -> 17        -0.12472
       7 -> 20         0.11296
       8 -> 21        -0.14136
       9 -> 23        -0.17421
      10 -> 24         0.38196
      10 -> 25         0.27465
      10 -> 26         0.10189
      11 -> 32        -0.16290
      11 -> 33         0.21890
      12 -> 35        -0.21588

 Excited State  85:      Singlet-A"    17.7181 eV   69.98 nm  f=0.0001  <S**2>=0.000
       9 -> 24         0.10605
      12 -> 33         0.10746
      12 -> 34         0.66264

 Excited State  86:      Singlet-A'    17.7708 eV   69.77 nm  f=0.0046  <S**2>=0.000
       6 -> 15        -0.34427
       7 -> 20         0.11361
      10 -> 24        -0.28076
      11 -> 33         0.46485

 Excited State  87:      Singlet-A'    17.8753 eV   69.36 nm  f=0.0049  <S**2>=0.000
       6 -> 15         0.19079
       7 -> 19        -0.35797
       7 -> 20        -0.13290
       9 -> 23         0.10489
      10 -> 24         0.14359
      10 -> 26        -0.19560
      11 -> 32         0.10867
      11 -> 33         0.37989
      12 -> 35         0.15780

 Excited State  88:      Singlet-A"    17.9609 eV   69.03 nm  f=0.0362  <S**2>=0.000
       8 -> 22         0.56092
       8 -> 23        -0.34330
      10 -> 27        -0.14857

 Excited State  89:      Singlet-A'    18.0052 eV   68.86 nm  f=0.0004  <S**2>=0.000
       6 -> 15         0.44734
       7 -> 19         0.39776
      11 -> 33         0.16683
      11 -> 34        -0.15403

 The electronic state is 1-A'.
 Alpha  occ. eigenvalues --  -19.26463 -14.46757 -10.30013  -1.17610  -0.94495
 Alpha  occ. eigenvalues --   -0.69059  -0.61469  -0.55013  -0.50063  -0.49530
 Alpha  occ. eigenvalues --   -0.35772  -0.34410
 Alpha virt. eigenvalues --    0.02985   0.04997   0.07293   0.12365   0.13763
 Alpha virt. eigenvalues --    0.14521   0.16461   0.17569   0.20262   0.23784
 Alpha virt. eigenvalues --    0.25142   0.26357   0.27052   0.29864   0.31426

 Mulliken charges:
               1
     1  O   -0.328535
     2  N   -0.017307
     3  C    0.683036
     4  H    0.181787
     5  H   -0.307538
     6  H   -0.211444
 Sum of Mulliken charges =  -0.00000

 Dipole moment (field-independent basis, Debye):
    X=              0.3328    Y=             -0.1400    Z=              0.0000  Tot=              0.3611
 Quadrupole moment (field-independent basis, Debye-Ang):
   XX=            -12.1576   YY=            -19.7162   ZZ=            -19.2501
   XY=             -1.5724   XZ=              0.0000   YZ=              0.0000

 Normal termination of Gaussian 16 at Mon Mar 21 20:19:37 2022.
