 Gaussian 16, Revision C.01,
 Gaussian 16:  EM64L-G16RevC.01  3-Jul-2019

 ----------------------------------------------------------------------
 #P TD(Nstates=10000) cam-b3lyp/Gen SCF(maxcycles=100) Int(Grid=ultrafi
 ne)
 ----------------------------------------------------------------------

 ---------------------
 xGDB7_00001_tier4.com
 ---------------------
 Symbolic Z-matrix:
 Charge =  0 Multiplicity = 1

                         Standard orientation:
 ---------------------------------------------------------------------
 Center     Atomic      Atomic             Coordinates (Angstroms)
 Number     Number       Type             X           Y           Z
 ---------------------------------------------------------------------
      1          7           0        1.111035   -0.177046   -0.052467
      2          6           0       -0.122009    0.419593    0.001774
      3          7           0       -1.267607   -0.121443    0.008098
      4          1           0        1.920558    0.367802    0.180104
      5          1           0        1.180700   -1.165617    0.115308
      6          1           0       -0.065701    1.508813    0.004046
      7          1           0       -1.207497   -1.139126    0.000481
 ---------------------------------------------------------------------

 SCF Done:  E(RCAM-B3LYP) =  -149.835180774     A.U. after   14 cycles

 Excitation energies and oscillator strengths:

 Excited State   1:      Singlet-A      6.3050 eV  196.64 nm  f=0.0079  <S**2>=0.000
      11 -> 14         0.64222
      11 -> 15         0.11535
      12 -> 13         0.18578
      12 -> 14        -0.14845
 This state for optimization and/or second-order correction.
 Total Energy, E(TD-HF/TD-DFT) =  -149.603476995
 Copying the excited state density for this state as the 1-particle RhoCI density.

 Excited State   2:      Singlet-A      6.4610 eV  191.90 nm  f=0.0012  <S**2>=0.000
      11 -> 14        -0.16953
      12 -> 13         0.66798

 Excited State   3:      Singlet-A      7.1432 eV  173.57 nm  f=0.1018  <S**2>=0.000
      11 -> 13         0.32484
      11 -> 14         0.17803
      12 -> 14         0.58339

 Excited State   4:      Singlet-A      7.3260 eV  169.24 nm  f=0.0012  <S**2>=0.000
      11 -> 13         0.18236
      12 -> 15         0.65165
      12 -> 16        -0.10819

 Excited State   5:      Singlet-A      7.4663 eV  166.06 nm  f=0.1918  <S**2>=0.000
      11 -> 13         0.50277
      11 -> 15         0.13293
      11 -> 16        -0.27734
      12 -> 14        -0.31624
      12 -> 15        -0.17928

 Excited State   6:      Singlet-A      7.9842 eV  155.29 nm  f=0.0334  <S**2>=0.000
      12 -> 15         0.12985
      12 -> 16         0.67160

 Excited State   7:      Singlet-A      8.0932 eV  153.19 nm  f=0.0910  <S**2>=0.000
      11 -> 13        -0.16492
      11 -> 14        -0.12422
      11 -> 15         0.65079
      11 -> 17         0.12170

 Excited State   8:      Singlet-A      8.7486 eV  141.72 nm  f=0.0349  <S**2>=0.000
      11 -> 13         0.24529
      11 -> 15         0.11779
      11 -> 16         0.61304
      11 -> 17        -0.12827
      12 -> 14        -0.10144

 Excited State   9:      Singlet-A      9.0985 eV  136.27 nm  f=0.0073  <S**2>=0.000
      10 -> 15        -0.13621
      12 -> 17         0.67223

 Excited State  10:      Singlet-A      9.4112 eV  131.74 nm  f=0.0038  <S**2>=0.000
      12 -> 18         0.68866

 Excited State  11:      Singlet-A     10.0755 eV  123.06 nm  f=0.0092  <S**2>=0.000
      11 -> 15        -0.10427
      11 -> 16         0.13446
      11 -> 17         0.65211

 Excited State  12:      Singlet-A     10.2391 eV  121.09 nm  f=0.0113  <S**2>=0.000
       9 -> 14         0.46764
      10 -> 13        -0.40854
      12 -> 19         0.16376
      12 -> 20        -0.21579

 Excited State  13:      Singlet-A     10.2605 eV  120.84 nm  f=0.0326  <S**2>=0.000
       9 -> 14         0.24904
      10 -> 13         0.52295
      12 -> 19         0.30361
      12 -> 20        -0.20171

 Excited State  14:      Singlet-A     10.2687 eV  120.74 nm  f=0.0009  <S**2>=0.000
       9 -> 14        -0.41097
      10 -> 13        -0.15817
      11 -> 18        -0.14120
      12 -> 19         0.42561
      12 -> 20        -0.25847

 Excited State  15:      Singlet-A     10.3224 eV  120.11 nm  f=0.0223  <S**2>=0.000
      11 -> 18         0.63076
      11 -> 20        -0.16372
      12 -> 19         0.17174

 Excited State  16:      Singlet-A     10.3577 eV  119.70 nm  f=0.0224  <S**2>=0.000
      10 -> 14        -0.20069
      12 -> 19         0.35299
      12 -> 20         0.53969

 Excited State  17:      Singlet-A     10.7241 eV  115.61 nm  f=0.0688  <S**2>=0.000
       9 -> 13        -0.19323
      10 -> 14         0.58332
      11 -> 19        -0.11636
      12 -> 19         0.15251
      12 -> 20         0.13491
      12 -> 21         0.17547

 Excited State  18:      Singlet-A     10.9223 eV  113.51 nm  f=0.0132  <S**2>=0.000
      10 -> 14         0.10765
      11 -> 19         0.61506
      11 -> 21         0.24103
      11 -> 24         0.15549

 Excited State  19:      Singlet-A     10.9686 eV  113.04 nm  f=0.1267  <S**2>=0.000
      10 -> 15        -0.24442
      11 -> 20        -0.33985
      12 -> 21         0.51367

 Excited State  20:      Singlet-A     11.1318 eV  111.38 nm  f=0.0190  <S**2>=0.000
      10 -> 15         0.58295
      11 -> 20        -0.28034
      12 -> 17         0.12664
      12 -> 21         0.12256
      12 -> 22        -0.10233

 Excited State  21:      Singlet-A     11.1954 eV  110.75 nm  f=0.0079  <S**2>=0.000
       9 -> 13         0.26566
      10 -> 15         0.19007
      11 -> 18         0.15527
      11 -> 20         0.45915
      12 -> 21         0.34124

 Excited State  22:      Singlet-A     11.3170 eV  109.56 nm  f=0.0723  <S**2>=0.000
       9 -> 13         0.57911
      10 -> 14         0.24520
      11 -> 20        -0.15638
      12 -> 21        -0.16643

 Excited State  23:      Singlet-A     11.4243 eV  108.53 nm  f=0.0047  <S**2>=0.000
      12 -> 22         0.66982

 Excited State  24:      Singlet-A     11.5195 eV  107.63 nm  f=0.0084  <S**2>=0.000
      11 -> 19        -0.23055
      11 -> 21         0.62197
      11 -> 22         0.13392

 Excited State  25:      Singlet-A     11.7837 eV  105.22 nm  f=0.0346  <S**2>=0.000
      10 -> 16         0.37178
      12 -> 23         0.55106

 Excited State  26:      Singlet-A     11.8549 eV  104.58 nm  f=0.0628  <S**2>=0.000
      10 -> 16         0.47731
      11 -> 22        -0.33808
      12 -> 23        -0.32884

 Excited State  27:      Singlet-A     11.8825 eV  104.34 nm  f=0.0520  <S**2>=0.000
       9 -> 15        -0.15175
      10 -> 16         0.30088
      11 -> 21        -0.10878
      11 -> 22         0.53239
      12 -> 23        -0.19977

 Excited State  28:      Singlet-A     12.0674 eV  102.74 nm  f=0.2135  <S**2>=0.000
       9 -> 14        -0.10629
       9 -> 15         0.63876
      11 -> 22         0.16003
      12 -> 24        -0.14033

 Excited State  29:      Singlet-A     12.3152 eV  100.68 nm  f=0.0759  <S**2>=0.000
      11 -> 22         0.14924
      11 -> 23         0.53385
      12 -> 24         0.37647

 Excited State  30:      Singlet-A     12.5644 eV   98.68 nm  f=0.0401  <S**2>=0.000
       9 -> 15         0.11852
       9 -> 16         0.52033
      11 -> 23        -0.26500
      12 -> 24         0.32674

 Excited State  31:      Singlet-A     12.8456 eV   96.52 nm  f=0.1006  <S**2>=0.000
       8 -> 13         0.13345
       9 -> 16        -0.41893
      11 -> 23        -0.29178
      12 -> 24         0.41916

 Excited State  32:      Singlet-A     12.9476 eV   95.76 nm  f=0.0089  <S**2>=0.000
      10 -> 17         0.58939
      10 -> 18         0.15596
      12 -> 25         0.21309
      12 -> 26         0.11078

 Excited State  33:      Singlet-A     12.9891 eV   95.45 nm  f=0.0081  <S**2>=0.000
      10 -> 17        -0.14152
      11 -> 19        -0.14554
      11 -> 24         0.64606

 Excited State  34:      Singlet-A     13.0197 eV   95.23 nm  f=0.0215  <S**2>=0.000
       7 -> 14         0.10457
       8 -> 14         0.44191
      10 -> 17         0.17174
      10 -> 18        -0.31281
      11 -> 24         0.11648
      12 -> 25        -0.22278
      12 -> 26        -0.19892
      12 -> 27         0.16577

 Excited State  35:      Singlet-A     13.0861 eV   94.74 nm  f=0.0369  <S**2>=0.000
       7 -> 14         0.12691
       8 -> 14         0.45797
      10 -> 17        -0.23831
      10 -> 18         0.13087
      11 -> 24        -0.10132
      12 -> 25         0.31063
      12 -> 26         0.21706
      12 -> 27        -0.11295

 Excited State  36:      Singlet-A     13.2497 eV   93.58 nm  f=0.0384  <S**2>=0.000
       8 -> 14        -0.13442
      10 -> 18        -0.44451
      12 -> 23         0.10052
      12 -> 25         0.47175
      12 -> 27         0.11884

 Excited State  37:      Singlet-A     13.3906 eV   92.59 nm  f=0.0936  <S**2>=0.000
      10 -> 18        -0.26605
      10 -> 21         0.11858
      12 -> 25        -0.16666
      12 -> 26         0.58504

 Excited State  38:      Singlet-A     13.8201 eV   89.71 nm  f=0.0900  <S**2>=0.000
      10 -> 18         0.14785
      10 -> 19         0.12920
      10 -> 20        -0.31196
      11 -> 25        -0.31813
      11 -> 26         0.12007
      12 -> 27         0.43538

 Excited State  39:      Singlet-A     13.8477 eV   89.53 nm  f=0.0872  <S**2>=0.000
       8 -> 13         0.27708
       8 -> 15         0.14890
       9 -> 17         0.43177
      10 -> 19        -0.22749
      11 -> 25         0.27517

 Excited State  40:      Singlet-A     13.8769 eV   89.35 nm  f=0.0412  <S**2>=0.000
       9 -> 17        -0.24013
      10 -> 19         0.28153
      10 -> 20        -0.11775
      11 -> 25         0.47954
      11 -> 26        -0.11582
      12 -> 27         0.20515

 Excited State  41:      Singlet-A     13.9718 eV   88.74 nm  f=0.0160  <S**2>=0.000
       9 -> 17        -0.17238
       9 -> 18         0.49179
      10 -> 19        -0.33922
      10 -> 20        -0.13060
      11 -> 26        -0.15971
      12 -> 27         0.11150

 Excited State  42:      Singlet-A     14.0044 eV   88.53 nm  f=0.0430  <S**2>=0.000
       8 -> 13         0.42776
       9 -> 17        -0.32049
      11 -> 26         0.39908

 Excited State  43:      Singlet-A     14.1074 eV   87.89 nm  f=0.1506  <S**2>=0.000
       7 -> 14        -0.10389
       8 -> 13        -0.29858
       9 -> 17         0.11840
       9 -> 18         0.22930
      10 -> 20        -0.14940
      11 -> 25         0.20843
      11 -> 26         0.45116
      11 -> 27         0.11099

 Excited State  44:      Singlet-A     14.1566 eV   87.58 nm  f=0.0139  <S**2>=0.000
       7 -> 13        -0.20249
       8 -> 13         0.19303
       9 -> 16         0.10624
       9 -> 17         0.13981
       9 -> 18         0.29197
      10 -> 19         0.36305
      10 -> 20        -0.20575
      11 -> 25        -0.10040
      11 -> 26        -0.11110
      12 -> 27        -0.23017

 Excited State  45:      Singlet-A     14.1967 eV   87.33 nm  f=0.0115  <S**2>=0.000
       7 -> 13        -0.13130
       9 -> 17         0.10959
       9 -> 18         0.25041
      10 -> 18         0.10087
      10 -> 19         0.15182
      10 -> 20         0.50986
      12 -> 27         0.22954

 Excited State  46:      Singlet-A     14.3145 eV   86.61 nm  f=0.0093  <S**2>=0.000
       7 -> 13        -0.18349
       7 -> 14         0.59882
       8 -> 14        -0.16123
      11 -> 26         0.15628

 Excited State  47:      Singlet-A     14.5095 eV   85.45 nm  f=0.0971  <S**2>=0.000
       7 -> 13         0.54697
       7 -> 14         0.21630
       7 -> 15         0.11551
       8 -> 13         0.13589
       8 -> 16        -0.10011
       9 -> 19        -0.13944
       9 -> 20         0.18598
      10 -> 19         0.11402

 Excited State  48:      Singlet-A     14.6630 eV   84.56 nm  f=0.0763  <S**2>=0.000
       8 -> 15        -0.16415
       9 -> 19         0.22778
      10 -> 21         0.50993
      11 -> 27         0.29745
      12 -> 26        -0.11012

 Excited State  49:      Singlet-A     14.7115 eV   84.28 nm  f=0.0668  <S**2>=0.000
       9 -> 19         0.60418
       9 -> 20         0.17449
      10 -> 21        -0.11689
      11 -> 27        -0.16345

 Excited State  50:      Singlet-A     14.8150 eV   83.69 nm  f=0.0030  <S**2>=0.000
       8 -> 15         0.38051
       8 -> 16        -0.13975
       9 -> 17        -0.10252
       9 -> 20        -0.15001
      10 -> 21         0.37592
      11 -> 27        -0.30430

 Excited State  51:      Singlet-A     14.9339 eV   83.02 nm  f=0.0154  <S**2>=0.000
      10 -> 22         0.20707
      10 -> 23         0.18435
      12 -> 27        -0.11016
      12 -> 28         0.53113
      12 -> 29         0.16772
      12 -> 30         0.23190
      12 -> 31        -0.13299

 Excited State  52:      Singlet-A     14.9434 eV   82.97 nm  f=0.0482  <S**2>=0.000
       8 -> 15         0.37145
       9 -> 17        -0.12187
       9 -> 20         0.40978
      10 -> 24         0.11421
      11 -> 27         0.23930
      12 -> 32         0.15933

 Excited State  53:      Singlet-A     15.0000 eV   82.66 nm  f=0.0259  <S**2>=0.000
       7 -> 13        -0.16410
       7 -> 15        -0.15153
       8 -> 15        -0.27468
       8 -> 16        -0.17890
       9 -> 19        -0.10490
       9 -> 20         0.40716
      10 -> 21         0.13640
      11 -> 27        -0.27271

 Excited State  54:      Singlet-A     15.1635 eV   81.77 nm  f=0.0005  <S**2>=0.000
      10 -> 22         0.37032
      10 -> 23        -0.12006
      12 -> 28        -0.30580
      12 -> 29         0.15344
      12 -> 30         0.42334
      12 -> 31         0.11543

 Excited State  55:      Singlet-A     15.1687 eV   81.74 nm  f=0.0048  <S**2>=0.000
      10 -> 22        -0.28405
      12 -> 29         0.59764

 Excited State  56:      Singlet-A     15.3732 eV   80.65 nm  f=0.0368  <S**2>=0.000
       7 -> 15        -0.16566
       8 -> 16        -0.17845
       9 -> 21         0.60897

 Excited State  57:      Singlet-A     15.4429 eV   80.29 nm  f=0.0657  <S**2>=0.000
       8 -> 16         0.13298
       9 -> 20         0.10650
       9 -> 21         0.16343
      10 -> 22        -0.32481
      10 -> 23         0.14957
      11 -> 28        -0.11796
      12 -> 29        -0.16704
      12 -> 30         0.40415
      12 -> 32        -0.20464

 Excited State  58:      Singlet-A     15.5264 eV   79.85 nm  f=0.1578  <S**2>=0.000
       7 -> 15         0.34615
       8 -> 16         0.32858
       9 -> 21         0.24342
       9 -> 22        -0.11933
      11 -> 27        -0.13036
      11 -> 28         0.25989
      12 -> 30        -0.12317

 Excited State  59:      Singlet-A     15.5953 eV   79.50 nm  f=0.0063  <S**2>=0.000
       8 -> 16        -0.11243
      10 -> 22        -0.18293
      11 -> 28         0.50085
      11 -> 30         0.10256
      11 -> 31        -0.18205
      12 -> 30         0.17683
      12 -> 31         0.17115
      12 -> 32         0.17944

 Excited State  60:      Singlet-A     15.6622 eV   79.16 nm  f=0.0413  <S**2>=0.000
      10 -> 23        -0.19916
      12 -> 28         0.21118
      12 -> 31         0.51577
      12 -> 32        -0.30498

 Excited State  61:      Singlet-A     15.6785 eV   79.08 nm  f=0.1181  <S**2>=0.000
       7 -> 15         0.43549
       8 -> 16        -0.31657
      11 -> 28        -0.10527
      11 -> 29         0.19196
      11 -> 31         0.11620
      11 -> 32        -0.10006
      12 -> 32         0.18042

 Excited State  62:      Singlet-A     15.7320 eV   78.81 nm  f=0.0138  <S**2>=0.000
       7 -> 15         0.17741
       8 -> 16        -0.25596
       9 -> 22        -0.10495
      10 -> 23         0.38854
      11 -> 29        -0.23429
      11 -> 31        -0.10486
      11 -> 32         0.22593
      12 -> 28        -0.12356
      12 -> 32        -0.15518

 Excited State  63:      Singlet-A     15.8077 eV   78.43 nm  f=0.0058  <S**2>=0.000
       7 -> 15        -0.11407
      10 -> 23         0.39939
      11 -> 29         0.36897
      11 -> 31         0.21548
      12 -> 31         0.26403

 Excited State  64:      Singlet-A     15.8487 eV   78.23 nm  f=0.0316  <S**2>=0.000
       8 -> 16        -0.10728
       9 -> 22        -0.16436
      10 -> 23        -0.15214
      11 -> 27         0.10479
      11 -> 28         0.23147
      11 -> 29         0.30075
      11 -> 30        -0.22750
      11 -> 31         0.20828
      11 -> 32         0.25403
      11 -> 34         0.10162
      12 -> 31        -0.20190
      12 -> 32        -0.14052

 Excited State  65:      Singlet-A     15.9391 eV   77.79 nm  f=0.0332  <S**2>=0.000
       7 -> 16         0.12126
       8 -> 16         0.13773
       9 -> 22         0.29332
      10 -> 24         0.15522
      11 -> 30        -0.20439
      11 -> 31         0.12400
      11 -> 32         0.41656
      12 -> 32         0.21300

 Excited State  66:      Singlet-A     16.0220 eV   77.38 nm  f=0.0190  <S**2>=0.000
       9 -> 22        -0.16221
       9 -> 23         0.22101
      10 -> 24        -0.10570
      11 -> 28        -0.10764
      11 -> 30         0.48251
      11 -> 31         0.12857
      11 -> 32         0.32003

 Excited State  67:      Singlet-A     16.1603 eV   76.72 nm  f=0.0077  <S**2>=0.000
       8 -> 18         0.15170
       9 -> 22         0.41861
      11 -> 28         0.13113
      11 -> 30         0.26419
      12 -> 31        -0.13514
      12 -> 32        -0.27658
      12 -> 34         0.16259

 Excited State  68:      Singlet-A     16.2284 eV   76.40 nm  f=0.0086  <S**2>=0.000
       7 -> 16         0.50485
       8 -> 17         0.11857
       8 -> 18        -0.11726
       9 -> 22        -0.12526
       9 -> 23         0.22710
      10 -> 24         0.23580
      12 -> 32        -0.11042

 Excited State  69:      Singlet-A     16.3226 eV   75.96 nm  f=0.0543  <S**2>=0.000
       7 -> 16        -0.28946
       8 -> 18        -0.12829
       9 -> 22        -0.10820
      10 -> 24         0.51825
      11 -> 29        -0.12702
      11 -> 31         0.18577
      12 -> 32        -0.12321

 Excited State  70:      Singlet-A     16.4376 eV   75.43 nm  f=0.0169  <S**2>=0.000
       7 -> 16        -0.10416
      10 -> 22         0.11001
      10 -> 25        -0.12139
      12 -> 33         0.50241
      12 -> 34         0.29968
      12 -> 36        -0.12419

 Excited State  71:      Singlet-A     16.4785 eV   75.24 nm  f=0.0164  <S**2>=0.000
       7 -> 16        -0.21253
       8 -> 18        -0.10521
       9 -> 22         0.19091
       9 -> 23         0.51641
      10 -> 24        -0.12308
      11 -> 30        -0.13502
      11 -> 31        -0.15573
      12 -> 33        -0.15122

 Excited State  72:      Singlet-A     16.5038 eV   75.12 nm  f=0.0133  <S**2>=0.000
       6 -> 14        -0.10446
       9 -> 23         0.15292
      11 -> 28         0.13492
      11 -> 29        -0.25941
      11 -> 31         0.35013
      11 -> 32        -0.19501
      12 -> 33         0.19903
      12 -> 34        -0.27456

 Excited State  73:      Singlet-A     16.5328 eV   74.99 nm  f=0.0282  <S**2>=0.000
      10 -> 24        -0.14512
      10 -> 25         0.13181
      10 -> 26         0.12690
      11 -> 29        -0.21767
      11 -> 31         0.28711
      12 -> 32         0.12358
      12 -> 33        -0.17718
      12 -> 34         0.42318

 Excited State  74:      Singlet-A     16.6937 eV   74.27 nm  f=0.0061  <S**2>=0.000
       6 -> 14        -0.35779
       7 -> 19        -0.12463
       8 -> 18        -0.10853
       8 -> 19         0.15435
       9 -> 24         0.49485

 Excited State  75:      Singlet-A     16.8232 eV   73.70 nm  f=0.0724  <S**2>=0.000
       6 -> 13         0.21277
       6 -> 14        -0.14495
       7 -> 16        -0.10464
       8 -> 17         0.45927
       8 -> 18        -0.10112
       8 -> 19        -0.10617
       9 -> 23        -0.13746
       9 -> 24        -0.20505
      10 -> 25        -0.10965
      12 -> 33        -0.16538
      12 -> 35        -0.14321

 Excited State  76:      Singlet-A     16.8520 eV   73.57 nm  f=0.0489  <S**2>=0.000
       6 -> 14         0.18679
       8 -> 17         0.28203
       9 -> 24         0.15822
      10 -> 25         0.42268
      10 -> 26         0.12056
      10 -> 27        -0.12734
      12 -> 33         0.26151
      12 -> 34        -0.12085

 Excited State  77:      Singlet-A     16.8961 eV   73.38 nm  f=0.1514  <S**2>=0.000
       6 -> 13         0.10284
       6 -> 14        -0.33933
       8 -> 17        -0.20173
       8 -> 19        -0.10661
       9 -> 24        -0.24380
      10 -> 25         0.38618
      10 -> 26         0.20040

 Excited State  78:      Singlet-A     16.9873 eV   72.99 nm  f=0.0420  <S**2>=0.000
       6 -> 14        -0.16036
       8 -> 17         0.13818
       8 -> 18         0.41762
       9 -> 22        -0.10276
      10 -> 25         0.12407
      10 -> 26        -0.27504
      12 -> 35         0.32413
      12 -> 36        -0.12435

 Excited State  79:      Singlet-A     17.0782 eV   72.60 nm  f=0.0618  <S**2>=0.000
       6 -> 13         0.41672
       6 -> 14         0.12228
       8 -> 18         0.26989
       9 -> 23         0.13490
      10 -> 25        -0.11485
      10 -> 26         0.26845
      11 -> 33        -0.21492
      11 -> 34        -0.13643
      11 -> 36         0.10369

 Excited State  80:      Singlet-A     17.1082 eV   72.47 nm  f=0.0590  <S**2>=0.000
       6 -> 13        -0.22967
       6 -> 14        -0.11207
       8 -> 18         0.25652
      10 -> 25        -0.12714
      10 -> 26         0.37127
      11 -> 33         0.27333
      11 -> 34         0.15825
      11 -> 36        -0.11259
      12 -> 35        -0.15154

 The electronic state is 1-A.
 Alpha  occ. eigenvalues --  -14.42886 -14.36669 -10.33397  -1.02614  -0.92743
 Alpha  occ. eigenvalues --   -0.69747  -0.61704  -0.58691  -0.48313  -0.45334
 Alpha  occ. eigenvalues --   -0.33329  -0.31508
 Alpha virt. eigenvalues --    0.04780   0.06901   0.08084   0.10010   0.14788
 Alpha virt. eigenvalues --    0.16395   0.18702   0.19396   0.21456   0.23446
 Alpha virt. eigenvalues --    0.24592   0.26628   0.29573   0.30211   0.33168

 Mulliken charges:
               1
     1  N    0.186618
     2  C    0.643458
     3  N   -0.081522
     4  H   -0.119123
     5  H   -0.141575
     6  H   -0.412904
     7  H   -0.074952
 Sum of Mulliken charges =  -0.00000

 Dipole moment (field-independent basis, Debye):
    X=              3.4762    Y=             -0.7371    Z=              0.5762  Tot=              3.5999
 Quadrupole moment (field-independent basis, Debye-Ang):
   XX=            -20.9722   YY=            -14.8707   ZZ=            -20.8055
   XY=              1.3269   XZ=              1.1730   YZ=             -0.1613

 Normal termination of Gaussian 16 at Mon Mar 21 20:22:58 2022.
