 Gaussian 16, Revision C.01,
 Gaussian 16:  EM64L-G16RevC.01  3-Jul-2019

 ----------------------------------------------------------------------
 #P TD(Nstates=10000) cam-b3lyp/Gen SCF(maxcycles=100) Int(Grid=ultrafi
 ne)
 ----------------------------------------------------------------------

 ---------------------
 xGDB7_00001_tier4.com
 ---------------------
 Symbolic Z-matrix:
 Charge =  0 Multiplicity = 1

                         Standard orientation:
 ---------------------------------------------------------------------
 Center     Atomic      Atomic             Coordinates (Angstroms)
 Number     Number       Type             X           Y           Z
 ---------------------------------------------------------------------
      1          6           0        0.000000    0.000000    0.597322
      2          6           0        0.000000    0.000000   -0.597322
      3          1           0        0.000000    0.000000    1.661338
      4          1           0        0.000000    0.000000   -1.661338
 ---------------------------------------------------------------------

 SCF Done:  E(RCAM-B3LYP) =  -77.2255743165     A.U. after    9 cycles

 Excitation energies and oscillator strengths:

 Excited state symmetry could not be determined.
 Excited State   1:      Singlet-?Sym    6.7222 eV  184.44 nm  f=0.0000  <S**2>=0.000
       6 -> 10        -0.49543
       7 ->  9         0.49543
 This state for optimization and/or second-order correction.
 Total Energy, E(TD-HF/TD-DFT) =  -76.9785384163
 Copying the excited state density for this state as the 1-particle RhoCI density.

 Excited state symmetry could not be determined.
 Excited State   2:      Singlet-?Sym    7.0051 eV  176.99 nm  f=0.0000  <S**2>=0.000
       6 -> 10         0.49634
       7 ->  9         0.49634

 Excited state symmetry could not be determined.
 Excited State   3:      Singlet-?Sym    7.0051 eV  176.99 nm  f=0.0000  <S**2>=0.000
       6 ->  9        -0.49634
       7 -> 10         0.49634

 Excited state symmetry could not be determined.
 Excited State   4:      Singlet-?Sym    8.3704 eV  148.12 nm  f=0.1012  <S**2>=0.000
       7 ->  8         0.70336

 Excited state symmetry could not be determined.
 Excited State   5:      Singlet-?Sym    8.3704 eV  148.12 nm  f=0.1012  <S**2>=0.000
       6 ->  8         0.70336

 Excited state symmetry could not be determined.
 Excited State   6:      Singlet-?Sym    8.7968 eV  140.94 nm  f=0.0000  <S**2>=0.000
       6 -> 11         0.54368
       7 -> 11        -0.44265

 Excited state symmetry could not be determined.
 Excited State   7:      Singlet-?Sym    8.7968 eV  140.94 nm  f=0.0000  <S**2>=0.000
       6 -> 11         0.44265
       7 -> 11         0.54368

 Excited state symmetry could not be determined.
 Excited State   8:      Singlet-?Sym   10.0647 eV  123.19 nm  f=0.0312  <S**2>=0.000
       6 -> 12        -0.22894
       7 -> 12         0.65969

 Excited state symmetry could not be determined.
 Excited State   9:      Singlet-?Sym   10.0647 eV  123.19 nm  f=0.0312  <S**2>=0.000
       6 -> 12         0.65969
       7 -> 12         0.22894

 Excited state symmetry could not be determined.
 Excited State  10:      Singlet-?Sym   10.4189 eV  119.00 nm  f=0.8637  <S**2>=0.000
       6 ->  9         0.48556
       6 -> 18         0.11390
       7 -> 10         0.48556
       7 -> 19         0.11390

 Excited state symmetry could not be determined.
 Excited State  11:      Singlet-?Sym   11.7992 eV  105.08 nm  f=0.0000  <S**2>=0.000
       6 -> 13         0.49806
       7 -> 13         0.47486

 Excited state symmetry could not be determined.
 Excited State  12:      Singlet-?Sym   11.7992 eV  105.08 nm  f=0.0000  <S**2>=0.000
       6 -> 13        -0.47486
       7 -> 13         0.49806

 Excited state symmetry could not be determined.
 Excited State  13:      Singlet-?Sym   11.8298 eV  104.81 nm  f=0.0000  <S**2>=0.000
       6 -> 14        -0.49913
       7 -> 15         0.49913

 Excited state symmetry could not be determined.
 Excited State  14:      Singlet-?Sym   11.8298 eV  104.81 nm  f=0.0000  <S**2>=0.000
       6 -> 15         0.49913
       7 -> 14         0.49913

 Excited state symmetry could not be determined.
 Excited State  15:      Singlet-?Sym   11.8329 eV  104.78 nm  f=0.0000  <S**2>=0.000
       6 -> 15        -0.49922
       7 -> 14         0.49922

 Excited state symmetry could not be determined.
 Excited State  16:      Singlet-?Sym   12.6611 eV   97.92 nm  f=0.0000  <S**2>=0.000
       5 -> 12        -0.15344
       6 -> 14         0.47704
       7 -> 15         0.47704

 Excited state symmetry could not be determined.
 Excited State  17:      Singlet-?Sym   12.8284 eV   96.65 nm  f=0.0000  <S**2>=0.000
       5 ->  9         0.42837
       5 -> 10         0.53501

 Excited state symmetry could not be determined.
 Excited State  18:      Singlet-?Sym   12.8284 eV   96.65 nm  f=0.0000  <S**2>=0.000
       5 ->  9         0.53501
       5 -> 10        -0.42837

 Excited state symmetry could not be determined.
 Excited State  19:      Singlet-?Sym   13.2154 eV   93.82 nm  f=0.0000  <S**2>=0.000
       6 -> 16         0.28130
       6 -> 17        -0.41335
       7 -> 16         0.41335
       7 -> 17         0.28130

 Excited state symmetry could not be determined.
 Excited State  20:      Singlet-?Sym   13.2154 eV   93.82 nm  f=0.0000  <S**2>=0.000
       6 -> 16         0.41335
       6 -> 17         0.28130
       7 -> 16        -0.28130
       7 -> 17         0.41335

 Excited state symmetry could not be determined.
 Excited State  21:      Singlet-?Sym   13.7866 eV   89.93 nm  f=0.2376  <S**2>=0.000
       4 -> 10        -0.25988
       6 -> 16         0.45328
       7 -> 17        -0.45328

 Excited state symmetry could not be determined.
 Excited State  22:      Singlet-?Sym   13.7866 eV   89.93 nm  f=0.2376  <S**2>=0.000
       4 ->  9        -0.25988
       6 -> 17         0.45328
       7 -> 16         0.45328

 Excited State  23:      Singlet-SGG   14.1564 eV   87.58 nm  f=0.0000  <S**2>=0.000
       5 ->  8         0.69146

 Excited state symmetry could not be determined.
 Excited State  24:      Singlet-?Sym   14.2646 eV   86.92 nm  f=0.0000  <S**2>=0.000
       6 -> 19        -0.49140
       7 -> 18         0.49140

 Excited State  25:      Singlet-SGU   14.2690 eV   86.89 nm  f=0.4141  <S**2>=0.000
       4 ->  8        -0.17979
       5 -> 11         0.65714
       6 -> 18        -0.10801
       7 -> 19        -0.10801

 Excited state symmetry could not be determined.
 Excited State  26:      Singlet-?Sym   14.2808 eV   86.82 nm  f=0.0000  <S**2>=0.000
       6 -> 18        -0.49265
       7 -> 19         0.49265

 Excited state symmetry could not be determined.
 Excited State  27:      Singlet-?Sym   14.2808 eV   86.82 nm  f=0.0000  <S**2>=0.000
       6 -> 19         0.49265
       7 -> 18         0.49265

 Excited state symmetry could not be determined.
 Excited State  28:      Singlet-?Sym   15.6979 eV   78.98 nm  f=0.0025  <S**2>=0.000
       4 ->  8         0.37004
       5 -> 11         0.22290
       6 -> 18         0.37938
       7 -> 19         0.37938

 Excited state symmetry could not be determined.
 Excited State  29:      Singlet-?Sym   15.7838 eV   78.55 nm  f=0.2717  <S**2>=0.000
       4 -> 10         0.56537
       6 -> 16         0.13415
       7 -> 17        -0.13415
       7 -> 20        -0.34645
       7 -> 22         0.12239

 Excited state symmetry could not be determined.
 Excited State  30:      Singlet-?Sym   15.7838 eV   78.55 nm  f=0.2717  <S**2>=0.000
       4 ->  9         0.56537
       6 -> 17         0.13415
       6 -> 20        -0.34645
       6 -> 22         0.12239
       7 -> 16         0.13415

 Excited State  31:      Singlet-SGG   16.3652 eV   75.76 nm  f=0.0000  <S**2>=0.000
       4 -> 11         0.28345
       5 -> 12         0.60582
       6 -> 14         0.12189
       7 -> 15         0.12189

 Excited state symmetry could not be determined.
 Excited State  32:      Singlet-?Sym   16.4059 eV   75.57 nm  f=0.5042  <S**2>=0.000
       4 -> 10         0.28337
       6 -> 16         0.11487
       7 -> 17        -0.11487
       7 -> 20         0.60220
       7 -> 22         0.13340

 Excited state symmetry could not be determined.
 Excited State  33:      Singlet-?Sym   16.4059 eV   75.57 nm  f=0.5042  <S**2>=0.000
       4 ->  9         0.28337
       6 -> 17         0.11487
       6 -> 20         0.60220
       6 -> 22         0.13340
       7 -> 16         0.11487

 Excited State  34:      Singlet-SGU   16.4576 eV   75.34 nm  f=0.0385  <S**2>=0.000
       4 ->  8         0.55779
       4 -> 12         0.17078
       6 -> 18        -0.25140
       7 -> 19        -0.25140

 Excited state symmetry could not be determined.
 Excited State  35:      Singlet-?Sym   16.4877 eV   75.20 nm  f=0.0000  <S**2>=0.000
       6 -> 21        -0.25977
       7 -> 21         0.64430

 Excited state symmetry could not be determined.
 Excited State  36:      Singlet-?Sym   16.4877 eV   75.20 nm  f=0.0000  <S**2>=0.000
       6 -> 21         0.64430
       7 -> 21         0.25977

 Excited State  37:      Singlet-SGG   16.6959 eV   74.26 nm  f=0.0000  <S**2>=0.000
       4 -> 11         0.62351
       5 ->  8         0.10424
       5 -> 12        -0.30335

 Excited state symmetry could not be determined.
 Excited State  38:      Singlet-?Sym   17.1903 eV   72.12 nm  f=0.0000  <S**2>=0.000
       6 -> 23        -0.29644
       6 -> 24         0.40262
       7 -> 23         0.40262
       7 -> 24         0.29644

 Excited state symmetry could not be determined.
 Excited State  39:      Singlet-?Sym   17.1903 eV   72.12 nm  f=0.0000  <S**2>=0.000
       6 -> 23         0.40262
       6 -> 24         0.29644
       7 -> 23         0.29644
       7 -> 24        -0.40262

 Excited state symmetry could not be determined.
 Excited State  40:      Singlet-?Sym   17.3464 eV   71.48 nm  f=0.0060  <S**2>=0.000
       4 -> 10        -0.10211
       5 -> 14        -0.15988
       5 -> 15         0.43687
       6 -> 22        -0.17546
       7 -> 22         0.47944

 Excited state symmetry could not be determined.
 Excited State  41:      Singlet-?Sym   17.3464 eV   71.48 nm  f=0.0060  <S**2>=0.000
       4 ->  9        -0.10211
       5 -> 14         0.43687
       5 -> 15         0.15988
       6 -> 22         0.47944
       7 -> 22         0.17546

 Excited state symmetry could not be determined.
 Excited State  42:      Singlet-?Sym   17.4297 eV   71.13 nm  f=0.0000  <S**2>=0.000
       6 -> 23         0.47205
       6 -> 24         0.14211
       7 -> 23        -0.14211
       7 -> 24         0.47205

 Excited state symmetry could not be determined.
 Excited State  43:      Singlet-?Sym   17.4297 eV   71.13 nm  f=0.0000  <S**2>=0.000
       6 -> 23         0.14211
       6 -> 24        -0.47205
       7 -> 23         0.47205
       7 -> 24         0.14211

 Excited state symmetry could not be determined.
 Excited State  44:      Singlet-?Sym   17.4469 eV   71.06 nm  f=0.3107  <S**2>=0.000
       4 -> 10         0.10514
       5 -> 14         0.22545
       5 -> 15         0.45598
       6 -> 22        -0.19724
       7 -> 22        -0.39893

 Excited state symmetry could not be determined.
 Excited State  45:      Singlet-?Sym   17.4469 eV   71.06 nm  f=0.3107  <S**2>=0.000
       4 ->  9         0.10514
       5 -> 14         0.45598
       5 -> 15        -0.22545
       6 -> 22        -0.39893
       7 -> 22         0.19724

 Excited State  46:      Singlet-SGU   17.6061 eV   70.42 nm  f=0.5377  <S**2>=0.000
       4 -> 12         0.53179
       5 -> 11        -0.11030
       5 -> 13        -0.43742

 Excited state symmetry could not be determined.
 Excited State  47:      Singlet-?Sym   17.7575 eV   69.82 nm  f=0.0000  <S**2>=0.000
       6 -> 25         0.49929
       7 -> 26         0.49929

 Excited state symmetry could not be determined.
 Excited State  48:      Singlet-?Sym   17.7575 eV   69.82 nm  f=0.0000  <S**2>=0.000
       6 -> 26        -0.49929
       7 -> 25         0.49929

 Excited state symmetry could not be determined.
 Excited State  49:      Singlet-?Sym   17.8384 eV   69.50 nm  f=0.0000  <S**2>=0.000
       6 -> 25         0.49947
       7 -> 26        -0.49947

 Excited State  50:      Singlet-SGU   18.1946 eV   68.14 nm  f=0.0957  <S**2>=0.000
       4 -> 12         0.38280
       5 -> 13         0.52064
       6 -> 28        -0.16383
       7 -> 29        -0.16383

 Excited state symmetry could not be determined.
 Excited State  51:      Singlet-?Sym   18.4711 eV   67.12 nm  f=0.0000  <S**2>=0.000
       6 -> 26         0.48106
       7 -> 25         0.48106

 Excited state symmetry could not be determined.
 Excited State  52:      Singlet-?Sym   18.6684 eV   66.41 nm  f=0.0000  <S**2>=0.000
       3 ->  9         0.12939
       4 -> 14         0.20942
       5 -> 18         0.16916
       6 -> 27         0.60432
       7 -> 27         0.17098

 Excited state symmetry could not be determined.
 Excited State  53:      Singlet-?Sym   18.6684 eV   66.41 nm  f=0.0000  <S**2>=0.000
       3 -> 10         0.12939
       4 -> 15         0.20942
       5 -> 19         0.16916
       6 -> 27        -0.17098
       7 -> 27         0.60432

 Excited state symmetry could not be determined.
 Excited State  54:      Singlet-?Sym   18.7513 eV   66.12 nm  f=0.0000  <S**2>=0.000
       4 -> 14         0.41048
       4 -> 15         0.29975
       5 -> 18         0.30028
       5 -> 19         0.21928
       6 -> 27        -0.23930
       7 -> 27        -0.17475

 Excited state symmetry could not be determined.
 Excited State  55:      Singlet-?Sym   18.7513 eV   66.12 nm  f=0.0000  <S**2>=0.000
       4 -> 14        -0.29975
       4 -> 15         0.41048
       5 -> 18        -0.21928
       5 -> 19         0.30028
       6 -> 27         0.17475
       7 -> 27        -0.23930

 Excited state symmetry could not be determined.
 Excited State  56:      Singlet-?Sym   19.0084 eV   65.23 nm  f=0.0000  <S**2>=0.000
       6 -> 28         0.49571
       7 -> 29        -0.49571

 Excited state symmetry could not be determined.
 Excited State  57:      Singlet-?Sym   19.0084 eV   65.23 nm  f=0.0000  <S**2>=0.000
       6 -> 29         0.49571
       7 -> 28         0.49571

 Excited state symmetry could not be determined.
 Excited State  58:      Singlet-?Sym   19.0431 eV   65.11 nm  f=0.0000  <S**2>=0.000
       5 -> 16         0.70411

 Excited state symmetry could not be determined.
 Excited State  59:      Singlet-?Sym   19.0431 eV   65.11 nm  f=0.0000  <S**2>=0.000
       5 -> 17         0.70411

 Excited state symmetry could not be determined.
 Excited State  60:      Singlet-?Sym   19.0902 eV   64.95 nm  f=0.0000  <S**2>=0.000
       6 -> 29        -0.49595
       7 -> 28         0.49595

 Excited state symmetry could not be determined.
 Excited State  61:      Singlet-?Sym   19.5144 eV   63.53 nm  f=0.0364  <S**2>=0.000
       4 -> 12         0.16222
       5 -> 13         0.12938
       6 -> 28         0.45425
       7 -> 29         0.45425

 Excited State  62:      Singlet-SGG   19.7659 eV   62.73 nm  f=0.0000  <S**2>=0.000
       4 -> 13         0.68513

 Excited state symmetry could not be determined.
 Excited State  63:      Singlet-?Sym   20.1495 eV   61.53 nm  f=0.0000  <S**2>=0.000
       3 ->  9         0.22841
       3 -> 10         0.59660
       4 -> 15        -0.22403

 Excited state symmetry could not be determined.
 Excited State  64:      Singlet-?Sym   20.1495 eV   61.53 nm  f=0.0000  <S**2>=0.000
       3 ->  9         0.59660
       3 -> 10        -0.22841
       4 -> 14        -0.22403

 Excited state symmetry could not be determined.
 Excited State  65:      Singlet-?Sym   20.4358 eV   60.67 nm  f=0.0000  <S**2>=0.000
       3 ->  9        -0.11455
       3 -> 10        -0.18509
       4 -> 14        -0.19279
       4 -> 15        -0.31152
       5 -> 18         0.29354
       5 -> 19         0.47432

 Excited state symmetry could not be determined.
 Excited State  66:      Singlet-?Sym   20.4358 eV   60.67 nm  f=0.0000  <S**2>=0.000
       3 ->  9        -0.18509
       3 -> 10         0.11455
       4 -> 14        -0.31152
       4 -> 15         0.19279
       5 -> 18         0.47432
       5 -> 19        -0.29354

 Excited state symmetry could not be determined.
 Excited State  67:      Singlet-?Sym   20.9185 eV   59.27 nm  f=0.0000  <S**2>=0.000
       4 -> 16         0.68698
       5 -> 24         0.16455

 Excited state symmetry could not be determined.
 Excited State  68:      Singlet-?Sym   20.9185 eV   59.27 nm  f=0.0000  <S**2>=0.000
       4 -> 17         0.68698
       5 -> 23         0.16455

 Excited State  69:      Singlet-SGG   21.0441 eV   58.92 nm  f=0.0000  <S**2>=0.000
       3 ->  8         0.69013

 Excited State  70:      Singlet-SGU   21.5703 eV   57.48 nm  f=0.0562  <S**2>=0.000
       3 -> 11         0.65326
       5 -> 21        -0.21444

 Excited state symmetry could not be determined.
 Excited State  71:      Singlet-?Sym   22.0372 eV   56.26 nm  f=0.0020  <S**2>=0.000
       4 -> 18         0.56123
       4 -> 19        -0.38231
       5 -> 14        -0.10574

 Excited state symmetry could not be determined.
 Excited State  72:      Singlet-?Sym   22.0372 eV   56.26 nm  f=0.0020  <S**2>=0.000
       4 -> 18         0.38231
       4 -> 19         0.56123
       5 -> 15        -0.10574

 Excited State  73:      Singlet-SGU   22.1138 eV   56.07 nm  f=0.2904  <S**2>=0.000
       3 -> 11         0.22583
       4 -> 22         0.12594
       5 -> 21         0.65168

 Excited State  74:      Singlet-SGG   22.1200 eV   56.05 nm  f=0.0000  <S**2>=0.000
       5 -> 20         0.68743

 Excited State  75:      Singlet-SGG   22.9667 eV   53.98 nm  f=0.0000  <S**2>=0.000
       3 -> 12         0.69063

 Excited state symmetry could not be determined.
 Excited State  76:      Singlet-?Sym   23.1054 eV   53.66 nm  f=0.0000  <S**2>=0.000
       4 -> 17        -0.16430
       5 -> 23         0.68747

 Excited state symmetry could not be determined.
 Excited State  77:      Singlet-?Sym   23.1054 eV   53.66 nm  f=0.0000  <S**2>=0.000
       4 -> 16        -0.16430
       5 -> 24         0.68747

 Excited State  78:      Singlet-SGG   23.2302 eV   53.37 nm  f=0.0000  <S**2>=0.000
       4 -> 21         0.21554
       5 -> 22         0.63492
       6 -> 33        -0.12898
       7 -> 32        -0.12898

 Excited state symmetry could not be determined.
 Excited State  79:      Singlet-?Sym   23.8513 eV   51.98 nm  f=0.1281  <S**2>=0.000
       4 -> 18        -0.11101
       5 -> 26         0.68607

 Excited state symmetry could not be determined.
 Excited State  80:      Singlet-?Sym   23.8513 eV   51.98 nm  f=0.1281  <S**2>=0.000
       4 -> 19        -0.11101
       5 -> 25         0.68607

 Excited State  81:      Singlet-SGU   24.0752 eV   51.50 nm  f=0.0095  <S**2>=0.000
       4 -> 20         0.67916
       4 -> 22        -0.13397

 Excited State  82:      Singlet-SGG   24.4069 eV   50.80 nm  f=0.0000  <S**2>=0.000
       4 -> 21         0.65728
       5 -> 22        -0.23904

 Excited State  83:      Singlet-SGU   24.6146 eV   50.37 nm  f=0.0226  <S**2>=0.000
       3 -> 13         0.64873
       4 -> 22         0.22755

 Excited state symmetry could not be determined.
 Excited State  84:      Singlet-?Sym   24.6550 eV   50.29 nm  f=0.0000  <S**2>=0.000
       5 -> 28         0.69859

 Excited state symmetry could not be determined.
 Excited State  85:      Singlet-?Sym   24.6550 eV   50.29 nm  f=0.0000  <S**2>=0.000
       5 -> 29         0.69859

 Excited state symmetry could not be determined.
 Excited State  86:      Singlet-?Sym   24.7186 eV   50.16 nm  f=0.0000  <S**2>=0.000
       6 -> 30         0.69940

 Excited state symmetry could not be determined.
 Excited State  87:      Singlet-?Sym   24.7186 eV   50.16 nm  f=0.0000  <S**2>=0.000
       7 -> 30         0.69940

 Excited state symmetry could not be determined.
 Excited State  88:      Singlet-?Sym   24.7531 eV   50.09 nm  f=0.0000  <S**2>=0.000
       3 -> 14         0.67248
       3 -> 15        -0.17528

 Excited state symmetry could not be determined.
 Excited State  89:      Singlet-?Sym   24.7531 eV   50.09 nm  f=0.0000  <S**2>=0.000
       3 -> 14         0.17528
       3 -> 15         0.67248

 Excited state symmetry could not be determined.
 Excited State  90:      Singlet-?Sym   24.9075 eV   49.78 nm  f=0.0000  <S**2>=0.000
       3 -> 17         0.14984
       4 -> 23         0.68880

 Excited state symmetry could not be determined.
 Excited State  91:      Singlet-?Sym   24.9075 eV   49.78 nm  f=0.0000  <S**2>=0.000
       3 -> 16         0.14984
       4 -> 24         0.68880

 Excited State  92:      Singlet-SGU   24.9466 eV   49.70 nm  f=0.1764  <S**2>=0.000
       4 -> 22         0.41916
       5 -> 27         0.54198

 Excited State  93:      Singlet-SGU   25.5323 eV   48.56 nm  f=0.0084  <S**2>=0.000
       3 -> 13        -0.20850
       4 -> 20         0.11220
       4 -> 22         0.47667
       5 -> 27        -0.42186

 Excited state symmetry could not be determined.
 Excited State  94:      Singlet-?Sym   25.7863 eV   48.08 nm  f=0.0000  <S**2>=0.000
       3 -> 18         0.10882
       4 -> 25         0.40773
       4 -> 26         0.55445

 Excited state symmetry could not be determined.
 Excited State  95:      Singlet-?Sym   25.7863 eV   48.08 nm  f=0.0000  <S**2>=0.000
       3 -> 19         0.10882
       4 -> 25         0.55445
       4 -> 26        -0.40773

 Excited state symmetry could not be determined.
 Excited State  96:      Singlet-?Sym   26.0270 eV   47.64 nm  f=0.0000  <S**2>=0.000
       3 -> 17         0.68530
       4 -> 23        -0.14748

 Excited state symmetry could not be determined.
 Excited State  97:      Singlet-?Sym   26.0270 eV   47.64 nm  f=0.0000  <S**2>=0.000
       3 -> 16         0.68530
       4 -> 24        -0.14748

 Excited state symmetry could not be determined.
 Excited State  98:      Singlet-?Sym   26.0995 eV   47.50 nm  f=0.0228  <S**2>=0.000
       6 -> 31         0.45897
       7 -> 31         0.51465

 Excited state symmetry could not be determined.
 Excited State  99:      Singlet-?Sym   26.0995 eV   47.50 nm  f=0.0228  <S**2>=0.000
       6 -> 31         0.51465
       7 -> 31        -0.45897

 Excited state symmetry could not be determined.
 Excited State 100:      Singlet-?Sym   26.5906 eV   46.63 nm  f=0.0002  <S**2>=0.000
       4 -> 28         0.69282
       6 -> 31         0.11414

 Excited state symmetry could not be determined.
 Excited State 101:      Singlet-?Sym   26.5906 eV   46.63 nm  f=0.0002  <S**2>=0.000
       4 -> 29         0.69282
       7 -> 31         0.11414

 Excited State 102:      Singlet-SGG   26.7337 eV   46.38 nm  f=0.0000  <S**2>=0.000
       4 -> 27         0.69939

 Excited state symmetry could not be determined.
 Excited State 103:      Singlet-?Sym   26.7904 eV   46.28 nm  f=0.0000  <S**2>=0.000
       6 -> 33        -0.49556
       7 -> 32         0.49556

 Excited state symmetry could not be determined.
 Excited State 104:      Singlet-?Sym   26.7904 eV   46.28 nm  f=0.0000  <S**2>=0.000
       6 -> 32         0.49556
       7 -> 33         0.49556

 Excited state symmetry could not be determined.
 Excited State 105:      Singlet-?Sym   26.8512 eV   46.17 nm  f=0.0000  <S**2>=0.000
       6 -> 32         0.49898
       7 -> 33        -0.49898

 Excited state symmetry could not be determined.
 Excited State 106:      Singlet-?Sym   27.1985 eV   45.58 nm  f=0.0000  <S**2>=0.000
       3 -> 18         0.65284
       3 -> 19         0.19852
       4 -> 26        -0.13072

 Excited state symmetry could not be determined.
 Excited State 107:      Singlet-?Sym   27.1985 eV   45.58 nm  f=0.0000  <S**2>=0.000
       3 -> 18        -0.19852
       3 -> 19         0.65284
       4 -> 25        -0.13072

 Excited State 108:      Singlet-SGG   28.5982 eV   43.35 nm  f=0.0000  <S**2>=0.000
       3 -> 20         0.56634
       6 -> 33        -0.27099
       7 -> 32        -0.27099

 The electronic state is 1-SGG.
 Alpha  occ. eigenvalues --  -10.27218 -10.26945  -0.82903  -0.63741  -0.56946
 Alpha  occ. eigenvalues --   -0.36202  -0.36202
 Alpha virt. eigenvalues --    0.06570   0.07313   0.07313   0.07957   0.14561
 Alpha virt. eigenvalues --    0.20729   0.20773   0.20773   0.28115   0.28115
 Alpha virt. eigenvalues --    0.30732   0.30732   0.36630   0.37064   0.40345

 Mulliken charges:
               1
     1  C    0.301152
     2  C    0.301152
     3  H   -0.301152
     4  H   -0.301152
 Sum of Mulliken charges =  -0.00000

 Dipole moment (field-independent basis, Debye):
    X=             -0.0000    Y=              0.0000    Z=             -0.0000  Tot=              0.0000
 Quadrupole moment (field-independent basis, Debye-Ang):
   XX=            -13.5441   YY=            -13.5441   ZZ=             -7.3024
   XY=             -0.0000   XZ=              0.0000   YZ=              0.0000

 1\1\GINC-HEL12\SP\RCAM-B3LYP TD-FC\Gen\C2H2\SABYASACHI\21-Mar-2022\0\\
 #P TD(Nstates=10000) cam-b3lyp/Gen SCF(maxcycles=100) Int(Grid=ultrafi
 ne)\\xGDB7_00001_tier4.com\\0,1\C,0,0.,0.,0.597322\C,0,0.,0.,-0.597322
 \H,0,0.,0.,1.661338\H,0,0.,0.,-1.661338\\Version=EM64L-G16RevC.01\Stat
 e=1-SGG\HF=-77.2255743\RMSD=8.755e-09\PG=D*H [C*(H1C1.C1H1)]\\@
 The archive entry for this job was punched.

 Normal termination of Gaussian 16 at Mon Mar 21 20:07:39 2022.
