 Gaussian 16, Revision C.01,
 Gaussian 16:  EM64L-G16RevC.01  3-Jul-2019

 ----------------------------------------------------------------------
 #P TD(Nstates=10000) cam-b3lyp/Gen SCF(maxcycles=100) Int(Grid=ultrafi
 ne)
 ----------------------------------------------------------------------

 ---------------------
 xGDB7_00001_tier4.com
 ---------------------
 Symbolic Z-matrix:
 Charge =  0 Multiplicity = 1

                         Standard orientation:
 ---------------------------------------------------------------------
 Center     Atomic      Atomic             Coordinates (Angstroms)
 Number     Number       Type             X           Y           Z
 ---------------------------------------------------------------------
      1          7           0       -0.000002   -0.000000   -0.110463
      2          1           0       -0.147185    0.930214    0.257758
      3          1           0       -0.731998   -0.592574    0.257757
      4          1           0        0.879196   -0.337638    0.257728
 ---------------------------------------------------------------------

 SCF Done:  E(RCAM-B3LYP) =  -56.4934967612     A.U. after   12 cycles

 Excitation energies and oscillator strengths:

 Excited State   1:      Singlet-A      6.9303 eV  178.90 nm  f=0.0780  <S**2>=0.000
       5 ->  6         0.70387
 This state for optimization and/or second-order correction.
 Total Energy, E(TD-HF/TD-DFT) =  -56.2388140671
 Copying the excited state density for this state as the 1-particle RhoCI density.

 Excited State   2:      Singlet-A      9.0957 eV  136.31 nm  f=0.0150  <S**2>=0.000
       5 ->  7         0.69209

 Excited State   3:      Singlet-A      9.0957 eV  136.31 nm  f=0.0150  <S**2>=0.000
       5 ->  8         0.69209

 Excited State   4:      Singlet-A     10.6579 eV  116.33 nm  f=0.0007  <S**2>=0.000
       5 ->  9         0.70040

 Excited State   5:      Singlet-A     10.6579 eV  116.33 nm  f=0.0007  <S**2>=0.000
       5 -> 10         0.70040

 Excited State   6:      Singlet-A     11.5985 eV  106.90 nm  f=0.0227  <S**2>=0.000
       3 ->  7         0.11735
       4 ->  8         0.11735
       5 -> 11         0.68229

 Excited State   7:      Singlet-A     12.2211 eV  101.45 nm  f=0.0472  <S**2>=0.000
       4 ->  6         0.64019
       5 -> 13        -0.29020

 Excited State   8:      Singlet-A     12.2212 eV  101.45 nm  f=0.0471  <S**2>=0.000
       3 ->  6         0.64015
       5 -> 12        -0.29029

 Excited State   9:      Singlet-A     12.5064 eV   99.14 nm  f=0.2291  <S**2>=0.000
       3 ->  6         0.28296
       5 -> 12         0.62581
       5 -> 13        -0.10415

 Excited State  10:      Singlet-A     12.5064 eV   99.14 nm  f=0.2290  <S**2>=0.000
       4 ->  6         0.28287
       5 -> 12         0.10413
       5 -> 13         0.62584

 Excited State  11:      Singlet-A     12.5549 eV   98.75 nm  f=0.2097  <S**2>=0.000
       3 ->  7        -0.10262
       4 ->  8        -0.10262
       5 -> 14         0.68649

 Excited State  12:      Singlet-A     14.3590 eV   86.35 nm  f=0.0000  <S**2>=0.000
       3 ->  8        -0.48440
       4 ->  7         0.48497

 Excited State  13:      Singlet-A     14.4323 eV   85.91 nm  f=0.0704  <S**2>=0.000
       3 ->  7        -0.17264
       3 ->  8         0.46415
       4 ->  7         0.46361
       4 ->  8         0.17253

 Excited State  14:      Singlet-A     14.4323 eV   85.91 nm  f=0.0704  <S**2>=0.000
       3 ->  7        -0.46386
       3 ->  8        -0.17265
       4 ->  7        -0.17251
       4 ->  8         0.46390

 Excited State  15:      Singlet-A     15.7756 eV   78.59 nm  f=0.0000  <S**2>=0.000
       3 ->  9        -0.49563
       4 -> 10         0.49568

 Excited State  16:      Singlet-A     15.8305 eV   78.32 nm  f=0.0051  <S**2>=0.000
       3 ->  7        -0.31434
       3 -> 10         0.17661
       4 ->  8        -0.31433
       4 ->  9         0.17664
       5 -> 11         0.11997
       5 -> 14        -0.12196
       5 -> 16         0.43590

 Excited State  17:      Singlet-A     16.1321 eV   76.86 nm  f=0.0000  <S**2>=0.000
       5 -> 15         0.70617

 Excited State  18:      Singlet-A     16.1436 eV   76.80 nm  f=0.0256  <S**2>=0.000
       3 -> 10        -0.37019
       4 ->  9        -0.37056
       5 -> 16         0.44894

 Excited State  19:      Singlet-A     16.1692 eV   76.68 nm  f=0.0035  <S**2>=0.000
       3 -> 10        -0.19520
       4 ->  9         0.19471
       4 -> 11         0.62318
       5 -> 17        -0.13361

 Excited State  20:      Singlet-A     16.1692 eV   76.68 nm  f=0.0035  <S**2>=0.000
       3 ->  9        -0.19496
       3 -> 11         0.62318
       4 -> 10        -0.19494
       5 -> 18         0.13363

 Excited State  21:      Singlet-A     16.3183 eV   75.98 nm  f=0.0448  <S**2>=0.000
       3 ->  7         0.31997
       3 -> 10         0.28214
       4 ->  8         0.31996
       4 ->  9         0.28218
       5 -> 11        -0.10247
       5 -> 16         0.31807

 Excited State  22:      Singlet-A     16.4547 eV   75.35 nm  f=0.2793  <S**2>=0.000
       3 -> 10         0.36893
       4 ->  9        -0.36880
       4 -> 11         0.30137
       5 -> 17         0.33260

 Excited State  23:      Singlet-A     16.4547 eV   75.35 nm  f=0.2793  <S**2>=0.000
       3 ->  9         0.36889
       3 -> 11         0.30138
       4 -> 10         0.36885
       5 -> 18        -0.33259

 Excited State  24:      Singlet-A     16.9280 eV   73.24 nm  f=0.1065  <S**2>=0.000
       3 -> 10        -0.23901
       4 ->  9         0.23898
       4 -> 14         0.14981
       5 -> 17         0.57636
       5 -> 18        -0.11199

 Excited State  25:      Singlet-A     16.9281 eV   73.24 nm  f=0.1065  <S**2>=0.000
       3 ->  9         0.23900
       3 -> 14        -0.14980
       4 -> 10         0.23899
       5 -> 17         0.11199
       5 -> 18         0.57636

 Excited State  26:      Singlet-A     17.6509 eV   70.24 nm  f=0.0028  <S**2>=0.000
       3 -> 12        -0.45612
       3 -> 13        -0.12554
       4 -> 12        -0.12565
       4 -> 13         0.45619
       4 -> 14         0.20947

 Excited State  27:      Singlet-A     17.6509 eV   70.24 nm  f=0.0028  <S**2>=0.000
       3 -> 12        -0.12557
       3 -> 13         0.45594
       3 -> 14        -0.20943
       4 -> 12         0.45638
       4 -> 13         0.12562

 Excited State  28:      Singlet-A     17.7487 eV   69.86 nm  f=0.0000  <S**2>=0.000
       3 -> 13         0.49438
       4 -> 12        -0.49397

 Excited State  29:      Singlet-A     17.8959 eV   69.28 nm  f=0.1084  <S**2>=0.000
       3 -> 12         0.13172
       4 -> 11         0.10278
       4 -> 13        -0.13177
       4 -> 14         0.64411
       5 -> 17        -0.10142

 Excited State  30:      Singlet-A     17.8960 eV   69.28 nm  f=0.1084  <S**2>=0.000
       3 -> 11         0.10277
       3 -> 13         0.13176
       3 -> 14         0.64412
       4 -> 12         0.13168
       5 -> 18         0.10142

 Excited State  31:      Singlet-A     17.9368 eV   69.12 nm  f=0.2906  <S**2>=0.000
       3 -> 12         0.48736
       4 -> 13         0.48727
       5 -> 21         0.10266

 Excited State  32:      Singlet-A     19.2684 eV   64.35 nm  f=0.0846  <S**2>=0.000
       5 -> 20         0.68839

 Excited State  33:      Singlet-A     19.2685 eV   64.35 nm  f=0.0846  <S**2>=0.000
       5 -> 19         0.68838

 Excited State  34:      Singlet-A     21.3124 eV   58.17 nm  f=0.0234  <S**2>=0.000
       4 -> 16         0.64482
       5 -> 23         0.26786

 Excited State  35:      Singlet-A     21.3125 eV   58.17 nm  f=0.0234  <S**2>=0.000
       3 -> 16         0.64478
       5 -> 22         0.26796

 Excited State  36:      Singlet-A     21.4221 eV   57.88 nm  f=0.0024  <S**2>=0.000
       4 -> 15         0.70471

 Excited State  37:      Singlet-A     21.4222 eV   57.88 nm  f=0.0024  <S**2>=0.000
       3 -> 15         0.70471

 Excited State  38:      Singlet-A     21.5392 eV   57.56 nm  f=0.0983  <S**2>=0.000
       3 -> 18        -0.12972
       4 -> 16        -0.26454
       4 -> 17        -0.12980
       5 -> 22         0.14658
       5 -> 23         0.59542

 Excited State  39:      Singlet-A     21.5392 eV   57.56 nm  f=0.0984  <S**2>=0.000
       3 -> 16        -0.26464
       3 -> 17         0.12974
       4 -> 18        -0.12976
       5 -> 22         0.59538
       5 -> 23        -0.14659

 Excited State  40:      Singlet-A     21.5954 eV   57.41 nm  f=0.2426  <S**2>=0.000
       2 ->  6         0.10471
       3 -> 18        -0.14872
       4 -> 17         0.14865
       5 -> 21         0.64555

 Excited State  41:      Singlet-A     22.0787 eV   56.16 nm  f=0.0000  <S**2>=0.000
       3 -> 17         0.47466
       3 -> 18        -0.12798
       4 -> 17         0.12801
       4 -> 18         0.47472

 Excited State  42:      Singlet-A     22.5165 eV   55.06 nm  f=0.1674  <S**2>=0.000
       3 -> 17         0.46834
       4 -> 18        -0.46828
       5 -> 22        -0.18232

 Excited State  43:      Singlet-A     22.5165 eV   55.06 nm  f=0.1674  <S**2>=0.000
       3 -> 18         0.46829
       4 -> 17         0.46833
       5 -> 23         0.18232

 Excited State  44:      Singlet-A     22.7352 eV   54.53 nm  f=0.0436  <S**2>=0.000
       2 ->  6         0.56984
       3 -> 18        -0.24092
       4 -> 17         0.24083
       5 -> 21        -0.19011

 Excited State  45:      Singlet-A     24.4150 eV   50.78 nm  f=0.1270  <S**2>=0.000
       2 ->  6         0.36672
       3 -> 18         0.34382
       3 -> 19         0.11374
       3 -> 22         0.13176
       4 -> 17        -0.34380
       4 -> 20         0.11380
       4 -> 23         0.13175
       5 -> 21         0.12513
       5 -> 27         0.10788

 Excited State  46:      Singlet-A     24.4494 eV   50.71 nm  f=0.0000  <S**2>=0.000
       3 -> 19         0.16596
       3 -> 20        -0.46694
       4 -> 19         0.46708
       4 -> 20         0.16600

 Excited State  47:      Singlet-A     24.6773 eV   50.24 nm  f=0.0496  <S**2>=0.000
       3 -> 19        -0.30616
       3 -> 20         0.37431
       4 -> 19         0.37417
       4 -> 20         0.30613

 Excited State  48:      Singlet-A     24.6773 eV   50.24 nm  f=0.0496  <S**2>=0.000
       3 -> 19        -0.37421
       3 -> 20        -0.30616
       4 -> 19        -0.30613
       4 -> 20         0.37427

 Excited State  49:      Singlet-A     25.0621 eV   49.47 nm  f=0.0705  <S**2>=0.000
       2 ->  6        -0.13060
       3 -> 19         0.44541
       3 -> 20         0.15830
       4 -> 19        -0.15828
       4 -> 20         0.44535

 Excited State  50:      Singlet-A     25.2365 eV   49.13 nm  f=0.0188  <S**2>=0.000
       2 ->  7         0.68389

 Excited State  51:      Singlet-A     25.2365 eV   49.13 nm  f=0.0188  <S**2>=0.000
       2 ->  8         0.68389

 Excited State  52:      Singlet-A     26.3103 eV   47.12 nm  f=0.0011  <S**2>=0.000
       2 ->  9         0.17246
       3 -> 22        -0.15270
       4 -> 21         0.64658
       4 -> 23         0.15272

 Excited State  53:      Singlet-A     26.3104 eV   47.12 nm  f=0.0011  <S**2>=0.000
       2 -> 10         0.17247
       3 -> 21         0.64658
       3 -> 23        -0.15269
       4 -> 22        -0.15272

 Excited State  54:      Singlet-A     26.6516 eV   46.52 nm  f=0.0000  <S**2>=0.000
       3 -> 23        -0.49843
       4 -> 22         0.49846

 Excited State  55:      Singlet-A     26.7415 eV   46.36 nm  f=0.0067  <S**2>=0.000
       2 ->  9         0.68085
       4 -> 21        -0.15232

 Excited State  56:      Singlet-A     26.7416 eV   46.36 nm  f=0.0067  <S**2>=0.000
       2 -> 10         0.68084
       3 -> 21        -0.15234

 Excited State  57:      Singlet-A     26.9210 eV   46.05 nm  f=0.0527  <S**2>=0.000
       2 -> 11         0.65623
       3 -> 22        -0.15721
       4 -> 23        -0.15722
       5 -> 24         0.12471

 Excited State  58:      Singlet-A     27.4110 eV   45.23 nm  f=0.1943  <S**2>=0.000
       3 -> 22         0.34490
       4 -> 23         0.34495
       5 -> 24         0.46806

 Excited State  59:      Singlet-A     27.7119 eV   44.74 nm  f=0.1264  <S**2>=0.000
       2 -> 11        -0.22613
       2 -> 14        -0.24162
       3 -> 22        -0.25858
       4 -> 23        -0.25947
       5 -> 24         0.48492

 Excited State  60:      Singlet-A     27.7315 eV   44.71 nm  f=0.3911  <S**2>=0.000
       2 -> 13         0.17321
       3 -> 22         0.42814
       4 -> 21         0.20115
       4 -> 23        -0.42759

 Excited State  61:      Singlet-A     27.7315 eV   44.71 nm  f=0.3911  <S**2>=0.000
       2 -> 12         0.17323
       3 -> 21         0.20114
       3 -> 23         0.42788
       4 -> 22         0.42784

 Excited State  62:      Singlet-A     28.3851 eV   43.68 nm  f=0.0321  <S**2>=0.000
       2 -> 12         0.68108

 Excited State  63:      Singlet-A     28.3851 eV   43.68 nm  f=0.0321  <S**2>=0.000
       2 -> 13         0.68108

 Excited State  64:      Singlet-A     28.7785 eV   43.08 nm  f=0.0385  <S**2>=0.000
       2 -> 14         0.65599
       3 -> 22        -0.12605
       4 -> 23        -0.12605
       5 -> 24         0.15238

 Excited State  65:      Singlet-A     31.6515 eV   39.17 nm  f=0.0047  <S**2>=0.000
       5 -> 25         0.69929

 Excited State  66:      Singlet-A     31.6516 eV   39.17 nm  f=0.0047  <S**2>=0.000
       5 -> 26         0.69930

 Excited State  67:      Singlet-A     32.0464 eV   38.69 nm  f=0.0000  <S**2>=0.000
       2 -> 15         0.70629

 Excited State  68:      Singlet-A     32.2862 eV   38.40 nm  f=0.0239  <S**2>=0.000
       2 -> 16         0.67988
       5 -> 27        -0.16964

 Excited State  69:      Singlet-A     32.9196 eV   37.66 nm  f=0.0011  <S**2>=0.000
       2 -> 17         0.61612
       4 -> 24         0.30049

 Excited State  70:      Singlet-A     32.9196 eV   37.66 nm  f=0.0011  <S**2>=0.000
       2 -> 18         0.61613
       3 -> 24        -0.30048

 Excited State  71:      Singlet-A     33.6177 eV   36.88 nm  f=0.1164  <S**2>=0.000
       2 -> 17        -0.30725
       4 -> 24         0.62101

 Excited State  72:      Singlet-A     33.6178 eV   36.88 nm  f=0.1164  <S**2>=0.000
       2 -> 18         0.30724
       3 -> 24         0.62101

 Excited State  73:      Singlet-A     35.2743 eV   35.15 nm  f=0.0000  <S**2>=0.000
       2 -> 19         0.68221
       2 -> 20         0.15167

 Excited State  74:      Singlet-A     35.2743 eV   35.15 nm  f=0.0000  <S**2>=0.000
       2 -> 19        -0.15167
       2 -> 20         0.68221

 Excited State  75:      Singlet-A     35.4140 eV   35.01 nm  f=0.0109  <S**2>=0.000
       2 -> 16         0.10391
       3 -> 26        -0.25875
       4 -> 25         0.25876
       5 -> 27         0.57609

 Excited State  76:      Singlet-A     37.0133 eV   33.50 nm  f=0.0000  <S**2>=0.000
       3 -> 25         0.48620
       3 -> 26        -0.11154
       4 -> 25         0.11156
       4 -> 26         0.48624

 Excited State  77:      Singlet-A     37.1201 eV   33.40 nm  f=0.0285  <S**2>=0.000
       2 -> 21         0.70266

 Excited State  78:      Singlet-A     37.4126 eV   33.14 nm  f=0.0071  <S**2>=0.000
       2 -> 22         0.36377
       3 -> 25         0.41550
       4 -> 26        -0.41547

 Excited State  79:      Singlet-A     37.4127 eV   33.14 nm  f=0.0071  <S**2>=0.000
       2 -> 23        -0.36377
       3 -> 26         0.41549
       4 -> 25         0.41549

 Excited State  80:      Singlet-A     37.6547 eV   32.93 nm  f=0.0415  <S**2>=0.000
       2 -> 22         0.60101
       3 -> 25        -0.25611
       4 -> 26         0.25609

 Excited State  81:      Singlet-A     37.6547 eV   32.93 nm  f=0.0415  <S**2>=0.000
       2 -> 23         0.60102
       3 -> 26         0.25610
       4 -> 25         0.25610

 Excited State  82:      Singlet-A     39.2857 eV   31.56 nm  f=0.0106  <S**2>=0.000
       4 -> 27         0.69858

 Excited State  83:      Singlet-A     39.2858 eV   31.56 nm  f=0.0106  <S**2>=0.000
       3 -> 27         0.69858

 Excited State  84:      Singlet-A     39.6717 eV   31.25 nm  f=0.0586  <S**2>=0.000
       5 -> 28         0.68817

 Excited State  85:      Singlet-A     39.6717 eV   31.25 nm  f=0.0586  <S**2>=0.000
       5 -> 29         0.68817

 Excited State  86:      Singlet-A     40.0688 eV   30.94 nm  f=0.0193  <S**2>=0.000
       2 -> 16         0.10979
       2 -> 24         0.21963
       3 -> 26         0.37949
       3 -> 29         0.13552
       4 -> 25        -0.37948
       4 -> 28         0.13553
       5 -> 27         0.27914

 Excited State  87:      Singlet-A     43.6011 eV   28.44 nm  f=0.0150  <S**2>=0.000
       2 -> 24         0.20313
       5 -> 30         0.66613

 Excited State  88:      Singlet-A     44.1188 eV   28.10 nm  f=0.0748  <S**2>=0.000
       2 -> 24         0.58263
       3 -> 29        -0.21040
       4 -> 28        -0.21043
       5 -> 30        -0.22829

 Excited State  89:      Singlet-A     44.8520 eV   27.64 nm  f=0.0000  <S**2>=0.000
       3 -> 28        -0.49423
       4 -> 29         0.49423

 Excited State  90:      Singlet-A     45.3094 eV   27.36 nm  f=0.0287  <S**2>=0.000
       3 -> 28         0.44867
       3 -> 29        -0.21069
       4 -> 28         0.21069
       4 -> 29         0.44866

 Excited State  91:      Singlet-A     45.3094 eV   27.36 nm  f=0.0287  <S**2>=0.000
       3 -> 28         0.21068
       3 -> 29         0.44867
       4 -> 28        -0.44866
       4 -> 29         0.21070

 Excited State  92:      Singlet-A     47.8911 eV   25.89 nm  f=0.0337  <S**2>=0.000
       2 -> 25         0.70498

 Excited State  93:      Singlet-A     47.8911 eV   25.89 nm  f=0.0337  <S**2>=0.000
       2 -> 26         0.70498

 Excited State  94:      Singlet-A     48.5172 eV   25.55 nm  f=0.0491  <S**2>=0.000
       2 -> 24         0.25359
       3 -> 26        -0.11937
       3 -> 29         0.41019
       4 -> 25         0.11937
       4 -> 28         0.41018
       5 -> 27        -0.17762

 Excited State  95:      Singlet-A     48.9308 eV   25.34 nm  f=0.0001  <S**2>=0.000
       4 -> 30         0.70286

 Excited State  96:      Singlet-A     48.9309 eV   25.34 nm  f=0.0001  <S**2>=0.000
       3 -> 30         0.70286

 Excited State  97:      Singlet-A     50.1149 eV   24.74 nm  f=0.0966  <S**2>=0.000
       2 -> 27         0.70392

 Excited State  98:      Singlet-A     52.2963 eV   23.71 nm  f=0.0000  <S**2>=0.000
       5 -> 31         0.70699

 Excited State  99:      Singlet-A     52.7254 eV   23.52 nm  f=0.0433  <S**2>=0.000
       5 -> 32         0.69937

 Excited State 100:      Singlet-A     52.7255 eV   23.52 nm  f=0.0433  <S**2>=0.000
       5 -> 33         0.69937

 Excited State 101:      Singlet-A     55.7780 eV   22.23 nm  f=0.0584  <S**2>=0.000
       2 -> 28         0.70094

 Excited State 102:      Singlet-A     55.7781 eV   22.23 nm  f=0.0584  <S**2>=0.000
       2 -> 29         0.70094

 Excited State 103:      Singlet-A     57.7718 eV   21.46 nm  f=0.0015  <S**2>=0.000
       3 -> 32        -0.22602
       4 -> 33        -0.22600
       5 -> 34         0.62523

 Excited State 104:      Singlet-A     57.7740 eV   21.46 nm  f=0.0000  <S**2>=0.000
       3 -> 33        -0.49733
       4 -> 32         0.49757

 Excited State 105:      Singlet-A     57.9601 eV   21.39 nm  f=0.0366  <S**2>=0.000
       4 -> 31         0.70299

 Excited State 106:      Singlet-A     57.9602 eV   21.39 nm  f=0.0365  <S**2>=0.000
       3 -> 31         0.70300

 Excited State 107:      Singlet-A     58.0927 eV   21.34 nm  f=0.0763  <S**2>=0.000
       3 -> 32        -0.20739
       3 -> 33         0.44595
       4 -> 32         0.44573
       4 -> 33         0.20737

 Excited State 108:      Singlet-A     58.0927 eV   21.34 nm  f=0.0764  <S**2>=0.000
       3 -> 32        -0.44583
       3 -> 33        -0.20744
       4 -> 32        -0.20733
       4 -> 33         0.44585

 Excited State 109:      Singlet-A     58.7872 eV   21.09 nm  f=0.3218  <S**2>=0.000
       2 -> 30        -0.14259
       3 -> 32         0.42706
       4 -> 33         0.42706
       5 -> 34         0.31795

 Excited State 110:      Singlet-A     60.1658 eV   20.61 nm  f=0.0353  <S**2>=0.000
       5 -> 35         0.69276

 Excited State 111:      Singlet-A     60.1659 eV   20.61 nm  f=0.0353  <S**2>=0.000
       5 -> 36         0.69276

 Excited State 112:      Singlet-A     60.6343 eV   20.45 nm  f=0.0656  <S**2>=0.000
       2 -> 30         0.67926
       3 -> 32         0.10424
       4 -> 33         0.10424

 Excited State 113:      Singlet-A     62.7661 eV   19.75 nm  f=0.0158  <S**2>=0.000
       4 -> 34         0.69449

 Excited State 114:      Singlet-A     62.7662 eV   19.75 nm  f=0.0158  <S**2>=0.000
       3 -> 34         0.69448

 Excited State 115:      Singlet-A     64.0873 eV   19.35 nm  f=0.0103  <S**2>=0.000
       3 -> 35        -0.15241
       4 -> 36         0.15241
       5 -> 37         0.66354

 Excited State 116:      Singlet-A     64.0873 eV   19.35 nm  f=0.0103  <S**2>=0.000
       3 -> 36         0.15240
       4 -> 35         0.15243
       5 -> 38         0.66354

 Excited State 117:      Singlet-A     65.4473 eV   18.94 nm  f=0.0000  <S**2>=0.000
       3 -> 36        -0.48932
       4 -> 35         0.48980

 Excited State 118:      Singlet-A     65.6145 eV   18.90 nm  f=0.0724  <S**2>=0.000
       3 -> 35         0.45027
       3 -> 36         0.14467
       4 -> 35         0.14443
       4 -> 36        -0.44978
       5 -> 37         0.18574

 Excited State 119:      Singlet-A     65.6146 eV   18.90 nm  f=0.0724  <S**2>=0.000
       3 -> 35        -0.14486
       3 -> 36         0.45022
       4 -> 35         0.44982
       4 -> 36         0.14424
       5 -> 38        -0.18575

 Excited State 120:      Singlet-A     65.6508 eV   18.89 nm  f=0.0015  <S**2>=0.000
       3 -> 35         0.49007
       4 -> 36         0.49071

 Excited State 121:      Singlet-A     68.1882 eV   18.18 nm  f=0.0000  <S**2>=0.000
       2 -> 31         0.68960

 Excited State 122:      Singlet-A     68.6097 eV   18.07 nm  f=0.0087  <S**2>=0.000
       2 -> 32         0.70467

 Excited State 123:      Singlet-A     68.6098 eV   18.07 nm  f=0.0087  <S**2>=0.000
       2 -> 33         0.70467

 Excited State 124:      Singlet-A     69.1770 eV   17.92 nm  f=0.0000  <S**2>=0.000
       2 -> 31        -0.12273
       3 -> 37         0.46206
       3 -> 38        -0.16954
       4 -> 37         0.16958
       4 -> 38         0.46206

 Excited State 125:      Singlet-A     69.7597 eV   17.77 nm  f=0.0129  <S**2>=0.000
       3 -> 37         0.48867
       4 -> 38        -0.48866

 Excited State 126:      Singlet-A     69.7597 eV   17.77 nm  f=0.0129  <S**2>=0.000
       3 -> 38         0.48861
       4 -> 37         0.48872

 The electronic state is 1-A.
 Alpha  occ. eigenvalues --  -14.38387  -0.92543  -0.53420  -0.53419  -0.33713
 Alpha virt. eigenvalues --    0.06147   0.14445   0.14445   0.20599   0.20599
 Alpha virt. eigenvalues --    0.21950   0.26432   0.26432   0.27018   0.39571
 Alpha virt. eigenvalues --    0.39792   0.43974   0.43974   0.52311   0.52311

 Mulliken charges:
               1
     1  N    0.144311
     2  H   -0.048104
     3  H   -0.048105
     4  H   -0.048102
 Sum of Mulliken charges =   0.00000

 Dipole moment (field-independent basis, Debye):
    X=              0.0000    Y=             -0.0000    Z=              1.5564  Tot=              1.5564
 Quadrupole moment (field-independent basis, Debye-Ang):
   XX=             -6.3928   YY=             -6.3928   ZZ=             -9.3081
   XY=              0.0000   XZ=             -0.0001   YZ=              0.0000

 1\1\GINC-HEL25\SP\RCAM-B3LYP TD-FC\Gen\H3N1\SABYASACHI\21-Mar-2022\0\\
 #P TD(Nstates=10000) cam-b3lyp/Gen SCF(maxcycles=100) Int(Grid=ultrafi
 ne)\\xGDB7_00001_tier4.com\\0,1\N,0,0.000002,0.,0.110463\H,0,0.154111,
 0.929092,-0.257758\H,0,0.727563,-0.598011,-0.257757\H,0,-0.881687,-0.3
 31078,-0.257728\\Version=EM64L-G16RevC.01\State=1-A\HF=-56.4934968\RMS
 D=2.522e-09\PG=C01 [X(H3N1)]\\@
 The archive entry for this job was punched.

 Normal termination of Gaussian 16 at Mon Mar 21 20:09:37 2022.
