 Gaussian 16, Revision C.01,
 Gaussian 16:  EM64L-G16RevC.01  3-Jul-2019

 ----------------------------------------------------------------------
 #P TD(Nstates=10000) cam-b3lyp/Gen SCF(maxcycles=100) Int(Grid=ultrafi
 ne)
 ----------------------------------------------------------------------

 ---------------------
 xGDB7_00001_tier4.com
 ---------------------
 Symbolic Z-matrix:
 Charge =  0 Multiplicity = 1

                         Standard orientation:
 ---------------------------------------------------------------------
 Center     Atomic      Atomic             Coordinates (Angstroms)
 Number     Number       Type             X           Y           Z
 ---------------------------------------------------------------------
      1          9           0        0.000000    1.098813   -0.289120
      2          6           0       -0.000000   -0.000000    0.499944
      3          9           0       -0.000000   -1.098813   -0.289120
      4          1           0       -0.911346    0.000000    1.102246
      5          1           0        0.911346   -0.000000    1.102246
 ---------------------------------------------------------------------

 SCF Done:  E(RCAM-B3LYP) =  -238.755336024     A.U. after   11 cycles

 Excitation energies and oscillator strengths:

 Excited State   1:      Singlet-B1     9.4229 eV  131.58 nm  f=0.0284  <S**2>=0.000
      13 -> 14         0.69415
 This state for optimization and/or second-order correction.
 Total Energy, E(TD-HF/TD-DFT) =  -238.409052389
 Copying the excited state density for this state as the 1-particle RhoCI density.

 Excited State   2:      Singlet-A2    10.1127 eV  122.60 nm  f=0.0000  <S**2>=0.000
      13 -> 15         0.67333
      13 -> 19         0.15195
      13 -> 23         0.10314

 Excited State   3:      Singlet-B1    10.7116 eV  115.75 nm  f=0.0189  <S**2>=0.000
      13 -> 16         0.66742
      13 -> 18        -0.18524

 Excited State   4:      Singlet-A1    11.0757 eV  111.94 nm  f=0.0757  <S**2>=0.000
      13 -> 17         0.69909

 Excited State   5:      Singlet-B2    11.2745 eV  109.97 nm  f=0.0300  <S**2>=0.000
      11 -> 15         0.18147
      12 -> 14         0.66143
      12 -> 16         0.13828

 Excited State   6:      Singlet-A1    11.5336 eV  107.50 nm  f=0.0056  <S**2>=0.000
      11 -> 14         0.64035
      12 -> 15         0.26846

 Excited State   7:      Singlet-A2    11.8910 eV  104.27 nm  f=0.0000  <S**2>=0.000
      10 -> 14         0.66237
      10 -> 16         0.15330
      13 -> 19        -0.12923

 Excited State   8:      Singlet-A1    12.1653 eV  101.92 nm  f=0.0183  <S**2>=0.000
      11 -> 14        -0.26207
      12 -> 15         0.60859
      12 -> 19         0.10740
      12 -> 23         0.12583
      13 -> 22        -0.12810

 Excited State   9:      Singlet-B1    12.3492 eV  100.40 nm  f=0.1160  <S**2>=0.000
      10 -> 15         0.13777
      13 -> 16         0.18685
      13 -> 18         0.65241

 Excited State  10:      Singlet-B2    12.3859 eV  100.10 nm  f=0.0325  <S**2>=0.000
      11 -> 15         0.48279
      12 -> 14        -0.22936
      12 -> 16         0.43122

 Excited State  11:      Singlet-B1    12.5505 eV   98.79 nm  f=0.0190  <S**2>=0.000
      10 -> 15         0.62908
      10 -> 19         0.11505
      13 -> 21         0.24257

 Excited State  12:      Singlet-A1    12.7664 eV   97.12 nm  f=0.1365  <S**2>=0.000
      11 -> 16         0.67071
      11 -> 18        -0.13754

 Excited State  13:      Singlet-A2    12.7964 eV   96.89 nm  f=0.0000  <S**2>=0.000
      12 -> 17         0.69666

 Excited State  14:      Singlet-B2    12.8848 eV   96.22 nm  f=0.0815  <S**2>=0.000
      10 -> 17         0.19053
      11 -> 15        -0.35703
      12 -> 16         0.43025
      13 -> 20        -0.35452

 Excited State  15:      Singlet-A2    12.9341 eV   95.86 nm  f=0.0000  <S**2>=0.000
      10 -> 14         0.18949
      10 -> 16        -0.40506
      13 -> 15        -0.12326
      13 -> 19         0.52006

 Excited State  16:      Singlet-B1    12.9673 eV   95.61 nm  f=0.0520  <S**2>=0.000
      11 -> 17         0.69506

 Excited State  17:      Singlet-A2    13.1369 eV   94.38 nm  f=0.0000  <S**2>=0.000
      10 -> 16         0.48523
      10 -> 18        -0.17774
      10 -> 25        -0.11797
      13 -> 15        -0.14059
      13 -> 19         0.32540
      13 -> 23         0.27760

 Excited State  18:      Singlet-B2    13.1929 eV   93.98 nm  f=0.0065  <S**2>=0.000
      10 -> 17         0.45524
      11 -> 15         0.25391
      12 -> 16        -0.28046
      13 -> 20        -0.37059

 Excited State  19:      Singlet-B1    13.4472 eV   92.20 nm  f=0.0018  <S**2>=0.000
      10 -> 15        -0.21199
      10 -> 19        -0.10310
      13 -> 21         0.64700

 Excited State  20:      Singlet-A1    13.6150 eV   91.06 nm  f=0.0598  <S**2>=0.000
      11 -> 18         0.10923
      13 -> 22         0.66864

 Excited State  21:      Singlet-B2    13.7148 eV   90.40 nm  f=0.0529  <S**2>=0.000
      10 -> 17         0.49804
      13 -> 20         0.46609

 Excited State  22:      Singlet-B2    13.8708 eV   89.38 nm  f=0.0019  <S**2>=0.000
      11 -> 19        -0.16889
      12 -> 18         0.64873
      12 -> 25         0.10450

 Excited State  23:      Singlet-A2    14.0487 eV   88.25 nm  f=0.0000  <S**2>=0.000
      10 -> 16        -0.17191
      10 -> 18         0.15320
      13 -> 19        -0.21086
      13 -> 23         0.60593
      13 -> 29         0.10841

 Excited State  24:      Singlet-A1    14.1226 eV   87.79 nm  f=0.0057  <S**2>=0.000
      11 -> 18         0.56103
      12 -> 19        -0.36476

 Excited State  25:      Singlet-A2    14.5566 eV   85.17 nm  f=0.0000  <S**2>=0.000
      10 -> 16         0.17712
      10 -> 18         0.61929
      10 -> 21        -0.14313
      10 -> 24         0.10425
      13 -> 19         0.16787

 Excited State  26:      Singlet-B1    14.6940 eV   84.38 nm  f=0.0120  <S**2>=0.000
       7 -> 14        -0.17207
      10 -> 19        -0.14808
      10 -> 23        -0.15496
      13 -> 18        -0.11389
      13 -> 24         0.38341
      13 -> 25         0.46857

 Excited State  27:      Singlet-A1    14.7094 eV   84.29 nm  f=0.0196  <S**2>=0.000
       8 -> 14         0.11282
      11 -> 16         0.12601
      11 -> 18         0.34692
      11 -> 21        -0.12377
      12 -> 15        -0.13225
      12 -> 19         0.51477
      12 -> 23         0.13915

 Excited State  28:      Singlet-B2    14.7333 eV   84.15 nm  f=0.1428  <S**2>=0.000
       8 -> 15        -0.12432
      11 -> 19        -0.34952
      11 -> 23        -0.14013
      12 -> 21         0.57362

 Excited State  29:      Singlet-A2    14.7884 eV   83.84 nm  f=0.0000  <S**2>=0.000
      11 -> 20        -0.30341
      12 -> 22         0.62417

 Excited State  30:      Singlet-B1    14.8078 eV   83.73 nm  f=0.0286  <S**2>=0.000
       8 -> 17         0.11846
      11 -> 22        -0.41220
      12 -> 20         0.54613

 Excited State  31:      Singlet-B2    14.9988 eV   82.66 nm  f=0.0321  <S**2>=0.000
       8 -> 15        -0.11386
       9 -> 14         0.52275
       9 -> 16         0.16167
      10 -> 22        -0.12577
      11 -> 19         0.26161
      12 -> 18         0.14450
      12 -> 21         0.21372

 Excited State  32:      Singlet-B1    15.1148 eV   82.03 nm  f=0.0082  <S**2>=0.000
       7 -> 14         0.32356
       7 -> 16         0.11922
      10 -> 19         0.48984
      13 -> 24         0.32345

 Excited State  33:      Singlet-A1    15.2732 eV   81.18 nm  f=0.0041  <S**2>=0.000
       8 -> 14         0.38573
       9 -> 15        -0.12079
      10 -> 20         0.11449
      11 -> 21         0.54914

 Excited State  34:      Singlet-B2    15.2782 eV   81.15 nm  f=0.0127  <S**2>=0.000
       9 -> 14        -0.41558
      10 -> 22        -0.15733
      11 -> 15        -0.12203
      11 -> 19         0.42872
      12 -> 18         0.13512
      12 -> 21         0.22482

 Excited State  35:      Singlet-A2    15.3255 eV   80.90 nm  f=0.0000  <S**2>=0.000
       7 -> 15        -0.24984
      10 -> 18         0.10119
      10 -> 21         0.40597
      11 -> 20         0.41447
      12 -> 22         0.23992
      13 -> 29         0.10033

 Excited State  36:      Singlet-B1    15.3515 eV   80.76 nm  f=0.1262  <S**2>=0.000
       7 -> 14         0.43271
      10 -> 19        -0.23196
      11 -> 22         0.37094
      12 -> 20         0.29624

 Excited State  37:      Singlet-A1    15.3644 eV   80.70 nm  f=0.0433  <S**2>=0.000
       8 -> 14         0.50111
       9 -> 15         0.10342
      10 -> 20        -0.25113
      11 -> 21        -0.26173
      12 -> 19        -0.20401
      12 -> 23         0.16865

 Excited State  38:      Singlet-B1    15.3896 eV   80.56 nm  f=0.0388  <S**2>=0.000
       7 -> 14        -0.39189
      10 -> 19         0.22597
      11 -> 22         0.41284
      12 -> 20         0.27753
      13 -> 25        -0.15582

 Excited State  39:      Singlet-A2    15.4182 eV   80.41 nm  f=0.0000  <S**2>=0.000
       7 -> 15         0.20491
      10 -> 21        -0.41387
      11 -> 20         0.45515
      12 -> 22         0.18965

 Excited State  40:      Singlet-A1    15.6928 eV   79.01 nm  f=0.0024  <S**2>=0.000
       8 -> 14        -0.21392
       8 -> 16        -0.18623
       9 -> 15        -0.20967
      10 -> 20        -0.33084
      11 -> 21         0.15554
      12 -> 23         0.42024

 Excited State  41:      Singlet-B2    15.7604 eV   78.67 nm  f=0.0494  <S**2>=0.000
       9 -> 16         0.20717
      10 -> 22         0.58204
      11 -> 19         0.16767
      11 -> 23        -0.17160
      13 -> 26         0.11025

 Excited State  42:      Singlet-B2    15.8780 eV   78.09 nm  f=0.0080  <S**2>=0.000
       8 -> 15        -0.21559
       9 -> 16        -0.14412
      10 -> 22         0.16705
      11 -> 19        -0.11021
      11 -> 23         0.54288
      12 -> 24        -0.15585
      12 -> 25        -0.15012

 Excited State  43:      Singlet-A1    15.9316 eV   77.82 nm  f=0.0095  <S**2>=0.000
       9 -> 15        -0.31264
       9 -> 19        -0.11346
      10 -> 20         0.48361
      11 -> 21        -0.20342
      12 -> 23         0.28243

 Excited State  44:      Singlet-B1    16.0044 eV   77.47 nm  f=0.0782  <S**2>=0.000
      10 -> 19         0.20393
      10 -> 23         0.21570
      13 -> 24        -0.41087
      13 -> 25         0.46739

 Excited State  45:      Singlet-A2    16.0528 eV   77.24 nm  f=0.0000  <S**2>=0.000
       7 -> 15         0.57871
       7 -> 19         0.17477
       7 -> 23         0.13346
      10 -> 21         0.30096

 Excited State  46:      Singlet-B2    16.0604 eV   77.20 nm  f=0.0899  <S**2>=0.000
       8 -> 15         0.59621
       8 -> 19         0.12439
       9 -> 16        -0.13345
      11 -> 23         0.12259
      12 -> 21         0.16294
      12 -> 24        -0.11139
      13 -> 26         0.12273

 Excited State  47:      Singlet-A1    16.1442 eV   76.80 nm  f=0.0886  <S**2>=0.000
       7 -> 17         0.10770
       9 -> 15         0.51570
      10 -> 20         0.19070
      11 -> 21         0.10087
      12 -> 23         0.31619

 Excited State  48:      Singlet-B1    16.3958 eV   75.62 nm  f=0.0255  <S**2>=0.000
       7 -> 16        -0.27111
      10 -> 19        -0.15358
      10 -> 23         0.55036
      13 -> 24         0.23202

 Excited State  49:      Singlet-B2    16.4784 eV   75.24 nm  f=0.0193  <S**2>=0.000
       9 -> 14        -0.16172
       9 -> 16         0.58411
      10 -> 22        -0.10706
      11 -> 19        -0.12000
      11 -> 23         0.22424
      12 -> 25         0.12383

 Excited State  50:      Singlet-A1    16.5223 eV   75.04 nm  f=0.1043  <S**2>=0.000
       8 -> 16         0.61739
       8 -> 18        -0.14989
      11 -> 25         0.10769
      12 -> 23         0.17090

 Excited State  51:      Singlet-A2    16.6212 eV   74.59 nm  f=0.0000  <S**2>=0.000
       9 -> 17         0.68880
      11 -> 20        -0.11235

 Excited State  52:      Singlet-B1    16.6433 eV   74.50 nm  f=0.0290  <S**2>=0.000
       7 -> 16        -0.15699
       8 -> 17         0.64071
      10 -> 23        -0.15835
      12 -> 20        -0.10465

 Excited State  53:      Singlet-B2    16.7579 eV   73.99 nm  f=0.1532  <S**2>=0.000
      12 -> 24         0.11726
      12 -> 25         0.11393
      13 -> 26         0.65737

 Excited State  54:      Singlet-A1    16.8165 eV   73.73 nm  f=0.0012  <S**2>=0.000
       7 -> 17         0.43687
      11 -> 24         0.33153
      11 -> 25         0.34172
      12 -> 23         0.10634
      13 -> 27         0.14131

 Excited State  55:      Singlet-B1    16.8494 eV   73.58 nm  f=0.0460  <S**2>=0.000
       7 -> 16         0.58299
       7 -> 18        -0.12284
       8 -> 17         0.21251
      10 -> 19        -0.13891
      10 -> 23         0.21522
      13 -> 28         0.12687

 Excited State  56:      Singlet-A1    17.1115 eV   72.46 nm  f=0.0666  <S**2>=0.000
       7 -> 17        -0.40989
      11 -> 25         0.18391
      13 -> 27         0.50017

 Excited State  57:      Singlet-B2    17.1803 eV   72.17 nm  f=0.0438  <S**2>=0.000
       9 -> 16        -0.12012
       9 -> 18        -0.23805
       9 -> 21         0.10056
      10 -> 22         0.11962
      11 -> 23         0.18276
      12 -> 21         0.13303
      12 -> 24         0.53285
      12 -> 25         0.17171

 Excited State  58:      Singlet-A1    17.2287 eV   71.96 nm  f=0.0158  <S**2>=0.000
       7 -> 17         0.27005
       8 -> 16         0.13161
       9 -> 15        -0.14431
      11 -> 24        -0.32906
      11 -> 25        -0.19049
      13 -> 27         0.42796
      13 -> 30         0.10329

 Excited State  59:      Singlet-A2    17.2315 eV   71.95 nm  f=0.0000  <S**2>=0.000
      10 -> 21        -0.14219
      13 -> 23        -0.15691
      13 -> 29         0.66221

 Excited State  60:      Singlet-A2    17.3181 eV   71.59 nm  f=0.0000  <S**2>=0.000
      10 -> 18        -0.14667
      10 -> 21         0.10555
      10 -> 24         0.46796
      10 -> 25         0.45485
      10 -> 28        -0.10746

 Excited State  61:      Singlet-B1    17.3473 eV   71.47 nm  f=0.0300  <S**2>=0.000
      10 -> 23        -0.11621
      13 -> 28         0.67203

 Excited State  62:      Singlet-B2    17.6204 eV   70.36 nm  f=0.0300  <S**2>=0.000
       9 -> 16        -0.12832
       9 -> 18        -0.24811
       9 -> 21         0.10637
      11 -> 19         0.12627
      12 -> 24        -0.36419
      12 -> 25         0.47370

 Excited State  63:      Singlet-A1    17.7890 eV   69.70 nm  f=0.0190  <S**2>=0.000
       8 -> 16         0.10844
       8 -> 18         0.20197
      11 -> 24         0.42474
      11 -> 25        -0.42430
      13 -> 30        -0.21239

 Excited State  64:      Singlet-A2    18.0937 eV   68.52 nm  f=0.0000  <S**2>=0.000
       7 -> 19        -0.18010
      10 -> 24         0.48578
      10 -> 25        -0.44827

 Excited State  65:      Singlet-A1    18.0993 eV   68.50 nm  f=0.0444  <S**2>=0.000
       8 -> 16         0.13060
       8 -> 18         0.59517
       8 -> 21        -0.11765
       9 -> 23        -0.12703
      11 -> 25         0.20528

 Excited State  66:      Singlet-B2    18.1405 eV   68.35 nm  f=0.0624  <S**2>=0.000
       9 -> 18         0.55892
       9 -> 21         0.14970
      10 -> 22         0.11674
      11 -> 23         0.12980
      11 -> 29        -0.17949
      12 -> 25         0.22181

 Excited State  67:      Singlet-B1    18.1629 eV   68.26 nm  f=0.0551  <S**2>=0.000
       7 -> 16         0.15764
       7 -> 18         0.62351
       8 -> 22        -0.11617
      12 -> 26         0.13439

 Excited State  68:      Singlet-A1    18.2737 eV   67.85 nm  f=0.0018  <S**2>=0.000
       7 -> 22        -0.14308
       8 -> 21         0.10842
       9 -> 19         0.15270
      10 -> 26         0.10506
      11 -> 24         0.20014
      11 -> 25        -0.14585
      13 -> 30         0.56837

 Excited State  69:      Singlet-B1    18.4886 eV   67.06 nm  f=0.0438  <S**2>=0.000
       7 -> 18        -0.15819
       8 -> 22        -0.24769
       9 -> 20        -0.11928
      12 -> 26         0.61504

 Excited State  70:      Singlet-A2    18.5399 eV   66.87 nm  f=0.0000  <S**2>=0.000
       9 -> 22        -0.39191
      11 -> 26         0.54233
      12 -> 27        -0.18348

 Excited State  71:      Singlet-A2    18.6231 eV   66.58 nm  f=0.0000  <S**2>=0.000
       8 -> 20         0.36187
       9 -> 22         0.43106
      11 -> 26         0.13224
      12 -> 27        -0.38938

 Excited State  72:      Singlet-B2    18.6459 eV   66.49 nm  f=0.0794  <S**2>=0.000
       8 -> 15        -0.10350
       8 -> 19         0.41702
       8 -> 23         0.18718
       9 -> 21         0.41126
      11 -> 29        -0.11945
      12 -> 25        -0.22130
      12 -> 28        -0.13154

 Excited State  73:      Singlet-B1    18.6896 eV   66.34 nm  f=0.0002  <S**2>=0.000
       6 -> 17        -0.10030
       8 -> 22         0.26447
       9 -> 20         0.54755
      11 -> 27        -0.25736
      12 -> 26         0.20949

 Excited State  74:      Singlet-A1    18.7436 eV   66.15 nm  f=0.0026  <S**2>=0.000
       8 -> 18        -0.14999
       8 -> 21        -0.38514
       9 -> 19         0.17753
      11 -> 24         0.10378
      12 -> 29         0.49131

 Excited State  75:      Singlet-A2    18.9336 eV   65.48 nm  f=0.0000  <S**2>=0.000
       7 -> 15        -0.17407
       7 -> 19         0.50519
       7 -> 23         0.20608
       9 -> 22        -0.15809
      10 -> 25        -0.17388
      11 -> 26        -0.20991
      12 -> 27        -0.18499

 Excited State  76:      Singlet-A1    18.9563 eV   65.41 nm  f=0.0334  <S**2>=0.000
       7 -> 22        -0.16553
       8 -> 21         0.12546
       9 -> 19         0.55511
      10 -> 26        -0.16490
      13 -> 30        -0.21241
      13 -> 31        -0.11731

 Excited State  77:      Singlet-A2    18.9876 eV   65.30 nm  f=0.0000  <S**2>=0.000
       7 -> 19         0.24501
       7 -> 23         0.12949
       9 -> 22         0.26883
      11 -> 26         0.32607
      12 -> 27         0.44779

 Excited State  78:      Singlet-B1    18.9962 eV   65.27 nm  f=0.0004  <S**2>=0.000
       7 -> 21        -0.37488
       8 -> 22         0.40476
       9 -> 20        -0.18108
      10 -> 29         0.20062
      11 -> 27         0.21287
      12 -> 26         0.19504
      13 -> 32         0.12878

 Excited State  79:      Singlet-B2    19.0002 eV   65.25 nm  f=0.0503  <S**2>=0.000
       7 -> 20         0.15361
       8 -> 15         0.10504
       8 -> 19        -0.34593
       9 -> 21         0.48158
      11 -> 29         0.11978
      12 -> 28         0.23858

 Excited State  80:      Singlet-A1    19.0706 eV   65.01 nm  f=0.1192  <S**2>=0.000
       7 -> 22         0.50024
      10 -> 26        -0.44138
      13 -> 30         0.17319

 Excited State  81:      Singlet-B2    19.0908 eV   64.94 nm  f=0.0283  <S**2>=0.000
       7 -> 20         0.58342
       8 -> 19         0.12233
       9 -> 21        -0.10241
      10 -> 27        -0.31029
      12 -> 28         0.11128

 Excited State  82:      Singlet-B1    19.0956 eV   64.93 nm  f=0.0805  <S**2>=0.000
       7 -> 18         0.13189
       7 -> 21         0.46245
       8 -> 22         0.38643
       9 -> 20        -0.21528
      10 -> 29        -0.19982

 Excited State  83:      Singlet-A2    19.1955 eV   64.59 nm  f=0.0000  <S**2>=0.000
       8 -> 20         0.58444
       9 -> 22        -0.21333
      11 -> 26        -0.15988
      12 -> 27         0.24864

 Excited State  84:      Singlet-A1    19.2129 eV   64.53 nm  f=0.0353  <S**2>=0.000
       6 -> 14         0.13317
       7 -> 22         0.22195
       8 -> 21         0.21744
       9 -> 19         0.18599
       9 -> 23        -0.11083
      10 -> 26         0.32202
      11 -> 28         0.25222
      13 -> 31         0.37700

 Excited State  85:      Singlet-B1    19.2206 eV   64.51 nm  f=0.0066  <S**2>=0.000
       7 -> 21         0.11295
       9 -> 20         0.29679
      11 -> 27         0.59365

 Excited State  86:      Singlet-B2    19.2293 eV   64.48 nm  f=0.0342  <S**2>=0.000
       7 -> 20        -0.17648
       8 -> 19         0.31724
      11 -> 29         0.17400
      12 -> 28         0.54906

 Excited State  87:      Singlet-A1    19.3346 eV   64.13 nm  f=0.0119  <S**2>=0.000
       8 -> 21         0.45009
       9 -> 19        -0.14056
       9 -> 23         0.14831
      12 -> 23        -0.10197
      12 -> 29         0.41956
      13 -> 31        -0.18612

 Excited State  88:      Singlet-A1    19.4063 eV   63.89 nm  f=0.0322  <S**2>=0.000
       7 -> 22        -0.29535
      10 -> 26        -0.32478
      13 -> 31         0.52028

 Excited State  89:      Singlet-B1    19.4361 eV   63.79 nm  f=0.0089  <S**2>=0.000
      10 -> 29        -0.10309
      11 -> 27        -0.10889
      13 -> 32         0.66739

 Excited State  90:      Singlet-B2    19.4765 eV   63.66 nm  f=0.0180  <S**2>=0.000
       7 -> 20        -0.18730
      10 -> 27        -0.43201
      11 -> 29         0.44438
      12 -> 28        -0.19154

 Excited State  91:      Singlet-A1    19.4960 eV   63.59 nm  f=0.0258  <S**2>=0.000
       6 -> 14         0.14975
       7 -> 22        -0.12179
       9 -> 19        -0.10683
      10 -> 26        -0.19571
      11 -> 28         0.57775
      12 -> 29        -0.12990

 Excited State  92:      Singlet-A1    19.5963 eV   63.27 nm  f=0.0148  <S**2>=0.000
       6 -> 14         0.61856
       9 -> 23         0.22906
      11 -> 28        -0.15628

 Excited State  93:      Singlet-B2    19.6350 eV   63.14 nm  f=0.0026  <S**2>=0.000
       7 -> 20         0.21287
       8 -> 19         0.11822
       8 -> 23        -0.12974
       9 -> 18         0.10226
       9 -> 24        -0.10892
       9 -> 25        -0.12617
      10 -> 27         0.41759
      11 -> 29         0.39246
      12 -> 28        -0.18678

 Excited State  94:      Singlet-A2    19.6661 eV   63.04 nm  f=0.0000  <S**2>=0.000
       7 -> 19         0.24454

 The electronic state is 1-A1.
 Alpha  occ. eigenvalues --  -24.79224 -24.79222 -10.43396  -1.33530  -1.27394
 Alpha  occ. eigenvalues --   -0.78992  -0.63995  -0.63630  -0.63193  -0.51396
 Alpha  occ. eigenvalues --   -0.50016  -0.49148  -0.42696
 Alpha virt. eigenvalues --    0.04981   0.09515   0.10534   0.10649   0.15825
 Alpha virt. eigenvalues --    0.17715   0.18322   0.18735   0.19403   0.23229
 Alpha virt. eigenvalues --    0.27677   0.29380   0.31781   0.33262   0.34545

 Mulliken charges:
               1
     1  F   -0.386521
     2  C    1.239304
     3  F   -0.386521
     4  H   -0.233131
     5  H   -0.233131
 Sum of Mulliken charges =  -0.00000

 Dipole moment (field-independent basis, Debye):
    X=              0.0000    Y=              0.0000    Z=              2.0246  Tot=              2.0246
 Quadrupole moment (field-independent basis, Debye-Ang):
   XX=            -15.5202   YY=            -19.4951   ZZ=            -15.5842
   XY=             -0.0000   XZ=             -0.0000   YZ=              0.0000

 Normal termination of Gaussian 16 at Mon Mar 21 20:10:17 2022.
