 Gaussian 16, Revision C.01,
 Gaussian 16:  EM64L-G16RevC.01  3-Jul-2019

 ----------------------------------------------------------------------
 #P TD(Nstates=10000) tpsstpss/Gen SCF(maxcycles=100) Int(Grid=ultrafin
 e)
 ----------------------------------------------------------------------

 ---------------------
 xGDB7_00001_tier4.com
 ---------------------
 Symbolic Z-matrix:
 Charge =  0 Multiplicity = 1

                         Standard orientation:
 ---------------------------------------------------------------------
 Center     Atomic      Atomic             Coordinates (Angstroms)
 Number     Number       Type             X           Y           Z
 ---------------------------------------------------------------------
      1          7           0        1.106441    0.142513   -0.090982
      2          7           0       -0.080753   -0.512520    0.006066
      3          6           0       -1.148696    0.167456    0.008166
      4          1           0        1.854749   -0.409916    0.291533
      5          1           0        1.109676    1.100453    0.242713
      6          1           0       -2.089851   -0.366199    0.035249
      7          1           0       -1.162209    1.260974   -0.024080
 ---------------------------------------------------------------------

 SCF Done:  E(RTPSS-TPSS) =  -149.888269182     A.U. after   13 cycles

 Excitation energies and oscillator strengths:

 Excited State   1:      Singlet-A      5.8368 eV  212.42 nm  f=0.0689  <S**2>=0.000
      11 -> 13         0.48931
      12 -> 13         0.47080
      12 -> 14         0.17121
 This state for optimization and/or second-order correction.
 Total Energy, E(TD-HF/TD-DFT) =  -149.673772190
 Copying the excited state density for this state as the 1-particle RhoCI density.

 Excited State   2:      Singlet-A      5.9628 eV  207.93 nm  f=0.0606  <S**2>=0.000
      11 -> 13         0.48536
      12 -> 13        -0.36207
      12 -> 14        -0.35587

 Excited State   3:      Singlet-A      6.2389 eV  198.73 nm  f=0.0818  <S**2>=0.000
      11 -> 13         0.15100
      12 -> 13        -0.34660
      12 -> 14         0.58407

 Excited State   4:      Singlet-A      6.9576 eV  178.20 nm  f=0.0265  <S**2>=0.000
      12 -> 15         0.70351

 Excited State   5:      Singlet-A      7.0056 eV  176.98 nm  f=0.0435  <S**2>=0.000
      11 -> 14         0.70099

 Excited State   6:      Singlet-A      7.6613 eV  161.83 nm  f=0.0079  <S**2>=0.000
      11 -> 15        -0.15543
      12 -> 16         0.68830

 Excited State   7:      Singlet-A      7.7408 eV  160.17 nm  f=0.0317  <S**2>=0.000
      11 -> 15         0.68467
      12 -> 16         0.15066

 Excited State   8:      Singlet-A      8.4945 eV  145.96 nm  f=0.0153  <S**2>=0.000
      11 -> 16         0.14227
      12 -> 17         0.68944

 Excited State   9:      Singlet-A      8.5247 eV  145.44 nm  f=0.0978  <S**2>=0.000
      11 -> 16         0.68368
      12 -> 17        -0.13981

 Excited State  10:      Singlet-A      8.7897 eV  141.06 nm  f=0.0081  <S**2>=0.000
      12 -> 18         0.70098

 Excited State  11:      Singlet-A      9.2131 eV  134.57 nm  f=0.0057  <S**2>=0.000
      12 -> 19         0.69121

 Excited State  12:      Singlet-A      9.3453 eV  132.67 nm  f=0.0561  <S**2>=0.000
      10 -> 13         0.12786
      11 -> 17         0.68297

 Excited State  13:      Singlet-A      9.5318 eV  130.07 nm  f=0.0070  <S**2>=0.000
       9 -> 13         0.57662
      10 -> 13         0.30060
      11 -> 18        -0.20907

 Excited State  14:      Singlet-A      9.5686 eV  129.57 nm  f=0.0801  <S**2>=0.000
       9 -> 13         0.19388
      11 -> 18         0.67024

 Excited State  15:      Singlet-A      9.9642 eV  124.43 nm  f=0.0452  <S**2>=0.000
       9 -> 13        -0.23059
      10 -> 13         0.31503
      10 -> 14         0.32113
      11 -> 19         0.46919

 Excited State  16:      Singlet-A     10.0352 eV  123.55 nm  f=0.0407  <S**2>=0.000
       9 -> 13         0.15715
      10 -> 13        -0.20536
      10 -> 14        -0.37519
      11 -> 19         0.50631
      12 -> 20        -0.12913

 Excited State  17:      Singlet-A     10.2456 eV  121.01 nm  f=0.0424  <S**2>=0.000
       9 -> 13         0.17802
      10 -> 13        -0.34514
      10 -> 14         0.49085
      12 -> 20        -0.20258
      12 -> 21        -0.17214

 Excited State  18:      Singlet-A     10.3756 eV  119.50 nm  f=0.0179  <S**2>=0.000
      12 -> 20        -0.31372
      12 -> 21         0.62144

 Excited State  19:      Singlet-A     10.5041 eV  118.03 nm  f=0.0334  <S**2>=0.000
       9 -> 14         0.14538
      10 -> 13        -0.19922
      12 -> 20         0.54544
      12 -> 21         0.25693

 Excited State  20:      Singlet-A     10.7507 eV  115.33 nm  f=0.0305  <S**2>=0.000
       9 -> 14        -0.15438
      12 -> 22         0.68539

 Excited State  21:      Singlet-A     10.8840 eV  113.91 nm  f=0.0261  <S**2>=0.000
      10 -> 15         0.15576
      11 -> 20         0.67643

 Excited State  22:      Singlet-A     10.9152 eV  113.59 nm  f=0.0445  <S**2>=0.000
       9 -> 14        -0.37990
      10 -> 15         0.56030
      11 -> 20        -0.13927

 Excited State  23:      Singlet-A     10.9505 eV  113.22 nm  f=0.0899  <S**2>=0.000
       9 -> 14         0.52368
      10 -> 13         0.10688
      10 -> 15         0.38886
      11 -> 21         0.12614
      12 -> 22         0.13423

 Excited State  24:      Singlet-A     11.1767 eV  110.93 nm  f=0.0456  <S**2>=0.000
       9 -> 14        -0.11821
      11 -> 21         0.66052
      12 -> 23         0.15797

 Excited State  25:      Singlet-A     11.3935 eV  108.82 nm  f=0.0293  <S**2>=0.000
       9 -> 15         0.11254
      11 -> 21        -0.11872
      11 -> 22         0.16600
      12 -> 23         0.61482
      12 -> 24        -0.17415

 Excited State  26:      Singlet-A     11.4779 eV  108.02 nm  f=0.0273  <S**2>=0.000
      11 -> 22         0.25248
      12 -> 23         0.11017
      12 -> 24         0.64177

 Excited State  27:      Singlet-A     11.5396 eV  107.44 nm  f=0.0452  <S**2>=0.000
      10 -> 16         0.16120
      11 -> 22         0.61382
      12 -> 23        -0.16691
      12 -> 24        -0.20847

 Excited State  28:      Singlet-A     11.6446 eV  106.47 nm  f=0.0322  <S**2>=0.000
      10 -> 16         0.68345
      11 -> 22        -0.13477

 Excited State  29:      Singlet-A     11.7417 eV  105.59 nm  f=0.0514  <S**2>=0.000
       9 -> 15         0.68278
      12 -> 23        -0.11682

 Excited State  30:      Singlet-A     11.8734 eV  104.42 nm  f=0.0100  <S**2>=0.000
       8 -> 13         0.64032
      11 -> 23        -0.13281
      12 -> 25         0.19532

 Excited State  31:      Singlet-A     11.9586 eV  103.68 nm  f=0.0026  <S**2>=0.000
      11 -> 23         0.66321
      12 -> 25         0.20278

 Excited State  32:      Singlet-A     12.1104 eV  102.38 nm  f=0.0921  <S**2>=0.000
       8 -> 13        -0.21007
      11 -> 23        -0.17862
      12 -> 25         0.61790
      12 -> 26         0.10753

 Excited State  33:      Singlet-A     12.3267 eV  100.58 nm  f=0.0753  <S**2>=0.000
       9 -> 16         0.11337
      11 -> 24         0.27514
      12 -> 25        -0.12358
      12 -> 26         0.60149

 Excited State  34:      Singlet-A     12.4289 eV   99.75 nm  f=0.0106  <S**2>=0.000
       7 -> 13        -0.18900
       9 -> 16        -0.12238
      10 -> 17        -0.36327
      11 -> 24         0.49639
      11 -> 25         0.15300
      12 -> 26        -0.15797

 Excited State  35:      Singlet-A     12.4835 eV   99.32 nm  f=0.0577  <S**2>=0.000
       7 -> 13         0.13374
       9 -> 16         0.64212
      12 -> 26        -0.16819

 Excited State  36:      Singlet-A     12.5218 eV   99.01 nm  f=0.0136  <S**2>=0.000
      10 -> 17         0.55480
      11 -> 24         0.27953
      11 -> 25         0.16198
      12 -> 26        -0.19305
      12 -> 27         0.17177

 Excited State  37:      Singlet-A     12.5347 eV   98.91 nm  f=0.0087  <S**2>=0.000
       7 -> 13         0.64932
       9 -> 16        -0.17059
      10 -> 17        -0.10590

 Excited State  38:      Singlet-A     12.6865 eV   97.73 nm  f=0.0314  <S**2>=0.000
      10 -> 17        -0.13426
      12 -> 27         0.66425

 Excited State  39:      Singlet-A     12.8095 eV   96.79 nm  f=0.0275  <S**2>=0.000
      10 -> 18         0.68359
      10 -> 19        -0.10260

 Excited State  40:      Singlet-A     12.9910 eV   95.44 nm  f=0.0098  <S**2>=0.000
       8 -> 14         0.32788
      11 -> 24        -0.13219
      11 -> 25         0.57082

 Excited State  41:      Singlet-A     13.1358 eV   94.39 nm  f=0.0134  <S**2>=0.000
      10 -> 19         0.15594
      11 -> 26         0.60604
      11 -> 27        -0.28051

 Excited State  42:      Singlet-A     13.1974 eV   93.95 nm  f=0.0102  <S**2>=0.000
       8 -> 14         0.54406
       9 -> 17         0.14318
       9 -> 18         0.10769
      10 -> 19        -0.16569
      11 -> 25        -0.25200
      11 -> 26         0.10363
      11 -> 27        -0.14161

 Excited State  43:      Singlet-A     13.2228 eV   93.77 nm  f=0.1198  <S**2>=0.000
       6 -> 13         0.10822
       8 -> 14         0.14400
       9 -> 17         0.14345
      10 -> 19         0.63451
      11 -> 26        -0.10107

 Excited State  44:      Singlet-A     13.3603 eV   92.80 nm  f=0.0250  <S**2>=0.000
       8 -> 14        -0.16459
       8 -> 15        -0.10916
       9 -> 17         0.62928
       9 -> 18         0.12139
      10 -> 19        -0.10219
      11 -> 25         0.10148

 Excited State  45:      Singlet-A     13.5715 eV   91.36 nm  f=0.0299  <S**2>=0.000
       7 -> 14        -0.12193
       8 -> 15        -0.13339
      11 -> 26         0.26615
      11 -> 27         0.60221

 Excited State  46:      Singlet-A     13.6091 eV   91.10 nm  f=0.0084  <S**2>=0.000
       7 -> 14         0.11931
       8 -> 15         0.15859
       9 -> 17        -0.10070
       9 -> 18         0.64141
       9 -> 19         0.12068

 Excited State  47:      Singlet-A     13.8623 eV   89.44 nm  f=0.1194  <S**2>=0.000
       7 -> 14         0.64305
       8 -> 15        -0.21882
       9 -> 19        -0.10999

 Excited State  48:      Singlet-A     13.9707 eV   88.75 nm  f=0.0163  <S**2>=0.000
       7 -> 14         0.12552
       8 -> 15         0.52899
       9 -> 19        -0.19891
      10 -> 20        -0.18163
      11 -> 27         0.10150
      12 -> 28        -0.25487
      12 -> 29         0.12871

 Excited State  49:      Singlet-A     14.0862 eV   88.02 nm  f=0.0309  <S**2>=0.000
       8 -> 15         0.17566
       9 -> 19        -0.14482
      12 -> 28         0.64322

 Excited State  50:      Singlet-A     14.1194 eV   87.81 nm  f=0.0885  <S**2>=0.000
       7 -> 14         0.12965
       9 -> 19         0.51967
      10 -> 20        -0.37151
      12 -> 29        -0.13900

 Excited State  51:      Singlet-A     14.2208 eV   87.19 nm  f=0.0610  <S**2>=0.000
       9 -> 19         0.28135
      10 -> 20         0.25499
      12 -> 29         0.55664

 Excited State  52:      Singlet-A     14.3046 eV   86.67 nm  f=0.0087  <S**2>=0.000
       7 -> 16        -0.14298
       8 -> 15         0.19979
       9 -> 17         0.10275
       9 -> 18        -0.10172
       9 -> 19         0.12415
      10 -> 20         0.43105
      10 -> 21         0.16795
      10 -> 22        -0.10898
      12 -> 29        -0.34962
      12 -> 30         0.12515

 Excited State  53:      Singlet-A     14.3651 eV   86.31 nm  f=0.0224  <S**2>=0.000
      10 -> 21         0.67160
      12 -> 29         0.13342

 Excited State  54:      Singlet-A     14.4796 eV   85.63 nm  f=0.0071  <S**2>=0.000
      12 -> 30         0.67441

 Excited State  55:      Singlet-A     14.5962 eV   84.94 nm  f=0.0739  <S**2>=0.000
       7 -> 15         0.29497
       8 -> 16         0.60104
      10 -> 22         0.15414

 Excited State  56:      Singlet-A     14.6647 eV   84.55 nm  f=0.0182  <S**2>=0.000
       7 -> 15         0.61084
       8 -> 16        -0.28735

 Excited State  57:      Singlet-A     14.7861 eV   83.85 nm  f=0.0242  <S**2>=0.000
       7 -> 15        -0.10961
       8 -> 16        -0.10082
      10 -> 22         0.56759
      11 -> 28         0.32176

 Excited State  58:      Singlet-A     14.8259 eV   83.63 nm  f=0.0101  <S**2>=0.000
       6 -> 13         0.13056
       9 -> 20         0.67084

 Excited State  59:      Singlet-A     14.8715 eV   83.37 nm  f=0.0889  <S**2>=0.000
       6 -> 13         0.14625
      10 -> 22        -0.27325
      11 -> 28         0.58866

 Excited State  60:      Singlet-A     14.9856 eV   82.74 nm  f=0.0132  <S**2>=0.000
       6 -> 13         0.39593
       9 -> 20        -0.11431
       9 -> 21         0.25882
      11 -> 29         0.43441
      12 -> 31        -0.10256

 Excited State  61:      Singlet-A     15.0496 eV   82.38 nm  f=0.0076  <S**2>=0.000
       6 -> 13        -0.36380
       7 -> 16         0.10389
       9 -> 22         0.11707
      11 -> 28         0.13249
      11 -> 29         0.39399
      12 -> 31        -0.34152

 Excited State  62:      Singlet-A     15.0546 eV   82.36 nm  f=0.0590  <S**2>=0.000
       7 -> 16         0.11036
      10 -> 23         0.10745
      11 -> 29         0.31264
      12 -> 31         0.58901

 Excited State  63:      Singlet-A     15.1653 eV   81.76 nm  f=0.0393  <S**2>=0.000
       6 -> 13        -0.19069
       9 -> 21         0.58667
      10 -> 23        -0.15481
      11 -> 30        -0.19355
      12 -> 31         0.10679

 Excited State  64:      Singlet-A     15.2754 eV   81.17 nm  f=0.0014  <S**2>=0.000
       8 -> 17        -0.23467
      10 -> 23        -0.44404
      11 -> 30         0.44573
      12 -> 32        -0.11132

 Excited State  65:      Singlet-A     15.3274 eV   80.89 nm  f=0.0664  <S**2>=0.000
       8 -> 17        -0.12948
       9 -> 21         0.17422
      10 -> 23         0.40183
      10 -> 24        -0.14555
      11 -> 29        -0.13751
      11 -> 30         0.42884
      12 -> 32         0.13954

 Excited State  66:      Singlet-A     15.4082 eV   80.47 nm  f=0.0103  <S**2>=0.000
       8 -> 17        -0.17062
      12 -> 32         0.64504

 Excited State  67:      Singlet-A     15.4823 eV   80.08 nm  f=0.0602  <S**2>=0.000
       6 -> 13         0.10108
       6 -> 14         0.15801
       7 -> 16        -0.16525
       8 -> 17        -0.22535
       9 -> 22         0.49463
      10 -> 24        -0.27705
      12 -> 32        -0.11431
      12 -> 33         0.13635

 Excited State  68:      Singlet-A     15.5098 eV   79.94 nm  f=0.0619  <S**2>=0.000
       7 -> 16        -0.16736
       9 -> 22         0.25845
      10 -> 23         0.10543
      10 -> 24         0.58495

 Excited State  69:      Singlet-A     15.5941 eV   79.51 nm  f=0.0133  <S**2>=0.000
       6 -> 14        -0.18647
       7 -> 16         0.40844
       7 -> 17        -0.13259
       8 -> 17        -0.21518
       8 -> 18         0.12172
      10 -> 23         0.12722
      12 -> 32        -0.12673
      12 -> 33         0.34666

 Excited State  70:      Singlet-A     15.6573 eV   79.19 nm  f=0.0272  <S**2>=0.000
       7 -> 16        -0.13762
       8 -> 17         0.21926
       8 -> 18        -0.13964
       9 -> 23        -0.17516
      10 -> 24        -0.10656
      12 -> 33         0.55946

 Excited State  71:      Singlet-A     15.7034 eV   78.95 nm  f=0.2590  <S**2>=0.000
       6 -> 13         0.10181
       6 -> 14        -0.13506
       7 -> 16         0.15877
       8 -> 17         0.40398
       8 -> 18         0.30609
       9 -> 22         0.26852
      11 -> 30         0.14376
      12 -> 36        -0.10710

 Excited State  72:      Singlet-A     15.8196 eV   78.37 nm  f=0.0193  <S**2>=0.000
       8 -> 18        -0.12143
      11 -> 31         0.67915

 Excited State  73:      Singlet-A     15.8488 eV   78.23 nm  f=0.0674  <S**2>=0.000
       6 -> 14         0.38191
       7 -> 17        -0.12312
       8 -> 18         0.45717
       9 -> 22        -0.13447
       9 -> 23        -0.27419
      11 -> 31         0.10998

 Excited State  74:      Singlet-A     15.8887 eV   78.03 nm  f=0.0713  <S**2>=0.000
       7 -> 16        -0.12008
       8 -> 18         0.22486
       9 -> 23         0.56028
      12 -> 33         0.13616
      12 -> 34         0.20298

 Excited State  75:      Singlet-A     16.0322 eV   77.33 nm  f=0.0169  <S**2>=0.000
      10 -> 25         0.63905
      11 -> 32         0.14240
      12 -> 34        -0.18479

 Excited State  76:      Singlet-A     16.0700 eV   77.15 nm  f=0.0372  <S**2>=0.000
       6 -> 14         0.12677
       8 -> 18        -0.10503
       8 -> 19         0.14151
       9 -> 22         0.11815
      10 -> 25         0.17016
      10 -> 26         0.13901
      11 -> 32        -0.15456
      12 -> 34         0.53286
      12 -> 35        -0.19433

 Excited State  77:      Singlet-A     16.1086 eV   76.97 nm  f=0.0651  <S**2>=0.000
       6 -> 14        -0.29971
       7 -> 16        -0.11638
       8 -> 18         0.14877
       8 -> 19        -0.16577
       9 -> 23        -0.18053
      11 -> 32         0.41668
      12 -> 34         0.27226
      12 -> 35        -0.11139

 Excited State  78:      Singlet-A     16.1293 eV   76.87 nm  f=0.0196  <S**2>=0.000
       8 -> 19         0.64435
       9 -> 24         0.11049
      11 -> 32         0.15103

 Excited State  79:      Singlet-A     16.2554 eV   76.27 nm  f=0.0444  <S**2>=0.000
       8 -> 19        -0.11157
       9 -> 24         0.66286

 Excited State  80:      Singlet-A     16.2590 eV   76.26 nm  f=0.0100  <S**2>=0.000
       6 -> 14         0.15050
       6 -> 15        -0.11173
       7 -> 17        -0.25049
       7 -> 18         0.10331
       8 -> 18        -0.10867
      10 -> 26         0.13267
      11 -> 32         0.35692
      12 -> 35         0.40909

 Excited State  81:      Singlet-A     16.2947 eV   76.09 nm  f=0.0292  <S**2>=0.000
       6 -> 14        -0.10783
       7 -> 17         0.23715
       8 -> 18         0.10044
      10 -> 26         0.47541
      11 -> 32        -0.16621
      11 -> 33        -0.12560
      12 -> 35         0.31625

 Excited State  82:      Singlet-A     16.3342 eV   75.90 nm  f=0.0528  <S**2>=0.000
       6 -> 14         0.14307
       7 -> 16         0.10514
       7 -> 17         0.46134
       7 -> 18         0.19603
       9 -> 25         0.10518
      11 -> 32         0.15541
      11 -> 33         0.35889
      12 -> 36         0.13294

 Excited State  83:      Singlet-A     16.3549 eV   75.81 nm  f=0.0526  <S**2>=0.000
       6 -> 14        -0.14401
       7 -> 17        -0.12455
       7 -> 18        -0.18724
      10 -> 26        -0.24678
      10 -> 27         0.14067
      11 -> 32        -0.17322
      11 -> 33         0.35860
      12 -> 34         0.10485
      12 -> 35         0.30643
      12 -> 36         0.10303

 Excited State  84:      Singlet-A     16.4420 eV   75.41 nm  f=0.0523  <S**2>=0.000
       7 -> 17        -0.18007
       7 -> 18        -0.14629
       9 -> 24         0.11398
      10 -> 25        -0.10531
      10 -> 26         0.31195
      10 -> 27        -0.19057
      11 -> 33         0.43345
      12 -> 35        -0.19948
      12 -> 36        -0.10226

 Excited State  85:      Singlet-A     16.5931 eV   74.72 nm  f=0.0611  <S**2>=0.000
       6 -> 14        -0.10747
       7 -> 16        -0.13863
       7 -> 17        -0.10278
       7 -> 18         0.48133
      10 -> 27        -0.35826
      11 -> 35        -0.10113
      12 -> 36         0.16206

 Excited State  86:      Singlet-A     16.6321 eV   74.55 nm  f=0.1638  <S**2>=0.000
       6 -> 15        -0.11486
       7 -> 18        -0.23733
       7 -> 19        -0.12017
      10 -> 27        -0.17150
      12 -> 36         0.56666

 Excited State  87:      Singlet-A     16.6809 eV   74.33 nm  f=0.1020  <S**2>=0.000
       6 -> 15         0.54606
       7 -> 19         0.16452
      10 -> 27        -0.29332
      11 -> 34         0.12342

 Excited State  88:      Singlet-A     16.7930 eV   73.83 nm  f=0.0578  <S**2>=0.000
       6 -> 15        -0.12572
       7 -> 19        -0.32768
       8 -> 20        -0.11144
       9 -> 25         0.40975
       9 -> 26         0.13714
      10 -> 26        -0.13257
      10 -> 27        -0.25405
      12 -> 36        -0.19994

 Excited State  89:      Singlet-A     16.8259 eV   73.69 nm  f=0.0706  <S**2>=0.000
       6 -> 15         0.19511
       7 -> 17        -0.11319
       7 -> 18         0.13152
       7 -> 19        -0.23555
       8 -> 20         0.12239
       9 -> 25         0.32718
      10 -> 26         0.11538
      10 -> 27         0.28057
      11 -> 34         0.32634

 Excited State  90:      Singlet-A     16.9186 eV   73.28 nm  f=0.0081  <S**2>=0.000
       7 -> 19        -0.26195
       8 -> 20        -0.18374
       9 -> 25        -0.32876
      11 -> 34         0.38971
      11 -> 35         0.32499

 Excited State  91:      Singlet-A     16.9876 eV   72.99 nm  f=0.0504  <S**2>=0.000
       6 -> 15         0.10942
       7 -> 19        -0.33970
       8 -> 20         0.44074
       8 -> 21         0.17418
       9 -> 25        -0.22742
      11 -> 34        -0.13304
      11 -> 35        -0.16627

 Excited State  92:      Singlet-A     17.0192 eV   72.85 nm  f=0.0093  <S**2>=0.000
       6 -> 15        -0.18181
       6 -> 16         0.12839
       7 -> 19         0.25403
       8 -> 20         0.42666
       9 -> 26         0.22201
      10 -> 27        -0.12248
      11 -> 34         0.30966

 Excited State  93:      Singlet-A     17.1140 eV   72.45 nm  f=0.0550  <S**2>=0.000
       8 -> 20        -0.16811
       9 -> 25        -0.11595
       9 -> 26         0.44040
       9 -> 27        -0.11644
      11 -> 35        -0.40604
      11 -> 36         0.12485

 Excited State  94:      Singlet-A     17.2135 eV   72.03 nm  f=0.0803  <S**2>=0.000
       6 -> 16        -0.30159
       8 -> 20         0.12907
       9 -> 26         0.32419
       9 -> 27        -0.24251
      11 -> 34        -0.23810
      11 -> 35         0.34740

 Excited State  95:      Singlet-A     17.3780 eV   71.35 nm  f=0.0275  <S**2>=0.000
       8 -> 21         0.61259
       9 -> 27        -0.28725

 The electronic state is 1-A.
 Alpha  occ. eigenvalues --  -14.14824 -14.14303 -10.02029  -0.92556  -0.74292
 Alpha  occ. eigenvalues --   -0.56175  -0.48864  -0.46146  -0.38181  -0.35358
 Alpha  occ. eigenvalues --   -0.23618  -0.20772
 Alpha virt. eigenvalues --   -0.03207   0.01670   0.04677   0.07342   0.10334
 Alpha virt. eigenvalues --    0.11534   0.12940   0.16324   0.17405   0.18806
 Alpha virt. eigenvalues --    0.20408   0.21544   0.23581   0.24311   0.25697

 Mulliken charges:
               1
     1  N    0.175009
     2  N   -0.286842
     3  C    0.564293
     4  H   -0.002518
     5  H    0.003878
     6  H   -0.337798
     7  H   -0.116021
 Sum of Mulliken charges =  -0.00000

 Dipole moment (field-independent basis, Debye):
    X=              0.5785    Y=              1.5510    Z=              0.9549  Tot=              1.9110
 Quadrupole moment (field-independent basis, Debye-Ang):
   XX=            -15.0265   YY=            -18.7549   ZZ=            -20.4545
   XY=             -0.2375   XZ=              1.7519   YZ=              0.2669

 Normal termination of Gaussian 16 at Mon Mar 21 20:29:47 2022.
