 Gaussian 16, Revision C.01,
 Gaussian 16:  EM64L-G16RevC.01  3-Jul-2019

 ----------------------------------------------------------------------
 #P TD(Nstates=10000) tpsstpss/Gen SCF(maxcycles=100) Int(Grid=ultrafin
 e)
 ----------------------------------------------------------------------

 ---------------------
 xGDB7_00001_tier4.com
 ---------------------
 Symbolic Z-matrix:
 Charge =  0 Multiplicity = 1

                         Standard orientation:
 ---------------------------------------------------------------------
 Center     Atomic      Atomic             Coordinates (Angstroms)
 Number     Number       Type             X           Y           Z
 ---------------------------------------------------------------------
      1          6           0        0.630149   -0.000001   -0.000003
      2          9           0       -0.748512    0.000002    0.000001
      3          1           0        0.985250    0.897475   -0.509314
      4          1           0        0.985222   -0.889832   -0.522562
      5          1           0        0.985245   -0.007652    1.031883
 ---------------------------------------------------------------------

 SCF Done:  E(RTPSS-TPSS) =  -139.661042051     A.U. after   11 cycles

 Excitation energies and oscillator strengths:

 Excited State   1:      Singlet-A      8.6580 eV  143.20 nm  f=0.0192  <S**2>=0.000
       9 -> 10         0.70691
 This state for optimization and/or second-order correction.
 Total Energy, E(TD-HF/TD-DFT) =  -139.342864779
 Copying the excited state density for this state as the 1-particle RhoCI density.

 Excited State   2:      Singlet-A      8.6581 eV  143.20 nm  f=0.0192  <S**2>=0.000
       8 -> 10         0.70691

 Excited State   3:      Singlet-A      9.4936 eV  130.60 nm  f=0.0126  <S**2>=0.000
       9 -> 11         0.70643

 Excited State   4:      Singlet-A      9.4936 eV  130.60 nm  f=0.0126  <S**2>=0.000
       8 -> 11         0.70643

 Excited State   5:      Singlet-A     10.6070 eV  116.89 nm  f=0.0300  <S**2>=0.000
       8 -> 12         0.46326
       8 -> 13         0.18365
       9 -> 12         0.18431
       9 -> 13        -0.46317

 Excited State   6:      Singlet-A     10.6070 eV  116.89 nm  f=0.0300  <S**2>=0.000
       8 -> 12        -0.18379
       8 -> 13         0.46218
       9 -> 12         0.46425
       9 -> 13         0.18416

 Excited State   7:      Singlet-A     10.6209 eV  116.74 nm  f=0.0000  <S**2>=0.000
       8 -> 13         0.49302
       9 -> 12        -0.49083

 Excited State   8:      Singlet-A     10.8150 eV  114.64 nm  f=0.1042  <S**2>=0.000
       8 -> 12         0.48462
       9 -> 13         0.48458

 Excited State   9:      Singlet-A     11.8463 eV  104.66 nm  f=0.0000  <S**2>=0.000
       8 -> 15         0.49762
       9 -> 16         0.49842

 Excited State  10:      Singlet-A     11.8510 eV  104.62 nm  f=0.0137  <S**2>=0.000
       9 -> 14         0.69385

 Excited State  11:      Singlet-A     11.8510 eV  104.62 nm  f=0.0137  <S**2>=0.000
       8 -> 14         0.69380

 Excited State  12:      Singlet-A     12.0762 eV  102.67 nm  f=0.0039  <S**2>=0.000
       8 -> 16        -0.47863
       8 -> 17         0.12094
       9 -> 15         0.47909
       9 -> 18         0.12093

 Excited State  13:      Singlet-A     12.1378 eV  102.15 nm  f=0.0412  <S**2>=0.000
       6 -> 10        -0.11456
       8 -> 14         0.10514
       8 -> 15        -0.45897
       8 -> 16         0.14484
       9 -> 15         0.14477
       9 -> 16         0.45900

 Excited State  14:      Singlet-A     12.1378 eV  102.15 nm  f=0.0412  <S**2>=0.000
       7 -> 10        -0.11459
       8 -> 15         0.14482
       8 -> 16         0.45923
       9 -> 14         0.10489
       9 -> 15         0.45879
       9 -> 16        -0.14479

 Excited State  15:      Singlet-A     12.4133 eV   99.88 nm  f=0.1497  <S**2>=0.000
       7 -> 10         0.69416

 Excited State  16:      Singlet-A     12.4133 eV   99.88 nm  f=0.1497  <S**2>=0.000
       6 -> 10         0.69416

 Excited State  17:      Singlet-A     12.6783 eV   97.79 nm  f=0.0019  <S**2>=0.000
       5 -> 10         0.67209
       8 -> 17         0.13112
       9 -> 18         0.13111

 Excited State  18:      Singlet-A     12.7227 eV   97.45 nm  f=0.0000  <S**2>=0.000
       8 -> 17         0.32577
       8 -> 18         0.37766
       9 -> 17         0.37886
       9 -> 18        -0.32581

 Excited State  19:      Singlet-A     12.7227 eV   97.45 nm  f=0.0000  <S**2>=0.000
       8 -> 17         0.37828
       8 -> 18        -0.32527
       9 -> 17        -0.32630
       9 -> 18        -0.37824

 Excited State  20:      Singlet-A     12.7512 eV   97.23 nm  f=0.0000  <S**2>=0.000
       8 -> 18         0.50007
       9 -> 17        -0.49849

 Excited State  21:      Singlet-A     13.1045 eV   94.61 nm  f=0.0020  <S**2>=0.000
       5 -> 10        -0.17905
       5 -> 11         0.31265
       6 -> 12        -0.10647
       7 -> 13        -0.10647
       8 -> 17         0.40045
       9 -> 18         0.40045

 Excited State  22:      Singlet-A     13.2803 eV   93.36 nm  f=0.0118  <S**2>=0.000
       7 -> 11         0.69884

 Excited State  23:      Singlet-A     13.2804 eV   93.36 nm  f=0.0118  <S**2>=0.000
       6 -> 11         0.69884

 Excited State  24:      Singlet-A     14.0463 eV   88.27 nm  f=0.3961  <S**2>=0.000
       5 -> 11         0.59342
       5 -> 14         0.16414
       8 -> 17        -0.19118
       9 -> 18        -0.19119

 Excited State  25:      Singlet-A     14.2993 eV   86.71 nm  f=0.0000  <S**2>=0.000
       6 -> 12         0.19780
       6 -> 13        -0.45792
       7 -> 12         0.46006
       7 -> 13         0.19832

 Excited State  26:      Singlet-A     14.3200 eV   86.58 nm  f=0.0465  <S**2>=0.000
       6 -> 12         0.49221
       7 -> 13        -0.49209

 Excited State  27:      Singlet-A     14.3200 eV   86.58 nm  f=0.0465  <S**2>=0.000
       6 -> 13         0.49315
       7 -> 12         0.49115

 Excited State  28:      Singlet-A     14.5227 eV   85.37 nm  f=0.0070  <S**2>=0.000
       5 -> 12        -0.30469
       5 -> 13         0.45865
       8 -> 19         0.17423
       9 -> 19        -0.40460

 Excited State  29:      Singlet-A     14.5227 eV   85.37 nm  f=0.0070  <S**2>=0.000
       5 -> 12         0.45882
       5 -> 13         0.30464
       8 -> 19        -0.40441
       9 -> 19        -0.17432

 Excited State  30:      Singlet-A     14.6040 eV   84.90 nm  f=0.0425  <S**2>=0.000
       5 -> 12        -0.10904
       5 -> 13         0.42663
       9 -> 19         0.54259

 Excited State  31:      Singlet-A     14.6040 eV   84.90 nm  f=0.0425  <S**2>=0.000
       5 -> 12         0.42641
       5 -> 13         0.10903
       8 -> 19         0.54276

 Excited State  32:      Singlet-A     15.0895 eV   82.17 nm  f=0.0093  <S**2>=0.000
       6 -> 12         0.42094
       6 -> 13         0.18165
       7 -> 12        -0.18163
       7 -> 13         0.42092

 Excited State  33:      Singlet-A     15.3962 eV   80.53 nm  f=0.0230  <S**2>=0.000
       7 -> 14         0.15699
       9 -> 20         0.67326

 Excited State  34:      Singlet-A     15.3962 eV   80.53 nm  f=0.0230  <S**2>=0.000
       6 -> 14         0.15702
       8 -> 20         0.67326

 Excited State  35:      Singlet-A     15.5248 eV   79.86 nm  f=0.0000  <S**2>=0.000
       6 -> 15         0.49287
       7 -> 16         0.49317

 Excited State  36:      Singlet-A     15.5507 eV   79.73 nm  f=0.0036  <S**2>=0.000
       6 -> 16        -0.11760
       7 -> 14         0.66679
       7 -> 15        -0.11752
       9 -> 20        -0.12200

 Excited State  37:      Singlet-A     15.5508 eV   79.73 nm  f=0.0036  <S**2>=0.000
       6 -> 14         0.66672
       6 -> 15         0.11833
       7 -> 16        -0.11721
       8 -> 20        -0.12197

 Excited State  38:      Singlet-A     15.6444 eV   79.25 nm  f=0.0047  <S**2>=0.000
       5 -> 14        -0.27816
       6 -> 16        -0.44609
       7 -> 15         0.44609

 Excited State  39:      Singlet-A     15.8855 eV   78.05 nm  f=0.0153  <S**2>=0.000
       5 -> 15         0.69812

 Excited State  40:      Singlet-A     15.8855 eV   78.05 nm  f=0.0153  <S**2>=0.000
       5 -> 16         0.69814

 Excited State  41:      Singlet-A     16.0339 eV   77.33 nm  f=0.1712  <S**2>=0.000
       6 -> 14         0.10596
       6 -> 15        -0.29488
       6 -> 16         0.17832
       7 -> 15         0.17827
       7 -> 16         0.29490
       8 -> 21        -0.11809
       8 -> 22         0.30794
       9 -> 21         0.30802
       9 -> 22         0.11811

 Excited State  42:      Singlet-A     16.0339 eV   77.33 nm  f=0.1712  <S**2>=0.000
       6 -> 15        -0.17829
       6 -> 16        -0.29493
       7 -> 14        -0.10575
       7 -> 15        -0.29488
       7 -> 16         0.17829
       8 -> 21        -0.30799
       8 -> 22        -0.11809
       9 -> 21        -0.11811
       9 -> 22         0.30800

 Excited State  43:      Singlet-A     16.0850 eV   77.08 nm  f=0.0020  <S**2>=0.000
       5 -> 14         0.55298
       6 -> 16        -0.17668
       6 -> 17         0.14456
       7 -> 15         0.17670
       7 -> 18         0.14454
       8 -> 21         0.12868
       9 -> 22         0.12869

 Excited State  44:      Singlet-A     16.2295 eV   76.39 nm  f=0.0000  <S**2>=0.000
       8 -> 21         0.28627
       8 -> 22        -0.40827
       9 -> 21         0.41012
       9 -> 22         0.28691

 Excited State  45:      Singlet-A     16.2362 eV   76.36 nm  f=0.1010  <S**2>=0.000
       6 -> 16         0.22367
       6 -> 17         0.21945
       7 -> 15         0.22366
       7 -> 18        -0.21949
       8 -> 21        -0.29955
       8 -> 22        -0.17471
       9 -> 21        -0.17424
       9 -> 22         0.29992

 Excited State  46:      Singlet-A     16.2362 eV   76.36 nm  f=0.1010  <S**2>=0.000
       6 -> 15         0.22358
       6 -> 18        -0.21936
       7 -> 16        -0.22369
       7 -> 17        -0.21956
       8 -> 21        -0.17531
       8 -> 22         0.30089
       9 -> 21         0.29860
       9 -> 22         0.17364

 Excited State  47:      Singlet-A     16.3978 eV   75.61 nm  f=0.3226  <S**2>=0.000
       5 -> 14        -0.19671
       5 -> 19        -0.13394
       8 -> 21         0.37201
       8 -> 22         0.26057
       9 -> 21        -0.26051
       9 -> 22         0.37200

 Excited State  48:      Singlet-A     16.4345 eV   75.44 nm  f=0.0000  <S**2>=0.000
       6 -> 17         0.10028
       6 -> 18        -0.48873
       7 -> 17         0.48957
       7 -> 18         0.10041

 Excited State  49:      Singlet-A     16.4870 eV   75.20 nm  f=0.1314  <S**2>=0.000
       5 -> 17        -0.10298
       6 -> 15         0.15024
       6 -> 17         0.11386
       6 -> 18         0.41866
       7 -> 16        -0.15030
       7 -> 17         0.41773
       7 -> 18        -0.11411
       8 -> 22         0.11101
       9 -> 21         0.11100

 Excited State  50:      Singlet-A     16.4870 eV   75.20 nm  f=0.1315  <S**2>=0.000
       5 -> 18        -0.10294
       6 -> 16        -0.15030
       6 -> 17         0.41823
       6 -> 18        -0.11418
       7 -> 15        -0.15030
       7 -> 17        -0.11379
       7 -> 18        -0.41815
       8 -> 21         0.11102
       9 -> 22        -0.11098

 Excited State  51:      Singlet-A     16.6532 eV   74.45 nm  f=0.0044  <S**2>=0.000
       5 -> 18        -0.31893
       9 -> 23         0.62587

 Excited State  52:      Singlet-A     16.6532 eV   74.45 nm  f=0.0044  <S**2>=0.000
       5 -> 17        -0.31951
       8 -> 23         0.62557

 Excited State  53:      Singlet-A     16.6603 eV   74.42 nm  f=0.0935  <S**2>=0.000
       5 -> 14        -0.15233
       5 -> 19        -0.13623
       6 -> 17         0.45354
       7 -> 18         0.45347

 Excited State  54:      Singlet-A     16.6910 eV   74.28 nm  f=0.0197  <S**2>=0.000
       5 -> 17         0.61785
       8 -> 23         0.32191

 Excited State  55:      Singlet-A     16.6910 eV   74.28 nm  f=0.0197  <S**2>=0.000
       5 -> 18         0.61816
       9 -> 23         0.32132

 Excited State  56:      Singlet-A     17.2885 eV   71.71 nm  f=0.0080  <S**2>=0.000
       9 -> 24         0.70344

 Excited State  57:      Singlet-A     17.2885 eV   71.71 nm  f=0.0080  <S**2>=0.000
       8 -> 24         0.70344

 Excited State  58:      Singlet-A     17.5147 eV   70.79 nm  f=0.0000  <S**2>=0.000
       8 -> 25         0.48448
       8 -> 26        -0.12120
       9 -> 25         0.12128
       9 -> 26         0.48449

 Excited State  59:      Singlet-A     17.6618 eV   70.20 nm  f=0.0149  <S**2>=0.000
       8 -> 25         0.13235
       8 -> 26         0.46521
       9 -> 25         0.46556
       9 -> 26        -0.13251

 Excited State  60:      Singlet-A     17.6618 eV   70.20 nm  f=0.0149  <S**2>=0.000
       8 -> 25         0.46541
       8 -> 26        -0.13240
       9 -> 25        -0.13247
       9 -> 26        -0.46536

 Excited State  61:      Singlet-A     17.7416 eV   69.88 nm  f=0.0184  <S**2>=0.000
       4 -> 10         0.21368
       8 -> 25         0.11048
       8 -> 26         0.44157
       9 -> 25        -0.44120
       9 -> 26         0.11045

 Excited State  62:      Singlet-A     18.1708 eV   68.23 nm  f=0.0317  <S**2>=0.000
       4 -> 10         0.61942
       5 -> 19         0.20247
       5 -> 20         0.10424
       8 -> 26        -0.13742
       9 -> 25         0.13730

 Excited State  63:      Singlet-A     18.2664 eV   67.88 nm  f=0.0007  <S**2>=0.000
       7 -> 19         0.69695

 Excited State  64:      Singlet-A     18.2664 eV   67.88 nm  f=0.0007  <S**2>=0.000
       6 -> 19         0.69695

 Excited State  65:      Singlet-A     18.9383 eV   65.47 nm  f=0.0048  <S**2>=0.000
       4 -> 11         0.31992
       5 -> 19        -0.19898
       5 -> 20        -0.11624
       8 -> 27         0.37192
       8 -> 28         0.17617
       9 -> 27         0.17632
       9 -> 28        -0.37182

 Excited State  66:      Singlet-A     19.0050 eV   65.24 nm  f=0.0000  <S**2>=0.000
       8 -> 27        -0.21392
       8 -> 28         0.45060
       9 -> 27         0.45189
       9 -> 28         0.21381

 Excited State  67:      Singlet-A     19.0302 eV   65.15 nm  f=0.0177  <S**2>=0.000
       7 -> 20         0.43442
       8 -> 27         0.31471
       8 -> 28         0.23247
       9 -> 27        -0.23158
       9 -> 28         0.31512

 Excited State  68:      Singlet-A     19.0302 eV   65.15 nm  f=0.0177  <S**2>=0.000
       6 -> 20         0.43424
       8 -> 27         0.23224
       8 -> 28        -0.31552
       9 -> 27         0.31447
       9 -> 28         0.23192

 Excited State  69:      Singlet-A     19.0571 eV   65.06 nm  f=0.1355  <S**2>=0.000
       4 -> 11         0.56568
       5 -> 19         0.21907
       5 -> 20         0.11427
       6 -> 22        -0.10088
       7 -> 21         0.10089
       8 -> 27        -0.14214
       9 -> 28         0.14212

 Excited State  70:      Singlet-A     19.1447 eV   64.76 nm  f=0.0745  <S**2>=0.000
       7 -> 20         0.53825
       8 -> 27        -0.25458
       8 -> 28        -0.17026
       9 -> 27         0.17013
       9 -> 28        -0.25462

 Excited State  71:      Singlet-A     19.1447 eV   64.76 nm  f=0.0744  <S**2>=0.000
       6 -> 20         0.53839
       8 -> 27        -0.17011
       8 -> 28         0.25460
       9 -> 27        -0.25439
       9 -> 28        -0.17012

 Excited State  72:      Singlet-A     19.3178 eV   64.18 nm  f=0.0043  <S**2>=0.000
       4 -> 10        -0.11960
       5 -> 19         0.13646
       5 -> 20         0.61088
       8 -> 27         0.14370
       9 -> 28        -0.14368

 Excited State  73:      Singlet-A     19.4062 eV   63.89 nm  f=0.0327  <S**2>=0.000
       9 -> 29         0.69788

 Excited State  74:      Singlet-A     19.4062 eV   63.89 nm  f=0.0327  <S**2>=0.000
       8 -> 29         0.69788

 Excited State  75:      Singlet-A     19.8636 eV   62.42 nm  f=0.0023  <S**2>=0.000
       6 -> 21        -0.48671
       7 -> 22         0.48706

 Excited State  76:      Singlet-A     19.8636 eV   62.42 nm  f=0.0023  <S**2>=0.000
       6 -> 22         0.48654
       7 -> 21         0.48722

 Excited State  77:      Singlet-A     19.9064 eV   62.28 nm  f=0.0000  <S**2>=0.000
       6 -> 21         0.37216
       6 -> 22        -0.33449
       7 -> 21         0.33373
       7 -> 22         0.37169

 Excited State  78:      Singlet-A     19.9426 eV   62.17 nm  f=0.0038  <S**2>=0.000
       4 -> 11        -0.17007
       5 -> 19         0.33920
       5 -> 20        -0.22310
       6 -> 21        -0.18821
       6 -> 22        -0.20955
       6 -> 26        -0.15389
       7 -> 21         0.20938
       7 -> 22        -0.18817
       7 -> 25         0.15389
       8 -> 27         0.11331
       9 -> 28        -0.11329

 Excited State  79:      Singlet-A     20.0797 eV   61.75 nm  f=0.0335  <S**2>=0.000
       4 -> 12         0.58804
       4 -> 13        -0.10325
       5 -> 21        -0.31289
       6 -> 23        -0.12793

 Excited State  80:      Singlet-A     20.0797 eV   61.75 nm  f=0.0335  <S**2>=0.000
       4 -> 12         0.10327
       4 -> 13         0.58805
       5 -> 22        -0.31285
       7 -> 23        -0.12797

 Excited State  81:      Singlet-A     20.1155 eV   61.64 nm  f=0.1253  <S**2>=0.000
       4 -> 10        -0.10236
       5 -> 19         0.29116
       5 -> 20        -0.12238
       6 -> 21         0.25045
       6 -> 22         0.27885
       7 -> 21        -0.27870
       7 -> 22         0.25039
       8 -> 31        -0.15468
       9 -> 32        -0.15468

 Excited State  82:      Singlet-A     20.1875 eV   61.42 nm  f=0.0160  <S**2>=0.000
       4 -> 12         0.28608
       5 -> 21         0.58421
       5 -> 22         0.16797
       8 -> 30         0.10040

 Excited State  83:      Singlet-A     20.1876 eV   61.42 nm  f=0.0160  <S**2>=0.000
       4 -> 13         0.28604
       5 -> 21        -0.16795
       5 -> 22         0.58422
       9 -> 30         0.10051

 Excited State  84:      Singlet-A     20.2708 eV   61.16 nm  f=0.0142  <S**2>=0.000
       7 -> 23        -0.13062
       9 -> 30         0.68020

 Excited State  85:      Singlet-A     20.2708 eV   61.16 nm  f=0.0142  <S**2>=0.000
       6 -> 23        -0.13063
       8 -> 30         0.68022

 Excited State  86:      Singlet-A     20.4402 eV   60.66 nm  f=0.1067  <S**2>=0.000
       4 -> 13         0.14051
       7 -> 23         0.66824
       9 -> 30         0.14337

 Excited State  87:      Singlet-A     20.4403 eV   60.66 nm  f=0.1067  <S**2>=0.000
       4 -> 12         0.14046
       6 -> 23         0.66826
       8 -> 30         0.14336

 Excited State  88:      Singlet-A     20.7169 eV   59.85 nm  f=0.0194  <S**2>=0.000
       4 -> 14         0.17895
       5 -> 23         0.67141

 Excited State  89:      Singlet-A     20.9680 eV   59.13 nm  f=0.0023  <S**2>=0.000
       7 -> 24         0.69879

 Excited State  90:      Singlet-A     20.9681 eV   59.13 nm  f=0.0023  <S**2>=0.000
       6 -> 24         0.69879

 Excited State  91:      Singlet-A     21.1589 eV   58.60 nm  f=0.0000  <S**2>=0.000
       5 -> 24        -0.19950
       6 -> 25         0.47860
       7 -> 26         0.47863

 Excited State  92:      Singlet-A     21.2609 eV   58.32 nm  f=0.0000  <S**2>=0.000
       5 -> 24         0.67783
       6 -> 25         0.14158
       7 -> 26         0.14159

 Excited State  93:      Singlet-A     21.3400 eV   58.10 nm  f=0.0504  <S**2>=0.000
       4 -> 14         0.65079
       5 -> 23        -0.13265
       6 -> 26         0.10614
       7 -> 25        -0.10740

 Excited State  94:      Singlet-A     21.3478 eV   58.08 nm  f=0.0020  <S**2>=0.000
       4 -> 15         0.57580
       5 -> 25        -0.31302
       6 -> 26         0.14445
       7 -> 25         0.14380

 Excited State  95:      Singlet-A     21.3479 eV   58.08 nm  f=0.0020  <S**2>=0.000
       4 -> 16         0.57582
       5 -> 26        -0.31300
       6 -> 25         0.14412
       7 -> 26        -0.14411

 Excited State  96:      Singlet-A     21.4417 eV   57.82 nm  f=0.0259  <S**2>=0.000
       4 -> 15        -0.29069
       5 -> 25        -0.25378
       6 -> 25         0.16215
       6 -> 26         0.21552
       7 -> 25         0.21558
       7 -> 26        -0.16214
       8 -> 31        -0.29470
       8 -> 32        -0.10191
       9 -> 31        -0.10194
       9 -> 32         0.29471

 Excited State  97:      Singlet-A     21.4417 eV   57.82 nm  f=0.0259  <S**2>=0.000
       4 -> 16        -0.29060
       5 -> 26        -0.25370
       6 -> 25         0.21556
       6 -> 26        -0.16214
       7 -> 25        -0.16218
       7 -> 26        -0.21554
       8 -> 31        -0.10192
       8 -> 32         0.29472
       9 -> 31         0.29482
       9 -> 32         0.10198

 Excited State  98:      Singlet-A     21.5484 eV   57.54 nm  f=0.0193  <S**2>=0.000
       4 -> 15         0.22420
       5 -> 25         0.53050
       8 -> 31        -0.25531
       9 -> 32         0.25530

 Excited State  99:      Singlet-A     21.5484 eV   57.54 nm  f=0.0193  <S**2>=0.000
       4 -> 16         0.22424
       5 -> 26         0.53059
       8 -> 32         0.25512
       9 -> 31         0.25532

 Excited State 100:      Singlet-A     21.5974 eV   57.41 nm  f=0.0000  <S**2>=0.000
       8 -> 31        -0.24163
       8 -> 32         0.43740
       9 -> 31        -0.43725
       9 -> 32        -0.24166

 Excited State 101:      Singlet-A     21.7754 eV   56.94 nm  f=0.1527  <S**2>=0.000
       5 -> 26        -0.20528
       6 -> 25        -0.23185
       6 -> 26         0.25441
       7 -> 25         0.25499
       7 -> 26         0.23182
       8 -> 32         0.28691
       9 -> 31         0.28680

 Excited State 102:      Singlet-A     21.7754 eV   56.94 nm  f=0.1527  <S**2>=0.000
       5 -> 25         0.20537
       6 -> 25         0.25469
       6 -> 26         0.23141
       7 -> 25         0.23223
       7 -> 26        -0.25469
       8 -> 31         0.28691
       9 -> 32        -0.28678

 Excited State 103:      Singlet-A     21.7912 eV   56.90 nm  f=0.0002  <S**2>=0.000
       4 -> 14        -0.12733
       5 -> 19         0.10136
       6 -> 26         0.39446
       6 -> 27        -0.23095

 The electronic state is 1-A.
 Alpha  occ. eigenvalues --  -24.41172 -10.07937  -1.10206  -0.64371  -0.44706
 Alpha  occ. eigenvalues --   -0.43830  -0.43830  -0.30308  -0.30308
 Alpha virt. eigenvalues --    0.01471   0.04153   0.08750   0.08751   0.13262
 Alpha virt. eigenvalues --    0.13599   0.13599   0.16626   0.16626   0.22999
 Alpha virt. eigenvalues --    0.26050   0.29351   0.29351   0.31100   0.33513

 Mulliken charges:
               1
     1  C    0.715194
     2  F   -0.485887
     3  H   -0.076422
     4  H   -0.076440
     5  H   -0.076444
 Sum of Mulliken charges =  -0.00000

 Dipole moment (field-independent basis, Debye):
    X=              1.7831    Y=             -0.0000    Z=              0.0000  Tot=              1.7831
 Quadrupole moment (field-independent basis, Debye-Ang):
   XX=            -12.7156   YY=            -12.0103   ZZ=            -12.0104
   XY=              0.0000   XZ=              0.0000   YZ=              0.0000

 Normal termination of Gaussian 16 at Mon Mar 21 20:23:59 2022.
