 Gaussian 16, Revision C.01,
 Gaussian 16:  EM64L-G16RevC.01  3-Jul-2019

 ----------------------------------------------------------------------
 #P TD(Nstates=10000) tpsstpss/Gen SCF(maxcycles=100) Int(Grid=ultrafin
 e)
 ----------------------------------------------------------------------

 ---------------------
 xGDB7_00001_tier4.com
 ---------------------
 Symbolic Z-matrix:
 Charge =  0 Multiplicity = 1

                         Standard orientation:
 ---------------------------------------------------------------------
 Center     Atomic      Atomic             Coordinates (Angstroms)
 Number     Number       Type             X           Y           Z
 ---------------------------------------------------------------------
      1          7           0       -0.000002   -0.000000   -0.110463
      2          1           0       -0.147185    0.930214    0.257758
      3          1           0       -0.731998   -0.592574    0.257757
      4          1           0        0.879196   -0.337638    0.257728
 ---------------------------------------------------------------------

 SCF Done:  E(RTPSS-TPSS) =  -56.5254100438     A.U. after   10 cycles

 Excitation energies and oscillator strengths:

 Excited State   1:      Singlet-A      6.6840 eV  185.49 nm  f=0.0833  <S**2>=0.000
       5 ->  6         0.70655
 This state for optimization and/or second-order correction.
 Total Energy, E(TD-HF/TD-DFT) =  -56.2797774588
 Copying the excited state density for this state as the 1-particle RhoCI density.

 Excited State   2:      Singlet-A      8.8404 eV  140.25 nm  f=0.0202  <S**2>=0.000
       5 ->  7         0.70221

 Excited State   3:      Singlet-A      8.8404 eV  140.25 nm  f=0.0202  <S**2>=0.000
       5 ->  8         0.70221

 Excited State   4:      Singlet-A     10.4566 eV  118.57 nm  f=0.0003  <S**2>=0.000
       5 ->  9         0.70642

 Excited State   5:      Singlet-A     10.4566 eV  118.57 nm  f=0.0003  <S**2>=0.000
       5 -> 10         0.70642

 Excited State   6:      Singlet-A     11.2885 eV  109.83 nm  f=0.0381  <S**2>=0.000
       3 ->  7        -0.10558
       4 ->  8        -0.10558
       5 -> 11         0.67414
       5 -> 12         0.13695

 Excited State   7:      Singlet-A     12.0391 eV  102.98 nm  f=0.0154  <S**2>=0.000
       4 ->  6         0.57640
       5 -> 14        -0.40487

 Excited State   8:      Singlet-A     12.0392 eV  102.98 nm  f=0.0153  <S**2>=0.000
       3 ->  6         0.57629
       5 -> 13        -0.40504

 Excited State   9:      Singlet-A     12.2036 eV  101.60 nm  f=0.2499  <S**2>=0.000
       4 ->  6         0.40545
       5 -> 13        -0.10578
       5 -> 14         0.55965

 Excited State  10:      Singlet-A     12.2036 eV  101.60 nm  f=0.2499  <S**2>=0.000
       3 ->  6         0.40561
       5 -> 13         0.55953
       5 -> 14         0.10579

 Excited State  11:      Singlet-A     12.2920 eV  100.87 nm  f=0.1817  <S**2>=0.000
       3 ->  7         0.11047
       4 ->  8         0.11047
       5 -> 11        -0.10092
       5 -> 12         0.67763

 Excited State  12:      Singlet-A     14.1126 eV   87.85 nm  f=0.0000  <S**2>=0.000
       3 ->  7         0.14201
       3 ->  8        -0.47882
       4 ->  7         0.47972
       4 ->  8         0.14220

 Excited State  13:      Singlet-A     14.1583 eV   87.57 nm  f=0.0780  <S**2>=0.000
       3 ->  7        -0.23724
       3 ->  8         0.43339
       4 ->  7         0.43254
       4 ->  8         0.23699

 Excited State  14:      Singlet-A     14.1583 eV   87.57 nm  f=0.0780  <S**2>=0.000
       3 ->  7        -0.43292
       3 ->  8        -0.23724
       4 ->  7        -0.23699
       4 ->  8         0.43301

 Excited State  15:      Singlet-A     15.4361 eV   80.32 nm  f=0.0003  <S**2>=0.000
       3 ->  7         0.27392
       4 ->  8         0.27391
       5 -> 11         0.11167
       5 -> 15         0.54494

 Excited State  16:      Singlet-A     15.6422 eV   79.26 nm  f=0.0000  <S**2>=0.000
       3 ->  9        -0.42753
       4 -> 10         0.42757
       5 -> 16        -0.36589

 Excited State  17:      Singlet-A     15.7377 eV   78.78 nm  f=0.0000  <S**2>=0.000
       3 ->  9        -0.25852
       4 -> 10         0.25854
       5 -> 16         0.60503

 Excited State  18:      Singlet-A     15.7952 eV   78.49 nm  f=0.0755  <S**2>=0.000
       3 ->  7        -0.30524
       3 -> 10        -0.17296
       4 ->  8        -0.30523
       4 ->  9        -0.17300
       5 -> 11        -0.10722
       5 -> 15         0.44039

 Excited State  19:      Singlet-A     15.8997 eV   77.98 nm  f=0.0076  <S**2>=0.000
       3 ->  7        -0.15454
       3 -> 10         0.46201
       4 ->  8        -0.15452
       4 ->  9         0.46213

 Excited State  20:      Singlet-A     16.0986 eV   77.02 nm  f=0.0092  <S**2>=0.000
       3 -> 10        -0.23354
       4 ->  9         0.23348
       4 -> 11         0.61180

 Excited State  21:      Singlet-A     16.0987 eV   77.02 nm  f=0.0093  <S**2>=0.000
       3 ->  9        -0.23354
       3 -> 11         0.61177
       4 -> 10        -0.23352

 Excited State  22:      Singlet-A     16.2095 eV   76.49 nm  f=0.1578  <S**2>=0.000
       3 -> 10         0.28612
       4 ->  9        -0.28605
       4 -> 11         0.29621
       5 -> 17         0.48552

 Excited State  23:      Singlet-A     16.2095 eV   76.49 nm  f=0.1578  <S**2>=0.000
       3 ->  9        -0.28608
       3 -> 11        -0.29628
       4 -> 10        -0.28605
       5 -> 18         0.48550

 Excited State  24:      Singlet-A     16.6755 eV   74.35 nm  f=0.1865  <S**2>=0.000
       3 -> 10        -0.29714
       4 ->  9         0.29707
       4 -> 11        -0.16566
       4 -> 12         0.15473
       5 -> 17         0.48392

 Excited State  25:      Singlet-A     16.6755 eV   74.35 nm  f=0.1865  <S**2>=0.000
       3 ->  9         0.29712
       3 -> 11         0.16564
       3 -> 12        -0.15474
       4 -> 10         0.29709
       5 -> 18         0.48392

 Excited State  26:      Singlet-A     17.3824 eV   71.33 nm  f=0.0050  <S**2>=0.000
       3 -> 13         0.45375
       3 -> 14         0.13293
       4 -> 12        -0.22310
       4 -> 13         0.13299
       4 -> 14        -0.45375

 Excited State  27:      Singlet-A     17.3824 eV   71.33 nm  f=0.0050  <S**2>=0.000
       3 -> 12        -0.22277
       3 -> 13        -0.13299
       3 -> 14         0.45366
       4 -> 13         0.45399
       4 -> 14         0.13300

 Excited State  28:      Singlet-A     17.5018 eV   70.84 nm  f=0.0000  <S**2>=0.000
       3 -> 14         0.49781
       4 -> 13        -0.49747

 Excited State  29:      Singlet-A     17.5922 eV   70.48 nm  f=0.0864  <S**2>=0.000
       3 -> 13         0.14592
       4 -> 12         0.63770
       4 -> 14        -0.14611
       5 -> 20        -0.13414

 Excited State  30:      Singlet-A     17.5922 eV   70.48 nm  f=0.0864  <S**2>=0.000
       3 -> 12         0.63781
       3 -> 14         0.14577
       4 -> 13         0.14585
       5 -> 19        -0.13415

 Excited State  31:      Singlet-A     17.7475 eV   69.86 nm  f=0.2683  <S**2>=0.000
       3 -> 13         0.48607
       4 -> 14         0.48601
       5 -> 21         0.11539

 Excited State  32:      Singlet-A     18.8402 eV   65.81 nm  f=0.1136  <S**2>=0.000
       4 -> 12         0.10719
       5 -> 19        -0.11539
       5 -> 20         0.67327

 Excited State  33:      Singlet-A     18.8402 eV   65.81 nm  f=0.1136  <S**2>=0.000
       3 -> 12         0.10719
       5 -> 19         0.67326
       5 -> 20         0.11539

 Excited State  34:      Singlet-A     20.9927 eV   59.06 nm  f=0.0100  <S**2>=0.000
       3 -> 15         0.43379
       4 -> 16         0.55518

 Excited State  35:      Singlet-A     20.9927 eV   59.06 nm  f=0.0100  <S**2>=0.000
       3 -> 16         0.55459
       4 -> 15        -0.43453

 Excited State  36:      Singlet-A     21.0455 eV   58.91 nm  f=0.0536  <S**2>=0.000
       3 -> 16         0.43616
       4 -> 15         0.55040

 Excited State  37:      Singlet-A     21.0455 eV   58.91 nm  f=0.0537  <S**2>=0.000
       3 -> 15         0.55098
       4 -> 16        -0.43542

 Excited State  38:      Singlet-A     21.0495 eV   58.90 nm  f=0.2434  <S**2>=0.000
       2 ->  6         0.14320
       3 -> 18        -0.15928
       4 -> 17         0.15932
       5 -> 21         0.63698

 Excited State  39:      Singlet-A     21.1801 eV   58.54 nm  f=0.0422  <S**2>=0.000
       3 -> 17         0.15812
       4 -> 18        -0.15813
       5 -> 22         0.66459

 Excited State  40:      Singlet-A     21.1801 eV   58.54 nm  f=0.0421  <S**2>=0.000
       3 -> 18        -0.15814
       4 -> 17        -0.15811
       5 -> 23         0.66459

 Excited State  41:      Singlet-A     21.7146 eV   57.10 nm  f=0.0000  <S**2>=0.000
       3 -> 17         0.48620
       3 -> 18        -0.11550
       4 -> 17         0.11551
       4 -> 18         0.48624

 Excited State  42:      Singlet-A     22.0394 eV   56.26 nm  f=0.0419  <S**2>=0.000
       2 ->  6         0.58942
       3 -> 18        -0.20126
       4 -> 17         0.20138
       5 -> 21        -0.20522

 Excited State  43:      Singlet-A     22.1568 eV   55.96 nm  f=0.1996  <S**2>=0.000
       3 -> 17         0.45199
       4 -> 18        -0.45193
       5 -> 22        -0.19054

 Excited State  44:      Singlet-A     22.1568 eV   55.96 nm  f=0.1996  <S**2>=0.000
       3 -> 18         0.45201
       4 -> 17         0.45191
       5 -> 23         0.19055

 Excited State  45:      Singlet-A     23.9584 eV   51.75 nm  f=0.1439  <S**2>=0.000
       2 ->  6         0.29550
       3 -> 18         0.36245
       3 -> 19         0.10921
       3 -> 22         0.13363
       4 -> 17        -0.36250
       4 -> 20         0.10925
       4 -> 23         0.13362
       5 -> 21         0.12735
       5 -> 27         0.10286

 Excited State  46:      Singlet-A     24.2207 eV   51.19 nm  f=0.0656  <S**2>=0.000
       2 ->  7         0.55337
       3 -> 19         0.13375
       3 -> 20        -0.26707
       4 -> 19        -0.28220
       4 -> 20        -0.13512

 Excited State  47:      Singlet-A     24.2207 eV   51.19 nm  f=0.0656  <S**2>=0.000
       2 ->  8         0.55341
       3 -> 19        -0.27494
       3 -> 20        -0.13151
       4 -> 19        -0.13734
       4 -> 20         0.27442

 Excited State  48:      Singlet-A     24.2222 eV   51.19 nm  f=0.0000  <S**2>=0.000
       3 -> 20         0.50230
       4 -> 19        -0.49244

 Excited State  49:      Singlet-A     24.5032 eV   50.60 nm  f=0.0055  <S**2>=0.000
       2 ->  7         0.41136
       3 -> 19        -0.14399
       3 -> 20         0.34188
       3 -> 23        -0.11087
       4 -> 19         0.34179
       4 -> 20         0.14399
       4 -> 22        -0.11088

 Excited State  50:      Singlet-A     24.5032 eV   50.60 nm  f=0.0055  <S**2>=0.000
       2 ->  8         0.41137
       3 -> 19         0.34180
       3 -> 20         0.14400
       3 -> 22        -0.11086
       4 -> 19         0.14397
       4 -> 20        -0.34186
       4 -> 23         0.11087

 Excited State  51:      Singlet-A     24.7522 eV   50.09 nm  f=0.0554  <S**2>=0.000
       2 ->  6        -0.14743
       3 -> 19         0.46615
       4 -> 20         0.46608

 Excited State  52:      Singlet-A     25.8941 eV   47.88 nm  f=0.0050  <S**2>=0.000
       2 ->  9         0.70430

 Excited State  53:      Singlet-A     25.8941 eV   47.88 nm  f=0.0050  <S**2>=0.000
       2 -> 10         0.70430

 Excited State  54:      Singlet-A     26.1670 eV   47.38 nm  f=0.0435  <S**2>=0.000
       2 -> 11         0.66898
       3 -> 22        -0.15346
       4 -> 23        -0.15344

 Excited State  55:      Singlet-A     26.1809 eV   47.36 nm  f=0.0012  <S**2>=0.000
       3 -> 22        -0.15206
       4 -> 21         0.67049
       4 -> 23         0.15210

 Excited State  56:      Singlet-A     26.1810 eV   47.36 nm  f=0.0012  <S**2>=0.000
       3 -> 21         0.67050
       3 -> 23        -0.15206
       4 -> 22        -0.15209

 Excited State  57:      Singlet-A     26.4910 eV   46.80 nm  f=0.0000  <S**2>=0.000
       3 -> 23        -0.49951
       4 -> 22         0.49952

 Excited State  58:      Singlet-A     27.0938 eV   45.76 nm  f=0.2417  <S**2>=0.000
       2 -> 11         0.13211
       3 -> 22         0.37142
       4 -> 23         0.37144
       5 -> 24         0.39813

 Excited State  59:      Singlet-A     27.2118 eV   45.56 nm  f=0.0600  <S**2>=0.000
       2 -> 12        -0.43715
       3 -> 22        -0.17626
       4 -> 23        -0.17630
       5 -> 24         0.47762

 Excited State  60:      Singlet-A     27.3621 eV   45.31 nm  f=0.1202  <S**2>=0.000
       2 -> 13         0.60164
       3 -> 23         0.23535
       4 -> 22         0.23533

 Excited State  61:      Singlet-A     27.3621 eV   45.31 nm  f=0.1202  <S**2>=0.000
       2 -> 14         0.60160
       3 -> 22         0.23538
       4 -> 23        -0.23537

 Excited State  62:      Singlet-A     27.6552 eV   44.83 nm  f=0.3153  <S**2>=0.000
       2 -> 14        -0.36772
       3 -> 22         0.37261
       4 -> 21         0.16966
       4 -> 23        -0.37260

 Excited State  63:      Singlet-A     27.6553 eV   44.83 nm  f=0.3154  <S**2>=0.000
       2 -> 13        -0.36766
       3 -> 21         0.16967
       3 -> 23         0.37264
       4 -> 22         0.37261

 Excited State  64:      Singlet-A     27.9809 eV   44.31 nm  f=0.0702  <S**2>=0.000
       2 -> 11        -0.10983
       2 -> 12         0.54200
       3 -> 22        -0.18340
       4 -> 23        -0.18331
       5 -> 24         0.32565

 Excited State  65:      Singlet-A     30.9965 eV   40.00 nm  f=0.0000  <S**2>=0.000
       2 -> 16         0.70701

 Excited State  66:      Singlet-A     31.4283 eV   39.45 nm  f=0.0315  <S**2>=0.000
       2 -> 15         0.67105
       5 -> 27        -0.17354

 Excited State  67:      Singlet-A     31.5098 eV   39.35 nm  f=0.0017  <S**2>=0.000
       2 -> 17         0.13834
       5 -> 25         0.68760

 Excited State  68:      Singlet-A     31.5098 eV   39.35 nm  f=0.0017  <S**2>=0.000
       2 -> 18         0.13833
       5 -> 26         0.68760

 Excited State  69:      Singlet-A     32.0518 eV   38.68 nm  f=0.0010  <S**2>=0.000
       2 -> 17         0.65804
       4 -> 24         0.18138
       5 -> 25        -0.15177

 Excited State  70:      Singlet-A     32.0518 eV   38.68 nm  f=0.0010  <S**2>=0.000
       2 -> 18         0.65805
       3 -> 24        -0.18137
       5 -> 26        -0.15177

 Excited State  71:      Singlet-A     33.2966 eV   37.24 nm  f=0.1354  <S**2>=0.000
       2 -> 17        -0.19027
       2 -> 20        -0.17835
       4 -> 24         0.64600

 Excited State  72:      Singlet-A     33.2966 eV   37.24 nm  f=0.1353  <S**2>=0.000
       2 -> 18         0.19026
       2 -> 19        -0.17836
       3 -> 24         0.64600

 Excited State  73:      Singlet-A     34.3646 eV   36.08 nm  f=0.0018  <S**2>=0.000
       2 -> 19        -0.33963
       2 -> 20         0.59053
       4 -> 24         0.14555

 Excited State  74:      Singlet-A     34.3647 eV   36.08 nm  f=0.0018  <S**2>=0.000
       2 -> 19         0.59053
       2 -> 20         0.33963
       3 -> 24         0.14556

 Excited State  75:      Singlet-A     35.1867 eV   35.24 nm  f=0.0123  <S**2>=0.000
       3 -> 26        -0.26448
       4 -> 25         0.26449
       5 -> 27         0.57596

 Excited State  76:      Singlet-A     36.2975 eV   34.16 nm  f=0.0291  <S**2>=0.000
       2 -> 21         0.70415

 Excited State  77:      Singlet-A     36.7736 eV   33.72 nm  f=0.0091  <S**2>=0.000
       2 -> 22         0.69393

 Excited State  78:      Singlet-A     36.7736 eV   33.72 nm  f=0.0091  <S**2>=0.000
       2 -> 23         0.69394

 Excited State  79:      Singlet-A     36.9277 eV   33.57 nm  f=0.0000  <S**2>=0.000
       3 -> 25         0.48937
       3 -> 26        -0.10151
       4 -> 25         0.10153
       4 -> 26         0.48941

 Excited State  80:      Singlet-A     37.3348 eV   33.21 nm  f=0.0424  <S**2>=0.000
       2 -> 22        -0.12221
       3 -> 25         0.47168
       4 -> 26        -0.47164

 Excited State  81:      Singlet-A     37.3348 eV   33.21 nm  f=0.0424  <S**2>=0.000
       2 -> 23         0.12220
       3 -> 26         0.47167
       4 -> 25         0.47166

 Excited State  82:      Singlet-A     39.1703 eV   31.65 nm  f=0.0266  <S**2>=0.000
       4 -> 27         0.65505
       5 -> 28        -0.25303

 Excited State  83:      Singlet-A     39.1704 eV   31.65 nm  f=0.0266  <S**2>=0.000
       3 -> 27         0.65505
       5 -> 29        -0.25303

 Excited State  84:      Singlet-A     39.6697 eV   31.25 nm  f=0.0161  <S**2>=0.000
       2 -> 24         0.29471
       3 -> 26         0.36206
       3 -> 29         0.12311
       4 -> 25        -0.36206
       4 -> 28         0.12312
       5 -> 27         0.27233

 Excited State  85:      Singlet-A     39.7770 eV   31.17 nm  f=0.0441  <S**2>=0.000
       4 -> 27         0.25876
       5 -> 28         0.64660

 Excited State  86:      Singlet-A     39.7771 eV   31.17 nm  f=0.0441  <S**2>=0.000
       3 -> 27         0.25876
       5 -> 29         0.64660

 Excited State  87:      Singlet-A     43.3061 eV   28.63 nm  f=0.0083  <S**2>=0.000
       2 -> 24         0.48191
       3 -> 29        -0.21410
       4 -> 28        -0.21412
       5 -> 30         0.39944

 Excited State  88:      Singlet-A     43.7830 eV   28.32 nm  f=0.0931  <S**2>=0.000
       2 -> 24        -0.32910
       3 -> 29         0.12520
       4 -> 28         0.12522
       5 -> 30         0.57847

 Excited State  89:      Singlet-A     44.9350 eV   27.59 nm  f=0.0000  <S**2>=0.000
       3 -> 28        -0.49425
       4 -> 29         0.49425

 Excited State  90:      Singlet-A     45.2602 eV   27.39 nm  f=0.0342  <S**2>=0.000
       3 -> 28         0.47857
       3 -> 29        -0.12657
       4 -> 28         0.12657
       4 -> 29         0.47856

 Excited State  91:      Singlet-A     45.2602 eV   27.39 nm  f=0.0342  <S**2>=0.000
       3 -> 28         0.12656
       3 -> 29         0.47858
       4 -> 28        -0.47856
       4 -> 29         0.12658

 Excited State  92:      Singlet-A     47.2398 eV   26.25 nm  f=0.0400  <S**2>=0.000
       2 -> 25         0.70273

 Excited State  93:      Singlet-A     47.2398 eV   26.25 nm  f=0.0400  <S**2>=0.000
       2 -> 26         0.70273

 Excited State  94:      Singlet-A     48.3597 eV   25.64 nm  f=0.0308  <S**2>=0.000
       2 -> 24         0.24951
       2 -> 27         0.15876
       2 -> 30        -0.10565
       3 -> 26        -0.12557
       3 -> 29         0.39211
       4 -> 25         0.12557
       4 -> 28         0.39211
       5 -> 27        -0.16896

 Excited State  95:      Singlet-A     48.9506 eV   25.33 nm  f=0.0003  <S**2>=0.000
       4 -> 30         0.70124

 Excited State  96:      Singlet-A     48.9507 eV   25.33 nm  f=0.0003  <S**2>=0.000
       3 -> 30         0.70124

 Excited State  97:      Singlet-A     49.5121 eV   25.04 nm  f=0.1241  <S**2>=0.000
       2 -> 27         0.68790

 Excited State  98:      Singlet-A     52.2270 eV   23.74 nm  f=0.0000  <S**2>=0.000
       5 -> 31         0.70690

 Excited State  99:      Singlet-A     52.6628 eV   23.54 nm  f=0.0538  <S**2>=0.000
       5 -> 32         0.69443

 Excited State 100:      Singlet-A     52.6629 eV   23.54 nm  f=0.0539  <S**2>=0.000
       5 -> 33         0.69443

 Excited State 101:      Singlet-A     55.2187 eV   22.45 nm  f=0.0441  <S**2>=0.000
       2 -> 28         0.69517

 Excited State 102:      Singlet-A     55.2188 eV   22.45 nm  f=0.0441  <S**2>=0.000
       2 -> 29         0.69516

 Excited State 103:      Singlet-A     57.6180 eV   21.52 nm  f=0.0219  <S**2>=0.000
       3 -> 32        -0.15201
       4 -> 33        -0.15199
       5 -> 34         0.66567

 Excited State 104:      Singlet-A     57.7382 eV   21.47 nm  f=0.0300  <S**2>=0.000
       4 -> 31         0.69046

 Excited State 105:      Singlet-A     57.7383 eV   21.47 nm  f=0.0299  <S**2>=0.000
       3 -> 31         0.69047

 Excited State 106:      Singlet-A     57.8660 eV   21.43 nm  f=0.0000  <S**2>=0.000
       3 -> 33        -0.49843
       4 -> 32         0.49881

 Excited State 107:      Singlet-A     58.1105 eV   21.34 nm  f=0.1031  <S**2>=0.000
       3 -> 33         0.48495
       4 -> 32         0.48458

 Excited State 108:      Singlet-A     58.1105 eV   21.34 nm  f=0.1032  <S**2>=0.000
       3 -> 32         0.48477
       4 -> 33        -0.48476

 Excited State 109:      Singlet-A     58.4986 eV   21.19 nm  f=0.3033  <S**2>=0.000
       2 -> 30        -0.20935
       3 -> 32         0.44441
       4 -> 33         0.44442
       5 -> 34         0.21505

 Excited State 110:      Singlet-A     60.1782 eV   20.60 nm  f=0.0341  <S**2>=0.000
       3 -> 34        -0.14597
       5 -> 35         0.68558

 Excited State 111:      Singlet-A     60.1783 eV   20.60 nm  f=0.0341  <S**2>=0.000
       4 -> 34        -0.14597
       5 -> 36         0.68558

 Excited State 112:      Singlet-A     60.2774 eV   20.57 nm  f=0.0975  <S**2>=0.000
       2 -> 30         0.65692
       3 -> 32         0.15327
       4 -> 33         0.15328

 Excited State 113:      Singlet-A     62.8224 eV   19.74 nm  f=0.0196  <S**2>=0.000
       4 -> 34         0.68282
       5 -> 36         0.13692

 Excited State 114:      Singlet-A     62.8225 eV   19.74 nm  f=0.0196  <S**2>=0.000
       3 -> 34         0.68282
       5 -> 35         0.13691

 Excited State 115:      Singlet-A     63.9728 eV   19.38 nm  f=0.0084  <S**2>=0.000
       3 -> 35        -0.18287
       4 -> 36         0.18287
       5 -> 37         0.64910

 Excited State 116:      Singlet-A     63.9729 eV   19.38 nm  f=0.0084  <S**2>=0.000
       3 -> 36         0.18286
       4 -> 35         0.18289
       5 -> 38         0.64910

 Excited State 117:      Singlet-A     65.4456 eV   18.94 nm  f=0.0768  <S**2>=0.000
       3 -> 35         0.42453
       3 -> 36        -0.17897
       4 -> 35        -0.17915
       4 -> 36        -0.42425
       5 -> 37         0.22795

 Excited State 118:      Singlet-A     65.4456 eV   18.94 nm  f=0.0768  <S**2>=0.000
       3 -> 35         0.17906
       3 -> 36         0.42420
       4 -> 35         0.42457
       4 -> 36        -0.17905
       5 -> 38        -0.22796

 Excited State 119:      Singlet-A     65.5045 eV   18.93 nm  f=0.0016  <S**2>=0.000
       3 -> 35         0.48872
       4 -> 36         0.48897

 Excited State 120:      Singlet-A     65.6711 eV   18.88 nm  f=0.0000  <S**2>=0.000
       3 -> 36         0.49316
       4 -> 35        -0.49279

 The electronic state is 1-A.
 Alpha  occ. eigenvalues --  -14.09748  -0.78545  -0.42219  -0.42219  -0.22562
 Alpha virt. eigenvalues --    0.01583   0.09689   0.09689   0.16175   0.16175
 Alpha virt. eigenvalues --    0.17275   0.22078   0.22113   0.22113   0.34900
 Alpha virt. eigenvalues --    0.35561   0.37805   0.37805   0.47156   0.47156

 Mulliken charges:
               1
     1  N    0.081637
     2  H   -0.027212
     3  H   -0.027213
     4  H   -0.027211
 Sum of Mulliken charges =   0.00000

 Dipole moment (field-independent basis, Debye):
    X=              0.0000    Y=             -0.0000    Z=              1.4675  Tot=              1.4675
 Quadrupole moment (field-independent basis, Debye-Ang):
   XX=             -6.3675   YY=             -6.3675   ZZ=             -9.2349
   XY=              0.0000   XZ=             -0.0001   YZ=              0.0000

 Normal termination of Gaussian 16 at Mon Mar 21 20:23:11 2022.
