 Gaussian 16, Revision C.01,
 Gaussian 16:  EM64L-G16RevC.01  3-Jul-2019

 ----------------------------------------------------------------------
 #P TD(Nstates=10000) tpsstpss/Gen SCF(maxcycles=100) Int(Grid=ultrafin
 e)
 ----------------------------------------------------------------------

 ---------------------
 xGDB7_00001_tier4.com
 ---------------------
 Symbolic Z-matrix:
 Charge =  0 Multiplicity = 1

                         Standard orientation:
 ---------------------------------------------------------------------
 Center     Atomic      Atomic             Coordinates (Angstroms)
 Number     Number       Type             X           Y           Z
 ---------------------------------------------------------------------
      1          6           0        0.000000    0.865978    0.000000
      2          6           0        0.749967   -0.432983    0.000000
      3          6           0       -0.749954   -0.432999    0.000000
      4          1           0       -0.000033    1.451806   -0.909176
      5          1           0       -0.000033    1.451806    0.909176
      6          1           0        1.257295   -0.725894    0.909177
      7          1           0        1.257295   -0.725894   -0.909177
      8          1           0       -1.257302   -0.725899    0.909179
      9          1           0       -1.257302   -0.725899   -0.909179
 ---------------------------------------------------------------------

 SCF Done:  E(RTPSS-TPSS) =  -117.842780834     A.U. after   10 cycles

 Excitation energies and oscillator strengths:

 Excited State   1:      Singlet-A'     7.7674 eV  159.62 nm  f=0.0026  <S**2>=0.000
      12 -> 13         0.70554
 This state for optimization and/or second-order correction.
 Total Energy, E(TD-HF/TD-DFT) =  -117.557333215
 Copying the excited state density for this state as the 1-particle RhoCI density.

 Excited State   2:      Singlet-A'     7.7676 eV  159.62 nm  f=0.0026  <S**2>=0.000
      11 -> 13         0.70554

 Excited State   3:      Singlet-A'     8.3549 eV  148.40 nm  f=0.0000  <S**2>=0.000
      11 -> 14         0.45882
      11 -> 15        -0.19711
      12 -> 14         0.19774
      12 -> 15         0.45960

 Excited State   4:      Singlet-A'     8.3609 eV  148.29 nm  f=0.0000  <S**2>=0.000
      11 -> 14        -0.19726
      11 -> 15        -0.45832
      12 -> 14         0.45999
      12 -> 15        -0.19755

 Excited State   5:      Singlet-A'     8.4253 eV  147.16 nm  f=0.0822  <S**2>=0.000
      11 -> 14         0.25315
      11 -> 15         0.42954
      12 -> 14         0.42804
      12 -> 15        -0.25266

 Excited State   6:      Singlet-A'     8.4253 eV  147.16 nm  f=0.0822  <S**2>=0.000
      11 -> 14         0.42913
      11 -> 15        -0.25337
      12 -> 14        -0.25243
      12 -> 15        -0.42845

 Excited State   7:      Singlet-A"     8.6160 eV  143.90 nm  f=0.0000  <S**2>=0.000
      12 -> 16         0.70622

 Excited State   8:      Singlet-A"     8.6162 eV  143.90 nm  f=0.0000  <S**2>=0.000
      11 -> 16         0.70622

 Excited State   9:      Singlet-A"     9.5145 eV  130.31 nm  f=0.0000  <S**2>=0.000
      10 -> 13         0.70684

 Excited State  10:      Singlet-A"     9.5146 eV  130.31 nm  f=0.0000  <S**2>=0.000
       9 -> 13         0.70684

 Excited State  11:      Singlet-A'     9.8869 eV  125.40 nm  f=0.0015  <S**2>=0.000
      12 -> 17         0.70353

 Excited State  12:      Singlet-A'     9.8871 eV  125.40 nm  f=0.0015  <S**2>=0.000
      11 -> 17         0.70352

 Excited State  13:      Singlet-A"    10.1121 eV  122.61 nm  f=0.0000  <S**2>=0.000
       9 -> 14         0.13629
       9 -> 15         0.47866
      10 -> 14         0.48265
      10 -> 15        -0.13663

 Excited State  14:      Singlet-A"    10.1298 eV  122.40 nm  f=0.0000  <S**2>=0.000
       9 -> 14         0.48650
       9 -> 15        -0.11282
      10 -> 14         0.11235
      10 -> 15         0.48695

 Excited State  15:      Singlet-A"    10.1298 eV  122.40 nm  f=0.0000  <S**2>=0.000
       9 -> 14         0.11322
       9 -> 15         0.48860
      10 -> 14        -0.48485
      10 -> 15         0.11195

 Excited State  16:      Singlet-A"    10.2062 eV  121.48 nm  f=0.1570  <S**2>=0.000
       9 -> 14         0.48040
       9 -> 15        -0.13649
      10 -> 14        -0.13623
      10 -> 15        -0.48015

 Excited State  17:      Singlet-A'    10.5251 eV  117.80 nm  f=0.1456  <S**2>=0.000
      10 -> 16         0.69724

 Excited State  18:      Singlet-A'    10.5252 eV  117.80 nm  f=0.1455  <S**2>=0.000
       9 -> 16         0.69724

 Excited State  19:      Singlet-A"    10.7702 eV  115.12 nm  f=0.0000  <S**2>=0.000
      11 -> 19        -0.49819
      12 -> 20         0.50058

 Excited State  20:      Singlet-A"    10.7829 eV  114.98 nm  f=0.0188  <S**2>=0.000
      11 -> 20         0.49546
      12 -> 19         0.50357

 Excited State  21:      Singlet-A"    10.7966 eV  114.84 nm  f=0.0000  <S**2>=0.000
      11 -> 19         0.48485
      11 -> 20        -0.12577
      12 -> 19         0.12384
      12 -> 20         0.48255

 Excited State  22:      Singlet-A"    10.7966 eV  114.84 nm  f=0.0000  <S**2>=0.000
      11 -> 19         0.12513
      11 -> 20         0.48762
      12 -> 19        -0.47975
      12 -> 20         0.12448

 Excited State  23:      Singlet-A'    10.8331 eV  114.45 nm  f=0.1647  <S**2>=0.000
      11 -> 28        -0.10732
      12 -> 18         0.66620

 Excited State  24:      Singlet-A'    10.8332 eV  114.45 nm  f=0.1647  <S**2>=0.000
      11 -> 18         0.66620
      12 -> 28         0.10732

 Excited State  25:      Singlet-A'    11.4794 eV  108.01 nm  f=0.0163  <S**2>=0.000
      11 -> 21        -0.49491
      12 -> 22         0.49555

 Excited State  26:      Singlet-A'    11.4794 eV  108.01 nm  f=0.0163  <S**2>=0.000
      11 -> 22         0.48888
      12 -> 21         0.50150

 Excited State  27:      Singlet-A'    11.4879 eV  107.93 nm  f=0.0000  <S**2>=0.000
      11 -> 21        -0.13118
      11 -> 22         0.48899
      12 -> 21        -0.47597
      12 -> 22        -0.12979

 Excited State  28:      Singlet-A"    11.6712 eV  106.23 nm  f=0.0000  <S**2>=0.000
      10 -> 17         0.69577
      11 -> 25         0.11435

 Excited State  29:      Singlet-A"    11.6713 eV  106.23 nm  f=0.0000  <S**2>=0.000
       9 -> 17         0.69576
      12 -> 25         0.11439

 Excited State  30:      Singlet-A'    11.7881 eV  105.18 nm  f=0.0000  <S**2>=0.000
       8 -> 13        -0.15240
       9 -> 19         0.15368
      10 -> 20         0.15369
      11 -> 21         0.44049
      11 -> 22         0.11915
      12 -> 21        -0.11906
      12 -> 22         0.44033

 Excited State  31:      Singlet-A"    11.9275 eV  103.95 nm  f=0.0000  <S**2>=0.000
      10 -> 18         0.69722

 Excited State  32:      Singlet-A"    11.9276 eV  103.95 nm  f=0.0000  <S**2>=0.000
       9 -> 18         0.69722

 Excited State  33:      Singlet-A'    12.0882 eV  102.57 nm  f=0.0000  <S**2>=0.000
      11 -> 23         0.47192
      11 -> 24        -0.16087
      12 -> 23         0.16128
      12 -> 24         0.47255

 Excited State  34:      Singlet-A'    12.1018 eV  102.45 nm  f=0.0000  <S**2>=0.000
       8 -> 13         0.12430
      11 -> 23        -0.15795
      11 -> 24        -0.46282
      12 -> 23         0.46413
      12 -> 24        -0.15822

 Excited State  35:      Singlet-A'    12.1790 eV  101.80 nm  f=0.0224  <S**2>=0.000
      11 -> 23         0.40335
      11 -> 24         0.27987
      12 -> 23         0.27907
      12 -> 24        -0.40277

 Excited State  36:      Singlet-A'    12.1791 eV  101.80 nm  f=0.0224  <S**2>=0.000
      11 -> 23        -0.27966
      11 -> 24         0.40360
      12 -> 23         0.40253
      12 -> 24         0.27929

 Excited State  37:      Singlet-A"    12.2450 eV  101.25 nm  f=0.0000  <S**2>=0.000
       9 -> 17        -0.10746
      12 -> 25         0.68703

 Excited State  38:      Singlet-A"    12.2452 eV  101.25 nm  f=0.0000  <S**2>=0.000
      10 -> 17        -0.10741
      11 -> 25         0.68704

 Excited State  39:      Singlet-A'    12.3042 eV  100.77 nm  f=0.0000  <S**2>=0.000
       8 -> 13         0.63864
       9 -> 19         0.18188
      10 -> 20         0.18193

 Excited State  40:      Singlet-A"    12.5242 eV   99.00 nm  f=0.0000  <S**2>=0.000
      11 -> 26        -0.30375
      11 -> 27         0.38618
      12 -> 26         0.38758
      12 -> 27         0.30407

 Excited State  41:      Singlet-A"    12.5242 eV   99.00 nm  f=0.0000  <S**2>=0.000
      11 -> 26        -0.38666
      11 -> 27        -0.30335
      12 -> 26        -0.30446
      12 -> 27         0.38710

 Excited State  42:      Singlet-A'    12.5741 eV   98.60 nm  f=0.0000  <S**2>=0.000
       9 -> 20        -0.49386
      10 -> 19         0.49474

 Excited State  43:      Singlet-A"    12.5787 eV   98.57 nm  f=0.0000  <S**2>=0.000
      11 -> 27         0.50037
      12 -> 26        -0.49859

 Excited State  44:      Singlet-A"    12.6444 eV   98.05 nm  f=0.0282  <S**2>=0.000
       8 -> 16        -0.15372
      11 -> 26         0.47423
      12 -> 27         0.47370

 Excited State  45:      Singlet-A'    12.6474 eV   98.03 nm  f=0.0206  <S**2>=0.000
       8 -> 14        -0.12051
       9 -> 19        -0.44368
       9 -> 20         0.17291
      10 -> 19         0.17264
      10 -> 20         0.44373
      12 -> 28         0.12865

 Excited State  46:      Singlet-A'    12.6474 eV   98.03 nm  f=0.0206  <S**2>=0.000
       8 -> 15         0.12046
       9 -> 19         0.17285
       9 -> 20         0.44413
      10 -> 19         0.44331
      10 -> 20        -0.17271
      11 -> 28         0.12859

 Excited State  47:      Singlet-A'    12.8413 eV   96.55 nm  f=0.0520  <S**2>=0.000
       8 -> 14         0.62582
       9 -> 19        -0.11296
      10 -> 20         0.11300
      12 -> 28        -0.25115

 Excited State  48:      Singlet-A'    12.8414 eV   96.55 nm  f=0.0520  <S**2>=0.000
       8 -> 15         0.62586
       9 -> 20        -0.11304
      10 -> 19        -0.11283
      11 -> 28         0.25106

 Excited State  49:      Singlet-A"    12.9851 eV   95.48 nm  f=0.0378  <S**2>=0.000
       7 -> 13         0.63824
       8 -> 16        -0.29802

 Excited State  50:      Singlet-A'    13.0720 eV   94.85 nm  f=0.0000  <S**2>=0.000
       7 -> 16         0.30870
       8 -> 13        -0.20021
       9 -> 19         0.39152
      10 -> 20         0.39154
      11 -> 21        -0.12662
      12 -> 22        -0.12665

 Excited State  51:      Singlet-A'    13.0787 eV   94.80 nm  f=0.2901  <S**2>=0.000
       8 -> 14         0.26411
       9 -> 25        -0.10806
      12 -> 28         0.60988

 Excited State  52:      Singlet-A'    13.0789 eV   94.80 nm  f=0.2901  <S**2>=0.000
       8 -> 15        -0.26401
      10 -> 25        -0.10807
      11 -> 28         0.60993

 Excited State  53:      Singlet-A"    13.1575 eV   94.23 nm  f=0.0888  <S**2>=0.000
       7 -> 13         0.22228
       8 -> 16         0.54458
       9 -> 22        -0.21395
       9 -> 23         0.12646
      10 -> 21        -0.21445
      10 -> 24        -0.12644

 Excited State  54:      Singlet-A"    13.1771 eV   94.09 nm  f=0.0000  <S**2>=0.000
       9 -> 21        -0.46086
       9 -> 22        -0.19115
      10 -> 21        -0.19170
      10 -> 22         0.46126

 Excited State  55:      Singlet-A"    13.2265 eV   93.74 nm  f=0.0000  <S**2>=0.000
       9 -> 21         0.49402
      10 -> 22         0.49414

 Excited State  56:      Singlet-A"    13.2265 eV   93.74 nm  f=0.0000  <S**2>=0.000
       9 -> 22        -0.49263
      10 -> 21         0.49553

 Excited State  57:      Singlet-A"    13.2401 eV   93.64 nm  f=0.0916  <S**2>=0.000
       7 -> 13         0.13491
       8 -> 16         0.25160
       9 -> 21        -0.16923
       9 -> 22         0.40884
      10 -> 21         0.40461
      10 -> 22         0.16850

 Excited State  58:      Singlet-A"    13.5906 eV   91.23 nm  f=0.0000  <S**2>=0.000
       7 -> 14         0.70615

 Excited State  59:      Singlet-A"    13.5907 eV   91.23 nm  f=0.0000  <S**2>=0.000
       7 -> 15         0.70615

 Excited State  60:      Singlet-A"    13.8930 eV   89.24 nm  f=0.0000  <S**2>=0.000
       9 -> 24         0.48873
      10 -> 23         0.49125

 Excited State  61:      Singlet-A"    13.9204 eV   89.07 nm  f=0.0000  <S**2>=0.000
       9 -> 23        -0.24375
       9 -> 24         0.42812
      10 -> 23        -0.42604
      10 -> 24        -0.24422

 Excited State  62:      Singlet-A"    13.9204 eV   89.07 nm  f=0.0000  <S**2>=0.000
       9 -> 23         0.42721
       9 -> 24         0.24467
      10 -> 23        -0.24329
      10 -> 24         0.42695

 Excited State  63:      Singlet-A'    14.1624 eV   87.54 nm  f=0.0197  <S**2>=0.000
       9 -> 26         0.20067
      10 -> 25         0.61331
      10 -> 27         0.20089
      11 -> 29         0.10385
      12 -> 30         0.10388

 Excited State  64:      Singlet-A'    14.1625 eV   87.54 nm  f=0.0197  <S**2>=0.000
       9 -> 25         0.61328
       9 -> 27        -0.20063
      10 -> 26         0.20099
      11 -> 30         0.10386
      12 -> 29        -0.10388

 Excited State  65:      Singlet-A'    14.1898 eV   87.38 nm  f=0.0000  <S**2>=0.000
       7 -> 16         0.46494
       8 -> 17        -0.38057
       9 -> 27        -0.20871
      10 -> 26        -0.20851

 Excited State  66:      Singlet-A'    14.2624 eV   86.93 nm  f=0.0000  <S**2>=0.000
       8 -> 18         0.15217
       9 -> 26         0.48393
      10 -> 27        -0.48387

 Excited State  67:      Singlet-A"    14.3033 eV   86.68 nm  f=0.6349  <S**2>=0.000
       7 -> 13        -0.10163
       7 -> 17        -0.25677
       8 -> 16        -0.12887
       9 -> 23         0.42411
      10 -> 24        -0.42407

 Excited State  68:      Singlet-A'    14.3602 eV   86.34 nm  f=0.0000  <S**2>=0.000
       8 -> 17        -0.39105
       9 -> 27         0.40979
      10 -> 26         0.40982

 Excited State  69:      Singlet-A'    14.5488 eV   85.22 nm  f=0.3805  <S**2>=0.000
       9 -> 25         0.21316
       9 -> 27         0.43179
      10 -> 26        -0.43170
      11 -> 29        -0.10713
      11 -> 30         0.11183
      12 -> 28         0.10770
      12 -> 29        -0.11191
      12 -> 30        -0.10715

 Excited State  70:      Singlet-A'    14.5488 eV   85.22 nm  f=0.3805  <S**2>=0.000
       9 -> 26         0.43179
      10 -> 25        -0.21311
      10 -> 27         0.43172
      11 -> 28        -0.10771
      11 -> 29        -0.11180
      11 -> 30        -0.10702
      12 -> 29         0.10725
      12 -> 30        -0.11195

 Excited State  71:      Singlet-A'    14.6004 eV   84.92 nm  f=0.0000  <S**2>=0.000
       8 -> 18         0.51407
      11 -> 29        -0.20654
      11 -> 30        -0.26552
      12 -> 29        -0.26546
      12 -> 30         0.20649

 Excited State  72:      Singlet-A'    14.6317 eV   84.74 nm  f=0.0000  <S**2>=0.000
       5 -> 14        -0.11222
       6 -> 15         0.11222
       7 -> 16         0.37366
       8 -> 17         0.44179
       9 -> 19        -0.10245
       9 -> 27         0.17634
      10 -> 20        -0.10244
      10 -> 26         0.17626

 Excited State  73:      Singlet-A"    14.7011 eV   84.34 nm  f=0.0000  <S**2>=0.000
      10 -> 28         0.69518

 Excited State  74:      Singlet-A"    14.7012 eV   84.34 nm  f=0.0000  <S**2>=0.000
       9 -> 28         0.69519

 Excited State  75:      Singlet-A'    14.8788 eV   83.33 nm  f=0.0000  <S**2>=0.000
      11 -> 29        -0.37913
      11 -> 30         0.29490
      12 -> 29         0.29502
      12 -> 30         0.37924

 Excited State  76:      Singlet-A'    14.9126 eV   83.14 nm  f=0.0000  <S**2>=0.000
       8 -> 18         0.45671
      11 -> 29         0.22588
      11 -> 30         0.29037
      12 -> 29         0.29048
      12 -> 30        -0.22596

 Excited State  77:      Singlet-A'    15.1046 eV   82.08 nm  f=0.3987  <S**2>=0.000
       6 -> 13        -0.12344
      10 -> 25        -0.17305
      11 -> 29         0.24987
      11 -> 30         0.33862
      11 -> 31         0.12887
      12 -> 29        -0.33849
      12 -> 30         0.24982
      12 -> 32         0.16389

 Excited State  78:      Singlet-A'    15.1046 eV   82.08 nm  f=0.3987  <S**2>=0.000
       5 -> 13         0.12342
       9 -> 25         0.17306
      11 -> 29         0.33862
      11 -> 30        -0.24991
      11 -> 32         0.16386
      12 -> 29         0.24979
      12 -> 30         0.33847
      12 -> 31        -0.12892

 Excited State  79:      Singlet-A"    15.2556 eV   81.27 nm  f=0.0000  <S**2>=0.000
       8 -> 19         0.70662

 Excited State  80:      Singlet-A"    15.2557 eV   81.27 nm  f=0.0000  <S**2>=0.000
       8 -> 20         0.70662

 Excited State  81:      Singlet-A"    15.3572 eV   80.73 nm  f=0.0000  <S**2>=0.000
       7 -> 18         0.70668

 Excited State  82:      Singlet-A"    15.3741 eV   80.64 nm  f=0.4833  <S**2>=0.000
       7 -> 17         0.64334
       8 -> 25         0.12604
       9 -> 23         0.13145
      10 -> 24        -0.13144

 Excited State  83:      Singlet-A'    15.4504 eV   80.25 nm  f=0.0182  <S**2>=0.000
       5 -> 13         0.11206
       6 -> 13         0.55008
      11 -> 31         0.38817
      12 -> 32         0.13875

 Excited State  84:      Singlet-A'    15.4504 eV   80.25 nm  f=0.0183  <S**2>=0.000
       5 -> 13         0.54947
       6 -> 13        -0.11223
      11 -> 32        -0.13822
      12 -> 31         0.38922

 Excited State  85:      Singlet-A'    15.5149 eV   79.91 nm  f=0.0138  <S**2>=0.000
       5 -> 13        -0.32287
      11 -> 32         0.27752
      12 -> 31         0.54774

 Excited State  86:      Singlet-A'    15.5150 eV   79.91 nm  f=0.0138  <S**2>=0.000
       6 -> 13        -0.32173
      11 -> 31         0.54850
      12 -> 32        -0.27737

 Excited State  87:      Singlet-A'    15.7947 eV   78.50 nm  f=0.0085  <S**2>=0.000
       5 -> 15         0.13800
       6 -> 13        -0.15284
       6 -> 14        -0.13807
       7 -> 20        -0.24275
       8 -> 21         0.33443
      11 -> 31         0.10065
      12 -> 32         0.47201

 Excited State  88:      Singlet-A'    15.7948 eV   78.50 nm  f=0.0085  <S**2>=0.000
       5 -> 13         0.15278
       5 -> 14        -0.13803
       6 -> 15        -0.13805
       7 -> 19         0.24282
       8 -> 22        -0.33439
      11 -> 32         0.47206
      12 -> 31        -0.10051

 Excited State  89:      Singlet-A"    15.8596 eV   78.18 nm  f=0.0000  <S**2>=0.000
      12 -> 33         0.70530

 Excited State  90:      Singlet-A"    15.8598 eV   78.18 nm  f=0.0000  <S**2>=0.000
      11 -> 33         0.70530

 Excited State  91:      Singlet-A"    15.9781 eV   77.60 nm  f=0.0000  <S**2>=0.000
      12 -> 34         0.70404

 Excited State  92:      Singlet-A"    15.9782 eV   77.60 nm  f=0.0000  <S**2>=0.000
      11 -> 34         0.70404

 Excited State  93:      Singlet-A'    16.0026 eV   77.48 nm  f=0.1106  <S**2>=0.000
       7 -> 19        -0.29608
       7 -> 20         0.37618
       8 -> 21         0.45595
       8 -> 22        -0.20278

 Excited State  94:      Singlet-A'    16.0026 eV   77.48 nm  f=0.1105  <S**2>=0.000
       7 -> 19         0.37662
       7 -> 20         0.29590
       8 -> 21         0.20295
       8 -> 22         0.45575

 Excited State  95:      Singlet-A'    16.0162 eV   77.41 nm  f=0.0003  <S**2>=0.000
       5 -> 14         0.42826
       6 -> 15         0.42824
       7 -> 19         0.29655
       8 -> 22        -0.16391

 Excited State  96:      Singlet-A'    16.0162 eV   77.41 nm  f=0.0003  <S**2>=0.000
       5 -> 15        -0.42744
       6 -> 14         0.42890
       7 -> 20        -0.29724
       8 -> 21         0.16312

 Excited State  97:      Singlet-A'    16.0533 eV   77.23 nm  f=0.0000  <S**2>=0.000
       5 -> 14         0.18031
       5 -> 15         0.46471
       6 -> 14         0.46334
       6 -> 15        -0.18017

 Excited State  98:      Singlet-A"    16.2994 eV   76.07 nm  f=0.0000  <S**2>=0.000
       6 -> 16         0.66726
       9 -> 30         0.13406
      10 -> 29         0.13413

 Excited State  99:      Singlet-A"    16.2995 eV   76.07 nm  f=0.0000  <S**2>=0.000
       5 -> 16         0.66725
       9 -> 29        -0.13410
      10 -> 30         0.13414

 Excited State 100:      Singlet-A'    16.4801 eV   75.23 nm  f=0.0000  <S**2>=0.000
       5 -> 14        -0.42437
       5 -> 15         0.16461
       6 -> 14         0.16511
       6 -> 15         0.42447
       7 -> 16        -0.11360
       8 -> 28         0.12850

 Excited State 101:      Singlet-A'    16.4884 eV   75.19 nm  f=0.0002  <S**2>=0.000
       5 -> 14         0.13117
       6 -> 15         0.13140
       7 -> 19        -0.26678
       8 -> 22         0.20319
       8 -> 23         0.37955
       8 -> 24        -0.30590
      11 -> 32         0.21295

 Excited State 102:      Singlet-A'    16.4884 eV   75.19 nm  f=0.0002  <S**2>=0.000
       5 -> 15        -0.13163
       6 -> 14         0.13097
       7 -> 20         0.26682
       8 -> 21        -0.20319
       8 -> 23         0.30593
       8 -> 24         0.37949
      12 -> 32         0.21292

 Excited State 103:      Singlet-A"    16.5271 eV   75.02 nm  f=0.0000  <S**2>=0.000
       9 -> 29         0.35134
       9 -> 30        -0.35484
      10 -> 29         0.35525
      10 -> 30         0.35155

 Excited State 104:      Singlet-A"    16.6080 eV   74.65 nm  f=0.0000  <S**2>=0.000
       6 -> 16        -0.19187
       7 -> 21        -0.27703
       7 -> 22        -0.12254
       9 -> 29        -0.28016
       9 -> 30         0.32126
      10 -> 29         0.32104
      10 -> 30         0.27974

 Excited State 105:      Singlet-A"    16.6080 eV   74.65 nm  f=0.0000  <S**2>=0.000
       5 -> 16        -0.19195
       7 -> 21         0.12261
       7 -> 22        -0.27686
       9 -> 29        -0.32103
       9 -> 30        -0.27983
      10 -> 29        -0.28004
      10 -> 30         0.32138

 Excited State 106:      Singlet-A"    16.6794 eV   74.33 nm  f=0.0000  <S**2>=0.000
       6 -> 16        -0.10346
       7 -> 21         0.63525
       9 -> 30         0.18773
      10 -> 29         0.18803

 Excited State 107:      Singlet-A"    16.6795 eV   74.33 nm  f=0.0000  <S**2>=0.000
       5 -> 16        -0.10342
       7 -> 22         0.63534
       9 -> 29        -0.18747
      10 -> 30         0.18804

 Excited State 108:      Singlet-A"    16.6936 eV   74.27 nm  f=0.0556  <S**2>=0.000
       9 -> 29         0.34956
       9 -> 30         0.34614
      10 -> 29        -0.34547
      10 -> 30         0.34912

 The electronic state is 1-A'.
 Alpha  occ. eigenvalues --   -9.99951  -9.99933  -9.99933  -0.78597  -0.54341
 Alpha  occ. eigenvalues --   -0.54340  -0.45286  -0.42543  -0.32666  -0.32666
 Alpha  occ. eigenvalues --   -0.26154  -0.26154
 Alpha virt. eigenvalues --    0.02277   0.04522   0.04522   0.05400   0.10195
 Alpha virt. eigenvalues --    0.10987   0.13559   0.13559   0.16048   0.16048
 Alpha virt. eigenvalues --    0.18412   0.18412   0.18709   0.20106   0.20106

 Mulliken charges:
               1
     1  C    0.405740
     2  C    0.405844
     3  C    0.405744
     4  H   -0.202881
     5  H   -0.202881
     6  H   -0.202896
     7  H   -0.202896
     8  H   -0.202888
     9  H   -0.202888
 Sum of Mulliken charges =  -0.00000

 Dipole moment (field-independent basis, Debye):
    X=             -0.0000    Y=             -0.0000    Z=              0.0000  Tot=              0.0000
 Quadrupole moment (field-independent basis, Debye-Ang):
   XX=            -20.7300   YY=            -20.7300   ZZ=            -18.6069
   XY=             -0.0001   XZ=              0.0000   YZ=              0.0000

 Normal termination of Gaussian 16 at Mon Mar 21 20:18:40 2022.
