 Gaussian 16, Revision C.01,
 Gaussian 16:  EM64L-G16RevC.01  3-Jul-2019

 ----------------------------------------------------------------------
 #P TD(Nstates=10000) tpsstpss/Gen SCF(maxcycles=100) Int(Grid=ultrafin
 e)
 ----------------------------------------------------------------------

 ---------------------
 xGDB7_00001_tier4.com
 ---------------------
 Symbolic Z-matrix:
 Charge =  0 Multiplicity = 1

                         Standard orientation:
 ---------------------------------------------------------------------
 Center     Atomic      Atomic             Coordinates (Angstroms)
 Number     Number       Type             X           Y           Z
 ---------------------------------------------------------------------
      1          6           0       -1.131573   -0.504386    0.000000
      2          6           0        0.000000    0.472223    0.000000
      3          6           0        1.284136    0.150792    0.000000
      4          1           0       -1.767446   -0.362776    0.877699
      5          1           0       -0.770122   -1.533458    0.000000
      6          1           0       -1.767446   -0.362776   -0.877699
      7          1           0       -0.276551    1.523465    0.000000
      8          1           0        1.608435   -0.884555    0.000000
      9          1           0        2.057749    0.908327    0.000000
 ---------------------------------------------------------------------

 SCF Done:  E(RTPSS-TPSS) =  -117.849343949     A.U. after   13 cycles

 Excitation energies and oscillator strengths:

 Excited State   1:      Singlet-A"     6.8641 eV  180.63 nm  f=0.0075  <S**2>=0.000
      12 -> 14         0.70692
 This state for optimization and/or second-order correction.
 Total Energy, E(TD-HF/TD-DFT) =  -117.597092663
 Copying the excited state density for this state as the 1-particle RhoCI density.

 Excited State   2:      Singlet-A'     7.5954 eV  163.24 nm  f=0.3940  <S**2>=0.000
      12 -> 13         0.68504

 Excited State   3:      Singlet-A"     7.6049 eV  163.03 nm  f=0.0369  <S**2>=0.000
      12 -> 15         0.70283

 Excited State   4:      Singlet-A"     7.6441 eV  162.20 nm  f=0.0011  <S**2>=0.000
      12 -> 16         0.70189

 Excited State   5:      Singlet-A"     8.1448 eV  152.23 nm  f=0.0000  <S**2>=0.000
      11 -> 13         0.70225

 Excited State   6:      Singlet-A"     8.7703 eV  141.37 nm  f=0.0016  <S**2>=0.000
      10 -> 13         0.65990
      12 -> 17        -0.24846

 Excited State   7:      Singlet-A"     8.8433 eV  140.20 nm  f=0.0008  <S**2>=0.000
      10 -> 13         0.24597
      12 -> 17         0.66024

 Excited State   8:      Singlet-A'     9.0015 eV  137.74 nm  f=0.0095  <S**2>=0.000
      11 -> 14        -0.26812
      12 -> 18         0.65233

 Excited State   9:      Singlet-A'     9.0994 eV  136.26 nm  f=0.0465  <S**2>=0.000
      11 -> 14         0.65188
      12 -> 18         0.26458

 Excited State  10:      Singlet-A"     9.3359 eV  132.80 nm  f=0.0216  <S**2>=0.000
      12 -> 19         0.70396

 Excited State  11:      Singlet-A'     9.7326 eV  127.39 nm  f=0.0425  <S**2>=0.000
      10 -> 14         0.63246
      11 -> 15        -0.31121

 Excited State  12:      Singlet-A'     9.7664 eV  126.95 nm  f=0.0413  <S**2>=0.000
      10 -> 14         0.29752
      11 -> 15         0.62227
      11 -> 16         0.13095

 Excited State  13:      Singlet-A"     9.7729 eV  126.87 nm  f=0.0145  <S**2>=0.000
      12 -> 20         0.70346

 Excited State  14:      Singlet-A'     9.8792 eV  125.50 nm  f=0.1678  <S**2>=0.000
      11 -> 15        -0.10884
      11 -> 16         0.68529

 Excited State  15:      Singlet-A"    10.0696 eV  123.13 nm  f=0.0000  <S**2>=0.000
       8 -> 13         0.69483
      12 -> 22         0.11092

 Excited State  16:      Singlet-A'    10.1953 eV  121.61 nm  f=0.0535  <S**2>=0.000
      12 -> 21         0.68832

 Excited State  17:      Singlet-A'    10.2548 eV  120.90 nm  f=0.0327  <S**2>=0.000
       9 -> 13         0.68127

 Excited State  18:      Singlet-A"    10.3272 eV  120.06 nm  f=0.0313  <S**2>=0.000
       8 -> 13        -0.10894
      12 -> 22         0.69072

 Excited State  19:      Singlet-A'    10.4687 eV  118.43 nm  f=0.0052  <S**2>=0.000
      10 -> 15         0.68546
      10 -> 16        -0.13405

 Excited State  20:      Singlet-A'    10.5107 eV  117.96 nm  f=0.0566  <S**2>=0.000
      10 -> 15         0.13050
      10 -> 16         0.68762

 Excited State  21:      Singlet-A"    10.5756 eV  117.24 nm  f=0.0016  <S**2>=0.000
      12 -> 23         0.70477

 Excited State  22:      Singlet-A"    10.8995 eV  113.75 nm  f=0.0959  <S**2>=0.000
       9 -> 14         0.70001

 Excited State  23:      Singlet-A'    11.0174 eV  112.53 nm  f=0.0094  <S**2>=0.000
       8 -> 14         0.52310
      11 -> 17         0.37649
      12 -> 24        -0.27645

 Excited State  24:      Singlet-A'    11.0964 eV  111.73 nm  f=0.0697  <S**2>=0.000
       8 -> 14        -0.45550
      11 -> 17         0.49011
      12 -> 24        -0.17455

 Excited State  25:      Singlet-A"    11.1416 eV  111.28 nm  f=0.0036  <S**2>=0.000
      11 -> 18         0.70198

 Excited State  26:      Singlet-A'    11.2045 eV  110.66 nm  f=0.0195  <S**2>=0.000
       8 -> 15        -0.11347
      11 -> 17         0.29586
      12 -> 24         0.57926

 Excited State  27:      Singlet-A"    11.2941 eV  109.78 nm  f=0.0022  <S**2>=0.000
       7 -> 13         0.65770
      12 -> 25        -0.24831

 Excited State  28:      Singlet-A"    11.4942 eV  107.87 nm  f=0.0688  <S**2>=0.000
       7 -> 13         0.23663
       9 -> 15        -0.10257
      12 -> 25         0.63444

 Excited State  29:      Singlet-A'    11.5388 eV  107.45 nm  f=0.0571  <S**2>=0.000
      10 -> 17         0.19909
      11 -> 19         0.66444

 Excited State  30:      Singlet-A"    11.5777 eV  107.09 nm  f=0.0427  <S**2>=0.000
       9 -> 15         0.66401
       9 -> 16        -0.20407
      12 -> 25         0.11735

 Excited State  31:      Singlet-A"    11.5987 eV  106.90 nm  f=0.0008  <S**2>=0.000
       9 -> 15         0.21254
       9 -> 16         0.66915

 Excited State  32:      Singlet-A'    11.6812 eV  106.14 nm  f=0.0579  <S**2>=0.000
       8 -> 15        -0.34736
       8 -> 16        -0.24530
      10 -> 17         0.52930
      11 -> 19        -0.16279

 Excited State  33:      Singlet-A'    11.7942 eV  105.12 nm  f=0.0598  <S**2>=0.000
       8 -> 15         0.54404
       8 -> 16        -0.35582
      10 -> 17         0.18687
      12 -> 26         0.10205

 Excited State  34:      Singlet-A'    11.8259 eV  104.84 nm  f=0.0790  <S**2>=0.000
       8 -> 15         0.23457
       8 -> 16         0.52102
      10 -> 17         0.31443
      11 -> 19        -0.12405
      11 -> 20        -0.20271

 Excited State  35:      Singlet-A"    11.8383 eV  104.73 nm  f=0.0402  <S**2>=0.000
      10 -> 18         0.69261

 Excited State  36:      Singlet-A'    11.9437 eV  103.81 nm  f=0.0293  <S**2>=0.000
       8 -> 16         0.16773
      10 -> 17         0.14126
      11 -> 20         0.65868

 Excited State  37:      Singlet-A'    12.2012 eV  101.62 nm  f=0.0389  <S**2>=0.000
       7 -> 14         0.54128
      10 -> 19        -0.43881

 Excited State  38:      Singlet-A"    12.2339 eV  101.34 nm  f=0.0263  <S**2>=0.000
      11 -> 21         0.68809
      12 -> 27         0.13970

 Excited State  39:      Singlet-A'    12.2858 eV  100.92 nm  f=0.0449  <S**2>=0.000
       7 -> 14         0.27455
      10 -> 19         0.21801
      12 -> 26         0.56787

 Excited State  40:      Singlet-A'    12.3164 eV  100.67 nm  f=0.0903  <S**2>=0.000
       7 -> 14         0.32809
      10 -> 19         0.47040
      11 -> 22         0.10551
      11 -> 23         0.10881
      12 -> 26        -0.33419

 Excited State  41:      Singlet-A"    12.4050 eV   99.95 nm  f=0.0159  <S**2>=0.000
      11 -> 21        -0.13483
      12 -> 27         0.68516

 Excited State  42:      Singlet-A'    12.5628 eV   98.69 nm  f=0.0912  <S**2>=0.000
      10 -> 20         0.13826
      11 -> 22         0.66410
      12 -> 26         0.13834

 Excited State  43:      Singlet-A'    12.6324 eV   98.15 nm  f=0.0018  <S**2>=0.000
       9 -> 18        -0.20572
      10 -> 20         0.65923
      11 -> 22        -0.13177

 Excited State  44:      Singlet-A"    12.7810 eV   97.01 nm  f=0.0087  <S**2>=0.000
       9 -> 17         0.68547
      10 -> 21        -0.13098

 Excited State  45:      Singlet-A"    12.8040 eV   96.83 nm  f=0.0076  <S**2>=0.000
      10 -> 21        -0.15259
      12 -> 28         0.67320

 Excited State  46:      Singlet-A'    12.8156 eV   96.75 nm  f=0.0192  <S**2>=0.000
       7 -> 15         0.15379
       7 -> 16         0.27632
       9 -> 18        -0.11902
      11 -> 23         0.60286

 Excited State  47:      Singlet-A"    12.9366 eV   95.84 nm  f=0.0014  <S**2>=0.000
       9 -> 17         0.14346
       9 -> 19         0.19851
      10 -> 21         0.64466
      12 -> 28         0.12442

 Excited State  48:      Singlet-A'    12.9427 eV   95.79 nm  f=0.0771  <S**2>=0.000
       7 -> 15         0.60333
       7 -> 16        -0.25370
       8 -> 17        -0.23041
      10 -> 22        -0.10786

 Excited State  49:      Singlet-A'    13.0093 eV   95.30 nm  f=0.1461  <S**2>=0.000
       7 -> 16        -0.44134
       8 -> 17         0.45667
       9 -> 18        -0.24142
      11 -> 23         0.10139

 Excited State  50:      Singlet-A"    13.0588 eV   94.94 nm  f=0.0005  <S**2>=0.000
      11 -> 24         0.70140

 Excited State  51:      Singlet-A"    13.0968 eV   94.67 nm  f=0.0000  <S**2>=0.000
       8 -> 18         0.69899

 Excited State  52:      Singlet-A'    13.1334 eV   94.40 nm  f=0.1169  <S**2>=0.000
       7 -> 15         0.28347
       7 -> 16         0.30262
       8 -> 17         0.24997
      10 -> 22         0.42949
      11 -> 23        -0.20563

 Excited State  53:      Singlet-A'    13.1742 eV   94.11 nm  f=0.0163  <S**2>=0.000
       7 -> 15        -0.11618
       7 -> 16        -0.14142
       8 -> 17        -0.33827
       9 -> 18        -0.25263
      10 -> 22         0.44962
      12 -> 29        -0.17891

 Excited State  54:      Singlet-A'    13.3815 eV   92.65 nm  f=0.0823  <S**2>=0.000
       7 -> 16        -0.11207
       8 -> 19         0.47072
       8 -> 20        -0.10713
       9 -> 18         0.34275
      10 -> 20         0.10283
      10 -> 22         0.16400
      10 -> 23        -0.22651
      11 -> 25         0.10098
      12 -> 29         0.10017

 Excited State  55:      Singlet-A"    13.4065 eV   92.48 nm  f=0.0525  <S**2>=0.000
       6 -> 13         0.19217
       9 -> 19         0.63414
      10 -> 21        -0.16443

 Excited State  56:      Singlet-A'    13.4408 eV   92.24 nm  f=0.0385  <S**2>=0.000
       8 -> 19        -0.11664
       8 -> 20        -0.11666
       9 -> 18         0.20049
      10 -> 22         0.10530
      10 -> 23         0.51674
      11 -> 25         0.10782
      12 -> 29         0.32878

 Excited State  57:      Singlet-A'    13.5282 eV   91.65 nm  f=0.0075  <S**2>=0.000
       7 -> 17        -0.11735
       8 -> 19         0.42370
       8 -> 20         0.17578
      10 -> 22        -0.16208
      10 -> 23         0.37352
      11 -> 25         0.11203
      12 -> 29        -0.23823

 Excited State  58:      Singlet-A'    13.6552 eV   90.80 nm  f=0.0046  <S**2>=0.000
       8 -> 19        -0.21623
       9 -> 18         0.14360
      11 -> 25         0.49281
      12 -> 29        -0.32517
      12 -> 31         0.11829

 Excited State  59:      Singlet-A'    13.6897 eV   90.57 nm  f=0.0713  <S**2>=0.000
       8 -> 20         0.14162
       9 -> 18        -0.24174
      10 -> 23        -0.13718
      11 -> 25         0.44216
      12 -> 29         0.34923

 Excited State  60:      Singlet-A"    13.6937 eV   90.54 nm  f=0.0001  <S**2>=0.000
       6 -> 13         0.22570
       9 -> 20         0.62722
      12 -> 30         0.20618

 Excited State  61:      Singlet-A"    13.7413 eV   90.23 nm  f=0.0001  <S**2>=0.000
       6 -> 13         0.20523
       9 -> 20        -0.24409
      10 -> 24         0.56648
      12 -> 30         0.26131

 Excited State  62:      Singlet-A"    13.7773 eV   89.99 nm  f=0.0099  <S**2>=0.000
       6 -> 13        -0.12569
       9 -> 20        -0.11140
      10 -> 24        -0.29026
      12 -> 30         0.61737

 Excited State  63:      Singlet-A'    13.9728 eV   88.73 nm  f=0.0007  <S**2>=0.000
       7 -> 17         0.29439
       8 -> 20         0.54785
      10 -> 25         0.14571
      12 -> 31         0.22264

 Excited State  64:      Singlet-A"    14.0469 eV   88.26 nm  f=0.0999  <S**2>=0.000
       6 -> 13         0.48762
       7 -> 18         0.31934
       9 -> 19        -0.13585
       9 -> 20        -0.12645
      10 -> 24        -0.26863

 Excited State  65:      Singlet-A'    14.0729 eV   88.10 nm  f=0.0271  <S**2>=0.000
       7 -> 17        -0.20008
       8 -> 20        -0.14024
       9 -> 21         0.17028
      12 -> 31         0.61551

 Excited State  66:      Singlet-A"    14.1661 eV   87.52 nm  f=0.0000  <S**2>=0.000
       8 -> 21         0.64516
       9 -> 22        -0.27259

 Excited State  67:      Singlet-A'    14.1898 eV   87.38 nm  f=0.0014  <S**2>=0.000
       7 -> 17        -0.29841
       7 -> 19         0.10627
       8 -> 20         0.12452
       9 -> 21         0.54379
      10 -> 25         0.13142
      12 -> 31        -0.19859

 Excited State  68:      Singlet-A"    14.2839 eV   86.80 nm  f=0.0005  <S**2>=0.000
       7 -> 18         0.12728
       8 -> 21         0.26284
       9 -> 22         0.61283
      11 -> 26         0.15940

 Excited State  69:      Singlet-A'    14.2943 eV   86.74 nm  f=0.0070  <S**2>=0.000
       6 -> 14        -0.29526
       7 -> 17        -0.34726
       8 -> 22        -0.25077
       9 -> 21        -0.25364
      10 -> 25         0.37798

 Excited State  70:      Singlet-A"    14.3809 eV   86.21 nm  f=0.0785  <S**2>=0.000
       6 -> 13        -0.14263
       7 -> 18         0.53919
       9 -> 22        -0.14109
       9 -> 23         0.21612
      11 -> 26         0.26462
      12 -> 32        -0.11655

 Excited State  71:      Singlet-A'    14.4051 eV   86.07 nm  f=0.0032  <S**2>=0.000
       6 -> 14         0.44743
       6 -> 16        -0.10439
       7 -> 17         0.11169
       7 -> 19        -0.11038
       8 -> 22        -0.15227
      10 -> 25         0.42553
      11 -> 27        -0.14527

 Excited State  72:      Singlet-A"    14.4207 eV   85.98 nm  f=0.0842  <S**2>=0.000
       6 -> 13         0.16731
       7 -> 18        -0.21955
       9 -> 22        -0.11353
       9 -> 23        -0.10645
      11 -> 26         0.61603

 Excited State  73:      Singlet-A'    14.4945 eV   85.54 nm  f=0.0006  <S**2>=0.000
       6 -> 14        -0.20291
       7 -> 17         0.12319
       7 -> 19        -0.25081
       8 -> 22         0.43537
      10 -> 25         0.27013
      11 -> 27         0.25486

 Excited State  74:      Singlet-A"    14.5209 eV   85.38 nm  f=0.0016  <S**2>=0.000
       9 -> 23         0.28685
      12 -> 32         0.63902

 Excited State  75:      Singlet-A'    14.5879 eV   84.99 nm  f=0.1392  <S**2>=0.000
       6 -> 14         0.35931
       6 -> 15        -0.10846
       6 -> 16         0.12298
       7 -> 17        -0.25625
       7 -> 19         0.11493
       8 -> 20         0.14440
       8 -> 22         0.29871
       8 -> 23         0.10376
       9 -> 21        -0.21948
      11 -> 27         0.21610

 Excited State  76:      Singlet-A"    14.6100 eV   84.86 nm  f=0.1050  <S**2>=0.000
       6 -> 13         0.11540
       7 -> 18        -0.17585
       9 -> 23         0.58728
      12 -> 32        -0.26859

 Excited State  77:      Singlet-A'    14.7477 eV   84.07 nm  f=0.0308  <S**2>=0.000
       8 -> 23         0.65329
      11 -> 27        -0.15544
      11 -> 28         0.10134

 Excited State  78:      Singlet-A'    14.8093 eV   83.72 nm  f=0.0434  <S**2>=0.000
       6 -> 15         0.12808
       6 -> 16        -0.17051
       7 -> 17         0.13735
       7 -> 19         0.46420
       9 -> 24         0.12325
      10 -> 27        -0.12137
      11 -> 27         0.35267

 Excited State  79:      Singlet-A"    14.8870 eV   83.28 nm  f=0.0194  <S**2>=0.000
      12 -> 33         0.70129

 Excited State  80:      Singlet-A'    14.9210 eV   83.09 nm  f=0.1470  <S**2>=0.000
       7 -> 19         0.16787
       7 -> 20        -0.14422
       8 -> 22         0.19819
       8 -> 23        -0.11737
       9 -> 24         0.49410
      10 -> 28        -0.11467
      11 -> 27        -0.29371

 Excited State  81:      Singlet-A'    14.9854 eV   82.74 nm  f=0.2114  <S**2>=0.000
       6 -> 15        -0.15267
       6 -> 16         0.15166
       7 -> 19        -0.28265
       8 -> 22        -0.18272
       9 -> 24         0.44089
      10 -> 27        -0.12596
      10 -> 28         0.12573
      11 -> 27         0.20909
      11 -> 28         0.19794

 Excited State  82:      Singlet-A"    15.0405 eV   82.43 nm  f=0.0016  <S**2>=0.000
       8 -> 24         0.39743
      10 -> 26         0.58122

 Excited State  83:      Singlet-A"    15.0690 eV   82.28 nm  f=0.0105  <S**2>=0.000
       8 -> 24         0.56388
      10 -> 26        -0.38181
      12 -> 34         0.17129

 Excited State  84:      Singlet-A'    15.0998 eV   82.11 nm  f=0.0398  <S**2>=0.000
       6 -> 15         0.47074
       6 -> 16         0.23418
       7 -> 20        -0.35124
      11 -> 28         0.25941

 Excited State  85:      Singlet-A"    15.1183 eV   82.01 nm  f=0.0237  <S**2>=0.000
       8 -> 24        -0.13423
      10 -> 26         0.10251
      12 -> 34         0.68156

 Excited State  86:      Singlet-A'    15.1314 eV   81.94 nm  f=0.1601  <S**2>=0.000
       6 -> 15         0.24799
       7 -> 20         0.52660
       8 -> 23        -0.10676
      11 -> 28         0.28452
      12 -> 35         0.16108

 Excited State  87:      Singlet-A'    15.2371 eV   81.37 nm  f=0.0557  <S**2>=0.000
       6 -> 15         0.10442
      10 -> 27         0.46911
      11 -> 27         0.14545
      11 -> 28        -0.21506
      12 -> 35         0.38278

 Excited State  88:      Singlet-A"    15.3175 eV   80.94 nm  f=0.0104  <S**2>=0.000
      11 -> 29         0.69865

 Excited State  89:      Singlet-A'    15.3627 eV   80.70 nm  f=0.0499  <S**2>=0.000
       6 -> 15        -0.12398
       6 -> 16        -0.15429
       7 -> 20        -0.16239
      10 -> 27        -0.32302
      12 -> 35         0.52624

 Excited State  90:      Singlet-A"    15.3803 eV   80.61 nm  f=0.0003  <S**2>=0.000
       7 -> 21         0.52074
       9 -> 25         0.45012
      12 -> 36         0.11526

 Excited State  91:      Singlet-A'    15.4008 eV   80.51 nm  f=0.0264  <S**2>=0.000
       6 -> 15         0.16061
       6 -> 16         0.34227
       7 -> 20         0.12991
       7 -> 22        -0.11841
       8 -> 25         0.23749
      10 -> 27        -0.29722
      10 -> 28        -0.19015
      11 -> 28        -0.27674
      12 -> 35         0.10313

 Excited State  92:      Singlet-A'    15.4576 eV   80.21 nm  f=0.0271  <S**2>=0.000
       6 -> 15        -0.28405
       6 -> 16         0.34377
       7 -> 19         0.17298
       8 -> 25         0.23089
      10 -> 27         0.16259
      11 -> 28         0.23789
      11 -> 30         0.10608
      12 -> 35         0.13159

 Excited State  93:      Singlet-A"    15.4806 eV   80.09 nm  f=0.0038  <S**2>=0.000
       7 -> 21        -0.21463
       9 -> 25         0.10231
      12 -> 36         0.65664

 Excited State  94:      Singlet-A'    15.6119 eV   79.42 nm  f=0.0270  <S**2>=0.000
       6 -> 16        -0.13434
       7 -> 22         0.47619
       8 -> 25         0.33646
      10 -> 28        -0.32116

 Excited State  95:      Singlet-A"    15.6261 eV   79.34 nm  f=0.1146  <S**2>=0.000
       7 -> 21        -0.37826
       9 -> 25         0.48500
      10 -> 29        -0.11338
      12 -> 36        -0.21175

 Excited State  96:      Singlet-A'    15.6945 eV   79.00 nm  f=0.0118  <S**2>=0.000
       6 -> 16        -0.18229
       7 -> 22        -0.32424
       7 -> 23        -0.12713
       8 -> 25         0.49536
      10 -> 28         0.18634

 Excited State  97:      Singlet-A'    15.9231 eV   77.86 nm  f=0.0132  <S**2>=0.000
       7 -> 22         0.11085
      10 -> 28         0.13950
      11 -> 28        -0.12280
      11 -> 30         0.63273

 Excited State  98:      Singlet-A'    15.9481 eV   77.74 nm  f=0.0591  <S**2>=0.000
       7 -> 22        -0.27076
       7 -> 23         0.44139
      10 -> 28        -0.31101
      11 -> 28         0.12334
      11 -> 30         0.19741

 Excited State  99:      Singlet-A"    16.0399 eV   77.30 nm  f=0.0081  <S**2>=0.000
      10 -> 29         0.68496
      12 -> 38         0.12133

 Excited State 100:      Singlet-A'    16.1071 eV   76.97 nm  f=0.1696  <S**2>=0.000
       7 -> 22         0.16991
       7 -> 23         0.43471
       9 -> 26        -0.34573
      10 -> 28         0.27811
      11 -> 30        -0.10868

 Excited State 101:      Singlet-A"    16.1711 eV   76.67 nm  f=0.0014  <S**2>=0.000
      12 -> 37        -0.17728
      12 -> 38         0.66026

 Excited State 102:      Singlet-A"    16.2063 eV   76.50 nm  f=0.0448  <S**2>=0.000
       9 -> 27        -0.10895
      11 -> 31         0.47087
      12 -> 37         0.48929
      12 -> 38         0.11712

 Excited State 103:      Singlet-A"    16.2317 eV   76.38 nm  f=0.0115  <S**2>=0.000
       7 -> 24        -0.28283
       8 -> 26        -0.13709
      11 -> 31         0.45753
      12 -> 37        -0.41005

 Excited State 104:      Singlet-A'    16.2482 eV   76.31 nm  f=0.1479  <S**2>=0.000
       7 -> 23         0.14438
       8 -> 27         0.11139
       9 -> 26         0.52801
      10 -> 28         0.14269
      12 -> 39        -0.32524
      12 -> 40         0.14905

 Excited State 105:      Singlet-A"    16.2658 eV   76.22 nm  f=0.0085  <S**2>=0.000
       7 -> 24         0.59713
       8 -> 26        -0.25535
       9 -> 27         0.16712
      11 -> 31         0.13062
      12 -> 37        -0.15420

 Excited State 106:      Singlet-A'    16.2805 eV   76.16 nm  f=0.0850  <S**2>=0.000
       6 -> 17        -0.28503
       7 -> 23         0.12212
       9 -> 26         0.26205
      10 -> 28         0.11844
      12 -> 39         0.52904

 Excited State 107:      Singlet-A"    16.3457 eV   75.85 nm  f=0.0431  <S**2>=0.000
       6 -> 18         0.14149
       7 -> 24        -0.20673
       8 -> 26        -0.34908
       9 -> 27         0.50898
      12 -> 37         0.15930

 The electronic state is 1-A'.
 Alpha  occ. eigenvalues --  -10.00169 -10.00026  -9.98983  -0.72367  -0.62790
 Alpha  occ. eigenvalues --   -0.50470  -0.42576  -0.38150  -0.37603  -0.33433
 Alpha  occ. eigenvalues --   -0.30962  -0.23082
 Alpha virt. eigenvalues --   -0.01381   0.02179   0.04851   0.05014   0.09339
 Alpha virt. eigenvalues --    0.09965   0.11247   0.12900   0.14071   0.14776
 Alpha virt. eigenvalues --    0.15894   0.17260   0.19115   0.22023   0.22534

 Mulliken charges:
               1
     1  C    0.554674
     2  C   -0.415794
     3  C   -0.039717
     4  H    0.020381
     5  H    0.030697
     6  H    0.020381
     7  H   -0.160897
     8  H   -0.014472
     9  H    0.004747
 Sum of Mulliken charges =  -0.00000

 Dipole moment (field-independent basis, Debye):
    X=             -0.3874    Y=             -0.0436    Z=              0.0000  Tot=              0.3899
 Quadrupole moment (field-independent basis, Debye-Ang):
   XX=            -19.3979   YY=            -19.2839   ZZ=            -21.6171
   XY=             -0.2033   XZ=              0.0000   YZ=             -0.0000

 Normal termination of Gaussian 16 at Mon Mar 21 04:20:10 2022.
