 Gaussian 16, Revision C.01,
 Gaussian 16:  EM64L-G16RevC.01  3-Jul-2019

 ----------------------------------------------------------------------
 #P TD(Nstates=10000) tpsstpss/Gen SCF(maxcycles=100) Int(Grid=ultrafin
 e)
 ----------------------------------------------------------------------

 ---------------------
 xGDB7_00001_tier4.com
 ---------------------
 Symbolic Z-matrix:
 Charge =  0 Multiplicity = 1

                         Standard orientation:
 ---------------------------------------------------------------------
 Center     Atomic      Atomic             Coordinates (Angstroms)
 Number     Number       Type             X           Y           Z
 ---------------------------------------------------------------------
      1          8           0       -1.023805   -0.438791    0.000000
      2          6           0       -0.000000    0.418952    0.000000
      3          8           0        1.152985    0.109982   -0.000000
      4          1           0       -0.656943   -1.333011    0.000000
      5          1           0       -0.376498    1.449770    0.000000
 ---------------------------------------------------------------------

 SCF Done:  E(RTPSS-TPSS) =  -189.660352070     A.U. after   13 cycles

 Excitation energies and oscillator strengths:

 Excited State   1:      Singlet-A"     5.8940 eV  210.36 nm  f=0.0007  <S**2>=0.000
      12 -> 13         0.70694
 This state for optimization and/or second-order correction.
 Total Energy, E(TD-HF/TD-DFT) =  -189.443753265
 Copying the excited state density for this state as the 1-particle RhoCI density.

 Excited State   2:      Singlet-A'     7.1188 eV  174.16 nm  f=0.0381  <S**2>=0.000
      11 -> 13        -0.17080
      12 -> 14         0.68517

 Excited State   3:      Singlet-A'     7.8897 eV  157.15 nm  f=0.0517  <S**2>=0.000
      12 -> 15         0.70452

 Excited State   4:      Singlet-A"     8.3131 eV  149.14 nm  f=0.0032  <S**2>=0.000
      11 -> 14         0.70635

 Excited State   5:      Singlet-A'     8.5587 eV  144.86 nm  f=0.2130  <S**2>=0.000
      11 -> 13         0.64003
      12 -> 14         0.15856
      12 -> 16         0.13437

 Excited State   6:      Singlet-A"     8.9994 eV  137.77 nm  f=0.0001  <S**2>=0.000
      10 -> 13         0.70161

 Excited State   7:      Singlet-A"     9.1299 eV  135.80 nm  f=0.0001  <S**2>=0.000
      11 -> 15         0.69838

 Excited State   8:      Singlet-A'     9.1611 eV  135.34 nm  f=0.0718  <S**2>=0.000
      11 -> 13        -0.10553
      12 -> 16         0.68529

 Excited State   9:      Singlet-A"     9.1766 eV  135.11 nm  f=0.0160  <S**2>=0.000
      12 -> 17         0.69983

 Excited State  10:      Singlet-A'     9.8560 eV  125.80 nm  f=0.0119  <S**2>=0.000
      12 -> 18         0.69399

 Excited State  11:      Singlet-A'    10.1546 eV  122.10 nm  f=0.0526  <S**2>=0.000
      10 -> 14         0.68804
      12 -> 19         0.11465

 Excited State  12:      Singlet-A'    10.3201 eV  120.14 nm  f=0.0072  <S**2>=0.000
      10 -> 14        -0.13786
      11 -> 17        -0.25110
      12 -> 19         0.63149

 Excited State  13:      Singlet-A"    10.3559 eV  119.72 nm  f=0.0242  <S**2>=0.000
      11 -> 16         0.70480

 Excited State  14:      Singlet-A'    10.5237 eV  117.81 nm  f=0.0069  <S**2>=0.000
      11 -> 17         0.61794
      12 -> 19         0.22074
      12 -> 20        -0.21092

 Excited State  15:      Singlet-A'    10.6461 eV  116.46 nm  f=0.0028  <S**2>=0.000
      11 -> 17         0.18282
      12 -> 20         0.67076

 Excited State  16:      Singlet-A"    10.7862 eV  114.95 nm  f=0.0040  <S**2>=0.000
      12 -> 21         0.70612

 Excited State  17:      Singlet-A'    10.9594 eV  113.13 nm  f=0.0589  <S**2>=0.000
      10 -> 15         0.69242

 Excited State  18:      Singlet-A"    11.0615 eV  112.09 nm  f=0.0002  <S**2>=0.000
      11 -> 18         0.70184

 Excited State  19:      Singlet-A"    11.2654 eV  110.06 nm  f=0.0041  <S**2>=0.000
       8 -> 13         0.68086

 Excited State  20:      Singlet-A"    11.4544 eV  108.24 nm  f=0.0442  <S**2>=0.000
       9 -> 14         0.69908

 Excited State  21:      Singlet-A'    11.4558 eV  108.23 nm  f=0.0643  <S**2>=0.000
       9 -> 13         0.10094
      12 -> 22         0.69317

 Excited State  22:      Singlet-A"    11.5199 eV  107.63 nm  f=0.0003  <S**2>=0.000
      11 -> 19         0.70578

 Excited State  23:      Singlet-A'    11.5487 eV  107.36 nm  f=0.0628  <S**2>=0.000
       9 -> 13         0.61304
      11 -> 21         0.22086
      12 -> 24        -0.10626

 Excited State  24:      Singlet-A"    11.8683 eV  104.47 nm  f=0.0006  <S**2>=0.000
       7 -> 13         0.12561
      11 -> 20         0.69112

 Excited State  25:      Singlet-A"    12.0860 eV  102.59 nm  f=0.0000  <S**2>=0.000
      12 -> 23         0.69367

 Excited State  26:      Singlet-A'    12.1212 eV  102.29 nm  f=0.0071  <S**2>=0.000
       8 -> 14         0.14802
      10 -> 16         0.52822
      11 -> 21         0.43349

 Excited State  27:      Singlet-A'    12.1504 eV  102.04 nm  f=0.0171  <S**2>=0.000
       8 -> 14         0.67357
      11 -> 21        -0.10716
      12 -> 24        -0.13426

 Excited State  28:      Singlet-A"    12.1638 eV  101.93 nm  f=0.0184  <S**2>=0.000
       7 -> 13         0.61440
       9 -> 15         0.25502
      10 -> 17        -0.16124

 Excited State  29:      Singlet-A"    12.2168 eV  101.49 nm  f=0.0128  <S**2>=0.000
       7 -> 13         0.14319
      10 -> 17         0.68456

 Excited State  30:      Singlet-A"    12.2784 eV  100.98 nm  f=0.0107  <S**2>=0.000
       7 -> 13        -0.24265
       9 -> 15         0.65535

 Excited State  31:      Singlet-A'    12.3080 eV  100.73 nm  f=0.0239  <S**2>=0.000
       9 -> 13        -0.15870
      10 -> 16        -0.44130
      10 -> 18         0.11736
      11 -> 21         0.47191
      12 -> 24         0.12781

 Excited State  32:      Singlet-A'    12.6231 eV   98.22 nm  f=0.0556  <S**2>=0.000
       7 -> 14         0.10903
       8 -> 14         0.10144
       9 -> 13         0.10384
      12 -> 24         0.64910

 Excited State  33:      Singlet-A"    12.7452 eV   97.28 nm  f=0.0000  <S**2>=0.000
      11 -> 22         0.70306

 Excited State  34:      Singlet-A'    12.9419 eV   95.80 nm  f=0.0211  <S**2>=0.000
       8 -> 15         0.54932
      10 -> 18        -0.43712

 Excited State  35:      Singlet-A'    13.0425 eV   95.06 nm  f=0.0422  <S**2>=0.000
       8 -> 15         0.42148
       9 -> 17        -0.15642
      10 -> 18         0.50052

 Excited State  36:      Singlet-A'    13.2775 eV   93.38 nm  f=0.0155  <S**2>=0.000
       7 -> 14        -0.46905
      10 -> 19         0.47982
      11 -> 23        -0.20043

 Excited State  37:      Singlet-A'    13.3429 eV   92.92 nm  f=0.0854  <S**2>=0.000
       7 -> 14         0.45242
      10 -> 19         0.49185
      12 -> 25         0.17269

 Excited State  38:      Singlet-A"    13.4931 eV   91.89 nm  f=0.0160  <S**2>=0.000
       9 -> 16         0.70360

 Excited State  39:      Singlet-A'    13.4958 eV   91.87 nm  f=0.0078  <S**2>=0.000
       9 -> 17         0.23636
      10 -> 19         0.10617
      10 -> 20         0.10474
      11 -> 23         0.57666
      12 -> 25        -0.23047
      12 -> 26        -0.12771

 Excited State  40:      Singlet-A'    13.6217 eV   91.02 nm  f=0.0662  <S**2>=0.000
      10 -> 20         0.47080
      12 -> 25         0.50297

 Excited State  41:      Singlet-A'    13.7185 eV   90.38 nm  f=0.0392  <S**2>=0.000
       7 -> 14         0.18385
       7 -> 15        -0.11941
       9 -> 17         0.39955
      10 -> 20         0.32420
      11 -> 23        -0.23701
      12 -> 25        -0.26417
      12 -> 26         0.18404

 Excited State  42:      Singlet-A'    13.7902 eV   89.91 nm  f=0.0013  <S**2>=0.000
       7 -> 15        -0.20570
       9 -> 17         0.44072
      10 -> 18         0.12272
      10 -> 20        -0.37023
      12 -> 25         0.25521
      12 -> 26        -0.11955

 Excited State  43:      Singlet-A"    13.8128 eV   89.76 nm  f=0.0033  <S**2>=0.000
      10 -> 21         0.55042
      11 -> 24         0.44275

 Excited State  44:      Singlet-A"    13.8537 eV   89.50 nm  f=0.0261  <S**2>=0.000
      10 -> 21        -0.44162
      11 -> 24         0.54877

 Excited State  45:      Singlet-A'    14.1944 eV   87.35 nm  f=0.1174  <S**2>=0.000
       7 -> 15        -0.17106
       8 -> 16         0.64604
      12 -> 26        -0.20403

 Excited State  46:      Singlet-A"    14.2381 eV   87.08 nm  f=0.0022  <S**2>=0.000
       8 -> 17         0.52753
       9 -> 18         0.46138

 Excited State  47:      Singlet-A"    14.2802 eV   86.82 nm  f=0.0154  <S**2>=0.000
       8 -> 17        -0.46092
       9 -> 18         0.48674
      12 -> 27        -0.19220

 Excited State  48:      Singlet-A'    14.3160 eV   86.61 nm  f=0.0643  <S**2>=0.000
       7 -> 15         0.62125
       8 -> 16         0.19661
       9 -> 17         0.17698

 Excited State  49:      Singlet-A"    14.3966 eV   86.12 nm  f=0.0093  <S**2>=0.000
       9 -> 18         0.16965
      12 -> 27         0.67450

 Excited State  50:      Singlet-A'    14.5283 eV   85.34 nm  f=0.0222  <S**2>=0.000
      10 -> 22         0.68540
      12 -> 26         0.10798

 Excited State  51:      Singlet-A"    14.6629 eV   84.56 nm  f=0.0106  <S**2>=0.000
       9 -> 19         0.69525

 Excited State  52:      Singlet-A'    14.7529 eV   84.04 nm  f=0.0923  <S**2>=0.000
       8 -> 16         0.14718
       8 -> 18        -0.28795
       9 -> 21        -0.18288
      10 -> 22        -0.12671
      11 -> 23         0.10338
      12 -> 26         0.49937
      12 -> 28        -0.16359
      12 -> 31         0.11473

 Excited State  53:      Singlet-A"    14.8109 eV   83.71 nm  f=0.0159  <S**2>=0.000
      11 -> 25         0.69431

 Excited State  54:      Singlet-A"    15.0733 eV   82.25 nm  f=0.0697  <S**2>=0.000
       6 -> 13        -0.14813
       9 -> 20         0.67610

 Excited State  55:      Singlet-A'    15.0799 eV   82.22 nm  f=0.0415  <S**2>=0.000
       7 -> 16        -0.13960
       8 -> 18         0.56112
       9 -> 21        -0.29383
      10 -> 24         0.11901
      12 -> 26         0.14771

 Excited State  56:      Singlet-A"    15.1422 eV   81.88 nm  f=0.0001  <S**2>=0.000
      10 -> 23         0.69449
      11 -> 26         0.10092

 Excited State  57:      Singlet-A'    15.1896 eV   81.62 nm  f=0.0006  <S**2>=0.000
       9 -> 21        -0.41025
      12 -> 28         0.55968

 Excited State  58:      Singlet-A'    15.3143 eV   80.96 nm  f=0.0133  <S**2>=0.000
       7 -> 16         0.56848
       8 -> 19         0.39872

 Excited State  59:      Singlet-A'    15.3610 eV   80.71 nm  f=0.0096  <S**2>=0.000
       7 -> 16        -0.24441
       8 -> 19         0.45990
       8 -> 20         0.13520
       9 -> 21         0.29891
      12 -> 26         0.14173
      12 -> 28         0.26940

 Excited State  60:      Singlet-A"    15.3632 eV   80.70 nm  f=0.0118  <S**2>=0.000
       7 -> 17         0.69491
      11 -> 26        -0.11597

 Excited State  61:      Singlet-A'    15.4200 eV   80.40 nm  f=0.0179  <S**2>=0.000
       7 -> 16        -0.28384
       7 -> 18        -0.11647
       8 -> 18        -0.16722
       8 -> 19         0.34570
       9 -> 21        -0.31124
      10 -> 24        -0.13095
      12 -> 26        -0.15407
      12 -> 28        -0.25011
      12 -> 31        -0.13149

 Excited State  62:      Singlet-A"    15.4951 eV   80.02 nm  f=0.0410  <S**2>=0.000
       6 -> 13        -0.12671
       7 -> 17         0.10205
      10 -> 23        -0.10088
      11 -> 26         0.66963

 Excited State  63:      Singlet-A'    15.6384 eV   79.28 nm  f=0.0129  <S**2>=0.000
      10 -> 24        -0.44552
      11 -> 27         0.52881

 Excited State  64:      Singlet-A'    15.7426 eV   78.76 nm  f=0.0231  <S**2>=0.000
       8 -> 20         0.47505
      10 -> 24         0.31088
      11 -> 27         0.35666

 Excited State  65:      Singlet-A'    15.7617 eV   78.66 nm  f=0.0632  <S**2>=0.000
       8 -> 20         0.47861
      10 -> 24        -0.38929
      11 -> 27        -0.28445

 Excited State  66:      Singlet-A"    15.8570 eV   78.19 nm  f=0.0000  <S**2>=0.000
       8 -> 21        -0.35202
       9 -> 22         0.60926

 Excited State  67:      Singlet-A"    15.8839 eV   78.06 nm  f=0.0053  <S**2>=0.000
       8 -> 21         0.61057
       9 -> 22         0.34375

 Excited State  68:      Singlet-A'    16.0020 eV   77.48 nm  f=0.0051  <S**2>=0.000
       7 -> 18         0.39487
      12 -> 29         0.56132
      12 -> 30         0.12204

 Excited State  69:      Singlet-A'    16.0896 eV   77.06 nm  f=0.0178  <S**2>=0.000
       7 -> 18        -0.42689
      12 -> 29         0.20981
      12 -> 30         0.49483

 Excited State  70:      Singlet-A'    16.1675 eV   76.69 nm  f=0.0312  <S**2>=0.000
       7 -> 18         0.33108
      12 -> 29        -0.34723
      12 -> 30         0.47906

 Excited State  71:      Singlet-A"    16.3809 eV   75.69 nm  f=0.0489  <S**2>=0.000
       6 -> 13         0.58609
       8 -> 23        -0.14319
       9 -> 20         0.10307
      12 -> 32        -0.27932

 Excited State  72:      Singlet-A"    16.4968 eV   75.16 nm  f=0.0359  <S**2>=0.000
      11 -> 28         0.67971
      12 -> 32         0.18891

 Excited State  73:      Singlet-A'    16.5059 eV   75.12 nm  f=0.0075  <S**2>=0.000
       6 -> 14        -0.11501
       7 -> 19         0.66585
      10 -> 25        -0.12688

 Excited State  74:      Singlet-A'    16.5288 eV   75.01 nm  f=0.0164  <S**2>=0.000
       8 -> 22         0.54417
       9 -> 23         0.36669
      10 -> 25         0.10600
      12 -> 31        -0.20203

 Excited State  75:      Singlet-A'    16.5897 eV   74.74 nm  f=0.0223  <S**2>=0.000
       8 -> 22        -0.35067
       9 -> 23         0.35326
      10 -> 25         0.47972

 Excited State  76:      Singlet-A"    16.7299 eV   74.11 nm  f=0.1238  <S**2>=0.000
       6 -> 13         0.19388
       8 -> 23        -0.17644
       9 -> 24         0.19313
      11 -> 28        -0.16059
      12 -> 32         0.59277

 Excited State  77:      Singlet-A'    16.7470 eV   74.03 nm  f=0.0773  <S**2>=0.000
       7 -> 20        -0.30133
       8 -> 22         0.17133
       9 -> 23        -0.39264
      10 -> 25         0.42559

 Excited State  78:      Singlet-A'    16.8803 eV   73.45 nm  f=0.0796  <S**2>=0.000
       7 -> 20         0.60937
       8 -> 22         0.11154
       9 -> 23        -0.18188
      10 -> 25         0.20502
      12 -> 31         0.12409

 Excited State  79:      Singlet-A'    16.9557 eV   73.12 nm  f=0.0223  <S**2>=0.000
       6 -> 14         0.14498
       7 -> 20        -0.13724
       8 -> 22         0.12662
       8 -> 24         0.13523
       9 -> 23         0.13548
      10 -> 26         0.17907
      12 -> 26        -0.10522
      12 -> 31         0.53383
      12 -> 33        -0.10542

 Excited State  80:      Singlet-A"    16.9739 eV   73.04 nm  f=0.0105  <S**2>=0.000
       7 -> 21         0.13027
       8 -> 23         0.18564
       9 -> 24         0.65017
      12 -> 32        -0.10920

 Excited State  81:      Singlet-A"    16.9926 eV   72.96 nm  f=0.0003  <S**2>=0.000
       7 -> 21         0.69459
       9 -> 24        -0.11979

 Excited State  82:      Singlet-A'    17.1993 eV   72.09 nm  f=0.1006  <S**2>=0.000
       6 -> 14         0.51853
      10 -> 26        -0.43954

 Excited State  83:      Singlet-A"    17.3256 eV   71.56 nm  f=0.0021  <S**2>=0.000
       8 -> 23         0.19061
      10 -> 27        -0.12339
      11 -> 29         0.66385

 Excited State  84:      Singlet-A"    17.3424 eV   71.49 nm  f=0.0235  <S**2>=0.000
       6 -> 13         0.12025
       8 -> 23         0.52103
      10 -> 27        -0.28787
      11 -> 29        -0.21968
      11 -> 30        -0.23375

 Excited State  85:      Singlet-A"    17.4165 eV   71.19 nm  f=0.0000  <S**2>=0.000
       8 -> 23         0.12091
      10 -> 27        -0.21474
      11 -> 30         0.65403

 Excited State  86:      Singlet-A'    17.4862 eV   70.90 nm  f=0.0278  <S**2>=0.000
       6 -> 14         0.33350
       6 -> 15         0.11611
       8 -> 24        -0.23934
      10 -> 26         0.46507
      11 -> 32        -0.21691
      12 -> 31        -0.10402

 Excited State  87:      Singlet-A"    17.4919 eV   70.88 nm  f=0.1387  <S**2>=0.000
       6 -> 13         0.14624
       8 -> 23         0.28381
      10 -> 27         0.58562
      11 -> 30         0.12767

 Excited State  88:      Singlet-A'    17.6972 eV   70.06 nm  f=0.0152  <S**2>=0.000
       7 -> 22         0.64798
       8 -> 24        -0.15815
      11 -> 32         0.13752
      12 -> 33        -0.14946

 Excited State  89:      Singlet-A'    17.7385 eV   69.90 nm  f=0.0538  <S**2>=0.000
       6 -> 14         0.10736
       7 -> 22         0.22772
       8 -> 24         0.58756
      12 -> 33         0.21321

 Excited State  90:      Singlet-A'    17.8414 eV   69.49 nm  f=0.0033  <S**2>=0.000
       6 -> 15        -0.11193
       8 -> 24        -0.12796
      10 -> 28         0.10863
      11 -> 32         0.36325
      12 -> 33         0.55427

 Excited State  91:      Singlet-A"    17.8423 eV   69.49 nm  f=0.0003  <S**2>=0.000
       9 -> 25        -0.13696
      11 -> 31         0.69022

 Excited State  92:      Singlet-A"    17.9575 eV   69.04 nm  f=0.0199  <S**2>=0.000
       9 -> 25         0.68908
      11 -> 31         0.13325

 Excited State  93:      Singlet-A'    18.0487 eV   68.69 nm  f=0.0537  <S**2>=0.000
       6 -> 15         0.49755
       7 -> 24         0.14100
      11 -> 32         0.40681
      12 -> 33        -0.14549

 Excited State  94:      Singlet-A'    18.1497 eV   68.31 nm  f=0.0596  <S**2>=0.000
       6 -> 14        -0.11293
       6 -> 15         0.41311
       7 -> 24        -0.10290
       8 -> 24        -0.10719
      10 -> 26        -0.11898
      10 -> 28         0.27925
      11 -> 32        -0.30194
      12 -> 33         0.22235

 Excited State  95:      Singlet-A"    18.2677 eV   67.87 nm  f=0.0514  <S**2>=0.000
       7 -> 23         0.69262

 Excited State  96:      Singlet-A'    18.4010 eV   67.38 nm  f=0.0791  <S**2>=0.000
       7 -> 24         0.11377
      10 -> 28         0.60578
      10 -> 30         0.10302
      12 -> 31        -0.11031
      12 -> 33        -0.14279

 Excited State  97:      Singlet-A'    18.6660 eV   66.42 nm  f=0.0028  <S**2>=0.000
       7 -> 24         0.10114
       8 -> 25         0.67672
       9 -> 27         0.14305

 Excited State  98:      Singlet-A"    18.7137 eV   66.25 nm  f=0.0287  <S**2>=0.000
       9 -> 26         0.66887
      11 -> 33         0.14565

 Excited State  99:      Singlet-A"    18.8217 eV   65.87 nm  f=0.0102  <S**2>=0.000
      12 -> 34         0.70088

 Excited State 100:      Singlet-A'    18.8342 eV   65.83 nm  f=0.0089  <S**2>=0.000
       8 -> 25        -0.10379
       9 -> 27         0.65945
      10 -> 29        -0.13330

 Excited State 101:      Singlet-A'    18.9540 eV   65.41 nm  f=0.1248  <S**2>=0.000
       6 -> 16        -0.28399
       7 -> 24         0.57372
      10 -> 30        -0.16016

 Excited State 102:      Singlet-A'    19.1128 eV   64.87 nm  f=0.0093  <S**2>=0.000
       6 -> 16         0.59104
       6 -> 18         0.10351
       7 -> 24         0.18458
      10 -> 29        -0.11407
      10 -> 30        -0.25987

 Excited State 103:      Singlet-A"    19.1362 eV   64.79 nm  f=0.0097  <S**2>=0.000
       6 -> 17         0.20296
       9 -> 26        -0.10318
      11 -> 33         0.66079

 Excited State 104:      Singlet-A'    19.1567 eV   64.72 nm  f=0.0010  <S**2>=0.000
       6 -> 16         0.18662
       8 -> 26         0.14054
       9 -> 27         0.10568
      10 -> 29         0.58396
      10 -> 30         0.26689

 Excited State 105:      Singlet-A"    19.1684 eV   64.68 nm  f=0.0071  <S**2>=0.000
       6 -> 17         0.66826
      11 -> 33        -0.17756

 Excited State 106:      Singlet-A'    19.3699 eV   64.01 nm  f=0.0838  <S**2>=0.000
       7 -> 24         0.16586
       7 -> 25         0.10852
       8 -> 26        -0.19165
      10 -> 29        -0.21003
      10 -> 30         0.47679
      12 -> 35        -0.33172

 Excited State 107:      Singlet-A'    19.4713 eV   63.68 nm  f=0.0022  <S**2>=0.000
       8 -> 26         0.61012
      10 -> 29        -0.16908
      10 -> 30         0.14159
      10 -> 31        -0.17813
      12 -> 36         0.11366

 Excited State 108:      Singlet-A"    19.5009 eV   63.58 nm  f=0.0156  <S**2>=0.000
       8 -> 27         0.70377

 Excited State 109:      Singlet-A'    19.5593 eV   63.39 nm  f=0.0878  <S**2>=0.000
       7 -> 25         0.11299
       8 -> 26        -0.18599
      10 -> 30         0.13205
      10 -> 31        -0.34891
      12 -> 35         0.53048

 Excited State 110:      Singlet-A'    19.6325 eV   63.15 nm  f=0.0141  <S**2>=0.000
       6 -> 18         0.18984
       7 -> 25         0.20575
      10 -> 30         0.10088
      10 -> 31         0.55502
      12 -> 35         0.26462

 Excited State 111:      Singlet-A"    19.6798 eV   63.00 nm  f=0.0128  <S**2>=0.000
       9 -> 28         0.66824
      10 -> 32         0.17127

 Excited State 112:      Singlet-A"    19.7214 eV   62.87 nm  f=0.0007  <S**2>=0.000
       9 -> 28        -0.16250
      10 -> 32         0.68209

 Excited State 113:      Singlet-A'    19.9310 eV   62.21 nm  f=0.1061  <S**2>=0.000
       6 -> 18         0.54293
       7 -> 25         0.21687
       7 -> 26         0.25164
      10 -> 31        -0.12483
      12 -> 35        -0.10390
      12 -> 36        -0.10660

 Excited State 114:      Singlet-A'    20.0086 eV   61.97 nm  f=0.2027  <S**2>=0.000
       6 -> 18        -0.24243
       7 -> 25         0.56295
       8 -> 28        -0.13799
      10 -> 30        -0.14428
      12 -> 36         0.16859

 Excited State 115:      Singlet-A'    20.0846 eV   61.73 nm  f=0.0114  <S**2>=0.000
       6 -> 18         0.10371
       6 -> 19         0.20004
       8 -> 28         0.14210
      11 -> 34         0.59287
      12 -> 36         0.24167

 Excited State 116:      Singlet-A'    20.2839 eV   61.12 nm  f=0.0264  <S**2>=0.000
       6 -> 19         0.64604
      11 -> 34        -0.13626
      12 -> 36        -0.16324

 Excited State 117:      Singlet-A'    20.3094 eV   61.05 nm  f=0.0290  <S**2>=0.000
       6 -> 19        -0.16326
       7 -> 25         0.16630
       8 -> 28         0.57959
      12 -> 36        -0.27727

 Excited State 118:      Singlet-A"    20.4584 eV   60.60 nm  f=0.0126  <S**2>=0.000
       7 -> 27         0.10019
       9 -> 29         0.61532

 The electronic state is 1-A'.
 Alpha  occ. eigenvalues --  -18.96716 -18.90986 -10.14274  -1.05024  -0.96303
 Alpha  occ. eigenvalues --   -0.62603  -0.48698  -0.44620  -0.42113  -0.37136
 Alpha  occ. eigenvalues --   -0.30656  -0.26017
 Alpha virt. eigenvalues --   -0.04784  -0.00199   0.02941   0.07375   0.07795
 Alpha virt. eigenvalues --    0.10038   0.11797   0.13133   0.13779   0.16119
 Alpha virt. eigenvalues --    0.18534   0.20261   0.23892   0.26091   0.27098

 Mulliken charges:
               1
     1  O   -0.237493
     2  C    0.650204
     3  O   -0.349452
     4  H    0.175442
     5  H   -0.238700
 Sum of Mulliken charges =   0.00000

 Dipole moment (field-independent basis, Debye):
    X=             -1.5025    Y=             -0.3447    Z=             -0.0000  Tot=              1.5416
 Quadrupole moment (field-independent basis, Debye-Ang):
   XX=            -22.2142   YY=            -13.1703   ZZ=            -17.1439
   XY=              0.0561   XZ=              0.0000   YZ=             -0.0000

 Normal termination of Gaussian 16 at Mon Mar 21 20:16:42 2022.
