 Gaussian 16, Revision C.01,
 Gaussian 16:  EM64L-G16RevC.01  3-Jul-2019

 ----------------------------------------------------------------------
 #P TD(Nstates=10000) tpsstpss/Gen SCF(maxcycles=100) Int(Grid=ultrafin
 e)
 ----------------------------------------------------------------------

 ---------------------
 xGDB7_00001_tier4.com
 ---------------------
 Symbolic Z-matrix:
 Charge =  0 Multiplicity = 1

                         Standard orientation:
 ---------------------------------------------------------------------
 Center     Atomic      Atomic             Coordinates (Angstroms)
 Number     Number       Type             X           Y           Z
 ---------------------------------------------------------------------
      1          6           0        0.000000    0.000000   -1.173653
      2          6           0        0.000000    0.000000    0.280989
      3          7           0        0.000000    0.000000    1.427442
      4          1           0        0.000000    1.024088   -1.545371
      5          1           0       -0.886886   -0.512044   -1.545371
      6          1           0        0.886886   -0.512044   -1.545371
 ---------------------------------------------------------------------

 SCF Done:  E(RTPSS-TPSS) =  -132.683556778     A.U. after   12 cycles

 Excitation energies and oscillator strengths:

 Excited State   1:      Singlet-E      8.1546 eV  152.04 nm  f=0.0004  <S**2>=0.000
      11 -> 12         0.70628
 This state for optimization and/or second-order correction.
 Total Energy, E(TD-HF/TD-DFT) =  -132.383881834
 Copying the excited state density for this state as the 1-particle RhoCI density.

 Excited State   2:      Singlet-E      8.1546 eV  152.04 nm  f=0.0004  <S**2>=0.000
      10 -> 12         0.70628

 Excited state symmetry could not be determined.
 Excited State   3:      Singlet-?Sym    8.2133 eV  150.95 nm  f=0.0000  <S**2>=0.000
      10 -> 14         0.50000
      11 -> 13        -0.50000

 Excited state symmetry could not be determined.
 Excited State   4:      Singlet-?Sym    8.3061 eV  149.27 nm  f=0.0023  <S**2>=0.000
      10 -> 13         0.49918
      11 -> 14        -0.49918

 Excited state symmetry could not be determined.
 Excited State   5:      Singlet-?Sym    8.3061 eV  149.27 nm  f=0.0023  <S**2>=0.000
      10 -> 14         0.49918
      11 -> 13         0.49918

 Excited State   6:      Singlet-A1     8.5448 eV  145.10 nm  f=0.0117  <S**2>=0.000
       9 -> 12         0.70667

 Excited State   7:      Singlet-E      9.1827 eV  135.02 nm  f=0.0130  <S**2>=0.000
       9 -> 14         0.69885

 Excited State   8:      Singlet-E      9.1827 eV  135.02 nm  f=0.0130  <S**2>=0.000
       9 -> 13         0.69885

 Excited State   9:      Singlet-E      9.9779 eV  124.26 nm  f=0.0480  <S**2>=0.000
      10 -> 15         0.70661

 Excited State  10:      Singlet-E      9.9779 eV  124.26 nm  f=0.0480  <S**2>=0.000
      11 -> 15         0.70661

 Excited state symmetry could not be determined.
 Excited State  11:      Singlet-?Sym   10.1859 eV  121.72 nm  f=0.3199  <S**2>=0.000
       9 -> 15        -0.30321
      10 -> 13        -0.30183
      10 -> 16         0.32915
      11 -> 14        -0.30183
      11 -> 17         0.32915

 Excited State  12:      Singlet-A1    10.4604 eV  118.53 nm  f=0.0263  <S**2>=0.000
       9 -> 15         0.63005
      10 -> 16         0.20251
      11 -> 17         0.20251

 Excited state symmetry could not be determined.
 Excited State  13:      Singlet-?Sym   10.6812 eV  116.08 nm  f=0.0055  <S**2>=0.000
      10 -> 16         0.49896
      11 -> 17        -0.49896

 Excited state symmetry could not be determined.
 Excited State  14:      Singlet-?Sym   10.6812 eV  116.08 nm  f=0.0055  <S**2>=0.000
      10 -> 17         0.49899
      11 -> 16         0.49893

 Excited state symmetry could not be determined.
 Excited State  15:      Singlet-?Sym   10.6852 eV  116.03 nm  f=0.0000  <S**2>=0.000
      10 -> 17        -0.49981
      11 -> 16         0.49987

 Excited State  16:      Singlet-E     11.1675 eV  111.02 nm  f=0.0055  <S**2>=0.000
       9 -> 17         0.69719

 Excited State  17:      Singlet-E     11.1675 eV  111.02 nm  f=0.0055  <S**2>=0.000
       9 -> 16         0.69719

 Excited state symmetry could not be determined.
 Excited State  18:      Singlet-?Sym   11.4196 eV  108.57 nm  f=0.0000  <S**2>=0.000
      10 -> 20         0.49951
      11 -> 19        -0.49949

 Excited state symmetry could not be determined.
 Excited State  19:      Singlet-?Sym   11.4414 eV  108.36 nm  f=0.0033  <S**2>=0.000
      10 -> 16         0.11894
      10 -> 19         0.47510
      11 -> 17         0.11894
      11 -> 20         0.47512

 Excited state symmetry could not be determined.
 Excited State  20:      Singlet-?Sym   11.4908 eV  107.90 nm  f=0.0005  <S**2>=0.000
       7 -> 14         0.12149
       8 -> 13        -0.12149
      10 -> 19         0.44760
      11 -> 18         0.25192
      11 -> 20        -0.44758

 Excited state symmetry could not be determined.
 Excited State  21:      Singlet-?Sym   11.4908 eV  107.90 nm  f=0.0005  <S**2>=0.000
       7 -> 13        -0.12149
       8 -> 14        -0.12149
      10 -> 18         0.25192
      10 -> 20         0.44758
      11 -> 19         0.44760

 Excited State  22:      Singlet-E     11.5545 eV  107.30 nm  f=0.0057  <S**2>=0.000
       7 -> 12        -0.20639
      10 -> 19        -0.17218
      11 -> 18         0.62390
      11 -> 20         0.17217

 Excited State  23:      Singlet-E     11.5545 eV  107.30 nm  f=0.0057  <S**2>=0.000
       8 -> 12        -0.20639
      10 -> 18         0.62390
      10 -> 20        -0.17217
      11 -> 19        -0.17218

 Excited state symmetry could not be determined.
 Excited State  24:      Singlet-?Sym   11.7001 eV  105.97 nm  f=0.0000  <S**2>=0.000
       7 -> 13        -0.49976
       8 -> 14         0.49976

 Excited State  25:      Singlet-A1    11.7678 eV  105.36 nm  f=0.2400  <S**2>=0.000
       7 -> 14         0.24342
       8 -> 13         0.24343
       9 -> 18         0.41665
       9 -> 23         0.11249
      10 -> 13         0.20397
      10 -> 16         0.18832
      10 -> 19        -0.12110
      11 -> 14         0.20397
      11 -> 17         0.18832
      11 -> 20        -0.12111

 Excited State  26:      Singlet-E     11.7698 eV  105.34 nm  f=0.1347  <S**2>=0.000
       8 -> 12         0.66048
      10 -> 18         0.17382

 Excited State  27:      Singlet-E     11.7698 eV  105.34 nm  f=0.1347  <S**2>=0.000
       7 -> 12         0.66048
      11 -> 18         0.17382

 Excited State  28:      Singlet-E     11.8723 eV  104.43 nm  f=0.0258  <S**2>=0.000
       7 -> 12         0.11965
       7 -> 14        -0.27622
       8 -> 13         0.27622
       9 -> 20         0.56438

 Excited State  29:      Singlet-E     11.8723 eV  104.43 nm  f=0.0258  <S**2>=0.000
       7 -> 13         0.27621
       8 -> 12         0.11965
       8 -> 14         0.27621
       9 -> 19         0.56438

 Excited State  30:      Singlet-E     11.8980 eV  104.21 nm  f=0.0202  <S**2>=0.000
       7 -> 14         0.38185
       8 -> 13        -0.38185
       9 -> 20         0.41873

 Excited State  31:      Singlet-E     11.8980 eV  104.21 nm  f=0.0202  <S**2>=0.000
       7 -> 13        -0.38185
       8 -> 14        -0.38185
       9 -> 19         0.41873

 Excited State  32:      Singlet-A1    11.9964 eV  103.35 nm  f=0.6199  <S**2>=0.000
       7 -> 14        -0.20943
       8 -> 13        -0.20944
       9 -> 18         0.56428
      10 -> 13        -0.14883
      10 -> 16        -0.12411
      11 -> 14        -0.14883
      11 -> 17        -0.12411

 Excited state symmetry could not be determined.
 Excited State  33:      Singlet-?Sym   12.9087 eV   96.05 nm  f=0.0982  <S**2>=0.000
       6 -> 12         0.17003
       6 -> 15         0.11478
       7 -> 14         0.31673
       8 -> 13         0.31673
       9 -> 23        -0.19299
      10 -> 13        -0.18414
      10 -> 16        -0.14142
      10 -> 21         0.19543
      11 -> 14        -0.18414
      11 -> 17        -0.14142
      11 -> 22        -0.19543

 Excited State  34:      Singlet-A1    12.9613 eV   95.66 nm  f=0.1343  <S**2>=0.000
       6 -> 12         0.67917

 Excited State  35:      Singlet-E     13.3675 eV   92.75 nm  f=0.0191  <S**2>=0.000
       6 -> 13         0.55920
       8 -> 15        -0.36987
      10 -> 23        -0.12847

 Excited State  36:      Singlet-E     13.3675 eV   92.75 nm  f=0.0191  <S**2>=0.000
       6 -> 14         0.55920
       7 -> 15        -0.36987
      11 -> 23        -0.12847

 Excited State  37:      Singlet-E     13.5124 eV   91.76 nm  f=0.0100  <S**2>=0.000
       6 -> 14         0.29277
       7 -> 15         0.57861
      10 -> 21         0.15762
      11 -> 22         0.15762

 Excited State  38:      Singlet-E     13.5124 eV   91.76 nm  f=0.0100  <S**2>=0.000
       6 -> 13         0.29277
       8 -> 15         0.57862
      10 -> 22        -0.15761
      11 -> 21         0.15761

 Excited state symmetry could not be determined.
 Excited State  39:      Singlet-?Sym   13.5882 eV   91.24 nm  f=0.0058  <S**2>=0.000
       6 -> 14        -0.14291
       7 -> 15        -0.15658
      10 -> 21         0.47165
      11 -> 22         0.47165

 Excited state symmetry could not be determined.
 Excited State  40:      Singlet-?Sym   13.5882 eV   91.24 nm  f=0.0058  <S**2>=0.000
       6 -> 13         0.14290
       8 -> 15         0.15656
      10 -> 22         0.47166
      11 -> 21        -0.47165

 Excited state symmetry could not be determined.
 Excited State  41:      Singlet-?Sym   13.6972 eV   90.52 nm  f=0.0000  <S**2>=0.000
      10 -> 22         0.49995
      11 -> 21         0.49995

 Excited State  42:      Singlet-E     14.0483 eV   88.26 nm  f=0.0271  <S**2>=0.000
       9 -> 22         0.63605
      11 -> 23        -0.30490

 Excited State  43:      Singlet-E     14.0483 eV   88.26 nm  f=0.0271  <S**2>=0.000
       9 -> 21         0.63605
      10 -> 23         0.30490

 Excited state symmetry could not be determined.
 Excited State  44:      Singlet-?Sym   14.1764 eV   87.46 nm  f=0.0000  <S**2>=0.000
       7 -> 16        -0.49933
       8 -> 17         0.49937

 Excited state symmetry could not be determined.
 Excited State  45:      Singlet-?Sym   14.1904 eV   87.37 nm  f=0.0515  <S**2>=0.000
       7 -> 17        -0.47274
       8 -> 16         0.47274
      11 -> 23         0.19057

 Excited state symmetry could not be determined.
 Excited State  46:      Singlet-?Sym   14.1904 eV   87.37 nm  f=0.0515  <S**2>=0.000
       7 -> 16         0.47276
       8 -> 17         0.47273
      10 -> 23         0.19057

 Excited state symmetry could not be determined.
 Excited State  47:      Singlet-?Sym   14.2380 eV   87.08 nm  f=0.0224  <S**2>=0.000
       6 -> 15        -0.24424
       6 -> 18        -0.11363
       7 -> 14        -0.10339
       8 -> 13        -0.10339
       9 -> 23        -0.11513
       9 -> 24         0.18358
      10 -> 21         0.39348
      11 -> 22        -0.39348

 Excited State  48:      Singlet-E     14.2957 eV   86.73 nm  f=0.0218  <S**2>=0.000
       6 -> 14         0.13599
       7 -> 17         0.12000
       8 -> 16        -0.12000
       9 -> 22         0.26916
      11 -> 23         0.55835
      11 -> 24        -0.19702

 Excited State  49:      Singlet-E     14.2957 eV   86.73 nm  f=0.0218  <S**2>=0.000
       6 -> 13         0.13599
       7 -> 16        -0.12000
       8 -> 17        -0.11999
       9 -> 21        -0.26916
      10 -> 23         0.55835
      10 -> 24        -0.19701

 Excited State  50:      Singlet-E     14.4689 eV   85.69 nm  f=0.0001  <S**2>=0.000
      11 -> 23         0.15300
      11 -> 24         0.67327

 Excited State  51:      Singlet-E     14.4689 eV   85.69 nm  f=0.0001  <S**2>=0.000
      10 -> 23         0.15299
      10 -> 24         0.67327

 Excited State  52:      Singlet-A1    14.6679 eV   84.53 nm  f=0.0036  <S**2>=0.000
       6 -> 15         0.46397
       6 -> 18        -0.15175
       7 -> 17        -0.33138
       8 -> 16        -0.33138

 Excited State  53:      Singlet-A1    14.8031 eV   83.76 nm  f=0.2734  <S**2>=0.000
       6 -> 15         0.22105
       7 -> 17         0.16843
       8 -> 16         0.16843
       9 -> 24         0.60203

 Excited state symmetry could not be determined.
 Excited State  54:      Singlet-?Sym   14.8380 eV   83.56 nm  f=0.0000  <S**2>=0.000
       7 -> 19         0.49859
       8 -> 20        -0.49859

 Excited state symmetry could not be determined.
 Excited State  55:      Singlet-?Sym   14.8874 eV   83.28 nm  f=0.0259  <S**2>=0.000
       6 -> 15        -0.22253
       7 -> 20         0.43095
       8 -> 19         0.43095
       9 -> 24         0.23565

 Excited State  56:      Singlet-E     15.0058 eV   82.62 nm  f=0.0050  <S**2>=0.000
       7 -> 19        -0.22423
       8 -> 18         0.62247
       8 -> 20        -0.22423

 Excited State  57:      Singlet-E     15.0058 eV   82.62 nm  f=0.0050  <S**2>=0.000
       7 -> 18         0.62247
       7 -> 20         0.22423
       8 -> 19        -0.22423

 Excited State  58:      Singlet-A1    15.2118 eV   81.51 nm  f=0.0061  <S**2>=0.000
       6 -> 18        -0.12223
       9 -> 23         0.54212
      10 -> 25        -0.23740
      10 -> 28        -0.11296
      11 -> 26         0.23740
      11 -> 29         0.11296

 Excited State  59:      Singlet-E     15.3928 eV   80.55 nm  f=0.1159  <S**2>=0.000
       6 -> 16         0.60762
       7 -> 19        -0.19763
       8 -> 18        -0.20078
       8 -> 20        -0.19763

 Excited State  60:      Singlet-E     15.3928 eV   80.55 nm  f=0.1159  <S**2>=0.000
       6 -> 17         0.60762
       7 -> 18        -0.20078
       7 -> 20         0.19763
       8 -> 19        -0.19763

 Excited State  61:      Singlet-E     15.4992 eV   79.99 nm  f=0.0500  <S**2>=0.000
       6 -> 16         0.33423
       7 -> 19         0.31574
       8 -> 18         0.22803
       8 -> 20         0.31574
      10 -> 26         0.23097
      11 -> 25        -0.23098

 Excited State  62:      Singlet-E     15.4992 eV   79.99 nm  f=0.0500  <S**2>=0.000
       6 -> 17         0.33423
       7 -> 18         0.22803
       7 -> 20        -0.31574
       8 -> 19         0.31574
      10 -> 25        -0.23097
      11 -> 26        -0.23097

 Excited State  63:      Singlet-A1    15.6213 eV   79.37 nm  f=0.0044  <S**2>=0.000
       6 -> 15         0.31101
       7 -> 17         0.27302
       7 -> 20         0.20509
       8 -> 16         0.27302
       8 -> 19         0.20509
       9 -> 24        -0.18535
       9 -> 27        -0.15252
      10 -> 21         0.12820
      11 -> 22        -0.12820

 Excited state symmetry could not be determined.
 Excited State  64:      Singlet-?Sym   15.6509 eV   79.22 nm  f=0.0000  <S**2>=0.000
      10 -> 26         0.49282
      11 -> 25         0.49282

 Excited state symmetry could not be determined.
 Excited State  65:      Singlet-?Sym   15.7948 eV   78.50 nm  f=0.0002  <S**2>=0.000
       9 -> 23        -0.18384
      10 -> 25        -0.39442
      10 -> 28         0.25500
      11 -> 26         0.39442
      11 -> 29        -0.25500

 Excited State  66:      Singlet-E     16.1452 eV   76.79 nm  f=0.1280  <S**2>=0.000
       6 -> 19         0.33762
       7 -> 19         0.10352
       8 -> 20         0.10352
       9 -> 25        -0.30558
      10 -> 26        -0.28912
      10 -> 27         0.20744
      10 -> 29        -0.12622
      11 -> 25         0.28912
      11 -> 28         0.12622

 Excited State  67:      Singlet-E     16.1452 eV   76.79 nm  f=0.1280  <S**2>=0.000
       6 -> 20         0.33764
       7 -> 20        -0.10352
       8 -> 19         0.10352
       9 -> 26         0.30558
      10 -> 25         0.28912
      10 -> 28         0.12621
      11 -> 26         0.28912
      11 -> 27         0.20743
      11 -> 29         0.12622

 Excited State  68:      Singlet-E     16.2015 eV   76.53 nm  f=0.0474  <S**2>=0.000
       6 -> 19         0.59520
       9 -> 25         0.30825
      10 -> 27        -0.13920

 Excited State  69:      Singlet-E     16.2015 eV   76.53 nm  f=0.0474  <S**2>=0.000
       6 -> 20         0.59519
       9 -> 26        -0.30827
      11 -> 27        -0.13920

 Excited State  70:      Singlet-E     16.2856 eV   76.13 nm  f=0.0266  <S**2>=0.000
       6 -> 19        -0.12993
       9 -> 25         0.54605
      10 -> 26        -0.16473
      10 -> 27         0.30599
      11 -> 25         0.16472

 Excited State  71:      Singlet-E     16.2856 eV   76.13 nm  f=0.0266  <S**2>=0.000
       6 -> 20         0.12992
       9 -> 26         0.54604
      10 -> 25        -0.16473
      11 -> 26        -0.16473
      11 -> 27        -0.30600

 Excited State  72:      Singlet-E     16.3562 eV   75.80 nm  f=0.1118  <S**2>=0.000
       9 -> 25        -0.10628
      10 -> 26         0.15343
      10 -> 27         0.57367
      10 -> 29         0.16215
      11 -> 25        -0.15343
      11 -> 28        -0.16214

 Excited State  73:      Singlet-E     16.3562 eV   75.80 nm  f=0.1118  <S**2>=0.000
       9 -> 26         0.10629
      10 -> 25        -0.15343
      10 -> 28        -0.16215
      11 -> 26        -0.15343
      11 -> 27         0.57366
      11 -> 29        -0.16215

 Excited state symmetry could not be determined.
 Excited State  74:      Singlet-?Sym   16.5199 eV   75.05 nm  f=0.0000  <S**2>=0.000
      10 -> 29         0.49373
      11 -> 28         0.49373

 Excited State  75:      Singlet-E     16.6796 eV   74.33 nm  f=0.2109  <S**2>=0.000
       9 -> 29         0.13514
      10 -> 25         0.13822
      10 -> 28        -0.36399
      11 -> 26         0.13822
      11 -> 29        -0.36399
      11 -> 30         0.38882

 Excited State  76:      Singlet-E     16.6796 eV   74.33 nm  f=0.2109  <S**2>=0.000
       9 -> 28        -0.13514
      10 -> 26        -0.13821
      10 -> 29         0.36399
      10 -> 30         0.38883
      11 -> 25         0.13821
      11 -> 28        -0.36399

 Excited State  77:      Singlet-A1    16.7492 eV   74.02 nm  f=0.0733  <S**2>=0.000
       9 -> 27         0.66233

 Excited State  78:      Singlet-E     16.8130 eV   73.74 nm  f=0.0769  <S**2>=0.000
       9 -> 29        -0.15277
      10 -> 25        -0.10647
      10 -> 28         0.20574
      11 -> 26        -0.10647
      11 -> 29         0.20574
      11 -> 30         0.58029

 Excited State  79:      Singlet-E     16.8130 eV   73.74 nm  f=0.0769  <S**2>=0.000
       9 -> 28         0.15277
      10 -> 26         0.10648
      10 -> 29        -0.20574
      10 -> 30         0.58029
      11 -> 25        -0.10648
      11 -> 28         0.20574

 Excited State  80:      Singlet-E     16.9348 eV   73.21 nm  f=0.0064  <S**2>=0.000
      10 -> 31         0.70338

 Excited State  81:      Singlet-E     16.9348 eV   73.21 nm  f=0.0064  <S**2>=0.000
      11 -> 31         0.70338

 Excited State  82:      Singlet-E     16.9946 eV   72.96 nm  f=0.0007  <S**2>=0.000
       9 -> 28         0.66085
      10 -> 29         0.10055
      10 -> 33         0.10736
      11 -> 28        -0.10055
      11 -> 32        -0.10736

 Excited State  83:      Singlet-E     16.9946 eV   72.96 nm  f=0.0007  <S**2>=0.000
       9 -> 29         0.66085
      10 -> 28         0.10055
      10 -> 32         0.10736
      11 -> 29         0.10055
      11 -> 33         0.10736

 Excited State  84:      Singlet-A1    17.0226 eV   72.84 nm  f=0.1454  <S**2>=0.000
       6 -> 18         0.49806
       6 -> 23        -0.11545
       9 -> 30         0.34755
      10 -> 32         0.18356
      11 -> 33        -0.18356

 Excited state symmetry could not be determined.
 Excited State  85:      Singlet-?Sym   17.1329 eV   72.37 nm  f=0.0032  <S**2>=0.000
       7 -> 21        -0.49762
       8 -> 22         0.49763

 Excited state symmetry could not be determined.
 Excited State  86:      Singlet-?Sym   17.1329 eV   72.37 nm  f=0.0032  <S**2>=0.000
       7 -> 22         0.49762
       8 -> 21         0.49762

 Excited state symmetry could not be determined.
 Excited State  87:      Singlet-?Sym   17.1968 eV   72.10 nm  f=0.0000  <S**2>=0.000
       7 -> 21         0.49992
       8 -> 22         0.49992

 Excited State  88:      Singlet-A1    17.2178 eV   72.01 nm  f=0.1270  <S**2>=0.000
       6 -> 18        -0.33426
       6 -> 23         0.11615
       9 -> 30         0.53370
      10 -> 28         0.15791
      11 -> 29        -0.15791

 Excited state symmetry could not be determined.
 Excited State  89:      Singlet-?Sym   17.2886 eV   71.71 nm  f=0.0000  <S**2>=0.000
      10 -> 33         0.49898
      11 -> 32         0.49897

 Excited state symmetry could not be determined.
 Excited State  90:      Singlet-?Sym   17.2972 eV   71.68 nm  f=0.0644  <S**2>=0.000
       7 -> 22        -0.40166
       8 -> 21         0.40166
       9 -> 30         0.16437
      10 -> 28        -0.10018
      10 -> 32        -0.24293
      11 -> 29         0.10018
      11 -> 33         0.24294

 Excited State  91:      Singlet-A2    17.3552 eV   71.44 nm  f=0.0000  <S**2>=0.000
       9 -> 31         0.70648

 Excited state symmetry could not be determined.
 Excited State  92:      Singlet-?Sym   17.3671 eV   71.39 nm  f=0.0877  <S**2>=0.000
       7 -> 24         0.11916
       9 -> 29        -0.10658
       9 -> 33         0.11570
      10 -> 32         0.46386
      11 -> 33         0.46386

 Excited state symmetry could not be determined.
 Excited State  93:      Singlet-?Sym   17.3671 eV   71.39 nm  f=0.0877  <S**2>=0.000
       8 -> 24         0.11916
       9 -> 28         0.10658
       9 -> 32        -0.11570
      10 -> 33        -0.46386
      11 -> 32         0.46387

 Excited state symmetry could not be determined.
 Excited State  94:      Singlet-?Sym   17.4125 eV   71.20 nm  f=0.0634  <S**2>=0.000
       7 -> 22        -0.25969
       8 -> 21         0.25969
       9 -> 27        -0.17153
       9 -> 30        -0.22650
      10 -> 28         0.22111
      10 -> 32         0.20380
      11 -> 29        -0.22111
      11 -> 33        -0.20380

 Excited State  95:      Singlet-E     17.6844 eV   70.11 nm  f=0.0623  <S**2>=0.000
       7 -> 23        -0.15135
       9 -> 33         0.67197

 Excited State  96:      Singlet-E     17.6844 eV   70.11 nm  f=0.0623  <S**2>=0.000
       8 -> 23         0.15135
       9 -> 32         0.67197

 Excited State  97:      Singlet-E     17.7473 eV   69.86 nm  f=0.0052  <S**2>=0.000
       8 -> 23         0.67375
       8 -> 24        -0.15677
       9 -> 32        -0.12674

 Excited State  98:      Singlet-E     17.7473 eV   69.86 nm  f=0.0052  <S**2>=0.000
       7 -> 23         0.67375
       7 -> 24        -0.15677
       9 -> 33         0.12674

 Excited State  99:      Singlet-E     18.0972 eV   68.51 nm  f=0.2295  <S**2>=0.000
       8 -> 23         0.13054
       8 -> 24         0.65948

 The electronic state is 1-A1.
 Alpha  occ. eigenvalues --  -14.10976 -10.05971 -10.03798  -0.83791  -0.72161
 Alpha  occ. eigenvalues --   -0.47473  -0.43029  -0.43029  -0.31608  -0.30175
 Alpha  occ. eigenvalues --   -0.30175
 Alpha virt. eigenvalues --   -0.00247   0.00015   0.00015   0.06538   0.09123
 Alpha virt. eigenvalues --    0.09123   0.11956   0.12035   0.12035   0.20172
 Alpha virt. eigenvalues --    0.20172   0.22078   0.22716   0.28195   0.28195

 Mulliken charges:
               1
     1  C    0.307236
     2  C   -0.321202
     3  N   -0.064925
     4  H    0.026297
     5  H    0.026297
     6  H    0.026297
 Sum of Mulliken charges =   0.00000

 Dipole moment (field-independent basis, Debye):
    X=             -0.0000    Y=              0.0000    Z=             -3.9166  Tot=              3.9166
 Quadrupole moment (field-independent basis, Debye-Ang):
   XX=            -17.5250   YY=            -17.5250   ZZ=            -20.9324
   XY=             -0.0000   XZ=              0.0000   YZ=              0.0000

 Normal termination of Gaussian 16 at Mon Mar 21 20:27:36 2022.
