 Gaussian 16, Revision C.01,
 Gaussian 16:  EM64L-G16RevC.01  3-Jul-2019

 ----------------------------------------------------------------------
 #P TD(Nstates=10000) tpsstpss/Gen SCF(maxcycles=100) Int(Grid=ultrafin
 e)
 ----------------------------------------------------------------------

 ---------------------
 xGDB7_00001_tier4.com
 ---------------------
 Symbolic Z-matrix:
 Charge =  0 Multiplicity = 1

                         Standard orientation:
 ---------------------------------------------------------------------
 Center     Atomic      Atomic             Coordinates (Angstroms)
 Number     Number       Type             X           Y           Z
 ---------------------------------------------------------------------
      1          9           0        0.000000    0.000000    0.091801
      2          1           0        0.000000    0.000000   -0.826212
 ---------------------------------------------------------------------

 SCF Done:  E(RTPSS-TPSS) =  -100.377558140     A.U. after    9 cycles

 Excitation energies and oscillator strengths:

 Excited state symmetry could not be determined.
 Excited State   1:      Singlet-?Sym    9.7351 eV  127.36 nm  f=0.0334  <S**2>=0.000
       4 ->  6         0.41469
       5 ->  6         0.57245
 This state for optimization and/or second-order correction.
 Total Energy, E(TD-HF/TD-DFT) =  -100.019798103
 Copying the excited state density for this state as the 1-particle RhoCI density.

 Excited state symmetry could not be determined.
 Excited State   2:      Singlet-?Sym    9.7351 eV  127.36 nm  f=0.0334  <S**2>=0.000
       4 ->  6         0.57245
       5 ->  6        -0.41469

 Excited state symmetry could not be determined.
 Excited State   3:      Singlet-?Sym   13.6171 eV   91.05 nm  f=0.0000  <S**2>=0.000
       4 ->  8        -0.49999
       5 ->  9         0.49999

 Excited state symmetry could not be determined.
 Excited State   4:      Singlet-?Sym   13.6171 eV   91.05 nm  f=0.0000  <S**2>=0.000
       4 ->  9         0.49999
       5 ->  8         0.49999

 Excited state symmetry could not be determined.
 Excited State   5:      Singlet-?Sym   13.6525 eV   90.81 nm  f=0.0208  <S**2>=0.000
       4 ->  7         0.57476
       5 ->  7        -0.41134

 Excited state symmetry could not be determined.
 Excited State   6:      Singlet-?Sym   13.6525 eV   90.81 nm  f=0.0208  <S**2>=0.000
       4 ->  7         0.41134
       5 ->  7         0.57476

 Excited State   7:      Singlet-SG    13.6607 eV   90.76 nm  f=0.1353  <S**2>=0.000
       3 ->  6         0.62978
       4 ->  8         0.22406
       5 ->  9         0.22406

 Excited state symmetry could not be determined.
 Excited State   8:      Singlet-?Sym   13.6991 eV   90.51 nm  f=0.0000  <S**2>=0.000
       4 ->  9        -0.50000
       5 ->  8         0.50000

 Excited state symmetry could not be determined.
 Excited State   9:      Singlet-?Sym   15.2025 eV   81.55 nm  f=0.0106  <S**2>=0.000
       3 ->  6        -0.27945
       3 ->  7        -0.16111
       3 -> 10         0.10908
       4 ->  8         0.40785
       4 -> 11        -0.15233
       5 ->  9         0.40785
       5 -> 12        -0.15233

 Excited state symmetry could not be determined.
 Excited State  10:      Singlet-?Sym   15.5594 eV   79.68 nm  f=0.0770  <S**2>=0.000
       4 -> 10        -0.24928
       5 -> 10         0.66103

 Excited state symmetry could not be determined.
 Excited State  11:      Singlet-?Sym   15.5594 eV   79.68 nm  f=0.0770  <S**2>=0.000
       4 -> 10         0.66103
       5 -> 10         0.24928

 Excited state symmetry could not be determined.
 Excited State  12:      Singlet-?Sym   16.2227 eV   76.43 nm  f=0.0000  <S**2>=0.000
       4 -> 11         0.49997
       5 -> 12        -0.49997

 Excited state symmetry could not be determined.
 Excited State  13:      Singlet-?Sym   16.2227 eV   76.43 nm  f=0.0000  <S**2>=0.000
       4 -> 12         0.49997
       5 -> 11         0.49997

 Excited state symmetry could not be determined.
 Excited State  14:      Singlet-?Sym   16.3618 eV   75.78 nm  f=0.0000  <S**2>=0.000
       4 -> 12        -0.50000
       5 -> 11         0.50000

 Excited state symmetry could not be determined.
 Excited State  15:      Singlet-?Sym   16.4703 eV   75.28 nm  f=0.1942  <S**2>=0.000
       3 ->  6        -0.10082
       3 ->  7        -0.11078
       3 -> 10         0.12832
       4 -> 11         0.46870
       5 -> 12         0.46870

 Excited state symmetry could not be determined.
 Excited State  16:      Singlet-?Sym   17.5223 eV   70.76 nm  f=0.0003  <S**2>=0.000
       3 ->  9         0.69987

 Excited state symmetry could not be determined.
 Excited State  17:      Singlet-?Sym   17.5223 eV   70.76 nm  f=0.0003  <S**2>=0.000
       3 ->  8         0.69987

 Excited State  18:      Singlet-SG    17.8800 eV   69.34 nm  f=0.0483  <S**2>=0.000
       3 ->  7         0.66680
       3 -> 10         0.17145
       4 ->  8         0.10041
       5 ->  9         0.10041

 Excited state symmetry could not be determined.
 Excited State  19:      Singlet-?Sym   18.7461 eV   66.14 nm  f=0.0212  <S**2>=0.000
       5 -> 13         0.70046

 Excited state symmetry could not be determined.
 Excited State  20:      Singlet-?Sym   18.7461 eV   66.14 nm  f=0.0212  <S**2>=0.000
       4 -> 13         0.70046

 Excited state symmetry could not be determined.
 Excited State  21:      Singlet-?Sym   20.1139 eV   61.64 nm  f=0.0716  <S**2>=0.000
       3 -> 11         0.62924
       3 -> 12        -0.31790

 Excited state symmetry could not be determined.
 Excited State  22:      Singlet-?Sym   20.1139 eV   61.64 nm  f=0.0716  <S**2>=0.000
       3 -> 11         0.31790
       3 -> 12         0.62924

 Excited State  23:      Singlet-SG    20.3358 eV   60.97 nm  f=0.0946  <S**2>=0.000
       3 ->  7        -0.11391
       3 -> 10         0.62980
       3 -> 13        -0.24061

 Excited State  24:      Singlet-SG    23.2830 eV   53.25 nm  f=0.0848  <S**2>=0.000
       3 -> 10         0.19440
       3 -> 13         0.65502

 Excited state symmetry could not be determined.
 Excited State  25:      Singlet-?Sym   24.1834 eV   51.27 nm  f=0.0000  <S**2>=0.000
       4 -> 14         0.49950
       5 -> 15        -0.49950

 Excited state symmetry could not be determined.
 Excited State  26:      Singlet-?Sym   24.1834 eV   51.27 nm  f=0.0000  <S**2>=0.000
       4 -> 15         0.49950
       5 -> 14         0.49950

 Excited state symmetry could not be determined.
 Excited State  27:      Singlet-?Sym   25.5490 eV   48.53 nm  f=0.4482  <S**2>=0.000
       4 -> 14        -0.26421
       4 -> 15        -0.40421
       4 -> 16        -0.13982
       5 -> 14         0.40421
       5 -> 15        -0.26421

 Excited state symmetry could not be determined.
 Excited State  28:      Singlet-?Sym   25.5490 eV   48.53 nm  f=0.4482  <S**2>=0.000
       4 -> 14         0.40421
       4 -> 15        -0.26421
       5 -> 14         0.26421
       5 -> 15         0.40421
       5 -> 16        -0.13982

 Excited state symmetry could not be determined.
 Excited State  29:      Singlet-?Sym   26.8482 eV   46.18 nm  f=0.1509  <S**2>=0.000
       4 -> 16        -0.40400
       5 -> 16         0.55214

 Excited state symmetry could not be determined.
 Excited State  30:      Singlet-?Sym   26.8482 eV   46.18 nm  f=0.1509  <S**2>=0.000
       4 -> 16         0.55214
       5 -> 16         0.40400

 Excited state symmetry could not be determined.
 Excited State  31:      Singlet-?Sym   28.3312 eV   43.76 nm  f=0.0000  <S**2>=0.000
       3 -> 14         0.62997
       4 -> 18         0.22704
       5 -> 17         0.22704

 Excited state symmetry could not be determined.
 Excited State  32:      Singlet-?Sym   28.3312 eV   43.76 nm  f=0.0000  <S**2>=0.000
       3 -> 15         0.62997
       4 -> 17        -0.22704
       5 -> 18         0.22704

 Excited state symmetry could not be determined.
 Excited State  33:      Singlet-?Sym   28.9407 eV   42.84 nm  f=0.0000  <S**2>=0.000
       3 -> 14        -0.32109
       4 -> 18         0.44548
       5 -> 17         0.44548

 Excited state symmetry could not be determined.
 Excited State  34:      Singlet-?Sym   28.9407 eV   42.84 nm  f=0.0000  <S**2>=0.000
       3 -> 15         0.32109
       4 -> 17         0.44548
       5 -> 18        -0.44548

 Excited state symmetry could not be determined.
 Excited State  35:      Singlet-?Sym   29.2210 eV   42.43 nm  f=0.0000  <S**2>=0.000
       4 -> 18        -0.50000
       5 -> 17         0.50000

 Excited state symmetry could not be determined.
 Excited State  36:      Singlet-?Sym   29.3263 eV   42.28 nm  f=0.1472  <S**2>=0.000
       3 -> 16         0.34567
       4 -> 17         0.42949
       5 -> 18         0.42949

 Excited State  37:      Singlet-SG    30.7604 eV   40.31 nm  f=0.1035  <S**2>=0.000
       2 ->  6         0.66202
       3 -> 16        -0.21430

 Excited State  38:      Singlet-SG    32.1648 eV   38.55 nm  f=0.5374  <S**2>=0.000
       2 ->  6         0.19514
       3 -> 16         0.57042
       4 -> 17        -0.24598
       5 -> 18        -0.24598

 Excited state symmetry could not be determined.
 Excited State  39:      Singlet-?Sym   33.2287 eV   37.31 nm  f=0.3027  <S**2>=0.000
       2 ->  8        -0.14977
       3 -> 17         0.58058
       3 -> 18        -0.35294

 Excited state symmetry could not be determined.
 Excited State  40:      Singlet-?Sym   33.2287 eV   37.31 nm  f=0.3027  <S**2>=0.000
       2 ->  9        -0.14977
       3 -> 17         0.35294
       3 -> 18         0.58058

 Excited State  41:      Singlet-SG    34.2828 eV   36.17 nm  f=0.0086  <S**2>=0.000
       2 ->  7         0.69898

 Excited state symmetry could not be determined.
 Excited State  42:      Singlet-?Sym   34.5006 eV   35.94 nm  f=0.0057  <S**2>=0.000
       2 ->  8         0.68168
       3 -> 17         0.16860

 Excited state symmetry could not be determined.
 Excited State  43:      Singlet-?Sym   34.5006 eV   35.94 nm  f=0.0057  <S**2>=0.000
       2 ->  9         0.68168
       3 -> 18         0.16860

 Excited State  44:      Singlet-SG    36.2634 eV   34.19 nm  f=0.0087  <S**2>=0.000
       2 -> 10         0.70162

 Excited state symmetry could not be determined.
 Excited State  45:      Singlet-?Sym   36.8017 eV   33.69 nm  f=0.0029  <S**2>=0.000
       2 -> 11         0.61773
       2 -> 12        -0.34322

 Excited state symmetry could not be determined.
 Excited State  46:      Singlet-?Sym   36.8017 eV   33.69 nm  f=0.0029  <S**2>=0.000
       2 -> 11         0.34322
       2 -> 12         0.61773

 Excited state symmetry could not be determined.
 Excited State  47:      Singlet-?Sym   37.3027 eV   33.24 nm  f=0.0058  <S**2>=0.000
       4 -> 19         0.69681
       5 -> 19         0.11445

 Excited state symmetry could not be determined.
 Excited State  48:      Singlet-?Sym   37.3027 eV   33.24 nm  f=0.0058  <S**2>=0.000
       4 -> 19        -0.11445
       5 -> 19         0.69681

 Excited State  49:      Singlet-SG    39.7364 eV   31.20 nm  f=0.0198  <S**2>=0.000
       2 -> 13         0.67665
       3 -> 19         0.16162

 Excited State  50:      Singlet-SG    41.4226 eV   29.93 nm  f=0.0021  <S**2>=0.000
       2 -> 13        -0.12917
       3 -> 19         0.66107
       4 -> 21        -0.14449
       5 -> 20        -0.14449

 Excited state symmetry could not be determined.
 Excited State  51:      Singlet-?Sym   44.3994 eV   27.92 nm  f=0.0000  <S**2>=0.000
       2 -> 15        -0.20818
       4 -> 21        -0.47783
       5 -> 20         0.47783

 Excited state symmetry could not be determined.
 Excited State  52:      Singlet-?Sym   44.3994 eV   27.92 nm  f=0.0000  <S**2>=0.000
       2 -> 14        -0.20818
       4 -> 20         0.47783
       5 -> 21         0.47783

 Excited state symmetry could not be determined.
 Excited State  53:      Singlet-?Sym   45.0336 eV   27.53 nm  f=0.0000  <S**2>=0.000
       4 -> 20         0.50000
       5 -> 21        -0.50000

 Excited state symmetry could not be determined.
 Excited State  54:      Singlet-?Sym   45.3391 eV   27.35 nm  f=0.0000  <S**2>=0.000
       2 -> 15         0.67574
       4 -> 21        -0.14720
       5 -> 20         0.14720

 Excited state symmetry could not be determined.
 Excited State  55:      Singlet-?Sym   45.3391 eV   27.35 nm  f=0.0000  <S**2>=0.000
       2 -> 14         0.67574
       4 -> 20         0.14720
       5 -> 21         0.14720

 Excited State  56:      Singlet-SG    47.4662 eV   26.12 nm  f=0.0002  <S**2>=0.000
       2 -> 16         0.69695

 Excited state symmetry could not be determined.
 Excited State  57:      Singlet-?Sym   48.7050 eV   25.46 nm  f=0.0005  <S**2>=0.000
       3 -> 20         0.46839
       3 -> 21         0.52575

 Excited state symmetry could not be determined.
 Excited State  58:      Singlet-?Sym   48.7050 eV   25.46 nm  f=0.0005  <S**2>=0.000
       3 -> 20         0.52575
       3 -> 21        -0.46839

 Excited state symmetry could not be determined.
 Excited State  59:      Singlet-?Sym   49.7836 eV   24.90 nm  f=0.0004  <S**2>=0.000
       2 -> 17         0.63730
       2 -> 18        -0.26332
       4 -> 22        -0.13162

 Excited state symmetry could not be determined.
 Excited State  60:      Singlet-?Sym   49.7836 eV   24.90 nm  f=0.0004  <S**2>=0.000
       2 -> 17         0.26332
       2 -> 18         0.63730
       5 -> 22        -0.13162

 Excited state symmetry could not be determined.
 Excited State  61:      Singlet-?Sym   50.2190 eV   24.69 nm  f=0.0487  <S**2>=0.000
       2 -> 17         0.11571
       4 -> 22         0.55702
       5 -> 22        -0.40988

 Excited state symmetry could not be determined.
 Excited State  62:      Singlet-?Sym   50.2190 eV   24.69 nm  f=0.0487  <S**2>=0.000
       2 -> 18         0.11571
       4 -> 22         0.40988
       5 -> 22         0.55702

 Excited State  63:      Singlet-SG    51.0369 eV   24.29 nm  f=0.0789  <S**2>=0.000
       2 -> 16        -0.10783
       3 -> 19        -0.12267
       3 -> 22         0.45218
       4 -> 21        -0.34653
       5 -> 20        -0.34653

 Excited State  64:      Singlet-SG    57.4531 eV   21.58 nm  f=0.0160  <S**2>=0.000
       2 -> 19         0.49065
       3 -> 22        -0.38126
       4 -> 21        -0.15548
       4 -> 23        -0.15456
       5 -> 20        -0.15548
       5 -> 24        -0.15456

 Excited state symmetry could not be determined.
 Excited State  65:      Singlet-?Sym   58.6346 eV   21.15 nm  f=0.0000  <S**2>=0.000
       4 -> 23         0.49998
       5 -> 24        -0.49998

 Excited state symmetry could not be determined.
 Excited State  66:      Singlet-?Sym   58.6346 eV   21.15 nm  f=0.0000  <S**2>=0.000
       4 -> 24         0.49998
       5 -> 23         0.49998

 Excited State  67:      Singlet-SG    59.0876 eV   20.98 nm  f=0.1190  <S**2>=0.000
       2 -> 19         0.46378
       3 -> 22         0.18532
       4 -> 21         0.13668
       4 -> 23         0.30815
       5 -> 20         0.13668
       5 -> 24         0.30815

 Excited state symmetry could not be determined.
 Excited State  68:      Singlet-?Sym   59.1552 eV   20.96 nm  f=0.0000  <S**2>=0.000
       4 -> 24        -0.50000
       5 -> 23         0.50000

 Excited state symmetry could not be determined.
 Excited State  69:      Singlet-?Sym   60.0679 eV   20.64 nm  f=0.0310  <S**2>=0.000
       2 -> 19        -0.17567
       2 -> 22        -0.13986
       3 -> 22        -0.30644
       3 -> 25         0.19157
       4 -> 21        -0.17380
       4 -> 23         0.35038
       5 -> 20        -0.17380
       5 -> 24         0.35038

 Excited state symmetry could not be determined.
 Excited State  70:      Singlet-?Sym   61.7111 eV   20.09 nm  f=0.0001  <S**2>=0.000
       3 -> 24        -0.40525
       4 -> 25        -0.12978
       5 -> 25         0.55524

 Excited state symmetry could not be determined.
 Excited State  71:      Singlet-?Sym   61.7111 eV   20.09 nm  f=0.0001  <S**2>=0.000
       3 -> 23        -0.40525
       4 -> 25         0.55524
       5 -> 25         0.12978

 Excited state symmetry could not be determined.
 Excited State  72:      Singlet-?Sym   63.0563 eV   19.66 nm  f=0.1640  <S**2>=0.000
       3 -> 23         0.44517
       3 -> 24        -0.35596
       4 -> 25         0.32387
       5 -> 25        -0.25896

 Excited state symmetry could not be determined.
 Excited State  73:      Singlet-?Sym   63.0563 eV   19.66 nm  f=0.1640  <S**2>=0.000
       3 -> 23         0.35596
       3 -> 24         0.44517
       4 -> 25         0.25896
       5 -> 25         0.32387

 Excited state symmetry could not be determined.
 Excited State  74:      Singlet-?Sym   66.0191 eV   18.78 nm  f=0.2090  <S**2>=0.000
       2 -> 20         0.63338
       2 -> 21         0.30783

 Excited state symmetry could not be determined.
 Excited State  75:      Singlet-?Sym   66.0191 eV   18.78 nm  f=0.2090  <S**2>=0.000
       2 -> 20        -0.30783
       2 -> 21         0.63338

 Excited State  76:      Singlet-SG    66.5470 eV   18.63 nm  f=0.0193  <S**2>=0.000
       2 -> 22         0.18309
       3 -> 25         0.66282

 Excited State  77:      Singlet-SG    72.9833 eV   16.99 nm  f=0.0795  <S**2>=0.000
       2 -> 22         0.63078
       2 -> 25         0.14466
       3 -> 22        -0.10300
       3 -> 25        -0.13187
       3 -> 26        -0.15630
       4 -> 21        -0.10398
       5 -> 20        -0.10398

 Excited state symmetry could not be determined.
 Excited State  78:      Singlet-?Sym   73.1544 eV   16.95 nm  f=0.0202  <S**2>=0.000
       4 -> 26        -0.38618
       5 -> 26         0.58989

 Excited state symmetry could not be determined.
 Excited State  79:      Singlet-?Sym   73.1544 eV   16.95 nm  f=0.0202  <S**2>=0.000
       4 -> 26         0.58989
       5 -> 26         0.38618

 Excited State  80:      Singlet-SG    77.5432 eV   15.99 nm  f=0.0185  <S**2>=0.000
       2 -> 22         0.12067
       2 -> 25         0.11284
       3 -> 26         0.67717

 Excited state symmetry could not be determined.
 Excited State  81:      Singlet-?Sym   79.4747 eV   15.60 nm  f=0.0023  <S**2>=0.000
       2 -> 23         0.56712
       2 -> 24         0.42147

 Excited state symmetry could not be determined.
 Excited State  82:      Singlet-?Sym   79.4747 eV   15.60 nm  f=0.0023  <S**2>=0.000
       2 -> 23        -0.42147
       2 -> 24         0.56712

 Excited State  83:      Singlet-SG    85.0285 eV   14.58 nm  f=0.0380  <S**2>=0.000
       2 -> 22        -0.11800
       2 -> 25         0.67533

 Excited State  84:      Singlet-SG    94.3224 eV   13.14 nm  f=0.0209  <S**2>=0.000
       2 -> 26         0.70395

 Excited state symmetry could not be determined.
 Excited State  85:      Singlet-?Sym   97.2195 eV   12.75 nm  f=0.0000  <S**2>=0.000
       4 -> 27         0.35749
       4 -> 28        -0.34958
       5 -> 27        -0.34958
       5 -> 28        -0.35749

 Excited state symmetry could not be determined.
 Excited State  86:      Singlet-?Sym   97.2195 eV   12.75 nm  f=0.0000  <S**2>=0.000
       4 -> 27         0.34958
       4 -> 28         0.35749
       5 -> 27         0.35749
       5 -> 28        -0.34958

 Excited state symmetry could not be determined.
 Excited State  87:      Singlet-?Sym  101.6733 eV   12.19 nm  f=0.0000  <S**2>=0.000
       3 -> 27         0.58113
       4 -> 30         0.28459
       5 -> 29         0.28459

 Excited state symmetry could not be determined.
 Excited State  88:      Singlet-?Sym  101.6733 eV   12.19 nm  f=0.0000  <S**2>=0.000
       3 -> 28         0.58113
       4 -> 29        -0.28459
       5 -> 30         0.28459

 Excited state symmetry could not be determined.
 Excited State  89:      Singlet-?Sym  102.3778 eV   12.11 nm  f=0.2526  <S**2>=0.000
       3 -> 29        -0.18723
       3 -> 30        -0.33140
       4 -> 27         0.36604
       4 -> 28        -0.20680
       5 -> 27         0.20680
       5 -> 28         0.36604

 Excited state symmetry could not be determined.
 Excited State  90:      Singlet-?Sym  102.3778 eV   12.11 nm  f=0.2526  <S**2>=0.000
       3 -> 29         0.33140
       3 -> 30        -0.18723
       4 -> 27         0.20680
       4 -> 28         0.36604
       5 -> 27        -0.36604
       5 -> 28         0.20680

 Excited state symmetry could not be determined.
 Excited State  91:      Singlet-?Sym  102.7625 eV   12.07 nm  f=0.0000  <S**2>=0.000
       3 -> 27        -0.40233
       4 -> 30         0.41111
       5 -> 29         0.41111

 Excited state symmetry could not be determined.
 Excited State  92:      Singlet-?Sym  102.7625 eV   12.07 nm  f=0.0000  <S**2>=0.000
       3 -> 28         0.40233
       4 -> 29         0.41111
       5 -> 30        -0.41111

 Excited state symmetry could not be determined.
 Excited State  93:      Singlet-?Sym  103.2464 eV   12.01 nm  f=0.0000  <S**2>=0.000
       4 -> 30        -0.50000
       5 -> 29         0.50000

 Excited state symmetry could not be determined.
 Excited State  94:      Singlet-?Sym  108.3834 eV   11.44 nm  f=0.5600  <S**2>=0.000
       3 -> 31        -0.11076
       4 -> 29         0.49040
       5 -> 30         0.49040

 Excited state symmetry could not be determined.
 Excited State  95:      Singlet-?Sym  111.1264 eV   11.16 nm  f=0.6907  <S**2>=0.000
       3 -> 29         0.58753
       4 -> 28        -0.26229
       5 -> 27         0.26229

 Excited state symmetry could not be determined.
 Excited State  96:      Singlet-?Sym  111.1264 eV   11.16 nm  f=0.6907  <S**2>=0.000
       3 -> 30         0.58753
       4 -> 27         0.26229
       5 -> 28         0.26229

 Excited state symmetry could not be determined.
 Excited State  97:      Singlet-?Sym  120.2231 eV   10.31 nm  f=0.0000  <S**2>=0.000
       2 -> 27         0.70680

 Excited state symmetry could not be determined.
 Excited State  98:      Singlet-?Sym  120.2231 eV   10.31 nm  f=0.0000  <S**2>=0.000
       2 -> 28         0.70680

 Excited state symmetry could not be determined.
 Excited State  99:      Singlet-?Sym  124.9032 eV    9.93 nm  f=0.0099  <S**2>=0.000
       2 -> 29         0.68642
       2 -> 30         0.16442

 Excited state symmetry could not be determined.
 Excited State 100:      Singlet-?Sym  124.9032 eV    9.93 nm  f=0.0099  <S**2>=0.000
       2 -> 29        -0.16442
       2 -> 30         0.68642

 Excited state symmetry could not be determined.
 Excited State 101:      Singlet-?Sym  129.1962 eV    9.60 nm  f=0.1136  <S**2>=0.000
       4 -> 31         0.22947
       5 -> 31         0.66103

 Excited state symmetry could not be determined.
 Excited State 102:      Singlet-?Sym  129.1962 eV    9.60 nm  f=0.1136  <S**2>=0.000
       4 -> 31         0.66103
       5 -> 31        -0.22947

 Excited State 103:      Singlet-SG   133.8298 eV    9.26 nm  f=0.2440  <S**2>=0.000
       3 -> 31         0.69742

 Excited State 104:      Singlet-SG   149.4928 eV    8.29 nm  f=0.0003  <S**2>=0.000
       2 -> 31         0.70647

 The electronic state is 1-SG.
 Alpha  occ. eigenvalues --  -24.42611  -1.11232  -0.50165  -0.36118  -0.36118
 Alpha virt. eigenvalues --   -0.00720   0.14059   0.14225   0.14225   0.21134
 Alpha virt. eigenvalues --    0.24010   0.24010   0.32591   0.55031   0.55031
 Alpha virt. eigenvalues --    0.62386   0.71267   0.71267   1.01569   1.29377

 Mulliken charges:
               1
     1  F   -0.257740
     2  H    0.257740
 Sum of Mulliken charges =  -0.00000

 Dipole moment (field-independent basis, Debye):
    X=              0.0000    Y=              0.0000    Z=             -1.7766  Tot=              1.7766
 Quadrupole moment (field-independent basis, Debye-Ang):
   XX=             -5.9368   YY=             -5.9368   ZZ=             -3.8514
   XY=              0.0000   XZ=              0.0000   YZ=              0.0000

 Normal termination of Gaussian 16 at Mon Mar 21 20:14:49 2022.
