 Gaussian 16, Revision C.01,
 Gaussian 16:  EM64L-G16RevC.01  3-Jul-2019

 ----------------------------------------------------------------------
 #P TD(Nstates=10000) tpsstpss/Gen SCF(maxcycles=100) Int(Grid=ultrafin
 e)
 ----------------------------------------------------------------------

 ---------------------
 xGDB7_00001_tier4.com
 ---------------------
 Symbolic Z-matrix:
 Charge =  0 Multiplicity = 1

                         Standard orientation:
 ---------------------------------------------------------------------
 Center     Atomic      Atomic             Coordinates (Angstroms)
 Number     Number       Type             X           Y           Z
 ---------------------------------------------------------------------
      1          6           0       -0.026655   -0.220923    1.206915
      2          7           0       -0.026655    0.579675   -0.000000
      3          6           0       -0.026655   -0.220923   -1.206915
      4          1           0        0.028929    0.427196    2.082330
      5          1           0        0.800836   -0.947383    1.258571
      6          1           0       -0.961718   -0.783094    1.269367
      7          1           0        0.770359    1.199905   -0.000000
      8          1           0       -0.961718   -0.783094   -1.269367
      9          1           0        0.800836   -0.947383   -1.258571
     10          1           0        0.028929    0.427196   -2.082330
 ---------------------------------------------------------------------

 SCF Done:  E(RTPSS-TPSS) =  -135.097291601     A.U. after   12 cycles

 Excitation energies and oscillator strengths:

 Excited State   1:      Singlet-A'     5.4212 eV  228.70 nm  f=0.0063  <S**2>=0.000
      13 -> 14         0.70667
 This state for optimization and/or second-order correction.
 Total Energy, E(TD-HF/TD-DFT) =  -134.898064873
 Copying the excited state density for this state as the 1-particle RhoCI density.

 Excited State   2:      Singlet-A"     6.2474 eV  198.46 nm  f=0.0049  <S**2>=0.000
      13 -> 15         0.70691

 Excited State   3:      Singlet-A'     6.5005 eV  190.73 nm  f=0.0313  <S**2>=0.000
      13 -> 16         0.70589

 Excited State   4:      Singlet-A'     7.3826 eV  167.94 nm  f=0.0189  <S**2>=0.000
      13 -> 17         0.61025
      13 -> 18        -0.35413

 Excited State   5:      Singlet-A'     7.4591 eV  166.22 nm  f=0.0858  <S**2>=0.000
      13 -> 17         0.35148
      13 -> 18         0.60995

 Excited State   6:      Singlet-A"     8.1429 eV  152.26 nm  f=0.0201  <S**2>=0.000
      13 -> 19         0.70465

 Excited State   7:      Singlet-A'     8.2462 eV  150.35 nm  f=0.0046  <S**2>=0.000
      13 -> 20         0.70170

 Excited State   8:      Singlet-A"     8.5876 eV  144.38 nm  f=0.0738  <S**2>=0.000
      13 -> 21         0.70230

 Excited State   9:      Singlet-A'     8.6685 eV  143.03 nm  f=0.0061  <S**2>=0.000
      13 -> 22         0.70209

 Excited State  10:      Singlet-A"     9.2260 eV  134.39 nm  f=0.0006  <S**2>=0.000
      12 -> 14        -0.21186
      13 -> 23         0.67214

 Excited State  11:      Singlet-A"     9.2658 eV  133.81 nm  f=0.0561  <S**2>=0.000
      12 -> 14         0.67218
      13 -> 23         0.20732

 Excited State  12:      Singlet-A'     9.3372 eV  132.78 nm  f=0.0098  <S**2>=0.000
      11 -> 14         0.68320
      13 -> 24        -0.17681

 Excited State  13:      Singlet-A'     9.5319 eV  130.07 nm  f=0.0058  <S**2>=0.000
      11 -> 14         0.17095
      13 -> 24         0.67747

 Excited State  14:      Singlet-A"     9.7399 eV  127.30 nm  f=0.0129  <S**2>=0.000
      13 -> 25         0.70263

 Excited State  15:      Singlet-A"     9.8583 eV  125.77 nm  f=0.0037  <S**2>=0.000
      10 -> 14         0.70640

 Excited State  16:      Singlet-A'    10.1383 eV  122.29 nm  f=0.0182  <S**2>=0.000
      12 -> 15         0.70042

 Excited State  17:      Singlet-A"    10.1576 eV  122.06 nm  f=0.0024  <S**2>=0.000
      11 -> 15         0.70270

 Excited State  18:      Singlet-A"    10.3025 eV  120.34 nm  f=0.0028  <S**2>=0.000
      12 -> 16         0.66567
      13 -> 26         0.22720

 Excited State  19:      Singlet-A"    10.3411 eV  119.89 nm  f=0.0286  <S**2>=0.000
      12 -> 16        -0.22659
      13 -> 26         0.66324

 Excited State  20:      Singlet-A'    10.3967 eV  119.25 nm  f=0.1215  <S**2>=0.000
      11 -> 16         0.70036

 Excited State  21:      Singlet-A'    10.7268 eV  115.58 nm  f=0.0647  <S**2>=0.000
      10 -> 15         0.70091

 Excited State  22:      Singlet-A"    10.8964 eV  113.78 nm  f=0.0006  <S**2>=0.000
      10 -> 16         0.70323

 Excited State  23:      Singlet-A'    10.9785 eV  112.93 nm  f=0.0104  <S**2>=0.000
      13 -> 27         0.67735

 Excited State  24:      Singlet-A"    11.1880 eV  110.82 nm  f=0.0092  <S**2>=0.000
       9 -> 14        -0.39115
      12 -> 17         0.50104
      12 -> 18         0.30566

 Excited State  25:      Singlet-A"    11.2455 eV  110.25 nm  f=0.0255  <S**2>=0.000
       9 -> 14         0.52297
      12 -> 17         0.44454

 Excited State  26:      Singlet-A'    11.2481 eV  110.23 nm  f=0.0206  <S**2>=0.000
      11 -> 17         0.69940

 Excited State  27:      Singlet-A"    11.3092 eV  109.63 nm  f=0.1893  <S**2>=0.000
       9 -> 14         0.23868
      12 -> 17        -0.18910
      12 -> 18         0.62625

 Excited State  28:      Singlet-A'    11.3221 eV  109.51 nm  f=0.0638  <S**2>=0.000
       8 -> 14         0.68381
      11 -> 18        -0.14470

 Excited State  29:      Singlet-A'    11.4591 eV  108.20 nm  f=0.0577  <S**2>=0.000
       8 -> 14         0.13573
      11 -> 18         0.62728
      13 -> 28        -0.24370

 Excited State  30:      Singlet-A'    11.5665 eV  107.19 nm  f=0.0206  <S**2>=0.000
       9 -> 15        -0.11835
      11 -> 18         0.22941
      13 -> 28         0.63869

 Excited State  31:      Singlet-A"    11.6482 eV  106.44 nm  f=0.0240  <S**2>=0.000
      10 -> 17         0.12708
      13 -> 29         0.68519

 Excited State  32:      Singlet-A"    11.8512 eV  104.62 nm  f=0.0130  <S**2>=0.000
      10 -> 17         0.58618
      10 -> 18        -0.34969
      11 -> 19         0.11399

 Excited State  33:      Singlet-A"    11.9586 eV  103.68 nm  f=0.0251  <S**2>=0.000
      10 -> 17         0.23554
      10 -> 18         0.53374
      11 -> 19         0.34625
      13 -> 29        -0.10044

 Excited State  34:      Singlet-A'    12.0525 eV  102.87 nm  f=0.0795  <S**2>=0.000
       9 -> 15         0.66731
      12 -> 19         0.15755

 Excited State  35:      Singlet-A"    12.0551 eV  102.85 nm  f=0.0097  <S**2>=0.000
       8 -> 15         0.16616
       9 -> 16        -0.10047
      10 -> 17         0.19911
      10 -> 18         0.13865
      11 -> 19        -0.40115
      12 -> 20         0.47675

 Excited State  36:      Singlet-A'    12.0774 eV  102.66 nm  f=0.0040  <S**2>=0.000
       9 -> 15        -0.12752
      11 -> 20        -0.33338
      12 -> 19         0.57613

 Excited State  37:      Singlet-A"    12.1040 eV  102.43 nm  f=0.0030  <S**2>=0.000
       8 -> 15        -0.18530
       9 -> 16         0.18447
      10 -> 18        -0.13063
      11 -> 19         0.36972
      12 -> 20         0.50056

 Excited State  38:      Singlet-A'    12.1217 eV  102.28 nm  f=0.0091  <S**2>=0.000
      11 -> 20         0.55571
      12 -> 19         0.30119
      13 -> 30         0.25145

 Excited State  39:      Singlet-A"    12.1526 eV  102.02 nm  f=0.0238  <S**2>=0.000
       8 -> 15         0.65757
      10 -> 17        -0.10498
      11 -> 19         0.17906

 Excited State  40:      Singlet-A'    12.2255 eV  101.41 nm  f=0.1149  <S**2>=0.000
      11 -> 20        -0.23829
      13 -> 30         0.62543

 Excited State  41:      Singlet-A"    12.2486 eV  101.22 nm  f=0.0766  <S**2>=0.000
       9 -> 16         0.65935
      11 -> 19        -0.15289
      11 -> 21        -0.13056

 Excited State  42:      Singlet-A'    12.3225 eV  100.62 nm  f=0.0160  <S**2>=0.000
       8 -> 16         0.67582
      12 -> 21         0.13857

 Excited State  43:      Singlet-A'    12.3775 eV  100.17 nm  f=0.0017  <S**2>=0.000
       8 -> 16        -0.13994
      12 -> 21         0.68159

 Excited State  44:      Singlet-A"    12.4351 eV   99.70 nm  f=0.0167  <S**2>=0.000
      11 -> 21         0.55466
      12 -> 22        -0.42367

 Excited State  45:      Singlet-A"    12.5170 eV   99.05 nm  f=0.0541  <S**2>=0.000
      10 -> 20         0.43448
      11 -> 21         0.32162
      12 -> 22         0.43515

 Excited State  46:      Singlet-A'    12.5632 eV   98.69 nm  f=0.0297  <S**2>=0.000
       7 -> 14         0.23519
      11 -> 22         0.64635

 Excited State  47:      Singlet-A'    12.5909 eV   98.47 nm  f=0.0416  <S**2>=0.000
      10 -> 19         0.68910

 Excited State  48:      Singlet-A'    12.6431 eV   98.06 nm  f=0.0388  <S**2>=0.000
       7 -> 14         0.61374
      10 -> 19         0.10161
      10 -> 21         0.11568
      11 -> 22        -0.21109
      13 -> 31         0.14709

 Excited State  49:      Singlet-A"    12.6832 eV   97.75 nm  f=0.0049  <S**2>=0.000
      10 -> 18        -0.10479
      10 -> 20         0.53779
      11 -> 21        -0.22058
      11 -> 23         0.12466
      12 -> 22        -0.33226

 Excited State  50:      Singlet-A'    12.8574 eV   96.43 nm  f=0.0693  <S**2>=0.000
       7 -> 14        -0.12449
      13 -> 31         0.64429
      13 -> 33         0.16273

 Excited State  51:      Singlet-A'    13.0209 eV   95.22 nm  f=0.0301  <S**2>=0.000
       8 -> 17         0.17815
      10 -> 21        -0.32981
      11 -> 24        -0.11326
      12 -> 23         0.55408
      13 -> 33        -0.11296

 Excited State  52:      Singlet-A"    13.0328 eV   95.13 nm  f=0.0001  <S**2>=0.000
       9 -> 17         0.27026
      10 -> 22        -0.10314
      13 -> 32         0.63665

 Excited State  53:      Singlet-A"    13.0956 eV   94.68 nm  f=0.0040  <S**2>=0.000
       9 -> 17        -0.11294
      10 -> 22         0.53572
      11 -> 23         0.41174
      13 -> 32         0.12433

 Excited State  54:      Singlet-A"    13.1129 eV   94.55 nm  f=0.0003  <S**2>=0.000
       9 -> 17         0.56599
       9 -> 18         0.33408
      10 -> 22         0.15683
      13 -> 32        -0.18931

 Excited State  55:      Singlet-A'    13.1388 eV   94.36 nm  f=0.0209  <S**2>=0.000
       8 -> 17         0.10992
      10 -> 21        -0.16505
      12 -> 25         0.10157
      13 -> 31        -0.11589
      13 -> 33         0.61411
      13 -> 34         0.18317

 Excited State  56:      Singlet-A'    13.1458 eV   94.31 nm  f=0.0473  <S**2>=0.000
       8 -> 17        -0.32127
       8 -> 18        -0.15754
      10 -> 21         0.41057
      12 -> 23         0.36729
      13 -> 33         0.14586
      13 -> 34         0.12129

 Excited State  57:      Singlet-A"    13.2338 eV   93.69 nm  f=0.0806  <S**2>=0.000
      10 -> 22        -0.36767
      11 -> 23         0.46571
      12 -> 24         0.33353

 Excited State  58:      Singlet-A"    13.2606 eV   93.50 nm  f=0.0382  <S**2>=0.000
       7 -> 15         0.17024
       9 -> 17        -0.26208
       9 -> 18         0.58752
      13 -> 32         0.12674

 Excited State  59:      Singlet-A'    13.2928 eV   93.27 nm  f=0.0088  <S**2>=0.000
       8 -> 17        -0.28697
       8 -> 18         0.55650
      11 -> 24         0.27852

 Excited State  60:      Singlet-A'    13.3293 eV   93.02 nm  f=0.0326  <S**2>=0.000
       8 -> 17         0.16844
      12 -> 25        -0.12602
      13 -> 33        -0.13907
      13 -> 34         0.62752

 Excited State  61:      Singlet-A"    13.3659 eV   92.76 nm  f=0.0000  <S**2>=0.000
      10 -> 22         0.14626
      11 -> 23        -0.29172
      12 -> 24         0.59367

 Excited State  62:      Singlet-A'    13.4176 eV   92.40 nm  f=0.0224  <S**2>=0.000
       7 -> 16         0.10356
       8 -> 18        -0.29300
      10 -> 23         0.15680
      11 -> 24         0.54495
      12 -> 25        -0.20867

 Excited State  63:      Singlet-A"    13.4514 eV   92.17 nm  f=0.0875  <S**2>=0.000
       7 -> 15         0.66305
      12 -> 24         0.12682

 Excited State  64:      Singlet-A'    13.4998 eV   91.84 nm  f=0.0081  <S**2>=0.000
       7 -> 16        -0.30268
       8 -> 17        -0.32196
       8 -> 18        -0.22458
       9 -> 19         0.11951
      10 -> 21        -0.22422
      12 -> 25         0.33023
      13 -> 34         0.17313

 Excited State  65:      Singlet-A"    13.6201 eV   91.03 nm  f=0.0010  <S**2>=0.000
      11 -> 25         0.69536

 Excited State  66:      Singlet-A'    13.6401 eV   90.90 nm  f=0.0624  <S**2>=0.000
       7 -> 16         0.34951
       8 -> 17         0.10594
       9 -> 19        -0.24392
      12 -> 25         0.50185
      13 -> 33        -0.10809

 Excited State  67:      Singlet-A'    13.6943 eV   90.54 nm  f=0.0114  <S**2>=0.000
       7 -> 16         0.43363
       8 -> 17        -0.16221
       9 -> 19         0.30144
      10 -> 21        -0.14246
      10 -> 23        -0.35717

 Excited State  68:      Singlet-A'    13.8279 eV   89.66 nm  f=0.1057  <S**2>=0.000
       7 -> 16         0.19349
       8 -> 20         0.27810
       9 -> 19         0.29872
      10 -> 23         0.48159
      11 -> 24        -0.10968
      13 -> 35         0.13145

 Excited State  69:      Singlet-A"    13.9085 eV   89.14 nm  f=0.0048  <S**2>=0.000
       8 -> 19        -0.15103
       9 -> 20        -0.27119
      10 -> 24         0.62760

 Excited State  70:      Singlet-A"    13.9729 eV   88.73 nm  f=0.0072  <S**2>=0.000
       8 -> 19        -0.12731
       9 -> 20         0.48074
      10 -> 24         0.21567
      13 -> 36         0.42749

 Excited State  71:      Singlet-A'    14.0067 eV   88.52 nm  f=0.0015  <S**2>=0.000
       8 -> 20        -0.12252
      10 -> 23        -0.10970
      13 -> 35         0.66559

 Excited State  72:      Singlet-A"    14.0753 eV   88.09 nm  f=0.0695  <S**2>=0.000
       8 -> 19         0.64394
       8 -> 21        -0.12601
      10 -> 24         0.18108
      11 -> 26        -0.11216

 Excited State  73:      Singlet-A"    14.0870 eV   88.01 nm  f=0.0999  <S**2>=0.000
       9 -> 20        -0.31817
      10 -> 24        -0.12080
      11 -> 26        -0.35272
      13 -> 36         0.48185

 Excited State  74:      Singlet-A'    14.1235 eV   87.79 nm  f=0.0173  <S**2>=0.000
       8 -> 20        -0.36019
       9 -> 19         0.24889
      10 -> 25         0.20268
      12 -> 26         0.45013

 Excited State  75:      Singlet-A'    14.1452 eV   87.65 nm  f=0.0800  <S**2>=0.000
       8 -> 20        -0.28546
       9 -> 21         0.24003
      10 -> 23         0.13762
      10 -> 25         0.38568
      12 -> 26        -0.35409
      13 -> 37        -0.14385

 Excited State  76:      Singlet-A'    14.2255 eV   87.16 nm  f=0.0274  <S**2>=0.000
       7 -> 18        -0.18330
       8 -> 17         0.11703
       9 -> 19         0.28021
       9 -> 21        -0.13431
      12 -> 26        -0.36156
      13 -> 37         0.41283

 Excited State  77:      Singlet-A'    14.2810 eV   86.82 nm  f=0.0365  <S**2>=0.000
       7 -> 17        -0.11597
       7 -> 18         0.14170
       8 -> 20        -0.21972
       8 -> 22        -0.15887
       9 -> 19        -0.12328
       9 -> 21         0.32697
      10 -> 25        -0.32582
      13 -> 37         0.35546

 Excited State  78:      Singlet-A'    14.3206 eV   86.58 nm  f=0.1501  <S**2>=0.000
       7 -> 17         0.12527
       8 -> 20         0.29458
       9 -> 21         0.46851
      10 -> 23        -0.17154
      10 -> 25         0.22559
      13 -> 37         0.15481

 Excited State  79:      Singlet-A"    14.3238 eV   86.56 nm  f=0.1420  <S**2>=0.000
       8 -> 21        -0.11615
       9 -> 20        -0.19672
       9 -> 22         0.12550
      11 -> 26         0.57422
      12 -> 27         0.10114
      13 -> 36         0.22428

 Excited State  80:      Singlet-A"    14.3951 eV   86.13 nm  f=0.0012  <S**2>=0.000
       8 -> 21         0.26829
       9 -> 22         0.64251

 Excited State  81:      Singlet-A'    14.4226 eV   85.97 nm  f=0.0338  <S**2>=0.000
       7 -> 18         0.33459
       8 -> 22         0.32208
       9 -> 19        -0.13787
       9 -> 21        -0.21677
      10 -> 25         0.21629
      11 -> 27        -0.10669
      13 -> 37         0.30142

 Excited State  82:      Singlet-A'    14.4946 eV   85.54 nm  f=0.0299  <S**2>=0.000
       7 -> 17         0.63843
       8 -> 22        -0.23906

 Excited State  83:      Singlet-A"    14.5450 eV   85.24 nm  f=0.0496  <S**2>=0.000
       8 -> 19         0.12108
       8 -> 21         0.57445
       9 -> 22        -0.25570
      12 -> 27         0.22650

 Excited State  84:      Singlet-A'    14.5874 eV   84.99 nm  f=0.0291  <S**2>=0.000
       7 -> 18         0.20238
       8 -> 22         0.24552
      11 -> 27         0.16219
      13 -> 38         0.57195

 Excited State  85:      Singlet-A'    14.6355 eV   84.71 nm  f=0.0197  <S**2>=0.000
       8 -> 22         0.16313
      11 -> 27         0.58168
      13 -> 38        -0.29366

 Excited State  86:      Singlet-A"    14.6492 eV   84.64 nm  f=0.0747  <S**2>=0.000
       8 -> 21        -0.17760
      11 -> 29        -0.10449
      12 -> 27         0.63859
      12 -> 28         0.11786

 Excited State  87:      Singlet-A'    14.7202 eV   84.23 nm  f=0.1002  <S**2>=0.000
       7 -> 17         0.15647
       8 -> 22         0.28599
      10 -> 25        -0.17135
      10 -> 26         0.42124
      11 -> 27        -0.26904
      13 -> 37        -0.10826
      13 -> 38        -0.23122

 Excited State  88:      Singlet-A"    14.7511 eV   84.05 nm  f=0.0000  <S**2>=0.000
      13 -> 39         0.69799

 Excited State  89:      Singlet-A'    14.8263 eV   83.62 nm  f=0.1199  <S**2>=0.000
       7 -> 18        -0.13608
       8 -> 22        -0.10726
       9 -> 23         0.39868
      10 -> 26         0.45213
      11 -> 27         0.13402

 Excited State  90:      Singlet-A'    14.9359 eV   83.01 nm  f=0.0068  <S**2>=0.000
       7 -> 18        -0.34606
       8 -> 22         0.18348
       9 -> 25         0.10360
      13 -> 40         0.49633

 Excited State  91:      Singlet-A'    14.9899 eV   82.71 nm  f=0.0259  <S**2>=0.000
       7 -> 18         0.29815
       7 -> 20        -0.10719
       8 -> 22        -0.15744
       9 -> 19         0.13307
       9 -> 23         0.13769
       9 -> 25        -0.10707
      10 -> 21         0.10796
      13 -> 40         0.48160

 Excited State  92:      Singlet-A"    15.0413 eV   82.43 nm  f=0.0047  <S**2>=0.000
       8 -> 23         0.34052
      13 -> 41         0.60552

 Excited State  93:      Singlet-A'    15.1183 eV   82.01 nm  f=0.1382  <S**2>=0.000
       7 -> 20        -0.24688
       8 -> 22         0.14920
       9 -> 23         0.49128
       9 -> 25         0.11083
      10 -> 25        -0.10088
      10 -> 26        -0.22034
      11 -> 28        -0.21714

 Excited State  94:      Singlet-A"    15.1314 eV   81.94 nm  f=0.0059  <S**2>=0.000
       7 -> 19        -0.20123
       8 -> 23         0.57170
      13 -> 41        -0.33068

 Excited State  95:      Singlet-A"    15.1867 eV   81.64 nm  f=0.0066  <S**2>=0.000
       9 -> 24        -0.38438
      10 -> 27         0.57261

 Excited State  96:      Singlet-A"    15.2342 eV   81.39 nm  f=0.0302  <S**2>=0.000
       7 -> 19        -0.18214
       8 -> 25        -0.11674
       9 -> 24         0.54795
      10 -> 27         0.33252
      12 -> 28        -0.18565

 Excited State  97:      Singlet-A"    15.3296 eV   80.88 nm  f=0.0369  <S**2>=0.000
       7 -> 19         0.54175
       8 -> 23         0.14360
       9 -> 24         0.11573
      10 -> 27         0.17473
      11 -> 29         0.12367
      12 -> 28         0.18153
      13 -> 42        -0.23247
      13 -> 43         0.13442

 Excited State  98:      Singlet-A'    15.3397 eV   80.83 nm  f=0.0045  <S**2>=0.000
       7 -> 20         0.11611
       8 -> 24         0.66537
       9 -> 25        -0.14888

 Excited State  99:      Singlet-A"    15.3575 eV   80.73 nm  f=0.0081  <S**2>=0.000
       7 -> 19        -0.19026
       9 -> 24         0.11239
      11 -> 29         0.38712
      12 -> 28         0.51609
      13 -> 42         0.13568

 Excited State 100:      Singlet-A"    15.3758 eV   80.64 nm  f=0.0161  <S**2>=0.000
       7 -> 19         0.24384
       8 -> 25         0.10875
      13 -> 42         0.63103

 Excited State 101:      Singlet-A'    15.4602 eV   80.20 nm  f=0.1157  <S**2>=0.000
       7 -> 20         0.49337
       7 -> 22         0.11676
       8 -> 24        -0.17747
       9 -> 23         0.10767
      11 -> 28        -0.27210
      12 -> 29         0.26101

 Excited State 102:      Singlet-A"    15.4782 eV   80.10 nm  f=0.0032  <S**2>=0.000
       8 -> 25         0.14137
      13 -> 43         0.67102

 Excited State 103:      Singlet-A'    15.5360 eV   79.80 nm  f=0.0151  <S**2>=0.000
       7 -> 20         0.20753
       7 -> 22         0.22515
       9 -> 25         0.47984
      11 -> 28         0.36398

 Excited State 104:      Singlet-A'    15.6982 eV   78.98 nm  f=0.1303  <S**2>=0.000
       7 -> 20        -0.16218
       7 -> 22         0.13836
       9 -> 25        -0.16578
       9 -> 26         0.24740
      11 -> 28         0.26597
      12 -> 29         0.47749

 Excited State 105:      Singlet-A"    15.6991 eV   78.98 nm  f=0.0726  <S**2>=0.000
       7 -> 21         0.63338
       8 -> 25         0.13355
      11 -> 29         0.20136
      12 -> 28        -0.11048

 Excited State 106:      Singlet-A"    15.7165 eV   78.89 nm  f=0.1115  <S**2>=0.000
       8 -> 25         0.50840
      10 -> 27         0.10899
      11 -> 29        -0.30978
      12 -> 28         0.19614
      12 -> 30        -0.10261
      12 -> 31        -0.11655
      13 -> 43        -0.14064

 Excited State 107:      Singlet-A'    15.7826 eV   78.56 nm  f=0.2360  <S**2>=0.000
       7 -> 20        -0.20784
       8 -> 22        -0.12804
       9 -> 23        -0.10993
       9 -> 25         0.36038
      11 -> 28        -0.34006
      12 -> 29         0.26043

 Excited State 108:      Singlet-A"    15.8564 eV   78.19 nm  f=0.1031  <S**2>=0.000
       7 -> 21        -0.25384
       8 -> 25         0.37755
      10 -> 28         0.12767
      11 -> 29         0.34302
      12 -> 28        -0.22300
      12 -> 31         0.13784
      13 -> 42        -0.10333

 Excited State 109:      Singlet-A'    15.9161 eV   77.90 nm  f=0.0382  <S**2>=0.000
       6 -> 14        -0.18698
       7 -> 22         0.59396
       9 -> 25        -0.12070
       9 -> 26        -0.12647
      12 -> 29        -0.15537

 Excited State 110:      Singlet-A"    15.9857 eV   77.56 nm  f=0.0778  <S**2>=0.000
       8 -> 26         0.13039

 The electronic state is 1-A'.
 Alpha  occ. eigenvalues --  -14.09865 -10.01769 -10.01768  -0.83089  -0.64201
 Alpha  occ. eigenvalues --   -0.57325  -0.44782  -0.40123  -0.39693  -0.34899
 Alpha  occ. eigenvalues --   -0.32872  -0.32634  -0.18584
 Alpha virt. eigenvalues --    0.01264   0.04366   0.05075   0.08416   0.08673
 Alpha virt. eigenvalues --    0.11302   0.11482   0.12838   0.13277   0.15292
 Alpha virt. eigenvalues --    0.16218   0.17192   0.19425   0.20997   0.23669

 Mulliken charges:
               1
     1  C    0.624110
     2  N   -0.687598
     3  C    0.624110
     4  H   -0.190573
     5  H    0.018802
     6  H   -0.075278
     7  H   -0.066524
     8  H   -0.075278
     9  H    0.018802
    10  H   -0.190573
 Sum of Mulliken charges =  -0.00000

 Dipole moment (field-independent basis, Debye):
    X=              0.8776    Y=             -0.3048    Z=             -0.0000  Tot=              0.9290
 Quadrupole moment (field-independent basis, Debye-Ang):
   XX=            -21.0577   YY=            -21.5813   ZZ=            -20.0807
   XY=              2.0891   XZ=              0.0000   YZ=             -0.0000

 Normal termination of Gaussian 16 at Mon Mar 21 20:27:21 2022.
