 Gaussian 16, Revision C.01,
 Gaussian 16:  EM64L-G16RevC.01  3-Jul-2019

 ----------------------------------------------------------------------
 #P TD(Nstates=10000) tpsstpss/Gen SCF(maxcycles=100) Int(Grid=ultrafin
 e)
 ----------------------------------------------------------------------

 ---------------------
 xGDB7_00001_tier4.com
 ---------------------
 Symbolic Z-matrix:
 Charge =  0 Multiplicity = 1

                         Standard orientation:
 ---------------------------------------------------------------------
 Center     Atomic      Atomic             Coordinates (Angstroms)
 Number     Number       Type             X           Y           Z
 ---------------------------------------------------------------------
      1          6           0       -0.049078    0.702042   -0.000000
      2          7           0       -0.049078   -0.754243    0.000000
      3          1           0        0.946109    1.166603   -0.000000
      4          1           0       -0.587574    1.062597    0.877770
      5          1           0       -0.587574    1.062597   -0.877770
      6          1           0        0.433525   -1.112175    0.812504
      7          1           0        0.433525   -1.112175   -0.812504
 ---------------------------------------------------------------------

 SCF Done:  E(RTPSS-TPSS) =  -95.8092142464     A.U. after   12 cycles

 Excitation energies and oscillator strengths:

 Excited State   1:      Singlet-A'     5.8092 eV  213.43 nm  f=0.0046  <S**2>=0.000
       9 -> 10         0.70645
 This state for optimization and/or second-order correction.
 Total Energy, E(TD-HF/TD-DFT) =  -95.5957282869
 Copying the excited state density for this state as the 1-particle RhoCI density.

 Excited State   2:      Singlet-A'     6.7862 eV  182.70 nm  f=0.0389  <S**2>=0.000
       9 -> 11         0.70603

 Excited State   3:      Singlet-A"     7.5655 eV  163.88 nm  f=0.0078  <S**2>=0.000
       9 -> 12         0.70619

 Excited State   4:      Singlet-A'     8.0982 eV  153.10 nm  f=0.0812  <S**2>=0.000
       9 -> 13         0.70567

 Excited State   5:      Singlet-A"     8.5211 eV  145.50 nm  f=0.0007  <S**2>=0.000
       9 -> 14         0.70600

 Excited State   6:      Singlet-A'     9.1570 eV  135.40 nm  f=0.0041  <S**2>=0.000
       9 -> 15         0.70472

 Excited State   7:      Singlet-A'     9.3089 eV  133.19 nm  f=0.0156  <S**2>=0.000
       9 -> 16         0.70536

 Excited State   8:      Singlet-A"     9.3929 eV  132.00 nm  f=0.0060  <S**2>=0.000
       8 -> 10         0.70658

 Excited State   9:      Singlet-A"     9.7035 eV  127.77 nm  f=0.0006  <S**2>=0.000
       9 -> 17         0.70631

 Excited State  10:      Singlet-A'    10.3594 eV  119.68 nm  f=0.0438  <S**2>=0.000
       7 -> 10         0.70177

 Excited State  11:      Singlet-A"    10.3813 eV  119.43 nm  f=0.0808  <S**2>=0.000
       8 -> 11         0.70585

 Excited State  12:      Singlet-A'    10.7555 eV  115.28 nm  f=0.0033  <S**2>=0.000
       6 -> 10        -0.12733
       9 -> 18         0.59873
       9 -> 19         0.32006

 Excited State  13:      Singlet-A'    11.0172 eV  112.54 nm  f=0.0124  <S**2>=0.000
       6 -> 10         0.12250
       7 -> 11         0.16297
       8 -> 12        -0.24693
       9 -> 18        -0.22642
       9 -> 19         0.57589

 Excited State  14:      Singlet-A"    11.0547 eV  112.16 nm  f=0.0132  <S**2>=0.000
       9 -> 20         0.70422

 Excited State  15:      Singlet-A'    11.2505 eV  110.20 nm  f=0.0185  <S**2>=0.000
       6 -> 10         0.20193
       7 -> 11        -0.13036
       8 -> 12         0.60873
       9 -> 18        -0.15370
       9 -> 19         0.19066

 Excited State  16:      Singlet-A'    11.3218 eV  109.51 nm  f=0.1180  <S**2>=0.000
       6 -> 10         0.15949
       7 -> 11         0.65348
       8 -> 12         0.13884
       9 -> 19        -0.11172

 Excited State  17:      Singlet-A'    11.4260 eV  108.51 nm  f=0.1288  <S**2>=0.000
       6 -> 10         0.62365
       7 -> 11        -0.16060
       8 -> 12        -0.17334
       9 -> 18         0.17309

 Excited State  18:      Singlet-A"    11.6582 eV  106.35 nm  f=0.0227  <S**2>=0.000
       8 -> 13         0.70303

 Excited State  19:      Singlet-A"    12.0413 eV  102.97 nm  f=0.0165  <S**2>=0.000
       7 -> 12         0.70248

 Excited State  20:      Singlet-A'    12.2157 eV  101.50 nm  f=0.0104  <S**2>=0.000
       6 -> 11         0.47725
       8 -> 14        -0.38890
       9 -> 21        -0.32376

 Excited State  21:      Singlet-A'    12.2966 eV  100.83 nm  f=0.1588  <S**2>=0.000
       6 -> 11         0.51200
       7 -> 13        -0.11983
       8 -> 14         0.34554
       9 -> 21         0.30048

 Excited State  22:      Singlet-A'    12.4050 eV   99.95 nm  f=0.1620  <S**2>=0.000
       7 -> 13         0.22596
       8 -> 14        -0.37911
       9 -> 21         0.52990

 Excited State  23:      Singlet-A"    12.5036 eV   99.16 nm  f=0.0149  <S**2>=0.000
       5 -> 10        -0.19875
       9 -> 22         0.67018

 Excited State  24:      Singlet-A"    12.6764 eV   97.81 nm  f=0.1102  <S**2>=0.000
       5 -> 10         0.63926
       8 -> 15        -0.19561
       9 -> 22         0.16639

 Excited State  25:      Singlet-A"    12.7481 eV   97.26 nm  f=0.0094  <S**2>=0.000
       5 -> 10         0.14004
       7 -> 14         0.28349
       8 -> 15         0.61689
       8 -> 16        -0.12663

 Excited State  26:      Singlet-A'    12.8248 eV   96.68 nm  f=0.0290  <S**2>=0.000
       6 -> 13        -0.12878
       7 -> 13         0.61434
       8 -> 14         0.20226
       8 -> 17        -0.15859

 Excited State  27:      Singlet-A"    12.8865 eV   96.21 nm  f=0.0088  <S**2>=0.000
       6 -> 12         0.25306
       8 -> 15         0.13521
       8 -> 16         0.63231

 Excited State  28:      Singlet-A'    12.9505 eV   95.74 nm  f=0.2083  <S**2>=0.000
       9 -> 23         0.66664
       9 -> 24        -0.17038

 Excited State  29:      Singlet-A"    13.0395 eV   95.08 nm  f=0.0024  <S**2>=0.000
       6 -> 12         0.52832
       7 -> 14        -0.36263
       8 -> 15         0.11220
       8 -> 16        -0.26199

 Excited State  30:      Singlet-A"    13.1618 eV   94.20 nm  f=0.1899  <S**2>=0.000
       5 -> 10        -0.11746
       6 -> 12         0.37200
       7 -> 14         0.51142
       8 -> 15        -0.20262
       8 -> 19        -0.12307

 Excited State  31:      Singlet-A'    13.2566 eV   93.53 nm  f=0.0011  <S**2>=0.000
       8 -> 17        -0.19028
       9 -> 23         0.16706
       9 -> 24         0.65058

 Excited State  32:      Singlet-A'    13.4133 eV   92.43 nm  f=0.0077  <S**2>=0.000
       6 -> 13        -0.34358
       7 -> 15        -0.10123
       8 -> 17         0.56177
       9 -> 24         0.20295

 Excited State  33:      Singlet-A"    13.5904 eV   91.23 nm  f=0.0174  <S**2>=0.000
       5 -> 11         0.70017

 Excited State  34:      Singlet-A'    13.6370 eV   90.92 nm  f=0.0313  <S**2>=0.000
       6 -> 13        -0.41001
       7 -> 15         0.53527
       8 -> 17        -0.14829

 Excited State  35:      Singlet-A'    13.8542 eV   89.49 nm  f=0.0229  <S**2>=0.000
       5 -> 12        -0.28722
       6 -> 13         0.32934
       7 -> 13         0.11073
       7 -> 15         0.39428
       7 -> 16        -0.24342
       8 -> 17         0.22539
       9 -> 25        -0.10395

 Excited State  36:      Singlet-A"    13.9644 eV   88.79 nm  f=0.0148  <S**2>=0.000
       6 -> 14         0.65980
       8 -> 18         0.21265
       8 -> 19        -0.11617

 Excited State  37:      Singlet-A"    14.0287 eV   88.38 nm  f=0.0021  <S**2>=0.000
       6 -> 14        -0.21298
       8 -> 18         0.67164

 Excited State  38:      Singlet-A'    14.0504 eV   88.24 nm  f=0.1397  <S**2>=0.000
       5 -> 12        -0.17130
       6 -> 13         0.17829
       7 -> 16         0.60191
       8 -> 17         0.10872
       9 -> 25         0.14996

 Excited State  39:      Singlet-A'    14.1803 eV   87.43 nm  f=0.0455  <S**2>=0.000
       7 -> 16        -0.16078
       9 -> 25         0.67726

 Excited State  40:      Singlet-A"    14.2049 eV   87.28 nm  f=0.0000  <S**2>=0.000
       7 -> 17         0.65119
       8 -> 19         0.26634

 Excited State  41:      Singlet-A"    14.5388 eV   85.28 nm  f=0.0054  <S**2>=0.000
       9 -> 26         0.69605

 Excited State  42:      Singlet-A'    14.5909 eV   84.97 nm  f=0.0160  <S**2>=0.000
       5 -> 12         0.28960
       6 -> 15         0.56668
       6 -> 16         0.10381
       8 -> 20        -0.24505

 Excited State  43:      Singlet-A"    14.6812 eV   84.45 nm  f=0.1261  <S**2>=0.000
       5 -> 13         0.32620
       7 -> 17        -0.20423
       7 -> 20         0.12408
       8 -> 19         0.53458
       9 -> 27         0.10546

 Excited State  44:      Singlet-A'    14.7259 eV   84.19 nm  f=0.0037  <S**2>=0.000
       5 -> 12         0.11560
       6 -> 15        -0.33324
       6 -> 16         0.45370
       8 -> 20        -0.37770
       9 -> 29         0.10485

 Excited State  45:      Singlet-A"    14.8975 eV   83.22 nm  f=0.1185  <S**2>=0.000
       5 -> 13         0.58617
       6 -> 17        -0.14505
       8 -> 19        -0.19149
       9 -> 27        -0.25412

 Excited State  46:      Singlet-A'    14.9059 eV   83.18 nm  f=0.0616  <S**2>=0.000
       5 -> 12        -0.26517
       5 -> 14         0.12138
       6 -> 16        -0.17543
       7 -> 18         0.45587
       8 -> 20        -0.30556
       9 -> 29        -0.12810
       9 -> 30         0.13030

 Excited State  47:      Singlet-A"    15.0293 eV   82.49 nm  f=0.0186  <S**2>=0.000
       5 -> 13         0.13538
       6 -> 17        -0.15458
       7 -> 20        -0.10014
       8 -> 19        -0.10108
       9 -> 27         0.61808
       9 -> 28        -0.20882

 Excited State  48:      Singlet-A'    15.0399 eV   82.44 nm  f=0.2582  <S**2>=0.000
       5 -> 12         0.21662
       5 -> 14        -0.10746
       6 -> 16         0.10805
       7 -> 18         0.51122
       7 -> 19        -0.10479
       8 -> 20         0.33209
       9 -> 30        -0.12149

 Excited State  49:      Singlet-A"    15.1704 eV   81.73 nm  f=0.0671  <S**2>=0.000
       5 -> 13         0.14322
       6 -> 17         0.46600
       7 -> 20        -0.14100
       8 -> 19        -0.11233
       9 -> 27         0.16882
       9 -> 28         0.42677

 Excited State  50:      Singlet-A'    15.1916 eV   81.61 nm  f=0.0020  <S**2>=0.000
       5 -> 12         0.19440
       5 -> 14         0.14586
       6 -> 15        -0.14915
       6 -> 16        -0.34351
       9 -> 29         0.49765

 Excited State  51:      Singlet-A"    15.2291 eV   81.41 nm  f=0.0061  <S**2>=0.000
       6 -> 17        -0.47160
       9 -> 28         0.50785

 Excited State  52:      Singlet-A'    15.3478 eV   80.78 nm  f=0.0063  <S**2>=0.000
       5 -> 14        -0.32158
       7 -> 19        -0.25533
       9 -> 29         0.20912
       9 -> 30         0.52725

 Excited State  53:      Singlet-A'    15.3977 eV   80.52 nm  f=0.0894  <S**2>=0.000
       4 -> 11         0.10052
       5 -> 12        -0.27777
       5 -> 14         0.17478
       6 -> 15         0.16359
       6 -> 16         0.28378
       7 -> 15        -0.10888
       8 -> 20         0.18207
       9 -> 29         0.38094

 Excited State  54:      Singlet-A'    15.5269 eV   79.85 nm  f=0.0528  <S**2>=0.000
       5 -> 14        -0.43699
       6 -> 18         0.18717
       7 -> 19         0.46138
       9 -> 30        -0.10403

 Excited State  55:      Singlet-A'    15.5565 eV   79.70 nm  f=0.2917  <S**2>=0.000
       5 -> 12         0.11726
       5 -> 14         0.29343
       6 -> 18         0.12412
       7 -> 19         0.39018
       8 -> 20         0.14491
       9 -> 30         0.39772

 Excited State  56:      Singlet-A"    15.6714 eV   79.12 nm  f=0.0213  <S**2>=0.000
       5 -> 15         0.28305
       7 -> 20         0.61369
       8 -> 19        -0.10765

 Excited State  57:      Singlet-A"    15.8432 eV   78.26 nm  f=0.0030  <S**2>=0.000
       5 -> 15        -0.10954
       8 -> 21         0.69580

 Excited State  58:      Singlet-A'    16.0366 eV   77.31 nm  f=0.0108  <S**2>=0.000
       5 -> 17        -0.11399
       6 -> 18         0.59348
       6 -> 19        -0.23385
       7 -> 19        -0.13201
       8 -> 22         0.15694

 Excited State  59:      Singlet-A"    16.0613 eV   77.19 nm  f=0.0332  <S**2>=0.000
       5 -> 15         0.50685
       5 -> 16         0.43161
       7 -> 20        -0.16184

 Excited State  60:      Singlet-A'    16.1338 eV   76.85 nm  f=0.1198  <S**2>=0.000
       6 -> 18        -0.18758
       6 -> 19        -0.12719
       8 -> 22         0.65312

 Excited State  61:      Singlet-A"    16.2062 eV   76.50 nm  f=0.1452  <S**2>=0.000
       5 -> 15        -0.30687
       5 -> 16         0.51992
       6 -> 20         0.28850
       7 -> 20         0.14150

 Excited State  62:      Singlet-A"    16.3453 eV   75.85 nm  f=0.0024  <S**2>=0.000
       8 -> 23        -0.10234
       9 -> 32         0.69413

 Excited State  63:      Singlet-A"    16.3659 eV   75.76 nm  f=0.0169  <S**2>=0.000
       8 -> 23         0.69193
       9 -> 32         0.10600

 Excited State  64:      Singlet-A'    16.3676 eV   75.75 nm  f=0.0104  <S**2>=0.000
       6 -> 19        -0.23160
       9 -> 31         0.66117

 Excited State  65:      Singlet-A'    16.4716 eV   75.27 nm  f=0.0881  <S**2>=0.000
       4 -> 10        -0.21240
       6 -> 18         0.11603
       6 -> 19         0.52643
       7 -> 21        -0.27082
       8 -> 22         0.14552
       9 -> 31         0.21068

 Excited State  66:      Singlet-A'    16.6496 eV   74.47 nm  f=0.1130  <S**2>=0.000
       4 -> 10        -0.12506
       5 -> 17         0.66136
       6 -> 19        -0.11223

 Excited State  67:      Singlet-A"    16.6638 eV   74.40 nm  f=0.1381  <S**2>=0.000
       5 -> 15         0.17009
       5 -> 16        -0.15797
       6 -> 20         0.62058

 Excited State  68:      Singlet-A'    16.7911 eV   73.84 nm  f=0.0951  <S**2>=0.000
       4 -> 10        -0.43574
       7 -> 21         0.52993

 Excited State  69:      Singlet-A"    16.9701 eV   73.06 nm  f=0.0732  <S**2>=0.000
       7 -> 22        -0.40150
       8 -> 24         0.56279

 Excited State  70:      Singlet-A"    17.0190 eV   72.85 nm  f=0.0159  <S**2>=0.000
       7 -> 22         0.57179
       8 -> 24         0.39670

 Excited State  71:      Singlet-A'    17.1418 eV   72.33 nm  f=0.0115  <S**2>=0.000
       4 -> 10         0.30336
       6 -> 19         0.11793
       7 -> 21         0.18345
       9 -> 33         0.55535

 Excited State  72:      Singlet-A"    17.2203 eV   72.00 nm  f=0.0040  <S**2>=0.000
       5 -> 18         0.69504

 Excited State  73:      Singlet-A'    17.2744 eV   71.77 nm  f=0.0218  <S**2>=0.000
       4 -> 10        -0.31593
       6 -> 19        -0.14165
       6 -> 23         0.10836
       7 -> 21        -0.25054
       7 -> 24        -0.11098
       9 -> 33         0.41741
       9 -> 34         0.22846

 Excited State  74:      Singlet-A'    17.3871 eV   71.31 nm  f=0.0257  <S**2>=0.000
       7 -> 23         0.66708

 Excited State  75:      Singlet-A'    17.5922 eV   70.48 nm  f=0.0051  <S**2>=0.000
       5 -> 20         0.11193
       6 -> 21         0.22093
       7 -> 24         0.15248
       9 -> 34         0.61406

 Excited State  76:      Singlet-A"    17.7064 eV   70.02 nm  f=0.0064  <S**2>=0.000
       8 -> 25         0.70117

 Excited State  77:      Singlet-A'    17.7447 eV   69.87 nm  f=0.0074  <S**2>=0.000
       4 -> 11        -0.34833
       6 -> 21         0.47774
       7 -> 24        -0.35264
       9 -> 34        -0.10469

 Excited State  78:      Singlet-A"    17.7927 eV   69.68 nm  f=0.0300  <S**2>=0.000
       5 -> 19         0.67388
       6 -> 22        -0.13089

 Excited State  79:      Singlet-A'    17.9464 eV   69.09 nm  f=0.0377  <S**2>=0.000
       4 -> 11         0.14646
       5 -> 20         0.47537
       6 -> 21        -0.16132
       7 -> 24        -0.38322
       8 -> 26        -0.15352
       9 -> 36         0.12722

 Excited State  80:      Singlet-A"    17.9784 eV   68.96 nm  f=0.0080  <S**2>=0.000
       5 -> 19         0.12884
       6 -> 22         0.68980

 Excited State  81:      Singlet-A'    18.0150 eV   68.82 nm  f=0.0033  <S**2>=0.000
       4 -> 11         0.49700
       5 -> 20        -0.27559
       6 -> 21         0.26379
       7 -> 24        -0.15946
       8 -> 26        -0.15537

 Excited State  82:      Singlet-A'    18.1199 eV   68.42 nm  f=0.0410  <S**2>=0.000
       4 -> 11         0.19862
       5 -> 20         0.19662
       6 -> 21         0.12530
       8 -> 26         0.59687
       8 -> 28        -0.11729

 Excited State  83:      Singlet-A'    18.1669 eV   68.25 nm  f=0.1039  <S**2>=0.000
       5 -> 20         0.32626
       6 -> 21         0.23690
       7 -> 24         0.32149
       7 -> 25         0.15953
       8 -> 26        -0.28737
       9 -> 34        -0.15560
       9 -> 36        -0.14235

 Excited State  84:      Singlet-A"    18.2110 eV   68.08 nm  f=0.0007  <S**2>=0.000
       9 -> 35         0.70282

 Excited State  85:      Singlet-A'    18.3299 eV   67.64 nm  f=0.0233  <S**2>=0.000
       6 -> 23         0.50291
       8 -> 28         0.13464
       9 -> 36         0.43911

 Excited State  86:      Singlet-A'    18.5477 eV   66.85 nm  f=0.0420  <S**2>=0.000
       6 -> 23        -0.34150
       6 -> 24         0.28690
       7 -> 25         0.34716
       9 -> 36         0.37390

 Excited State  87:      Singlet-A"    18.5664 eV   66.78 nm  f=0.0026  <S**2>=0.000
       4 -> 12         0.23430
       5 -> 21         0.12466
       9 -> 37         0.64601

 Excited State  88:      Singlet-A"    18.5953 eV   66.68 nm  f=0.0043  <S**2>=0.000
       4 -> 12         0.66030
       9 -> 37        -0.23462

 Excited State  89:      Singlet-A'    18.7384 eV   66.17 nm  f=0.0031  <S**2>=0.000
       6 -> 24        -0.42086
       7 -> 25         0.42366
       8 -> 27         0.14233
       8 -> 28         0.27332

 Excited State  90:      Singlet-A"    18.8352 eV   65.83 nm  f=0.0120  <S**2>=0.000
       7 -> 26         0.12340
       7 -> 27        -0.11297
       8 -> 29         0.64666
       8 -> 30        -0.18070

 Excited State  91:      Singlet-A'    18.8426 eV   65.80 nm  f=0.0854  <S**2>=0.000
       6 -> 24         0.19241
       7 -> 25        -0.18987
       8 -> 27         0.53348
       8 -> 28         0.29457

 Excited State  92:      Singlet-A"    18.9420 eV   65.45 nm  f=0.0125  <S**2>=0.000
       5 -> 21         0.34848
       7 -> 26         0.15903
       8 -> 29         0.12021
       8 -> 30         0.57325

 Excited State  93:      Singlet-A'    18.9969 eV   65.27 nm  f=0.2387  <S**2>=0.000
       6 -> 23         0.23859
       6 -> 24         0.33302
       6 -> 25         0.22717
       7 -> 25         0.29850
       7 -> 30        -0.12269
       8 -> 27         0.11877
       8 -> 28        -0.24246
       9 -> 36        -0.16985

 Excited State  94:      Singlet-A"    19.0578 eV   65.06 nm  f=0.0157  <S**2>=0.000
       7 -> 26         0.66550
       8 -> 29        -0.14546
       8 -> 30        -0.15408

 Excited State  95:      Singlet-A"    19.1339 eV   64.80 nm  f=0.0590  <S**2>=0.000
       5 -> 21         0.59064
       7 -> 27         0.10714
       8 -> 30        -0.30388
       9 -> 37        -0.12476

 Excited State  96:      Singlet-A'    19.1458 eV   64.76 nm  f=0.0752  <S**2>=0.000
       4 -> 13         0.53209
       5 -> 22         0.10986
       6 -> 24        -0.10568
       7 -> 24         0.11280
       7 -> 29        -0.14908
       8 -> 27         0.20914
       8 -> 28        -0.25110
       9 -> 36         0.12973

 Excited State  97:      Singlet-A'    19.3242 eV   64.16 nm  f=0.0281  <S**2>=0.000
       4 -> 13        -0.27025
       5 -> 22         0.60654
       8 -> 27         0.12266
       8 -> 28        -0.11999

 Excited State  98:      Singlet-A'    19.4183 eV   63.85 nm  f=0.0713  <S**2>=0.000
       4 -> 13         0.34488
       5 -> 22         0.31799
       6 -> 24         0.20400
       6 -> 25         0.10663
       7 -> 29         0.14428
       8 -> 27        -0.19476
       8 -> 28         0.31603
       9 -> 36        -0.13430

 Excited State  99:      Singlet-A"    19.5558 eV   63.40 nm  f=0.0259  <S**2>=0.000
       4 -> 14         0.15421
       5 -> 23         0.11424
       7 -> 27         0.51847
       7 -> 28         0.42107

 Excited State 100:      Singlet-A"    19.5722 eV   63.35 nm  f=0.0017  <S**2>=0.000
       4 -> 14         0.33660
       5 -> 23         0.59015
       7 -> 28        -0.15704

 Excited State 101:      Singlet-A"    19.6416 eV   63.12 nm  f=0.0337  <S**2>=0.000
       4 -> 14         0.53327
       5 -> 23        -0.35341
       5 -> 24         0.14562
       7 -> 28        -0.22328

 Excited State 102:      Singlet-A'    19.7966 eV   62.63 nm  f=0.1371  <S**2>=0.000
       6 -> 25         0.49311
       7 -> 29         0.29501
       8 -> 27         0.10004
       8 -> 32         0.13395
       9 -> 38         0.29999

 Excited State 103:      Singlet-A"    19.8257 eV   62.54 nm  f=0.0392  <S**2>=0.000
       4 -> 14         0.17198
       6 -> 26        -0.21125
       7 -> 27        -0.31688
       7 -> 28         0.39765
       8 -> 29        -0.11181
       8 -> 31        -0.31698

 Excited State 104:      Singlet-A'    19.8742 eV   62.38 nm  f=0.0194  <S**2>=0.000
       6 -> 25        -0.22465
       7 -> 29         0.22148
       7 -> 30        -0.21070
       8 -> 32         0.57692

 Excited State 105:      Singlet-A'    19.9175 eV   62.25 nm  f=0.0256  <S**2>=0.000
       7 -> 30         0.57165
       8 -> 32         0.19816
       9 -> 38        -0.33535

 Excited State 106:      Singlet-A"    19.9387 eV   62.18 nm  f=0.0014  <S**2>=0.000
       4 -> 14         0.11910
       7 -> 27        -0.19673
       7 -> 28         0.21380
       8 -> 31         0.59743

 Excited State 107:      Singlet-A'    20.0178 eV   61.94 nm  f=0.0234  <S**2>=0.000
       4 -> 15         0.22346
       6 -> 25        -0.19487
       6 -> 29        -0.19408
       7 -> 29         0.47841
       8 -> 32        -0.27262

 Excited State 108:      Singlet-A"    20.0273 eV   61.91 nm  f=0.0222  <S**2>=0.000
       5 -> 24         0.11049
       6 -> 26         0.65146
       6 -> 28        -0.10357
       7 -> 28         0.10604
       8 -> 31        -0.15952

 Excited State 109:      Singlet-A"    20.1194 eV   61.62 nm  f=0.0485  <S**2>=0.000

 The electronic state is 1-A'.
 Alpha  occ. eigenvalues --  -14.09588 -10.01883  -0.80784  -0.60353  -0.44921
 Alpha  occ. eigenvalues --   -0.40000  -0.36498  -0.33148  -0.19974
 Alpha virt. eigenvalues --    0.01296   0.04732   0.07769   0.09663   0.11258
 Alpha virt. eigenvalues --    0.13788   0.14360   0.15840   0.18450   0.20016
 Alpha virt. eigenvalues --    0.20746   0.25008   0.26173   0.27193   0.28743

 Mulliken charges:
               1
     1  C    0.618209
     2  N   -0.283499
     3  H   -0.048140
     4  H   -0.130171
     5  H   -0.130171
     6  H   -0.013114
     7  H   -0.013114
 Sum of Mulliken charges =  -0.00000

 Dipole moment (field-independent basis, Debye):
    X=              1.2105    Y=              0.3156    Z=             -0.0000  Tot=              1.2509
 Quadrupole moment (field-independent basis, Debye-Ang):
   XX=            -15.1257   YY=            -14.4455   ZZ=            -12.7709
   XY=             -2.0573   XZ=              0.0000   YZ=              0.0000

 Normal termination of Gaussian 16 at Mon Mar 21 20:16:02 2022.
