 Gaussian 16, Revision C.01,
 Gaussian 16:  EM64L-G16RevC.01  3-Jul-2019

 ----------------------------------------------------------------------
 #P TD(Nstates=10000) tpsstpss/Gen SCF(maxcycles=100) Int(Grid=ultrafin
 e)
 ----------------------------------------------------------------------

 ---------------------
 xGDB7_00001_tier4.com
 ---------------------
 Symbolic Z-matrix:
 Charge =  0 Multiplicity = 1

                         Standard orientation:
 ---------------------------------------------------------------------
 Center     Atomic      Atomic             Coordinates (Angstroms)
 Number     Number       Type             X           Y           Z
 ---------------------------------------------------------------------
      1          6           0       -0.000001    0.000006    0.000000
      2          1           0       -0.991926    0.448073    0.033817
      3          1           0        0.066172   -0.671147   -0.854975
      4          1           0        0.176250   -0.561167    0.916416
      5          1           0        0.749514    0.784204   -0.095260
 ---------------------------------------------------------------------

 SCF Done:  E(RTPSS-TPSS) =  -40.4962592495     A.U. after    9 cycles

 Excitation energies and oscillator strengths:

 Excited State   1:      Singlet-A     10.2770 eV  120.64 nm  f=0.1200  <S**2>=0.000
       5 ->  6         0.70654
 This state for optimization and/or second-order correction.
 Total Energy, E(TD-HF/TD-DFT) =  -40.1185881441
 Copying the excited state density for this state as the 1-particle RhoCI density.

 Excited State   2:      Singlet-A     10.2771 eV  120.64 nm  f=0.1200  <S**2>=0.000
       4 ->  6         0.70654

 Excited State   3:      Singlet-A     10.2771 eV  120.64 nm  f=0.1200  <S**2>=0.000
       3 ->  6         0.70654

 Excited State   4:      Singlet-A     12.6753 eV   97.82 nm  f=0.0000  <S**2>=0.000
       4 ->  7         0.17172
       4 ->  8        -0.27204
       4 ->  9         0.37355
       5 ->  7        -0.26967
       5 ->  8         0.27202
       5 ->  9         0.32020

 Excited State   5:      Singlet-A     12.6753 eV   97.82 nm  f=0.0000  <S**2>=0.000
       3 ->  7         0.18099
       3 ->  8        -0.30172
       3 ->  9         0.34511
       5 ->  7         0.38520
       5 ->  8         0.30968

 Excited State   6:      Singlet-A     12.6754 eV   97.81 nm  f=0.0000  <S**2>=0.000
       3 ->  7         0.19468
       3 ->  8        -0.29207
       3 ->  9        -0.35408
       4 ->  7         0.41537
       4 ->  8         0.27392

 Excited State   7:      Singlet-A     12.7468 eV   97.27 nm  f=0.0000  <S**2>=0.000
       3 ->  7        -0.12279
       3 ->  8         0.23271
       3 ->  9        -0.38171
       4 ->  7        -0.12561
       4 ->  8         0.10075
       5 ->  7         0.43072
       5 ->  8         0.17108
       5 ->  9         0.17189

 Excited State   8:      Singlet-A     12.7469 eV   97.27 nm  f=0.0000  <S**2>=0.000
       3 ->  7        -0.21177
       3 ->  8        -0.23596
       3 ->  9         0.10973
       4 ->  7        -0.24319
       4 ->  8         0.39244
       4 ->  9         0.28702
       5 ->  8        -0.15592
       5 ->  9         0.22901

 Excited State   9:      Singlet-A     12.7697 eV   97.09 nm  f=0.1346  <S**2>=0.000
       3 ->  7        -0.12789
       4 ->  7        -0.10077
       4 ->  8         0.18390
       4 ->  9        -0.38994
       5 ->  7        -0.23580
       5 ->  8         0.41909
       5 ->  9         0.10428

 Excited State  10:      Singlet-A     12.7697 eV   97.09 nm  f=0.1346  <S**2>=0.000
       3 ->  7         0.41062
       3 ->  8         0.18538
       3 -> 10        -0.11233
       4 ->  9        -0.16474
       5 ->  8        -0.16413
       5 ->  9         0.43039

 Excited State  11:      Singlet-A     12.7698 eV   97.09 nm  f=0.1346  <S**2>=0.000
       3 ->  7        -0.20693
       3 ->  8         0.33329
       3 ->  9         0.27431
       3 -> 12         0.11926
       4 ->  7         0.40003
       4 ->  8         0.25727
       4 -> 10        -0.10430

 Excited State  12:      Singlet-A     13.4448 eV   92.22 nm  f=0.0000  <S**2>=0.000
       3 ->  7        -0.22440
       3 ->  8        -0.14186
       3 -> 10        -0.24572
       3 -> 11         0.15705
       4 ->  7         0.11101
       4 ->  8        -0.16786
       4 ->  9        -0.17324
       4 -> 12         0.28819
       5 ->  8        -0.14904
       5 ->  9         0.20115
       5 -> 10         0.17398
       5 -> 11         0.24687

 Excited State  13:      Singlet-A     13.4773 eV   92.00 nm  f=0.0000  <S**2>=0.000
       4 -> 10        -0.30329
       4 -> 11        -0.38078
       5 -> 10        -0.13671
       5 -> 11         0.17495
       5 -> 12         0.44225

 Excited State  14:      Singlet-A     13.4773 eV   91.99 nm  f=0.0000  <S**2>=0.000
       3 -> 10         0.27911
       3 -> 11         0.39731
       5 -> 10         0.38396
       5 -> 11        -0.23286
       5 -> 12         0.21083

 Excited State  15:      Singlet-A     13.4773 eV   91.99 nm  f=0.0000  <S**2>=0.000
       3 -> 11         0.13502
       3 -> 12         0.46845
       4 -> 10         0.38172
       4 -> 11        -0.27857
       4 -> 12         0.14971

 Excited State  16:      Singlet-A     13.5853 eV   91.26 nm  f=0.0000  <S**2>=0.000
       3 -> 10        -0.26639
       3 -> 11        -0.35580
       3 -> 12         0.11389
       4 -> 12        -0.18092
       5 -> 10         0.47868

 Excited State  17:      Singlet-A     13.5853 eV   91.26 nm  f=0.0000  <S**2>=0.000
       3 -> 10         0.15201
       3 -> 11        -0.28079
       3 -> 12         0.12386
       4 -> 11         0.22399
       4 -> 12         0.48711
       5 -> 11        -0.24288
       5 -> 12         0.15727

 Excited State  18:      Singlet-A     13.9864 eV   88.65 nm  f=0.0140  <S**2>=0.000
       3 -> 13         0.14851
       3 -> 14         0.37124
       4 -> 10         0.19939
       4 -> 11         0.27673
       4 -> 12        -0.13135
       5 -> 11         0.19686
       5 -> 12         0.31816
       5 -> 13         0.20577

 Excited State  19:      Singlet-A     13.9865 eV   88.65 nm  f=0.0140  <S**2>=0.000
       3 -> 10        -0.33614
       3 -> 11         0.15204
       4 -> 13         0.43004
       4 -> 14        -0.12178
       5 -> 10        -0.15428
       5 -> 11        -0.29321
       5 -> 12         0.13329

 Excited State  20:      Singlet-A     13.9865 eV   88.65 nm  f=0.0140  <S**2>=0.000
       3 -> 11        -0.10805
       3 -> 12        -0.35296
       3 -> 13         0.22403
       4 -> 10         0.31046
       4 -> 11        -0.16055
       5 -> 14         0.37957

 Excited State  21:      Singlet-A     14.2638 eV   86.92 nm  f=0.0000  <S**2>=0.000
       3 -> 13        -0.15647
       3 -> 14        -0.30230
       5 -> 13         0.60613

 Excited State  22:      Singlet-A     14.2639 eV   86.92 nm  f=0.0000  <S**2>=0.000
       3 -> 13        -0.32564
       3 -> 14         0.16278
       4 -> 13         0.15937
       4 -> 14         0.51683
       5 -> 14         0.25803

 Excited State  23:      Singlet-A     14.2639 eV   86.92 nm  f=0.0000  <S**2>=0.000
       3 -> 13         0.44073
       3 -> 14        -0.22489
       4 -> 13         0.12631
       4 -> 14         0.42452
       5 -> 14        -0.22749

 Excited State  24:      Singlet-A     14.5213 eV   85.38 nm  f=0.0000  <S**2>=0.000
       2 ->  6        -0.13422
       3 ->  7         0.24098
       3 ->  8         0.15231
       3 -> 10        -0.21598
       3 -> 11         0.13810
       4 ->  7        -0.11921
       4 ->  8         0.18027
       4 ->  9         0.18603
       4 -> 12         0.25342
       5 ->  8         0.16007
       5 ->  9        -0.21598
       5 -> 10         0.15283
       5 -> 11         0.21696

 Excited State  25:      Singlet-A     14.8773 eV   83.34 nm  f=0.6556  <S**2>=0.000
       3 -> 12         0.27877
       3 -> 13         0.25387
       4 ->  7        -0.10294
       4 -> 10        -0.24736
       4 -> 11         0.13747
       5 -> 14         0.43827

 Excited State  26:      Singlet-A     14.8773 eV   83.34 nm  f=0.6556  <S**2>=0.000
       3 ->  7         0.10287
       3 -> 10         0.26986
       3 -> 11        -0.11079
       4 -> 13         0.49694
       4 -> 14        -0.14733
       5 -> 10         0.12092
       5 -> 11         0.25929

 Excited State  27:      Singlet-A     14.8773 eV   83.34 nm  f=0.6556  <S**2>=0.000
       3 -> 13         0.16683
       3 -> 14         0.42084
       4 ->  9        -0.10709
       4 -> 10        -0.16051
       4 -> 11        -0.22642
       4 -> 12         0.10700
       5 -> 11        -0.11979
       5 -> 12        -0.26792
       5 -> 13         0.24052
       5 -> 14        -0.10183

 Excited State  28:      Singlet-A     17.2384 eV   71.92 nm  f=0.1217  <S**2>=0.000
       5 -> 15         0.69592

 Excited State  29:      Singlet-A     17.2385 eV   71.92 nm  f=0.1217  <S**2>=0.000
       4 -> 15         0.69584

 Excited State  30:      Singlet-A     17.2386 eV   71.92 nm  f=0.1217  <S**2>=0.000
       3 -> 15         0.69587

 Excited State  31:      Singlet-A     18.1522 eV   68.30 nm  f=0.0000  <S**2>=0.000
       2 ->  6         0.66534
       5 -> 20         0.11691

 Excited State  32:      Singlet-A     18.7299 eV   66.20 nm  f=0.0240  <S**2>=0.000
       3 -> 18        -0.17756
       4 -> 19        -0.17820
       5 -> 16         0.65227

 Excited State  33:      Singlet-A     18.7300 eV   66.20 nm  f=0.0240  <S**2>=0.000
       3 -> 17        -0.17705
       4 -> 16         0.65199
       5 -> 19         0.17796

 Excited State  34:      Singlet-A     18.7301 eV   66.20 nm  f=0.0239  <S**2>=0.000
       3 -> 16         0.65202
       4 -> 17         0.17749
       5 -> 18         0.17751

 Excited State  35:      Singlet-A     18.9007 eV   65.60 nm  f=0.0000  <S**2>=0.000
       3 -> 17         0.46188
       4 -> 18        -0.16350
       5 -> 17        -0.11899
       5 -> 19         0.47786

 Excited State  36:      Singlet-A     18.9007 eV   65.60 nm  f=0.0000  <S**2>=0.000
       3 -> 17         0.18582
       3 -> 19         0.27756
       4 -> 18         0.54326
       5 -> 17         0.26418
       5 -> 19         0.11642

 Excited State  37:      Singlet-A     18.9590 eV   65.40 nm  f=0.0302  <S**2>=0.000
       3 -> 16        -0.26317
       4 -> 17         0.44637
       5 -> 18         0.46137

 Excited State  38:      Singlet-A     18.9591 eV   65.40 nm  f=0.0302  <S**2>=0.000
       3 -> 17        -0.45358
       4 -> 16        -0.26318
       5 -> 19         0.45536

 Excited State  39:      Singlet-A     18.9591 eV   65.40 nm  f=0.0302  <S**2>=0.000
       3 -> 18         0.45406
       4 -> 19         0.45652
       5 -> 16         0.26310

 Excited State  40:      Singlet-A     18.9622 eV   65.39 nm  f=0.0000  <S**2>=0.000
       4 -> 17         0.48708
       5 -> 18        -0.48171

 Excited State  41:      Singlet-A     18.9622 eV   65.38 nm  f=0.0000  <S**2>=0.000
       3 -> 19         0.48156
       4 -> 17         0.11253
       5 -> 17        -0.48125

 Excited State  42:      Singlet-A     18.9623 eV   65.38 nm  f=0.0000  <S**2>=0.000
       3 -> 18         0.48471
       4 -> 19        -0.48175

 Excited State  43:      Singlet-A     19.0717 eV   65.01 nm  f=0.0000  <S**2>=0.000
       3 -> 19         0.40091
       4 -> 18        -0.39970
       5 -> 17         0.39813

 Excited State  44:      Singlet-A     19.3973 eV   63.92 nm  f=0.0000  <S**2>=0.000
       4 -> 20         0.48453
       5 -> 21         0.36764
       5 -> 22         0.31948

 Excited State  45:      Singlet-A     19.3973 eV   63.92 nm  f=0.0000  <S**2>=0.000
       3 -> 20         0.48549
       5 -> 21        -0.31635
       5 -> 22         0.37549

 Excited State  46:      Singlet-A     19.3974 eV   63.92 nm  f=0.0000  <S**2>=0.000
       3 -> 21        -0.34753
       3 -> 22        -0.34551
       4 -> 21        -0.34334
       4 -> 22         0.35135

 Excited State  47:      Singlet-A     19.4492 eV   63.75 nm  f=0.0000  <S**2>=0.000
       3 -> 20         0.44476
       3 -> 21         0.12630
       4 -> 21        -0.14978
       5 -> 20        -0.22446
       5 -> 21         0.25515
       5 -> 22        -0.36246

 Excited State  48:      Singlet-A     19.4493 eV   63.75 nm  f=0.0000  <S**2>=0.000
       3 -> 20         0.11368
       3 -> 21         0.24785
       3 -> 22        -0.20567
       4 -> 20        -0.16206
       4 -> 21         0.35166
       4 -> 22         0.38296
       5 -> 20         0.19875
       5 -> 21         0.20708

 Excited State  49:      Singlet-A     19.9731 eV   62.08 nm  f=0.2239  <S**2>=0.000
       2 ->  8         0.14962
       2 ->  9        -0.13158
       3 -> 27        -0.10505
       4 -> 20         0.39944
       4 -> 21         0.14836
       5 -> 20         0.26052
       5 -> 21        -0.24186
       5 -> 22        -0.30513

 Excited State  50:      Singlet-A     19.9731 eV   62.08 nm  f=0.2239  <S**2>=0.000
       2 ->  8         0.10473
       2 ->  9         0.15167
       3 -> 20         0.13872
       3 -> 21        -0.28215
       3 -> 22         0.31294
       4 -> 20        -0.14760
       4 -> 26         0.12318
       5 -> 20         0.36461
       5 -> 21         0.24717

 Excited State  51:      Singlet-A     19.9732 eV   62.08 nm  f=0.2239  <S**2>=0.000
       2 ->  7         0.17801
       3 -> 20        -0.11366
       3 -> 21         0.30350
       3 -> 22         0.32274
       4 -> 21        -0.30950
       4 -> 22         0.32896
       5 -> 27        -0.11545

 Excited State  52:      Singlet-A     20.0538 eV   61.83 nm  f=0.0000  <S**2>=0.000
       2 ->  6        -0.11142
       3 -> 21         0.22285
       3 -> 22        -0.23001
       3 -> 25        -0.22856
       4 -> 21        -0.22467
       4 -> 22        -0.22538
       4 -> 24        -0.22494
       5 -> 20         0.31570
       5 -> 23        -0.22126

 Excited State  53:      Singlet-A     20.7402 eV   59.78 nm  f=0.0009  <S**2>=0.000
       2 ->  7         0.57879
       2 ->  8        -0.31200
       3 -> 21        -0.10374
       4 -> 26         0.11876

 Excited State  54:      Singlet-A     20.7402 eV   59.78 nm  f=0.0009  <S**2>=0.000
       2 ->  7         0.30275
       2 ->  8         0.57883

 Excited State  55:      Singlet-A     20.7402 eV   59.78 nm  f=0.0009  <S**2>=0.000
       2 ->  9         0.65074
       3 -> 27        -0.10487

 Excited State  56:      Singlet-A     20.9227 eV   59.26 nm  f=0.0000  <S**2>=0.000
       4 -> 23        -0.47569
       4 -> 24         0.13301
       5 -> 23         0.13568
       5 -> 24         0.47758

 Excited State  57:      Singlet-A     20.9228 eV   59.26 nm  f=0.0000  <S**2>=0.000
       3 -> 23        -0.47757
       5 -> 25         0.48738

 Excited State  58:      Singlet-A     20.9229 eV   59.26 nm  f=0.0000  <S**2>=0.000
       3 -> 24        -0.48501
       4 -> 25         0.49059

 Excited State  59:      Singlet-A     20.9755 eV   59.11 nm  f=0.0125  <S**2>=0.000
       3 -> 25        -0.11589
       4 -> 23         0.41454
       4 -> 24        -0.22203
       5 -> 23         0.32187
       5 -> 24         0.38328

 Excited State  60:      Singlet-A     20.9756 eV   59.11 nm  f=0.0125  <S**2>=0.000
       3 -> 24         0.15253
       3 -> 25         0.45747
       4 -> 23         0.15820
       5 -> 23        -0.39552
       5 -> 24         0.26091

 Excited State  61:      Singlet-A     20.9757 eV   59.11 nm  f=0.0125  <S**2>=0.000
       3 -> 23         0.17043
       3 -> 24         0.43762
       3 -> 25        -0.15188
       4 -> 25         0.47927

 Excited State  62:      Singlet-A     21.0018 eV   59.03 nm  f=0.0000  <S**2>=0.000
       3 -> 23         0.43915
       3 -> 24        -0.17715
       4 -> 24         0.10258
       5 -> 24         0.10912
       5 -> 25         0.48435

 Excited State  63:      Singlet-A     21.0018 eV   59.03 nm  f=0.0000  <S**2>=0.000
       3 -> 23        -0.16246
       3 -> 25        -0.27641
       4 -> 23         0.22330
       4 -> 24         0.50383
       5 -> 23        -0.23327
       5 -> 24         0.14353

 Excited State  64:      Singlet-A     21.4703 eV   57.75 nm  f=0.0253  <S**2>=0.000
       2 -> 10         0.69094
       2 -> 11        -0.10287

 Excited State  65:      Singlet-A     21.4703 eV   57.75 nm  f=0.0253  <S**2>=0.000
       2 -> 11         0.68397
       2 -> 12         0.11937

 Excited State  66:      Singlet-A     21.4703 eV   57.75 nm  f=0.0253  <S**2>=0.000
       2 -> 11        -0.11085
       2 -> 12         0.68828

 Excited State  67:      Singlet-A     22.0881 eV   56.13 nm  f=0.0000  <S**2>=0.000
       2 -> 13         0.70345

 Excited State  68:      Singlet-A     22.0881 eV   56.13 nm  f=0.0000  <S**2>=0.000
       2 -> 14         0.70346

 Excited State  69:      Singlet-A     22.2109 eV   55.82 nm  f=0.0000  <S**2>=0.000
       2 ->  6        -0.13164
       2 -> 15        -0.22176
       2 -> 16        -0.10215
       3 -> 21         0.12586
       3 -> 22        -0.12989
       3 -> 25         0.30460
       4 -> 21        -0.12704
       4 -> 22        -0.12745
       4 -> 24         0.29976
       5 -> 20         0.17880
       5 -> 23         0.29480

 Excited State  70:      Singlet-A     22.5782 eV   54.91 nm  f=0.0000  <S**2>=0.000
       3 -> 26        -0.20799
       3 -> 27        -0.27631
       5 -> 26         0.61112

 Excited State  71:      Singlet-A     22.5783 eV   54.91 nm  f=0.0000  <S**2>=0.000
       3 -> 26         0.48125
       3 -> 27        -0.28492
       4 -> 27        -0.24714
       5 -> 27        -0.34367

 Excited State  72:      Singlet-A     22.5783 eV   54.91 nm  f=0.0000  <S**2>=0.000
       3 -> 26         0.22773
       3 -> 27        -0.12427
       4 -> 26         0.19508
       4 -> 27         0.62338

 Excited State  73:      Singlet-A     23.2666 eV   53.29 nm  f=0.3915  <S**2>=0.000
       3 -> 26         0.26149
       3 -> 27        -0.19428
       5 -> 27         0.57617

 Excited State  74:      Singlet-A     23.2667 eV   53.29 nm  f=0.3915  <S**2>=0.000
       3 -> 26         0.25113
       3 -> 27         0.41521
       4 -> 26         0.31707
       4 -> 27        -0.10962
       5 -> 26         0.31031

 Excited State  75:      Singlet-A     23.2667 eV   53.29 nm  f=0.3915  <S**2>=0.000
       3 -> 26        -0.14992
       3 -> 27        -0.28379
       4 -> 26         0.54627
       4 -> 27        -0.17090
       5 -> 20        -0.10363
       5 -> 26        -0.11775

 Excited State  76:      Singlet-A     25.2960 eV   49.01 nm  f=0.0000  <S**2>=0.000
       2 -> 15         0.63366
       2 -> 16        -0.24673

 Excited State  77:      Singlet-A     26.6937 eV   46.45 nm  f=0.0000  <S**2>=0.000
       2 -> 17         0.70698

 Excited State  78:      Singlet-A     26.6937 eV   46.45 nm  f=0.0000  <S**2>=0.000
       2 -> 18         0.70698

 Excited State  79:      Singlet-A     26.6938 eV   46.45 nm  f=0.0000  <S**2>=0.000
       2 -> 19         0.70698

 Excited State  80:      Singlet-A     27.0081 eV   45.91 nm  f=0.0000  <S**2>=0.000
       2 -> 15         0.19101
       2 -> 16         0.64820

 Excited State  81:      Singlet-A     27.5117 eV   45.07 nm  f=0.0004  <S**2>=0.000
       2 -> 20         0.69136

 Excited State  82:      Singlet-A     27.5117 eV   45.07 nm  f=0.0004  <S**2>=0.000
       2 -> 21         0.57793
       2 -> 22         0.38367

 Excited State  83:      Singlet-A     27.5117 eV   45.07 nm  f=0.0004  <S**2>=0.000
       2 -> 21        -0.38002
       2 -> 22         0.57955

 Excited State  84:      Singlet-A     28.7779 eV   43.08 nm  f=0.0139  <S**2>=0.000
       2 -> 23         0.69837

 Excited State  85:      Singlet-A     28.7780 eV   43.08 nm  f=0.0139  <S**2>=0.000
       2 -> 24         0.69840

 Excited State  86:      Singlet-A     28.7780 eV   43.08 nm  f=0.0139  <S**2>=0.000
       2 -> 25         0.69842

 Excited State  87:      Singlet-A     30.5287 eV   40.61 nm  f=0.0000  <S**2>=0.000
       2 -> 26         0.68907
       4 -> 29         0.11459

 Excited State  88:      Singlet-A     30.5287 eV   40.61 nm  f=0.0000  <S**2>=0.000
       2 -> 27         0.68907
       3 -> 28        -0.10339

 Excited State  89:      Singlet-A     30.8554 eV   40.18 nm  f=0.0000  <S**2>=0.000
       4 -> 28        -0.48687
       5 -> 29         0.48760

 Excited State  90:      Singlet-A     30.8555 eV   40.18 nm  f=0.0000  <S**2>=0.000
       3 -> 28         0.48980
       5 -> 30         0.49072

 Excited State  91:      Singlet-A     30.8556 eV   40.18 nm  f=0.0000  <S**2>=0.000
       3 -> 29         0.46576
       3 -> 30         0.17878
       4 -> 29        -0.17827
       4 -> 30         0.46558

 Excited State  92:      Singlet-A     31.1382 eV   39.82 nm  f=0.0000  <S**2>=0.000
       2 -> 27         0.15479
       3 -> 28         0.45044
       4 -> 29         0.15041
       4 -> 30         0.10920
       5 -> 28        -0.20491
       5 -> 29         0.17414
       5 -> 30        -0.40360

 Excited State  93:      Singlet-A     31.1383 eV   39.82 nm  f=0.0000  <S**2>=0.000
       2 -> 26        -0.15477
       3 -> 28        -0.13834
       3 -> 29        -0.11484
       3 -> 30         0.28277
       4 -> 29         0.49939
       4 -> 30         0.17643
       5 -> 28        -0.22613
       5 -> 30         0.17193

 Excited State  94:      Singlet-A     31.4177 eV   39.46 nm  f=0.0000  <S**2>=0.000
       3 -> 29         0.14380
       3 -> 30        -0.37778
       4 -> 29         0.37475
       4 -> 30         0.14520
       5 -> 28         0.40135

 Excited State  95:      Singlet-A     32.2712 eV   38.42 nm  f=0.1349  <S**2>=0.000
       4 -> 28         0.45810
       5 -> 29         0.43774
       5 -> 30         0.15468
       5 -> 31        -0.19194

 Excited State  96:      Singlet-A     32.2713 eV   38.42 nm  f=0.1349  <S**2>=0.000
       3 -> 28         0.11753
       3 -> 29        -0.19155
       3 -> 30         0.40819
       4 -> 31        -0.19438
       5 -> 28         0.44396

 The electronic state is 1-A.
 Alpha  occ. eigenvalues --   -9.99002  -0.63683  -0.35435  -0.35435  -0.35434
 Alpha virt. eigenvalues --    0.01950   0.11256   0.11256   0.11256   0.14530
 Alpha virt. eigenvalues --    0.14530   0.14530   0.17249   0.17249   0.27288
 Alpha virt. eigenvalues --    0.33734   0.34655   0.34655   0.34655   0.36252

 Mulliken charges:
               1
     1  C    0.214381
     2  H   -0.053573
     3  H   -0.053608
     4  H   -0.053617
     5  H   -0.053583
 Sum of Mulliken charges =  -0.00000

 Dipole moment (field-independent basis, Debye):
    X=              0.0000    Y=             -0.0000    Z=              0.0000  Tot=              0.0000
 Quadrupole moment (field-independent basis, Debye-Ang):
   XX=             -8.4181   YY=             -8.4182   ZZ=             -8.4183
   XY=              0.0000   XZ=              0.0000   YZ=             -0.0000

 Normal termination of Gaussian 16 at Mon Mar 21 20:14:44 2022.
