 Gaussian 16, Revision C.01,
 Gaussian 16:  EM64L-G16RevC.01  3-Jul-2019

 ----------------------------------------------------------------------
 #P TD(Nstates=10000) tpsstpss/Gen SCF(maxcycles=100) Int(Grid=ultrafin
 e)
 ----------------------------------------------------------------------

 ---------------------
 xGDB7_00001_tier4.com
 ---------------------
 Symbolic Z-matrix:
 Charge =  0 Multiplicity = 1

                         Standard orientation:
 ---------------------------------------------------------------------
 Center     Atomic      Atomic             Coordinates (Angstroms)
 Number     Number       Type             X           Y           Z
 ---------------------------------------------------------------------
      1          7           0        1.078471   -0.156900   -0.000001
      2          6           0       -0.161963    0.384944   -0.000002
      3          8           0       -1.189170   -0.245458    0.000001
      4          1           0        1.898427    0.419427    0.000004
      5          1           0        1.178124   -1.157073    0.000005
      6          1           0       -0.140706    1.489948    0.000007
 ---------------------------------------------------------------------

 SCF Done:  E(RTPSS-TPSS) =  -169.807695629     A.U. after   14 cycles

 Excitation energies and oscillator strengths:

 Excited State   1:      Singlet-A      5.6887 eV  217.95 nm  f=0.0006  <S**2>=0.000
      12 -> 13         0.70686
 This state for optimization and/or second-order correction.
 Total Energy, E(TD-HF/TD-DFT) =  -169.598640781
 Copying the excited state density for this state as the 1-particle RhoCI density.

 Excited State   2:      Singlet-A      6.3040 eV  196.67 nm  f=0.0177  <S**2>=0.000
      11 -> 13         0.18221
      12 -> 14         0.68207

 Excited State   3:      Singlet-A      6.9799 eV  177.63 nm  f=0.0103  <S**2>=0.000
      11 -> 14         0.70592

 Excited State   4:      Singlet-A      7.0591 eV  175.64 nm  f=0.0756  <S**2>=0.000
      12 -> 15         0.70253

 Excited State   5:      Singlet-A      7.7623 eV  159.73 nm  f=0.0034  <S**2>=0.000
      11 -> 15         0.70602

 Excited State   6:      Singlet-A      7.8123 eV  158.70 nm  f=0.3161  <S**2>=0.000
      11 -> 13         0.64875
      11 -> 18        -0.10102
      12 -> 14        -0.16944

 Excited State   7:      Singlet-A      8.0581 eV  153.86 nm  f=0.0371  <S**2>=0.000
      12 -> 16         0.70314

 Excited State   8:      Singlet-A      8.7509 eV  141.68 nm  f=0.0048  <S**2>=0.000
      11 -> 16         0.70489

 Excited State   9:      Singlet-A      8.9050 eV  139.23 nm  f=0.0328  <S**2>=0.000
      12 -> 17         0.69179

 Excited State  10:      Singlet-A      8.9071 eV  139.20 nm  f=0.0091  <S**2>=0.000
      12 -> 18         0.70475

 Excited State  11:      Singlet-A      9.3183 eV  133.05 nm  f=0.0050  <S**2>=0.000
      11 -> 18        -0.12169
      12 -> 19         0.68571

 Excited State  12:      Singlet-A      9.5025 eV  130.47 nm  f=0.0024  <S**2>=0.000
      11 -> 17         0.70130

 Excited State  13:      Singlet-A      9.7330 eV  127.38 nm  f=0.0018  <S**2>=0.000
      11 -> 18         0.56525
      12 -> 20         0.39948

 Excited State  14:      Singlet-A      9.8128 eV  126.35 nm  f=0.0202  <S**2>=0.000
      11 -> 18        -0.38654
      12 -> 20         0.58278

 Excited State  15:      Singlet-A      9.9251 eV  124.92 nm  f=0.0037  <S**2>=0.000
      10 -> 13         0.64483
      11 -> 19        -0.26340

 Excited State  16:      Singlet-A      9.9988 eV  124.00 nm  f=0.0004  <S**2>=0.000
      10 -> 13         0.25444
      11 -> 19         0.65558

 Excited State  17:      Singlet-A     10.2941 eV  120.44 nm  f=0.0133  <S**2>=0.000
      10 -> 14         0.70302

 Excited State  18:      Singlet-A     10.3462 eV  119.84 nm  f=0.0414  <S**2>=0.000
       9 -> 14         0.70488

 Excited State  19:      Singlet-A     10.4789 eV  118.32 nm  f=0.0013  <S**2>=0.000
      11 -> 20        -0.37541
      12 -> 21         0.59832

 Excited State  20:      Singlet-A     10.5459 eV  117.57 nm  f=0.0177  <S**2>=0.000
      11 -> 20         0.59083
      12 -> 21         0.37086

 Excited State  21:      Singlet-A     10.7464 eV  115.37 nm  f=0.0058  <S**2>=0.000
       9 -> 13        -0.13285
      12 -> 22         0.68963

 Excited State  22:      Singlet-A     10.8923 eV  113.83 nm  f=0.0449  <S**2>=0.000
       9 -> 13        -0.37455
      10 -> 15        -0.15127
      12 -> 22        -0.10742
      12 -> 23         0.55574

 Excited State  23:      Singlet-A     11.0502 eV  112.20 nm  f=0.0701  <S**2>=0.000
       9 -> 13         0.37625
      11 -> 21         0.44109
      12 -> 23         0.35820

 Excited State  24:      Singlet-A     11.1264 eV  111.43 nm  f=0.0265  <S**2>=0.000
       9 -> 13        -0.14656
      10 -> 15         0.68036

 Excited State  25:      Singlet-A     11.1353 eV  111.34 nm  f=0.0010  <S**2>=0.000
       9 -> 15         0.69985

 Excited State  26:      Singlet-A     11.3258 eV  109.47 nm  f=0.0045  <S**2>=0.000
      12 -> 24         0.70230

 Excited State  27:      Singlet-A     11.5133 eV  107.69 nm  f=0.0092  <S**2>=0.000
      11 -> 22         0.70052

 Excited State  28:      Singlet-A     11.5201 eV  107.62 nm  f=0.0924  <S**2>=0.000
       8 -> 14        -0.12744
       9 -> 13        -0.33259
      10 -> 16        -0.15622
      11 -> 21         0.51995
      12 -> 23        -0.20394
      12 -> 27         0.10250

 Excited State  29:      Singlet-A     11.6410 eV  106.51 nm  f=0.0008  <S**2>=0.000
      11 -> 23         0.69801

 Excited State  30:      Singlet-A     11.8017 eV  105.06 nm  f=0.0030  <S**2>=0.000
       8 -> 13         0.68905

 Excited State  31:      Singlet-A     12.1573 eV  101.98 nm  f=0.0440  <S**2>=0.000
       9 -> 16         0.70193

 Excited State  32:      Singlet-A     12.1963 eV  101.66 nm  f=0.0034  <S**2>=0.000
       8 -> 14        -0.10797
      10 -> 16         0.59440
      11 -> 24        -0.32350

 Excited State  33:      Singlet-A     12.2830 eV  100.94 nm  f=0.0045  <S**2>=0.000
       8 -> 14         0.38613
       9 -> 13        -0.11161
      10 -> 16         0.29867
      11 -> 24         0.46535

 Excited State  34:      Singlet-A     12.3817 eV  100.13 nm  f=0.0393  <S**2>=0.000
       8 -> 14         0.54803
       9 -> 18        -0.10691
      10 -> 16        -0.12566
      11 -> 24        -0.36610
      12 -> 27         0.10992

 Excited State  35:      Singlet-A     12.8347 eV   96.60 nm  f=0.0004  <S**2>=0.000
      12 -> 25         0.69505

 Excited State  36:      Singlet-A     12.8797 eV   96.26 nm  f=0.1326  <S**2>=0.000
      10 -> 17         0.69780

 Excited State  37:      Singlet-A     12.9246 eV   95.93 nm  f=0.0000  <S**2>=0.000
       9 -> 17         0.46614
      10 -> 18         0.45323
      12 -> 26         0.27467

 Excited State  38:      Singlet-A     12.9937 eV   95.42 nm  f=0.0047  <S**2>=0.000
       9 -> 17         0.14239
      10 -> 18        -0.46110
      12 -> 26         0.51570

 Excited State  39:      Singlet-A     13.0272 eV   95.17 nm  f=0.0466  <S**2>=0.000
       9 -> 17         0.49981
      10 -> 18        -0.28253
      12 -> 26        -0.39567

 Excited State  40:      Singlet-A     13.1378 eV   94.37 nm  f=0.1581  <S**2>=0.000
       8 -> 15         0.66082
       9 -> 18         0.18419

 Excited State  41:      Singlet-A     13.2104 eV   93.85 nm  f=0.0289  <S**2>=0.000
       8 -> 15        -0.19620
       9 -> 18         0.63810
      10 -> 20        -0.11036

 Excited State  42:      Singlet-A     13.3360 eV   92.97 nm  f=0.0472  <S**2>=0.000
      10 -> 19         0.69680

 Excited State  43:      Singlet-A     13.3790 eV   92.67 nm  f=0.0003  <S**2>=0.000
       9 -> 19         0.70658

 Excited State  44:      Singlet-A     13.5695 eV   91.37 nm  f=0.0616  <S**2>=0.000
       7 -> 13        -0.15961
       9 -> 20         0.14054
      11 -> 25         0.66453

 Excited State  45:      Singlet-A     13.6528 eV   90.81 nm  f=0.1910  <S**2>=0.000
       8 -> 16         0.13612
      10 -> 20        -0.20397
      11 -> 26         0.28465
      12 -> 27         0.56354

 Excited State  46:      Singlet-A     13.7324 eV   90.29 nm  f=0.0000  <S**2>=0.000
       7 -> 13         0.68168
      11 -> 25         0.13694

 Excited State  47:      Singlet-A     13.8062 eV   89.80 nm  f=0.0399  <S**2>=0.000
       8 -> 16        -0.14103
      10 -> 20         0.31792
      11 -> 26         0.58905
      12 -> 27        -0.12823

 Excited State  48:      Singlet-A     13.9500 eV   88.88 nm  f=0.0956  <S**2>=0.000
       6 -> 13        -0.10505
       9 -> 20         0.63999
      11 -> 25        -0.10842
      11 -> 27         0.24259

 Excited State  49:      Singlet-A     13.9558 eV   88.84 nm  f=0.0116  <S**2>=0.000
       8 -> 16         0.29266
       9 -> 18         0.10192
      10 -> 20         0.55443
      11 -> 26        -0.18267
      12 -> 27         0.16726
      12 -> 28        -0.10203

 Excited State  50:      Singlet-A     14.1209 eV   87.80 nm  f=0.0428  <S**2>=0.000
       9 -> 20        -0.20581
      11 -> 25         0.11337
      11 -> 27         0.65506

 Excited State  51:      Singlet-A     14.1366 eV   87.70 nm  f=0.0245  <S**2>=0.000
       7 -> 14        -0.10099
       8 -> 16         0.58840
      10 -> 20        -0.15377
      11 -> 26         0.13712
      12 -> 27        -0.20116
      12 -> 28         0.16576

 Excited State  52:      Singlet-A     14.4767 eV   85.64 nm  f=0.0528  <S**2>=0.000
       7 -> 14         0.59842
       8 -> 17         0.10214
       9 -> 21        -0.30977
      12 -> 28        -0.10438

 Excited State  53:      Singlet-A     14.5516 eV   85.20 nm  f=0.0117  <S**2>=0.000
      10 -> 21         0.70456

 Excited State  54:      Singlet-A     14.5894 eV   84.98 nm  f=0.0857  <S**2>=0.000
       7 -> 14         0.23560
       9 -> 21         0.35848
      10 -> 22        -0.16521
      12 -> 28         0.51654

 Excited State  55:      Singlet-A     14.7621 eV   83.99 nm  f=0.0278  <S**2>=0.000
       7 -> 14         0.13857
       8 -> 17         0.12831
       9 -> 21         0.46460
      10 -> 22         0.14692
      10 -> 23        -0.12465
      12 -> 28        -0.34648
      12 -> 29         0.22442

 Excited State  56:      Singlet-A     14.8849 eV   83.30 nm  f=0.0160  <S**2>=0.000
       7 -> 14         0.13331
       7 -> 15         0.12240
       8 -> 17        -0.37245
       8 -> 19        -0.14555
      10 -> 22         0.51165
      12 -> 29        -0.15711

 Excited State  57:      Singlet-A     14.8927 eV   83.25 nm  f=0.0067  <S**2>=0.000
       8 -> 18         0.24854
       9 -> 22         0.65773

 Excited State  58:      Singlet-A     14.9041 eV   83.19 nm  f=0.0046  <S**2>=0.000
       8 -> 18         0.65829
       9 -> 22        -0.25120

 Excited State  59:      Singlet-A     14.9315 eV   83.04 nm  f=0.0090  <S**2>=0.000
       8 -> 17         0.38879
      10 -> 22         0.30059
      10 -> 23         0.45650
      12 -> 29         0.11984

 Excited State  60:      Singlet-A     14.9528 eV   82.92 nm  f=0.0061  <S**2>=0.000
       8 -> 17        -0.35729
      10 -> 22        -0.17518
      10 -> 23         0.35196
      12 -> 29         0.44058

 Excited State  61:      Singlet-A     15.0189 eV   82.55 nm  f=0.0005  <S**2>=0.000
       9 -> 23         0.69580

 Excited State  62:      Singlet-A     15.0671 eV   82.29 nm  f=0.0142  <S**2>=0.000
       7 -> 15        -0.25847
       8 -> 19        -0.16381
       9 -> 21        -0.13936
      10 -> 22         0.19095
      10 -> 23        -0.35606
      12 -> 28         0.13647
      12 -> 29         0.41549

 Excited State  63:      Singlet-A     15.1925 eV   81.61 nm  f=0.0143  <S**2>=0.000
       7 -> 15         0.53806
       8 -> 19         0.26548
       9 -> 21        -0.10235
      10 -> 23        -0.10541
      12 -> 29         0.18188
      12 -> 30         0.21146

 Excited State  64:      Singlet-A     15.2991 eV   81.04 nm  f=0.0138  <S**2>=0.000
       8 -> 19        -0.21181
       9 -> 24        -0.16052
      12 -> 30         0.62759

 Excited State  65:      Singlet-A     15.3585 eV   80.73 nm  f=0.0263  <S**2>=0.000
      10 -> 24        -0.34212
      11 -> 28         0.60417

 Excited State  66:      Singlet-A     15.3857 eV   80.58 nm  f=0.0088  <S**2>=0.000
      10 -> 24         0.60103
      11 -> 28         0.31618
      12 -> 31        -0.17056

 Excited State  67:      Singlet-A     15.4287 eV   80.36 nm  f=0.0030  <S**2>=0.000
       7 -> 15        -0.29367
       7 -> 16         0.15041
       8 -> 17        -0.13914
       8 -> 19         0.52205
      12 -> 30         0.13306
      12 -> 32        -0.18142

 Excited State  68:      Singlet-A     15.4906 eV   80.04 nm  f=0.0266  <S**2>=0.000
       6 -> 13        -0.15696
      10 -> 24         0.10040
      11 -> 28         0.13342
      12 -> 31         0.66579

 Excited State  69:      Singlet-A     15.5674 eV   79.64 nm  f=0.0213  <S**2>=0.000
       6 -> 14         0.10339
       8 -> 19        -0.10191
       9 -> 24         0.64760
      12 -> 30         0.10978
      12 -> 32        -0.10456

 Excited State  70:      Singlet-A     15.6074 eV   79.44 nm  f=0.0519  <S**2>=0.000
       8 -> 19         0.15724
       9 -> 24         0.12448
      12 -> 32         0.64395

 Excited State  71:      Singlet-A     15.7134 eV   78.90 nm  f=0.0014  <S**2>=0.000
      11 -> 29         0.70088

 Excited State  72:      Singlet-A     15.8325 eV   78.31 nm  f=0.0102  <S**2>=0.000
       6 -> 14        -0.10520
       7 -> 16        -0.11651
       8 -> 20         0.67390

 Excited State  73:      Singlet-A     15.9808 eV   77.58 nm  f=0.0018  <S**2>=0.000
      11 -> 30         0.70083

 Excited State  74:      Singlet-A     16.0458 eV   77.27 nm  f=0.0379  <S**2>=0.000
       6 -> 14         0.61141
       7 -> 16        -0.23567
      11 -> 31         0.23361

 Excited State  75:      Singlet-A     16.1139 eV   76.94 nm  f=0.1753  <S**2>=0.000
       6 -> 13         0.62934
      12 -> 31         0.13513

 Excited State  76:      Singlet-A     16.1552 eV   76.75 nm  f=0.0617  <S**2>=0.000
       7 -> 16         0.33437
      11 -> 31         0.40345
      12 -> 33         0.45292

 Excited State  77:      Singlet-A     16.2705 eV   76.20 nm  f=0.0011  <S**2>=0.000
      11 -> 32         0.70533

 Excited State  78:      Singlet-A     16.3067 eV   76.03 nm  f=0.0540  <S**2>=0.000
      11 -> 31        -0.47088
      12 -> 33         0.48956

 Excited State  79:      Singlet-A     16.4720 eV   75.27 nm  f=0.0025  <S**2>=0.000
       8 -> 21         0.70367

 Excited State  80:      Singlet-A     16.5114 eV   75.09 nm  f=0.0445  <S**2>=0.000
       6 -> 14         0.24483
       6 -> 15        -0.24556
       7 -> 16         0.45696
       7 -> 17         0.13924
       8 -> 22         0.11842
       9 -> 24        -0.10516
      11 -> 31        -0.17009
      12 -> 33        -0.16881
      12 -> 34        -0.10941

 Excited State  81:      Singlet-A     16.8402 eV   73.62 nm  f=0.0412  <S**2>=0.000
       6 -> 15         0.17584
       7 -> 17         0.20698
       8 -> 22         0.46408
       8 -> 23         0.14671
      10 -> 25        -0.41477

 Excited State  82:      Singlet-A     16.8740 eV   73.48 nm  f=0.0276  <S**2>=0.000
       8 -> 22         0.44317
      10 -> 25         0.48776
      12 -> 34         0.18421

 Excited State  83:      Singlet-A     16.8963 eV   73.38 nm  f=0.0025  <S**2>=0.000
      11 -> 33         0.70065

 Excited State  84:      Singlet-A     16.9183 eV   73.28 nm  f=0.0025  <S**2>=0.000
       6 -> 15         0.31936
       7 -> 17         0.50524
       8 -> 23        -0.29332
      10 -> 25         0.20298

 Excited State  85:      Singlet-A     16.9581 eV   73.11 nm  f=0.0028  <S**2>=0.000
       9 -> 25         0.67571
      10 -> 26        -0.11617

 Excited State  86:      Singlet-A     17.0199 eV   72.85 nm  f=0.0075  <S**2>=0.000
       7 -> 18         0.69443

 Excited State  87:      Singlet-A     17.0639 eV   72.66 nm  f=0.0721  <S**2>=0.000
       6 -> 15         0.10640
       7 -> 17         0.14627
       7 -> 19        -0.13560
       8 -> 22        -0.10237
       8 -> 23         0.52846
       9 -> 26         0.17659
      10 -> 25         0.17554
      12 -> 34        -0.26223

 Excited State  88:      Singlet-A     17.1097 eV   72.46 nm  f=0.0163  <S**2>=0.000
       9 -> 25         0.11033
      10 -> 26         0.67478

 Excited State  89:      Singlet-A     17.1703 eV   72.21 nm  f=0.1893  <S**2>=0.000
       6 -> 15         0.30768
       7 -> 16         0.11653
       7 -> 17        -0.32998
       8 -> 23        -0.18822
       9 -> 26         0.40834
      12 -> 34        -0.17815

 Excited State  90:      Singlet-A     17.2236 eV   71.98 nm  f=0.0834  <S**2>=0.000
       6 -> 15        -0.19281
       7 -> 17         0.12234
       7 -> 19        -0.23506
       9 -> 26         0.45952
      12 -> 34         0.38190

 Excited State  91:      Singlet-A     17.2819 eV   71.74 nm  f=0.0106  <S**2>=0.000
       8 -> 24         0.68963

 Excited State  92:      Singlet-A     17.3597 eV   71.42 nm  f=0.0075  <S**2>=0.000
       6 -> 15         0.26761
       7 -> 16         0.10704
       7 -> 17        -0.14309
       7 -> 19        -0.12913
       9 -> 26        -0.13487
      10 -> 27         0.47937
      12 -> 34         0.30296

 Excited State  93:      Singlet-A     17.5017 eV   70.84 nm  f=0.0336  <S**2>=0.000
       7 -> 19         0.61117
       9 -> 26         0.19471
      10 -> 27         0.20611

 Excited State  94:      Singlet-A     17.5348 eV   70.71 nm  f=0.0712  <S**2>=0.000
       9 -> 27         0.68310

 Excited State  95:      Singlet-A     17.7260 eV   69.94 nm  f=0.1155  <S**2>=0.000
       6 -> 15        -0.18297
       7 -> 16        -0.10496
       7 -> 20         0.27544
       8 -> 22         0.12556
       8 -> 23        -0.15792
       8 -> 25        -0.10373
       9 -> 26         0.10857
      10 -> 27         0.41897
      12 -> 34        -0.26125

 Excited State  96:      Singlet-A     17.8092 eV   69.62 nm  f=0.0160  <S**2>=0.000
       6 -> 16         0.69220

 Excited State  97:      Singlet-A     17.9330 eV   69.14 nm  f=0.0099  <S**2>=0.000
      11 -> 34         0.69925

 Excited State  98:      Singlet-A     17.9796 eV   68.96 nm  f=0.0491  <S**2>=0.000
       7 -> 20         0.62888
      10 -> 27        -0.12834

 Excited State  99:      Singlet-A     18.0006 eV   68.88 nm  f=0.0084  <S**2>=0.000
      12 -> 35         0.70136

 Excited State 100:      Singlet-A     18.0805 eV   68.57 nm  f=0.0260  <S**2>=0.000
      12 -> 36         0.68265

 Excited State 101:      Singlet-A     18.6059 eV   66.64 nm  f=0.0799  <S**2>=0.000
       7 -> 21         0.68724

 Excited State 102:      Singlet-A     18.6294 eV   66.55 nm  f=0.0344  <S**2>=0.000
       6 -> 17         0.57051
       8 -> 27        -0.10922
      10 -> 28        -0.36611

 Excited State 103:      Singlet-A     18.6578 eV   66.45 nm  f=0.0006  <S**2>=0.000
       6 -> 18         0.64521
       9 -> 28        -0.24687
      11 -> 36         0.12317

 Excited State 104:      Singlet-A     18.6672 eV   66.42 nm  f=0.0060  <S**2>=0.000
       6 -> 17         0.28336
      10 -> 28         0.55057
      11 -> 35         0.29600

 Excited State 105:      Singlet-A     18.7133 eV   66.25 nm  f=0.0000  <S**2>=0.000
       6 -> 18         0.26479
       9 -> 28         0.64337

 Excited State 106:      Singlet-A     18.7460 eV   66.14 nm  f=0.0031  <S**2>=0.000
       6 -> 17        -0.10381
       7 -> 22        -0.18190
       8 -> 25         0.10091
      10 -> 28        -0.15597
      11 -> 35         0.55810
      12 -> 37         0.30063

 Excited State 107:      Singlet-A     18.8123 eV   65.91 nm  f=0.0013  <S**2>=0.000
       9 -> 28         0.11785
      11 -> 36         0.68104

 Excited State 108:      Singlet-A     18.9356 eV   65.48 nm  f=0.0787  <S**2>=0.000
       6 -> 17         0.13013
       6 -> 19         0.12888
       7 -> 23        -0.19423
       8 -> 25         0.56588
      10 -> 29         0.15681
      10 -> 30         0.15435
      11 -> 35        -0.10321

 Excited State 109:      Singlet-A     18.9982 eV   65.26 nm  f=0.0054  <S**2>=0.000
       6 -> 19         0.55016
       7 -> 22         0.30738
       7 -> 23        -0.23931
       8 -> 25        -0.17807

 Excited State 110:      Singlet-A     19.0029 eV   65.24 nm  f=0.0804  <S**2>=0.000
       8 -> 26         0.68969
       9 -> 29         0.10043

 Excited State 111:      Singlet-A     19.0568 eV   65.06 nm  f=0.0169  <S**2>=0.000
       7 -> 22         0.32549
       7 -> 23         0.39667
      10 -> 29         0.13813
      10 -> 30         0.20434
      12 -> 37         0.38908

 Excited State 112:      Singlet-A     19.0978 eV   64.92 nm  f=0.0159  <S**2>=0.000
       7 -> 22        -0.14664
       8 -> 25        -0.14639
      10 -> 29         0.64323
      10 -> 30        -0.13708

 Excited State 113:      Singlet-A     19.1123 eV   64.87 nm  f=0.0058  <S**2>=0.000
       9 -> 29         0.68619
       9 -> 30         0.11940

 Excited State 114:      Singlet-A     19.1740 eV   64.66 nm  f=0.0870  <S**2>=0.000
       6 -> 19         0.40791
       7 -> 22        -0.32858
       7 -> 23         0.40030

 Excited State 115:      Singlet-A     19.1962 eV   64.59 nm  f=0.0923  <S**2>=0.000
       7 -> 22        -0.27728
       7 -> 23        -0.24452
       8 -> 25        -0.23197
       8 -> 27        -0.11805
       9 -> 31         0.14008
      10 -> 30         0.36038
      11 -> 35        -0.12648
      12 -> 37         0.27406

 Excited State 116:      Singlet-A     19.3935 eV   63.93 nm  f=0.0098  <S**2>=0.000
       7 -> 24         0.67754
       9 -> 30         0.11889
      11 -> 37         0.14473

 Excited State 117:      Singlet-A     19.4923 eV   63.61 nm  f=0.0354  <S**2>=0.000
       6 -> 20         0.26987
       7 -> 22         0.11196
       8 -> 27        -0.41552
       9 -> 31         0.43624
      10 -> 30        -0.13116

 Excited State 118:      Singlet-A     19.5655 eV   63.37 nm  f=0.0000  <S**2>=0.000
       9 -> 30         0.44770
       9 -> 32        -0.23529
      10 -> 31         0.46721

 Excited State 119:      Singlet-A     19.5687 eV   63.36 nm  f=0.0016  <S**2>=0.000
       9 -> 30        -0.39947
       9 -> 32         0.21298
      10 -> 31         0.52804

 Excited State 120:      Singlet-A     19.5775 eV   63.33 nm  f=0.0257  <S**2>=0.000
       6 -> 20         0.54963
       9 -> 31        -0.31822
      10 -> 32         0.28146

 Excited State 121:      Singlet-A     19.6439 eV   63.12 nm  f=0.0576  <S**2>=0.000
       6 -> 20        -0.27170
       8 -> 27        -0.10643
      10 -> 30        -0.10803

 The electronic state is 1-A.
 Alpha  occ. eigenvalues --  -18.87517 -14.15328 -10.10313  -0.96742  -0.85041
 Alpha  occ. eigenvalues --   -0.58251  -0.52212  -0.44462  -0.37573  -0.37351
 Alpha  occ. eigenvalues --   -0.25171  -0.22509
 Alpha virt. eigenvalues --   -0.01994   0.00345   0.03313   0.07024   0.09810
 Alpha virt. eigenvalues --    0.10361   0.11655   0.13529   0.16138   0.17238
 Alpha virt. eigenvalues --    0.17649   0.19194   0.24573   0.25510   0.26627

 Mulliken charges:
               1
     1  N    0.198951
     2  C    0.589683
     3  O   -0.429210
     4  H   -0.108531
     5  H   -0.068590
     6  H   -0.182303
 Sum of Mulliken charges =  -0.00000

 Dipole moment (field-independent basis, Debye):
    X=              3.8353    Y=              0.7839    Z=              0.0000  Tot=              3.9146
 Quadrupole moment (field-independent basis, Debye-Ang):
   XX=            -18.1339   YY=            -15.7732   ZZ=            -18.8355
   XY=             -1.3134   XZ=              0.0000   YZ=             -0.0000

 Normal termination of Gaussian 16 at Mon Mar 21 20:15:07 2022.
