 Gaussian 16, Revision C.01,
 Gaussian 16:  EM64L-G16RevC.01  3-Jul-2019

 ----------------------------------------------------------------------
 #P TD(Nstates=10000) tpsstpss/Gen SCF(maxcycles=100) Int(Grid=ultrafin
 e)
 ----------------------------------------------------------------------

 ---------------------
 xGDB7_00001_tier4.com
 ---------------------
 Symbolic Z-matrix:
 Charge =  0 Multiplicity = 1

                         Standard orientation:
 ---------------------------------------------------------------------
 Center     Atomic      Atomic             Coordinates (Angstroms)
 Number     Number       Type             X           Y           Z
 ---------------------------------------------------------------------
      1          6           0       -1.122844   -0.452320    0.000000
      2          6           0        0.000000    0.553997    0.000000
      3          9           0        1.225284   -0.098236    0.000000
      4          1           0       -2.083314    0.066805    0.000000
      5          1           0       -1.072796   -1.085651    0.886148
      6          1           0       -1.072796   -1.085651   -0.886148
      7          1           0       -0.030794    1.189278    0.888716
      8          1           0       -0.030794    1.189278   -0.888716
 ---------------------------------------------------------------------

 SCF Done:  E(RTPSS-TPSS) =  -178.962021880     A.U. after   12 cycles

 Excitation energies and oscillator strengths:

 Excited State   1:      Singlet-A"     8.2793 eV  149.75 nm  f=0.0017  <S**2>=0.000
      13 -> 14         0.70701
 This state for optimization and/or second-order correction.
 Total Energy, E(TD-HF/TD-DFT) =  -178.657763085
 Copying the excited state density for this state as the 1-particle RhoCI density.

 Excited State   2:      Singlet-A'     8.4589 eV  146.57 nm  f=0.0163  <S**2>=0.000
      12 -> 14         0.70487

 Excited State   3:      Singlet-A"     9.0840 eV  136.49 nm  f=0.0230  <S**2>=0.000
      13 -> 15         0.70637

 Excited State   4:      Singlet-A'     9.2140 eV  134.56 nm  f=0.0433  <S**2>=0.000
      12 -> 15         0.70455

 Excited State   5:      Singlet-A"     9.6624 eV  128.32 nm  f=0.0200  <S**2>=0.000
      13 -> 16         0.70415

 Excited State   6:      Singlet-A'     9.7813 eV  126.76 nm  f=0.0023  <S**2>=0.000
      12 -> 16         0.62163
      13 -> 17         0.32910

 Excited State   7:      Singlet-A'     9.8699 eV  125.62 nm  f=0.1101  <S**2>=0.000
      12 -> 16        -0.32845
      13 -> 17         0.62128

 Excited State   8:      Singlet-A"     9.9140 eV  125.06 nm  f=0.0268  <S**2>=0.000
      12 -> 17         0.70416

 Excited State   9:      Singlet-A"    10.0765 eV  123.04 nm  f=0.0159  <S**2>=0.000
      11 -> 14         0.70511

 Excited State  10:      Singlet-A'    10.1994 eV  121.56 nm  f=0.0540  <S**2>=0.000
      10 -> 14         0.70309

 Excited State  11:      Singlet-A"    10.3524 eV  119.76 nm  f=0.0014  <S**2>=0.000
      13 -> 18         0.70468

 Excited State  12:      Singlet-A'    10.4978 eV  118.10 nm  f=0.0356  <S**2>=0.000
      12 -> 18         0.69869

 Excited State  13:      Singlet-A"    10.8825 eV  113.93 nm  f=0.0449  <S**2>=0.000
      11 -> 15         0.68675
      13 -> 20        -0.15580

 Excited State  14:      Singlet-A"    10.9989 eV  112.72 nm  f=0.0382  <S**2>=0.000
      11 -> 15         0.14843
      13 -> 20         0.68371

 Excited State  15:      Singlet-A'    11.0095 eV  112.62 nm  f=0.0878  <S**2>=0.000
      10 -> 15         0.69522

 Excited State  16:      Singlet-A"    11.0421 eV  112.28 nm  f=0.0027  <S**2>=0.000
      12 -> 19         0.70126

 Excited State  17:      Singlet-A'    11.0624 eV  112.08 nm  f=0.0069  <S**2>=0.000
      12 -> 20         0.42788
      13 -> 19         0.54961

 Excited State  18:      Singlet-A'    11.1054 eV  111.64 nm  f=0.0017  <S**2>=0.000
      12 -> 20         0.55968
      13 -> 19        -0.41839

 Excited State  19:      Singlet-A"    11.4032 eV  108.73 nm  f=0.0001  <S**2>=0.000
      11 -> 16         0.69423
      13 -> 21        -0.10501

 Excited State  20:      Singlet-A'    11.4532 eV  108.25 nm  f=0.0236  <S**2>=0.000
       9 -> 14         0.63456
      10 -> 16         0.29336

 Excited State  21:      Singlet-A"    11.4693 eV  108.10 nm  f=0.0000  <S**2>=0.000
      11 -> 16         0.10565
      13 -> 21         0.69660

 Excited State  22:      Singlet-A'    11.5821 eV  107.05 nm  f=0.0471  <S**2>=0.000
       9 -> 14        -0.16606
      10 -> 16         0.42680
      11 -> 17         0.41222
      12 -> 21         0.28274
      13 -> 22        -0.14679

 Excited State  23:      Singlet-A'    11.6268 eV  106.64 nm  f=0.0138  <S**2>=0.000
       9 -> 14         0.19013
      10 -> 16        -0.35758
      11 -> 17         0.54001
      13 -> 22         0.13496

 Excited State  24:      Singlet-A"    11.6375 eV  106.54 nm  f=0.0356  <S**2>=0.000
      10 -> 17         0.70280

 Excited State  25:      Singlet-A'    11.6763 eV  106.18 nm  f=0.0491  <S**2>=0.000
       9 -> 14         0.14012
      10 -> 16        -0.23910
      11 -> 17        -0.11818
      12 -> 21         0.62700

 Excited State  26:      Singlet-A'    11.8370 eV  104.74 nm  f=0.0034  <S**2>=0.000
      10 -> 16         0.13227
      12 -> 21         0.11499
      13 -> 22         0.66982

 Excited State  27:      Singlet-A"    11.8884 eV  104.29 nm  f=0.0018  <S**2>=0.000
      12 -> 22         0.70351

 Excited State  28:      Singlet-A"    12.1509 eV  102.04 nm  f=0.0156  <S**2>=0.000
      11 -> 18         0.69388

 Excited State  29:      Singlet-A"    12.2497 eV  101.21 nm  f=0.0010  <S**2>=0.000
      13 -> 23         0.70403

 Excited State  30:      Singlet-A'    12.2528 eV  101.19 nm  f=0.0196  <S**2>=0.000
       9 -> 15         0.65192
      10 -> 18         0.18593
      12 -> 23         0.13684

 Excited State  31:      Singlet-A'    12.3530 eV  100.37 nm  f=0.0849  <S**2>=0.000
       9 -> 15        -0.17011
      10 -> 18         0.21573
      12 -> 23         0.62750
      13 -> 24        -0.15796

 Excited State  32:      Singlet-A'    12.4958 eV   99.22 nm  f=0.1056  <S**2>=0.000
       7 -> 14        -0.16168
       9 -> 15        -0.11560
      10 -> 18         0.56802
      11 -> 19         0.18766
      11 -> 22        -0.10526
      12 -> 23        -0.23185

 Excited State  33:      Singlet-A"    12.6113 eV   98.31 nm  f=0.0005  <S**2>=0.000
      12 -> 24         0.65719
      13 -> 25        -0.24227

 Excited State  34:      Singlet-A'    12.6720 eV   97.84 nm  f=0.1217  <S**2>=0.000
       7 -> 14         0.23469
       9 -> 16        -0.26461
      12 -> 23         0.12349
      13 -> 24         0.57348

 Excited State  35:      Singlet-A"    12.6946 eV   97.67 nm  f=0.0013  <S**2>=0.000
       8 -> 14        -0.10720
      10 -> 19        -0.30352
      11 -> 20         0.62295

 Excited State  36:      Singlet-A"    12.7142 eV   97.52 nm  f=0.0658  <S**2>=0.000
       8 -> 14         0.66905
      11 -> 20         0.11080
      12 -> 24        -0.10086
      13 -> 25        -0.16511

 Excited State  37:      Singlet-A'    12.7344 eV   97.36 nm  f=0.0522  <S**2>=0.000
       7 -> 14         0.52418
       9 -> 16         0.15657
      10 -> 20         0.19993
      11 -> 19         0.28464
      12 -> 25         0.17205
      13 -> 24        -0.20259

 Excited State  38:      Singlet-A'    12.7979 eV   96.88 nm  f=0.0192  <S**2>=0.000
       7 -> 14        -0.32275
       9 -> 16         0.23155
      10 -> 18        -0.16954
      10 -> 20         0.31802
      10 -> 21         0.10286
      11 -> 19         0.38101
      11 -> 22         0.10351
      13 -> 24         0.12860

 Excited State  39:      Singlet-A"    12.8278 eV   96.65 nm  f=0.0002  <S**2>=0.000
       9 -> 17        -0.15339
      10 -> 19         0.42181
      11 -> 20         0.26238
      12 -> 24         0.14521
      13 -> 25         0.44486

 Excited State  40:      Singlet-A'    12.8662 eV   96.36 nm  f=0.0026  <S**2>=0.000
       7 -> 14         0.11049
       9 -> 16         0.46669
      10 -> 20        -0.44358
      12 -> 25        -0.10857
      13 -> 24         0.17954

 Excited State  41:      Singlet-A"    12.9000 eV   96.11 nm  f=0.0293  <S**2>=0.000
       9 -> 17         0.54736
      10 -> 19         0.35016
      11 -> 20         0.14042
      13 -> 25        -0.19805

 Excited State  42:      Singlet-A'    13.0135 eV   95.27 nm  f=0.0860  <S**2>=0.000
       7 -> 14        -0.10005
       9 -> 16        -0.24261
      10 -> 20        -0.36857
      11 -> 19         0.30501
      12 -> 25         0.38508

 Excited State  43:      Singlet-A"    13.0148 eV   95.26 nm  f=0.1416  <S**2>=0.000
       8 -> 14         0.13742
       9 -> 17         0.40699
      10 -> 19        -0.28023
      11 -> 21         0.18457
      12 -> 24         0.14365
      13 -> 25         0.38592

 Excited State  44:      Singlet-A'    13.1899 eV   94.00 nm  f=0.0191  <S**2>=0.000
       9 -> 16         0.17609
      10 -> 21         0.15027
      10 -> 23        -0.12617
      11 -> 19        -0.30538
      12 -> 25         0.50703
      13 -> 24         0.11449

 Excited State  45:      Singlet-A"    13.2761 eV   93.39 nm  f=0.0275  <S**2>=0.000
      11 -> 21         0.67639

 Excited State  46:      Singlet-A'    13.3589 eV   92.81 nm  f=0.0147  <S**2>=0.000
       9 -> 18         0.29669
      10 -> 21         0.60881
      11 -> 22        -0.12333

 Excited State  47:      Singlet-A"    13.4825 eV   91.96 nm  f=0.0073  <S**2>=0.000
       8 -> 15         0.70284

 Excited State  48:      Singlet-A'    13.5231 eV   91.68 nm  f=0.0284  <S**2>=0.000
       7 -> 15        -0.39245
       9 -> 18         0.41302
      10 -> 21        -0.14378
      11 -> 22         0.35927

 Excited State  49:      Singlet-A'    13.5533 eV   91.48 nm  f=0.0455  <S**2>=0.000
       7 -> 15         0.54045
       7 -> 16         0.12414
       9 -> 18         0.38981

 Excited State  50:      Singlet-A"    13.6265 eV   90.99 nm  f=0.0091  <S**2>=0.000
      10 -> 22         0.67660
      13 -> 26        -0.17567

 Excited State  51:      Singlet-A"    13.6831 eV   90.61 nm  f=0.0187  <S**2>=0.000
      10 -> 22         0.16162
      13 -> 26         0.67737

 Excited State  52:      Singlet-A'    13.7533 eV   90.15 nm  f=0.0533  <S**2>=0.000
       8 -> 17        -0.12778
       9 -> 18        -0.17818
      10 -> 21         0.12355
      11 -> 22         0.43211
      12 -> 26         0.45514
      13 -> 27         0.11355

 Excited State  53:      Singlet-A'    13.8688 eV   89.40 nm  f=0.0030  <S**2>=0.000
       7 -> 16         0.13863
       8 -> 17         0.22721
       9 -> 18         0.14224
      10 -> 21        -0.11615
      11 -> 22        -0.26876
      12 -> 26         0.51312
      13 -> 27        -0.16089

 Excited State  54:      Singlet-A'    13.9712 eV   88.74 nm  f=0.0097  <S**2>=0.000
       8 -> 17         0.11816
       9 -> 20        -0.15559
      10 -> 23        -0.12794
      13 -> 27         0.64836

 Excited State  55:      Singlet-A"    14.0294 eV   88.37 nm  f=0.0001  <S**2>=0.000
      10 -> 24        -0.10472
      11 -> 23         0.67124
      12 -> 27        -0.18252

 Excited State  56:      Singlet-A"    14.0577 eV   88.20 nm  f=0.0004  <S**2>=0.000
       8 -> 16        -0.18777
       9 -> 19         0.35028
      11 -> 23         0.12183
      12 -> 27         0.56233

 Excited State  57:      Singlet-A"    14.0793 eV   88.06 nm  f=0.0000  <S**2>=0.000
       8 -> 16         0.10731
       9 -> 19         0.61178
      12 -> 27        -0.31263

 Excited State  58:      Singlet-A"    14.1076 eV   87.88 nm  f=0.0000  <S**2>=0.000
       7 -> 17         0.29701
       8 -> 16         0.59547
      12 -> 27         0.20819

 Excited State  59:      Singlet-A'    14.1119 eV   87.86 nm  f=0.0273  <S**2>=0.000
       7 -> 16         0.21932
       8 -> 17         0.12363
       9 -> 20         0.62713
      10 -> 23        -0.14540
      11 -> 24        -0.10535

 Excited State  60:      Singlet-A"    14.1879 eV   87.39 nm  f=0.0259  <S**2>=0.000
       7 -> 17         0.63244
       8 -> 16        -0.29140

 Excited State  61:      Singlet-A'    14.2070 eV   87.27 nm  f=0.0694  <S**2>=0.000
       7 -> 16         0.51845
       8 -> 17        -0.11768
      10 -> 23         0.40662

 Excited State  62:      Singlet-A"    14.4125 eV   86.03 nm  f=0.0001  <S**2>=0.000
      10 -> 24         0.59559
      11 -> 25        -0.34734

 Excited State  63:      Singlet-A'    14.4245 eV   85.95 nm  f=0.0307  <S**2>=0.000
       7 -> 16        -0.10574
       7 -> 18         0.17245
       8 -> 17         0.39138
       9 -> 21        -0.30104
      10 -> 23         0.32172
      11 -> 24        -0.25572

 Excited State  64:      Singlet-A'    14.4697 eV   85.69 nm  f=0.1738  <S**2>=0.000
       7 -> 16         0.23099
       7 -> 20        -0.10184
       8 -> 17         0.30638
       9 -> 20        -0.11745
       9 -> 21        -0.20879
       9 -> 23        -0.10324
      10 -> 21         0.11086
      10 -> 23        -0.18738
      10 -> 25        -0.11547
      11 -> 22         0.13532
      11 -> 24         0.34023

 Excited State  65:      Singlet-A'    14.5063 eV   85.47 nm  f=0.0811  <S**2>=0.000
       7 -> 16        -0.14449
       7 -> 18         0.23554
       9 -> 20         0.14840
       9 -> 21         0.27373
      10 -> 23         0.27795
      11 -> 24         0.43778
      12 -> 29         0.10088

 Excited State  66:      Singlet-A"    14.5426 eV   85.26 nm  f=0.0013  <S**2>=0.000
      13 -> 28         0.69507

 Excited State  67:      Singlet-A'    14.6556 eV   84.60 nm  f=0.0030  <S**2>=0.000
       9 -> 21         0.15392
      10 -> 25        -0.13308
      12 -> 28         0.67124

 Excited State  68:      Singlet-A"    14.6746 eV   84.49 nm  f=0.0063  <S**2>=0.000
       8 -> 18         0.49235
      10 -> 24         0.18524
      11 -> 25         0.45369

 Excited State  69:      Singlet-A'    14.7040 eV   84.32 nm  f=0.0091  <S**2>=0.000
      10 -> 25         0.67484
      12 -> 28         0.11508

 Excited State  70:      Singlet-A"    14.8382 eV   83.56 nm  f=0.0974  <S**2>=0.000
       8 -> 18         0.46657
       9 -> 22        -0.19064
      10 -> 24        -0.22628
      11 -> 25        -0.35707

 Excited State  71:      Singlet-A'    14.8646 eV   83.41 nm  f=0.0246  <S**2>=0.000
       7 -> 18         0.48719
       7 -> 20        -0.11741
       9 -> 21         0.27723
      11 -> 24        -0.21224
      12 -> 29        -0.21964

 Excited State  72:      Singlet-A"    14.9271 eV   83.06 nm  f=0.0340  <S**2>=0.000
       8 -> 18         0.13353
       9 -> 22         0.67956

 Excited State  73:      Singlet-A'    15.1341 eV   81.92 nm  f=0.0203  <S**2>=0.000
       7 -> 18        -0.32328
       7 -> 20         0.12277
       8 -> 17         0.28502
       9 -> 21         0.37690
       9 -> 23        -0.10369
      11 -> 22         0.11881
      11 -> 24        -0.11176

 Excited State  74:      Singlet-A"    15.1824 eV   81.66 nm  f=0.0507  <S**2>=0.000
      13 -> 29         0.69234

 Excited State  75:      Singlet-A"    15.3229 eV   80.91 nm  f=0.0082  <S**2>=0.000
       7 -> 19         0.61628
       8 -> 20         0.29436
      11 -> 26        -0.16531

 Excited State  76:      Singlet-A'    15.3459 eV   80.79 nm  f=0.0587  <S**2>=0.000
       7 -> 20        -0.28821
       8 -> 19        -0.41205
       9 -> 23         0.14017
      10 -> 26         0.18028
      12 -> 29         0.42153

 Excited State  77:      Singlet-A'    15.4129 eV   80.44 nm  f=0.0033  <S**2>=0.000
       7 -> 18        -0.10425
       7 -> 20        -0.31696
       8 -> 19         0.34732
       9 -> 23         0.39826
      10 -> 26        -0.24983

 Excited State  78:      Singlet-A"    15.4227 eV   80.39 nm  f=0.0292  <S**2>=0.000
       7 -> 19        -0.17803
       8 -> 20         0.55759
       9 -> 24        -0.13057
      11 -> 26         0.34212

 Excited State  79:      Singlet-A'    15.4972 eV   80.00 nm  f=0.0131  <S**2>=0.000
       7 -> 20         0.33184
       8 -> 19        -0.22922
       9 -> 23         0.46519
       9 -> 25         0.13057
      10 -> 26        -0.10027
      13 -> 30         0.23077

 Excited State  80:      Singlet-A"    15.5095 eV   79.94 nm  f=0.0819  <S**2>=0.000
       7 -> 19         0.22600
       8 -> 20        -0.16113
       9 -> 24         0.26403
      11 -> 26         0.55575
      13 -> 31         0.11689

 Excited State  81:      Singlet-A'    15.5523 eV   79.72 nm  f=0.0116  <S**2>=0.000
       7 -> 20         0.24590
       8 -> 19         0.27820
      10 -> 26         0.12447
      11 -> 27        -0.22627
      12 -> 29         0.38295
      12 -> 31        -0.12173
      13 -> 30         0.27930

 Excited State  82:      Singlet-A'    15.6580 eV   79.18 nm  f=0.0204  <S**2>=0.000
       7 -> 20        -0.16737
       7 -> 21         0.10914
      10 -> 26         0.36500
      11 -> 27         0.25758
      12 -> 29        -0.11465
      13 -> 30         0.43462

 Excited State  83:      Singlet-A"    15.6940 eV   79.00 nm  f=0.0177  <S**2>=0.000
       8 -> 20         0.10261
       8 -> 21        -0.25113
       9 -> 24         0.55381
      10 -> 27        -0.22579
      12 -> 30         0.19362

 Excited State  84:      Singlet-A'    15.7111 eV   78.92 nm  f=0.1833  <S**2>=0.000
       7 -> 21         0.11797
       8 -> 19         0.13447
       9 -> 23         0.18477
       9 -> 25         0.11793
      10 -> 26         0.42815
      11 -> 27        -0.11129
      12 -> 31        -0.26844
      13 -> 30        -0.31415

 Excited State  85:      Singlet-A"    15.7325 eV   78.81 nm  f=0.0003  <S**2>=0.000
       9 -> 24        -0.10501
      12 -> 30         0.53923
      13 -> 31         0.44231

 Excited State  86:      Singlet-A"    15.7611 eV   78.66 nm  f=0.0238  <S**2>=0.000
       8 -> 20         0.10549
       8 -> 21        -0.31075
      12 -> 30        -0.38254
      13 -> 31         0.47725

 Excited State  87:      Singlet-A'    15.7627 eV   78.66 nm  f=0.1184  <S**2>=0.000
       7 -> 20         0.12067
       9 -> 25        -0.26287
      11 -> 27         0.53748
      12 -> 29         0.13226
      12 -> 31        -0.24523
      13 -> 30        -0.14194

 Excited State  88:      Singlet-A"    15.8102 eV   78.42 nm  f=0.0140  <S**2>=0.000
       8 -> 21        -0.12508
       9 -> 24         0.14589
      10 -> 27         0.65924
      13 -> 31        -0.10138

 Excited State  89:      Singlet-A'    15.8926 eV   78.01 nm  f=0.0135  <S**2>=0.000
       7 -> 21         0.63844
       8 -> 22         0.10182
      12 -> 31         0.14511

 Excited State  90:      Singlet-A'    15.9554 eV   77.71 nm  f=0.2798  <S**2>=0.000
       7 -> 20         0.11401
       7 -> 21        -0.19960
       8 -> 19         0.11902
      10 -> 26         0.15066
      11 -> 27         0.10524
      12 -> 31         0.53269
      13 -> 30        -0.18010
      13 -> 34         0.10029

 Excited State  91:      Singlet-A"    16.0154 eV   77.42 nm  f=0.2446  <S**2>=0.000
       8 -> 20         0.15521
       8 -> 21         0.54278
       9 -> 24         0.22284
      11 -> 26        -0.11817
      12 -> 34         0.10677
      13 -> 31         0.16260

 Excited State  92:      Singlet-A'    16.0310 eV   77.34 nm  f=0.1233  <S**2>=0.000
       6 -> 14         0.50052
       9 -> 25         0.44788
      11 -> 27         0.15076

 Excited State  93:      Singlet-A"    16.1841 eV   76.61 nm  f=0.0026  <S**2>=0.000
       7 -> 22         0.69677

 Excited State  94:      Singlet-A'    16.2157 eV   76.46 nm  f=0.0961  <S**2>=0.000
       6 -> 14        -0.14256
       8 -> 22         0.62249
       9 -> 25         0.21124
      10 -> 28         0.13520

 Excited State  95:      Singlet-A"    16.2944 eV   76.09 nm  f=0.0138  <S**2>=0.000
      11 -> 28         0.70210

 Excited State  96:      Singlet-A'    16.3824 eV   75.68 nm  f=0.0735  <S**2>=0.000
       7 -> 23         0.19862
       9 -> 25        -0.12162
      10 -> 28         0.62569
      12 -> 32         0.11249

 Excited State  97:      Singlet-A'    16.4496 eV   75.37 nm  f=0.0272  <S**2>=0.000
       6 -> 14         0.40714
       8 -> 22         0.25708
       9 -> 23         0.10933
       9 -> 25        -0.29505
      10 -> 28        -0.12137
      11 -> 27        -0.11659
      12 -> 29        -0.11333
      12 -> 32        -0.11380
      12 -> 33         0.10432
      12 -> 39         0.10620

 Excited State  98:      Singlet-A"    16.5872 eV   74.75 nm  f=0.0024  <S**2>=0.000
       8 -> 23         0.18945
      13 -> 32         0.66960

 Excited State  99:      Singlet-A"    16.6530 eV   74.45 nm  f=0.0036  <S**2>=0.000
       8 -> 23         0.67352
      13 -> 32        -0.16845

 Excited State 100:      Singlet-A'    16.7199 eV   74.15 nm  f=0.0900  <S**2>=0.000
       6 -> 15         0.20908
       7 -> 23        -0.25560
      12 -> 32         0.59177

 Excited State 101:      Singlet-A"    16.7416 eV   74.06 nm  f=0.0010  <S**2>=0.000
      13 -> 33         0.69871

 Excited State 102:      Singlet-A'    16.8149 eV   73.73 nm  f=0.0003  <S**2>=0.000
       7 -> 23         0.50079
       8 -> 24         0.31372
      12 -> 32         0.15220
      13 -> 34        -0.18424
      13 -> 36        -0.14545

 Excited State 103:      Singlet-A'    16.8405 eV   73.62 nm  f=0.0222  <S**2>=0.000
       6 -> 15        -0.13207
       9 -> 26         0.63180
      12 -> 33         0.25470

 Excited State 104:      Singlet-A"    16.9074 eV   73.33 nm  f=0.0019  <S**2>=0.000
       7 -> 24         0.68192
       8 -> 25         0.13390

 Excited State 105:      Singlet-A'    16.9158 eV   73.29 nm  f=0.0044  <S**2>=0.000
       9 -> 26        -0.22336
      12 -> 33         0.60170
      13 -> 34        -0.20842

 Excited State 106:      Singlet-A"    16.9517 eV   73.14 nm  f=0.0085  <S**2>=0.000
      11 -> 29         0.62344
      12 -> 34        -0.29225
      13 -> 35         0.10737

 Excited State 107:      Singlet-A'    16.9806 eV   73.02 nm  f=0.0004  <S**2>=0.000
       6 -> 15         0.43104
       7 -> 23         0.13419
       8 -> 24        -0.41776
      10 -> 29         0.13927
      12 -> 33         0.10963
      13 -> 34         0.19739

 Excited State 108:      Singlet-A"    17.0469 eV   72.73 nm  f=0.0052  <S**2>=0.000
       8 -> 25        -0.13555
       9 -> 27        -0.38445
      11 -> 29         0.26158
      12 -> 34         0.49875

 Excited State 109:      Singlet-A'    17.0519 eV   72.71 nm  f=0.0305  <S**2>=0.000
       6 -> 15        -0.33571
       7 -> 25        -0.12324

 The electronic state is 1-A'.
 Alpha  occ. eigenvalues --  -24.40584 -10.07660 -10.00572  -1.09483  -0.70520
 Alpha  occ. eigenvalues --   -0.57687  -0.45254  -0.45242  -0.40669  -0.35967
 Alpha  occ. eigenvalues --   -0.35673  -0.29540  -0.29148
 Alpha virt. eigenvalues --    0.01281   0.04173   0.06039   0.06792   0.08858
 Alpha virt. eigenvalues --    0.11067   0.11158   0.13083   0.14219   0.15911
 Alpha virt. eigenvalues --    0.16812   0.17876   0.21219   0.22219   0.24178

 Mulliken charges:
               1
     1  C    0.141919
     2  C    0.497450
     3  F   -0.476356
     4  H    0.022253
     5  H    0.016942
     6  H    0.016942
     7  H   -0.109575
     8  H   -0.109575
 Sum of Mulliken charges =  -0.00000

 Dipole moment (field-independent basis, Debye):
    X=             -1.7790    Y=              0.6960    Z=              0.0000  Tot=              1.9103
 Quadrupole moment (field-independent basis, Debye-Ang):
   XX=            -20.9874   YY=            -18.4160   ZZ=            -18.4124
   XY=              0.2822   XZ=              0.0000   YZ=              0.0000

 Normal termination of Gaussian 16 at Mon Mar 21 20:28:49 2022.
