 Gaussian 16, Revision C.01,
 Gaussian 16:  EM64L-G16RevC.01  3-Jul-2019

 ----------------------------------------------------------------------
 #P TD(Nstates=10000) tpsstpss/Gen SCF(maxcycles=100) Int(Grid=ultrafin
 e)
 ----------------------------------------------------------------------

 ---------------------
 xGDB7_00001_tier4.com
 ---------------------
 Symbolic Z-matrix:
 Charge =  0 Multiplicity = 1

                         Standard orientation:
 ---------------------------------------------------------------------
 Center     Atomic      Atomic             Coordinates (Angstroms)
 Number     Number       Type             X           Y           Z
 ---------------------------------------------------------------------
      1          6           0        0.000000    1.267731   -0.259082
      2          6           0       -0.000000   -0.000000    0.585552
      3          6           0       -0.000000   -1.267731   -0.259082
      4          1           0        0.000000    2.164308    0.363087
      5          1           0       -0.881453    1.307675   -0.903652
      6          1           0        0.881453    1.307675   -0.903652
      7          1           0       -0.874532    0.000000    1.242055
      8          1           0        0.874532   -0.000000    1.242055
      9          1           0       -0.881453   -1.307675   -0.903652
     10          1           0       -0.000000   -2.164308    0.363087
     11          1           0        0.881453   -1.307675   -0.903652
 ---------------------------------------------------------------------

 SCF Done:  E(RTPSS-TPSS) =  -119.083627667     A.U. after   12 cycles

 Excitation energies and oscillator strengths:

 Excited State   1:      Singlet-B1     8.3824 eV  147.91 nm  f=0.0032  <S**2>=0.000
      13 -> 14         0.70693
 This state for optimization and/or second-order correction.
 Total Energy, E(TD-HF/TD-DFT) =  -118.775579019
 Copying the excited state density for this state as the 1-particle RhoCI density.

 Excited State   2:      Singlet-B2     8.6534 eV  143.28 nm  f=0.0450  <S**2>=0.000
      11 -> 14         0.70631

 Excited State   3:      Singlet-A1     8.6813 eV  142.82 nm  f=0.0062  <S**2>=0.000
      12 -> 14         0.70353

 Excited State   4:      Singlet-A2     9.1556 eV  135.42 nm  f=0.0000  <S**2>=0.000
      13 -> 15         0.70672

 Excited State   5:      Singlet-B1     9.3814 eV  132.16 nm  f=0.0817  <S**2>=0.000
      13 -> 16         0.70609

 Excited State   6:      Singlet-B2     9.3943 eV  131.98 nm  f=0.0213  <S**2>=0.000
      12 -> 15         0.70590

 Excited State   7:      Singlet-A1     9.4663 eV  130.97 nm  f=0.0015  <S**2>=0.000
      11 -> 15         0.70176

 Excited State   8:      Singlet-A1     9.5990 eV  129.16 nm  f=0.0878  <S**2>=0.000
      12 -> 16         0.68871
      13 -> 17        -0.15545

 Excited State   9:      Singlet-B2     9.6235 eV  128.83 nm  f=0.0111  <S**2>=0.000
      11 -> 16         0.70506

 Excited State  10:      Singlet-A2     9.7580 eV  127.06 nm  f=0.0000  <S**2>=0.000
      10 -> 14         0.70678

 Excited State  11:      Singlet-A1    10.0076 eV  123.89 nm  f=0.1729  <S**2>=0.000
      12 -> 16         0.15053
      13 -> 17         0.68340

 Excited State  12:      Singlet-A2    10.1430 eV  122.24 nm  f=0.0000  <S**2>=0.000
      11 -> 17         0.70611

 Excited State  13:      Singlet-B1    10.1567 eV  122.07 nm  f=0.0792  <S**2>=0.000
      12 -> 17         0.69805

 Excited State  14:      Singlet-B2    10.2684 eV  120.74 nm  f=0.0146  <S**2>=0.000
       9 -> 14         0.70114

 Excited State  15:      Singlet-B1    10.3417 eV  119.89 nm  f=0.0029  <S**2>=0.000
      13 -> 18         0.70165

 Excited State  16:      Singlet-B1    10.5624 eV  117.38 nm  f=0.0818  <S**2>=0.000
      10 -> 15         0.70168

 Excited State  17:      Singlet-A1    10.6450 eV  116.47 nm  f=0.0012  <S**2>=0.000
      12 -> 18         0.70115

 Excited State  18:      Singlet-B2    10.6551 eV  116.36 nm  f=0.1869  <S**2>=0.000
      11 -> 18         0.69565

 Excited State  19:      Singlet-A2    10.7186 eV  115.67 nm  f=0.0000  <S**2>=0.000
      10 -> 16         0.70650

 Excited State  20:      Singlet-A1    10.9743 eV  112.98 nm  f=0.0119  <S**2>=0.000
       8 -> 14        -0.14119
       9 -> 15         0.34416
      13 -> 19         0.58769

 Excited State  21:      Singlet-A1    11.0563 eV  112.14 nm  f=0.0751  <S**2>=0.000
       9 -> 15         0.61304
      13 -> 19        -0.33181

 Excited State  22:      Singlet-B1    11.0786 eV  111.91 nm  f=0.0081  <S**2>=0.000
      12 -> 19         0.65757
      13 -> 20         0.25027

 Excited State  23:      Singlet-A2    11.0977 eV  111.72 nm  f=0.0000  <S**2>=0.000
      11 -> 19         0.63861
      13 -> 21        -0.29853

 Excited State  24:      Singlet-B1    11.1461 eV  111.24 nm  f=0.0020  <S**2>=0.000
      12 -> 19        -0.25550
      13 -> 20         0.65401

 Excited State  25:      Singlet-A2    11.1520 eV  111.18 nm  f=0.0000  <S**2>=0.000
      11 -> 19         0.29788
      13 -> 21         0.64011

 Excited State  26:      Singlet-B2    11.1868 eV  110.83 nm  f=0.0107  <S**2>=0.000
       9 -> 16         0.65745
      10 -> 17        -0.24985

 Excited State  27:      Singlet-A1    11.2712 eV  110.00 nm  f=0.0371  <S**2>=0.000
       8 -> 14         0.67316
      11 -> 21        -0.14190
      13 -> 19         0.12943

 Excited State  28:      Singlet-B2    11.2970 eV  109.75 nm  f=0.0017  <S**2>=0.000
       9 -> 16         0.16911
      10 -> 17         0.52083
      11 -> 20         0.16465
      12 -> 21        -0.40561

 Excited State  29:      Singlet-B2    11.3753 eV  108.99 nm  f=0.0321  <S**2>=0.000
      10 -> 17        -0.23213
      11 -> 20         0.65033

 Excited State  30:      Singlet-B2    11.4248 eV  108.52 nm  f=0.0948  <S**2>=0.000
       9 -> 16         0.12755
      10 -> 17         0.26692
      11 -> 20         0.18866
      12 -> 21         0.53230
      13 -> 22         0.29291

 Excited State  31:      Singlet-A1    11.4483 eV  108.30 nm  f=0.0000  <S**2>=0.000
      11 -> 21         0.26248
      12 -> 20         0.63478
      13 -> 19         0.10101

 Excited State  32:      Singlet-A1    11.4891 eV  107.91 nm  f=0.0584  <S**2>=0.000
       8 -> 14         0.12534
      11 -> 21         0.63113
      12 -> 20        -0.26649

 Excited State  33:      Singlet-B2    11.6533 eV  106.39 nm  f=0.1636  <S**2>=0.000
      10 -> 17        -0.16117
      12 -> 21        -0.18566
      13 -> 22         0.62260

 Excited State  34:      Singlet-A2    11.6953 eV  106.01 nm  f=0.0000  <S**2>=0.000
       9 -> 17         0.59830
      10 -> 18         0.33679
      12 -> 22        -0.16270

 Excited State  35:      Singlet-A2    11.7286 eV  105.71 nm  f=0.0000  <S**2>=0.000
       9 -> 17        -0.36727
      10 -> 18         0.45924
      12 -> 22        -0.38521

 Excited State  36:      Singlet-B1    11.8055 eV  105.02 nm  f=0.0339  <S**2>=0.000
       7 -> 14         0.46064
      11 -> 22         0.53286

 Excited State  37:      Singlet-A2    11.8176 eV  104.92 nm  f=0.0000  <S**2>=0.000
      10 -> 18         0.38380
      12 -> 22         0.56014
      12 -> 23        -0.15986

 Excited State  38:      Singlet-B1    11.8287 eV  104.82 nm  f=0.0993  <S**2>=0.000
       7 -> 14         0.52446
      11 -> 22        -0.45532

 Excited State  39:      Singlet-B2    11.9628 eV  103.64 nm  f=0.0041  <S**2>=0.000
       8 -> 15         0.26833
      13 -> 23         0.63369

 Excited State  40:      Singlet-B2    12.0618 eV  102.79 nm  f=0.1491  <S**2>=0.000
       8 -> 15         0.61689
       9 -> 18         0.14882
      13 -> 23        -0.27000

 Excited State  41:      Singlet-B1    12.1066 eV  102.41 nm  f=0.0258  <S**2>=0.000
      11 -> 23         0.48953
      13 -> 24         0.50014

 Excited State  42:      Singlet-B1    12.1285 eV  102.23 nm  f=0.0003  <S**2>=0.000
      11 -> 23         0.50162
      13 -> 24        -0.48861

 Excited State  43:      Singlet-A2    12.1536 eV  102.01 nm  f=0.0000  <S**2>=0.000
      10 -> 18         0.13872
      10 -> 20         0.10880
      12 -> 23         0.66951

 Excited State  44:      Singlet-A1    12.2014 eV  101.62 nm  f=0.0238  <S**2>=0.000
       8 -> 16         0.69645

 Excited State  45:      Singlet-B2    12.2424 eV  101.27 nm  f=0.0622  <S**2>=0.000
       9 -> 18         0.63479
      10 -> 19        -0.27634

 Excited State  46:      Singlet-B2    12.3320 eV  100.54 nm  f=0.0006  <S**2>=0.000
       8 -> 15        -0.12859
       9 -> 18         0.21332
       9 -> 20        -0.13688
      10 -> 19         0.59555
      11 -> 24         0.18869
      12 -> 25         0.10110

 Excited State  47:      Singlet-A2    12.3438 eV  100.44 nm  f=0.0000  <S**2>=0.000
      10 -> 20         0.11919
      13 -> 25         0.69185

 Excited State  48:      Singlet-A1    12.3843 eV  100.11 nm  f=0.0078  <S**2>=0.000
      11 -> 25         0.28471
      12 -> 24         0.63644

 Excited State  49:      Singlet-A2    12.4575 eV   99.53 nm  f=0.0000  <S**2>=0.000
       9 -> 19         0.13337
      10 -> 20         0.67436
      12 -> 23        -0.10419

 Excited State  50:      Singlet-B2    12.4656 eV   99.46 nm  f=0.0135  <S**2>=0.000
      10 -> 19        -0.14306
      11 -> 24         0.67028

 Excited State  51:      Singlet-B1    12.5332 eV   98.92 nm  f=0.0407  <S**2>=0.000
      10 -> 21         0.70039

 Excited State  52:      Singlet-A2    12.5399 eV   98.87 nm  f=0.0000  <S**2>=0.000
       7 -> 15         0.70404

 Excited State  53:      Singlet-B2    12.6226 eV   98.22 nm  f=0.0532  <S**2>=0.000
       9 -> 20         0.10437
      12 -> 25         0.68634

 Excited State  54:      Singlet-A1    12.6728 eV   97.83 nm  f=0.0012  <S**2>=0.000
       8 -> 18        -0.10218
       9 -> 21        -0.16614
      10 -> 22         0.14726
      11 -> 25         0.59739
      12 -> 24        -0.23052
      13 -> 26        -0.12881

 Excited State  55:      Singlet-A2    12.6934 eV   97.68 nm  f=0.0000  <S**2>=0.000
       9 -> 19         0.68935
      10 -> 20        -0.12568

 Excited State  56:      Singlet-B1    12.7277 eV   97.41 nm  f=0.0009  <S**2>=0.000
       7 -> 16         0.24145
       8 -> 17         0.65815

 Excited State  57:      Singlet-B1    12.7419 eV   97.30 nm  f=0.0001  <S**2>=0.000
       7 -> 16         0.66286
       8 -> 17        -0.24243

 Excited State  58:      Singlet-A1    12.9211 eV   95.96 nm  f=0.0012  <S**2>=0.000
       9 -> 21         0.44707
      10 -> 22         0.33251
      13 -> 26        -0.41725

 Excited State  59:      Singlet-A1    13.0180 eV   95.24 nm  f=0.0427  <S**2>=0.000
       8 -> 18        -0.11239
       9 -> 21         0.23526
      10 -> 22         0.35397
      10 -> 23        -0.21963
      13 -> 26         0.48725

 Excited State  60:      Singlet-B2    13.0232 eV   95.20 nm  f=0.0015  <S**2>=0.000
       9 -> 20         0.64639
      11 -> 28        -0.16280
      12 -> 27        -0.17809

 Excited State  61:      Singlet-A2    13.0494 eV   95.01 nm  f=0.0000  <S**2>=0.000
      11 -> 26         0.11978
      13 -> 27         0.68471

 Excited State  62:      Singlet-A1    13.1015 eV   94.63 nm  f=0.0371  <S**2>=0.000
       7 -> 17        -0.26561
       8 -> 18         0.40932
       9 -> 21        -0.35057
      10 -> 22         0.34360

 Excited State  63:      Singlet-B1    13.1084 eV   94.58 nm  f=0.0041  <S**2>=0.000
      12 -> 26         0.63229
      13 -> 28        -0.31108

 Excited State  64:      Singlet-A2    13.1670 eV   94.16 nm  f=0.0000  <S**2>=0.000
      11 -> 26         0.69198
      13 -> 27        -0.10780

 Excited State  65:      Singlet-A1    13.2155 eV   93.82 nm  f=0.0001  <S**2>=0.000
       7 -> 17         0.42913
       8 -> 18         0.43608
      10 -> 23        -0.17241
      11 -> 27         0.23372
      13 -> 29         0.12961

 Excited State  66:      Singlet-B1    13.2994 eV   93.23 nm  f=0.0315  <S**2>=0.000
       9 -> 22        -0.25205
       9 -> 23        -0.11552
      12 -> 26         0.25664
      12 -> 29        -0.22687
      13 -> 28         0.53484

 Excited State  67:      Singlet-B2    13.3207 eV   93.08 nm  f=0.0513  <S**2>=0.000
      11 -> 28        -0.27592
      12 -> 27         0.63371

 Excited State  68:      Singlet-A1    13.3340 eV   92.98 nm  f=0.0029  <S**2>=0.000
       7 -> 17        -0.19689
       8 -> 18        -0.11219
      11 -> 27         0.62324
      12 -> 28        -0.12434
      13 -> 29         0.12906

 Excited State  69:      Singlet-B1    13.4051 eV   92.49 nm  f=0.0412  <S**2>=0.000
       7 -> 18         0.10101
       9 -> 22         0.64457
       9 -> 23        -0.10973
      12 -> 26         0.10851
      13 -> 28         0.15089

 Excited State  70:      Singlet-A1    13.4376 eV   92.27 nm  f=0.0244  <S**2>=0.000
       7 -> 17         0.20046
       8 -> 20         0.10556
      10 -> 22         0.11469
      10 -> 23         0.57578
      13 -> 29        -0.26450

 Excited State  71:      Singlet-A2    13.4794 eV   91.98 nm  f=0.0000  <S**2>=0.000
      10 -> 24         0.70520

 Excited State  72:      Singlet-A1    13.5109 eV   91.77 nm  f=0.0192  <S**2>=0.000
      11 -> 27         0.12302
      12 -> 28         0.65656
      13 -> 29        -0.15416

 Excited State  73:      Singlet-A1    13.6597 eV   90.77 nm  f=0.0798  <S**2>=0.000
       8 -> 20         0.22732
       9 -> 25        -0.13111
      10 -> 23         0.17761
      11 -> 27        -0.11884
      12 -> 28         0.19402
      13 -> 26         0.10499
      13 -> 29         0.55206

 Excited State  74:      Singlet-B2    13.6683 eV   90.71 nm  f=0.0623  <S**2>=0.000
       8 -> 21        -0.12837
       9 -> 20         0.15721
       9 -> 24         0.12210
      11 -> 28         0.58642
      11 -> 31        -0.10216
      12 -> 27         0.19695
      12 -> 30         0.15699

 Excited State  75:      Singlet-A2    13.6713 eV   90.69 nm  f=0.0000  <S**2>=0.000
      11 -> 29         0.70066

 Excited State  76:      Singlet-B1    13.6758 eV   90.66 nm  f=0.0004  <S**2>=0.000
       7 -> 18         0.43484
       8 -> 19        -0.41798
       9 -> 23         0.32069
      10 -> 25        -0.12195
      12 -> 29        -0.12470

 Excited State  77:      Singlet-B1    13.7003 eV   90.50 nm  f=0.0006  <S**2>=0.000
       7 -> 18        -0.13039
       8 -> 19         0.35876
       9 -> 23         0.47349
      10 -> 25        -0.10077
      12 -> 29        -0.33688

 Excited State  78:      Singlet-B1    13.7265 eV   90.32 nm  f=0.0065  <S**2>=0.000
       9 -> 23        -0.10285
      10 -> 25         0.56861
      12 -> 29        -0.37998

 Excited State  79:      Singlet-B1    13.7363 eV   90.26 nm  f=0.0182  <S**2>=0.000
       7 -> 18         0.42050
       8 -> 19         0.36731
       9 -> 23         0.13208
      10 -> 25         0.23923
      12 -> 29         0.32532

 Excited State  80:      Singlet-A1    13.9318 eV   88.99 nm  f=0.0381  <S**2>=0.000
       7 -> 17         0.19691
       7 -> 19        -0.12963
       8 -> 18        -0.15573
       8 -> 20         0.50992
       9 -> 21        -0.14751
       9 -> 25         0.15663
      10 -> 22         0.10316
      10 -> 23        -0.13271
      11 -> 30         0.15162
      13 -> 26        -0.11694

 Excited State  81:      Singlet-B2    13.9967 eV   88.58 nm  f=0.0702  <S**2>=0.000
       8 -> 21        -0.26542
       9 -> 24         0.62456
      11 -> 28        -0.10556
      12 -> 30        -0.10033

 Excited State  82:      Singlet-B2    14.0933 eV   87.97 nm  f=0.0446  <S**2>=0.000
       8 -> 21         0.59151
       9 -> 24         0.26611
      10 -> 26         0.23689

 Excited State  83:      Singlet-B1    14.1184 eV   87.82 nm  f=0.1560  <S**2>=0.000
       7 -> 18         0.23854
       7 -> 20         0.20583
       8 -> 19         0.14565
       9 -> 23        -0.25138
      10 -> 25        -0.23845
      10 -> 27         0.40582
      12 -> 29        -0.18916
      13 -> 28        -0.18667

 Excited State  84:      Singlet-A1    14.2222 eV   87.18 nm  f=0.0216  <S**2>=0.000
       7 -> 19         0.19552
       9 -> 25         0.64116
      11 -> 30        -0.13703
      13 -> 29         0.10101

 Excited State  85:      Singlet-A2    14.2893 eV   86.77 nm  f=0.0000  <S**2>=0.000
       8 -> 22         0.16460
      13 -> 30         0.68282

 Excited State  86:      Singlet-A1    14.3334 eV   86.50 nm  f=0.1268  <S**2>=0.000
       6 -> 14        -0.11579
       7 -> 17        -0.20295
       7 -> 19         0.41013
       8 -> 18         0.13338
       8 -> 20         0.34819
       9 -> 21         0.15125
      10 -> 22        -0.19774
      11 -> 25         0.10819

 Excited State  87:      Singlet-A2    14.3962 eV   86.12 nm  f=0.0000  <S**2>=0.000
       8 -> 22         0.68562
      13 -> 30        -0.16398

 Excited State  88:      Singlet-B2    14.3976 eV   86.11 nm  f=0.0825  <S**2>=0.000
       8 -> 21        -0.19612
      10 -> 26         0.64516
      10 -> 29        -0.11538

 Excited State  89:      Singlet-A1    14.4388 eV   85.87 nm  f=0.0495  <S**2>=0.000
       6 -> 16        -0.12172
       7 -> 17         0.19882
       7 -> 19         0.48817
       8 -> 18        -0.15949
       8 -> 20        -0.14497
       9 -> 21        -0.14516
       9 -> 25        -0.16580
      10 -> 22         0.11995
      11 -> 25        -0.11300
      12 -> 24         0.10426
      12 -> 31         0.11027
      13 -> 26        -0.10098

 Excited State  90:      Singlet-B1    14.5049 eV   85.48 nm  f=0.0117  <S**2>=0.000
       7 -> 20         0.58771
      10 -> 27        -0.37904

 Excited State  91:      Singlet-A2    14.5162 eV   85.41 nm  f=0.0000  <S**2>=0.000
       7 -> 21         0.68936
       8 -> 23         0.11296

 Excited State  92:      Singlet-B2    14.5817 eV   85.03 nm  f=0.0359  <S**2>=0.000
       7 -> 22        -0.12123
      10 -> 29        -0.10602
      11 -> 31         0.27289
      12 -> 30         0.61391

 Excited State  93:      Singlet-A2    14.5940 eV   84.96 nm  f=0.0000  <S**2>=0.000
       7 -> 21        -0.13646
       8 -> 23         0.20932
       9 -> 26        -0.30478
      10 -> 28         0.58086

 Excited State  94:      Singlet-A1    14.6907 eV   84.40 nm  f=0.0419  <S**2>=0.000
       6 -> 14        -0.14162
       8 -> 24        -0.23069
       9 -> 27         0.22379
      11 -> 30         0.57807
      12 -> 31        -0.11326

 Excited State  95:      Singlet-B1    14.6953 eV   84.37 nm  f=0.0851  <S**2>=0.000
      10 -> 27        -0.10707
      13 -> 31         0.69363

 Excited State  96:      Singlet-A2    14.7490 eV   84.06 nm  f=0.0000  <S**2>=0.000
       8 -> 23         0.58948
       9 -> 26         0.37967

 Excited State  97:      Singlet-B1    14.8162 eV   83.68 nm  f=0.5638  <S**2>=0.000
       7 -> 18        -0.15720
       7 -> 20         0.31526
       7 -> 24        -0.13009
       8 -> 19        -0.13361
       9 -> 23         0.20093
      10 -> 25         0.12294
      10 -> 27         0.40031
      12 -> 29         0.12780
      12 -> 36         0.10274
      13 -> 28         0.15027
      13 -> 31         0.12148

 Excited State  98:      Singlet-B2    14.8458 eV   83.51 nm  f=0.0334  <S**2>=0.000
       7 -> 23         0.10457
      10 -> 26         0.10174
      10 -> 29         0.62768
      11 -> 31         0.25313

 Excited State  99:      Singlet-A2    14.8731 eV   83.36 nm  f=0.0000  <S**2>=0.000
       8 -> 23        -0.28544
       9 -> 26         0.49214
       9 -> 29        -0.18694
      10 -> 28         0.34431

 Excited State 100:      Singlet-A1    14.9060 eV   83.18 nm  f=0.0573  <S**2>=0.000
       6 -> 14         0.30249
       8 -> 24         0.25276
       9 -> 27         0.53861
      12 -> 31         0.18810

 Excited State 101:      Singlet-A1    14.9803 eV   82.76 nm  f=0.0635  <S**2>=0.000
       6 -> 14         0.51066
       8 -> 24        -0.46038

 Excited State 102:      Singlet-B2    15.0018 eV   82.65 nm  f=0.0618  <S**2>=0.000
       7 -> 22         0.61566
       8 -> 25        -0.24485
       9 -> 28         0.11196
      10 -> 29        -0.10995
      11 -> 31         0.16455

 Excited State 103:      Singlet-A1    15.0460 eV   82.40 nm  f=0.0986  <S**2>=0.000
       6 -> 14        -0.17925
       7 -> 19        -0.10549
       8 -> 24        -0.20745
      12 -> 31         0.62674

 Excited State 104:      Singlet-B2    15.0634 eV   82.31 nm  f=0.0055  <S**2>=0.000
       7 -> 23         0.11479
       8 -> 25         0.21215
       9 -> 28         0.65078

 Excited State 105:      Singlet-A2    15.2959 eV   81.06 nm  f=0.0000  <S**2>=0.000
       7 -> 25         0.11412
       9 -> 29         0.67027
      10 -> 28         0.11139

 Excited State 106:      Singlet-B2    15.3021 eV   81.02 nm  f=0.0022  <S**2>=0.000
       6 -> 15        -0.11811
       7 -> 22        -0.16594
       7 -> 23         0.48451
       8 -> 25        -0.37512
      11 -> 31         0.19946

 Excited State 107:      Singlet-B2    15.3440 eV   80.80 nm  f=0.3233  <S**2>=0.000
       7 -> 22         0.10508
       7 -> 23         0.19547
       8 -> 25         0.45950
       9 -> 28        -0.23476
      10 -> 29        -0.20236
      11 -> 31         0.31698

 Excited State 108:      Singlet-B2    15.4830 eV   80.08 nm  f=0.2895  <S**2>=0.000
       6 -> 15         0.34184
       7 -> 22         0.12387
       7 -> 23         0.40446
       8 -> 25         0.10537
      11 -> 31        -0.31632
      12 -> 30         0.16052
      13 -> 34        -0.14224

 Excited State 109:      Singlet-A1    15.4832 eV   80.08 nm  f=0.3504  <S**2>=0.000
       6 -> 14        -0.24654
       7 -> 26        -0.10570
       8 -> 24        -0.31799
       9 -> 27         0.31845
      11 -> 30        -0.28061
      11 -> 32         0.11136
      12 -> 31        -0.16048
      12 -> 33        -0.14829
      13 -> 36        -0.10226

 Excited State 110:      Singlet-B1    15.5203 eV   79.89 nm  f=0.0351  <S**2>=0.000
       7 -> 24         0.67244
      10 -> 30         0.16204

 Excited State 111:      Singlet-B1    15.6821 eV   79.06 nm  f=0.0129  <S**2>=0.000
       7 -> 24        -0.15246
      10 -> 30         0.68456

 Excited State 112:      Singlet-A2    15.7589 eV   78.68 nm  f=0.0000  <S**2>=0.000
       7 -> 25         0.67947
      13 -> 32         0.12411

 Excited State 113:      Singlet-B1    15.7638 eV   78.65 nm  f=0.0555  <S**2>=0.000
       8 -> 26         0.67692
      13 -> 33        -0.15824

 Excited State 114:      Singlet-B2    15.7765 eV   78.59 nm  f=0.0010  <S**2>=0.000
       6 -> 15         0.54880
       8 -> 27        -0.29106
      11 -> 31         0.11957
      12 -> 32         0.11074
      13 -> 34         0.20042

 Excited State 115:      Singlet-B2    15.8761 eV   78.09 nm  f=0.0055  <S**2>=0.000
       6 -> 15         0.13966
       8 -> 27         0.59876
      13 -> 34         0.31642

 Excited State 116:      Singlet-A2    15.9825 eV   77.57 nm  f=0.0000  <S**2>=0.000
       7 -> 25        -0.10322

 The electronic state is 1-A1.
 Alpha  occ. eigenvalues --   -9.99502  -9.98918  -9.98917  -0.71793  -0.62228
 Alpha  occ. eigenvalues --   -0.53154  -0.41633  -0.39646  -0.35964  -0.34285
 Alpha  occ. eigenvalues --   -0.30141  -0.30061  -0.29245
 Alpha virt. eigenvalues --    0.01515   0.04376   0.05086   0.07065   0.08770
 Alpha virt. eigenvalues --    0.10714   0.11620   0.11733   0.13259   0.14478
 Alpha virt. eigenvalues --    0.15340   0.16191   0.18274   0.18697   0.19330

 Mulliken charges:
               1
     1  C    0.347653
     2  C   -0.546485
     3  C    0.347653
     4  H   -0.025690
     5  H    0.005518
     6  H    0.005518
     7  H   -0.059756
     8  H   -0.059756
     9  H    0.005518
    10  H   -0.025690
    11  H    0.005518
 Sum of Mulliken charges =   0.00000

 Dipole moment (field-independent basis, Debye):
    X=              0.0000    Y=             -0.0000    Z=              0.0940  Tot=              0.0940
 Quadrupole moment (field-independent basis, Debye-Ang):
   XX=            -21.5447   YY=            -22.4201   ZZ=            -22.0334
   XY=             -0.0000   XZ=             -0.0000   YZ=             -0.0000

 Normal termination of Gaussian 16 at Mon Mar 21 20:22:41 2022.
