 Gaussian 16, Revision C.01,
 Gaussian 16:  EM64L-G16RevC.01  3-Jul-2019

 ----------------------------------------------------------------------
 #P TD(Nstates=10000) tpsstpss/Gen SCF(maxcycles=100) Int(Grid=ultrafin
 e)
 ----------------------------------------------------------------------

 ---------------------
 xGDB7_00001_tier4.com
 ---------------------
 Symbolic Z-matrix:
 Charge =  0 Multiplicity = 1

                         Standard orientation:
 ---------------------------------------------------------------------
 Center     Atomic      Atomic             Coordinates (Angstroms)
 Number     Number       Type             X           Y           Z
 ---------------------------------------------------------------------
      1          7           0        1.111035   -0.177046   -0.052467
      2          6           0       -0.122009    0.419593    0.001774
      3          7           0       -1.267607   -0.121443    0.008098
      4          1           0        1.920558    0.367802    0.180104
      5          1           0        1.180700   -1.165617    0.115308
      6          1           0       -0.065701    1.508813    0.004046
      7          1           0       -1.207497   -1.139126    0.000481
 ---------------------------------------------------------------------

 SCF Done:  E(RTPSS-TPSS) =  -149.928727881     A.U. after   13 cycles

 Excitation energies and oscillator strengths:

 Excited State   1:      Singlet-A      6.0303 eV  205.60 nm  f=0.0036  <S**2>=0.000
      11 -> 13        -0.14112
      12 -> 13         0.34341
      12 -> 14         0.60104
 This state for optimization and/or second-order correction.
 Total Energy, E(TD-HF/TD-DFT) =  -149.707117852
 Copying the excited state density for this state as the 1-particle RhoCI density.

 Excited State   2:      Singlet-A      6.2219 eV  199.27 nm  f=0.0030  <S**2>=0.000
      11 -> 13         0.56316
      11 -> 14         0.26049
      12 -> 13        -0.21369
      12 -> 14         0.25955

 Excited State   3:      Singlet-A      6.3988 eV  193.76 nm  f=0.0189  <S**2>=0.000
      11 -> 13        -0.27343
      11 -> 14         0.64817

 Excited State   4:      Singlet-A      6.8573 eV  180.81 nm  f=0.0083  <S**2>=0.000
      12 -> 15         0.69386

 Excited State   5:      Singlet-A      7.1451 eV  173.52 nm  f=0.1205  <S**2>=0.000
      11 -> 13         0.17642
      11 -> 15         0.52513
      12 -> 13         0.35663
      12 -> 14        -0.16557
      12 -> 15        -0.11905

 Excited State   6:      Singlet-A      7.2575 eV  170.84 nm  f=0.2079  <S**2>=0.000
      11 -> 13        -0.20579
      11 -> 15         0.45993
      11 -> 16         0.15934
      12 -> 13        -0.37889
      12 -> 14         0.16651
      12 -> 16        -0.15143

 Excited State   7:      Singlet-A      7.5199 eV  164.87 nm  f=0.0360  <S**2>=0.000
      11 -> 16         0.10618
      12 -> 13        -0.10455
      12 -> 16         0.68302

 Excited State   8:      Singlet-A      7.8127 eV  158.70 nm  f=0.0408  <S**2>=0.000
      11 -> 16         0.67767
      12 -> 13         0.13014

 Excited State   9:      Singlet-A      8.5883 eV  144.36 nm  f=0.0061  <S**2>=0.000
      12 -> 17         0.70420

 Excited State  10:      Singlet-A      8.8521 eV  140.06 nm  f=0.0141  <S**2>=0.000
      11 -> 17         0.70511

 Excited State  11:      Singlet-A      9.0766 eV  136.60 nm  f=0.0006  <S**2>=0.000
      12 -> 18         0.70006

 Excited State  12:      Singlet-A      9.4065 eV  131.81 nm  f=0.0495  <S**2>=0.000
      10 -> 13         0.24989
      10 -> 14         0.64839
      11 -> 18        -0.10467

 Excited State  13:      Singlet-A      9.4479 eV  131.23 nm  f=0.0046  <S**2>=0.000
      11 -> 18         0.68855

 Excited State  14:      Singlet-A      9.8387 eV  126.02 nm  f=0.0193  <S**2>=0.000
      11 -> 19        -0.10246
      11 -> 20         0.10220
      12 -> 19         0.64493
      12 -> 20         0.19619
      12 -> 21         0.10207

 Excited State  15:      Singlet-A      9.9417 eV  124.71 nm  f=0.0080  <S**2>=0.000
       9 -> 13         0.11103
      10 -> 13        -0.11143
      11 -> 19        -0.11501
      12 -> 19        -0.17195
      12 -> 20         0.64503

 Excited State  16:      Singlet-A     10.0222 eV  123.71 nm  f=0.0063  <S**2>=0.000
      11 -> 19         0.67053
      12 -> 20         0.16033

 Excited State  17:      Singlet-A     10.1065 eV  122.68 nm  f=0.0014  <S**2>=0.000
       9 -> 13         0.63653
      10 -> 15         0.26717
      12 -> 20        -0.10419

 Excited State  18:      Singlet-A     10.1843 eV  121.74 nm  f=0.0087  <S**2>=0.000
       9 -> 13        -0.14452
       9 -> 14        -0.25785
      10 -> 13         0.27711
      10 -> 14        -0.11364
      10 -> 15         0.52473
      11 -> 19        -0.11629
      12 -> 19        -0.11703

 Excited State  19:      Singlet-A     10.2365 eV  121.12 nm  f=0.0224  <S**2>=0.000
      11 -> 20         0.68510
      12 -> 19        -0.10058

 Excited State  20:      Singlet-A     10.2988 eV  120.39 nm  f=0.0097  <S**2>=0.000
       9 -> 13        -0.21763
       9 -> 14         0.44352
      10 -> 13        -0.25888
      10 -> 14         0.10932
      10 -> 15         0.36854
      12 -> 21        -0.10335

 Excited State  21:      Singlet-A     10.4751 eV  118.36 nm  f=0.0598  <S**2>=0.000
       9 -> 14         0.46127
      10 -> 13         0.37997
      10 -> 14        -0.14850
      12 -> 21         0.26872

 Excited State  22:      Singlet-A     10.7313 eV  115.53 nm  f=0.0594  <S**2>=0.000
      10 -> 13        -0.17819
      10 -> 16        -0.22044
      11 -> 21        -0.41534
      12 -> 21         0.45651

 Excited State  23:      Singlet-A     10.8441 eV  114.33 nm  f=0.0124  <S**2>=0.000
      10 -> 16         0.55012
      11 -> 21        -0.41678
      12 -> 21        -0.10602

 Excited State  24:      Singlet-A     10.8742 eV  114.02 nm  f=0.0809  <S**2>=0.000
      10 -> 13        -0.19465
      10 -> 16         0.36397
      11 -> 21         0.35732
      12 -> 21         0.36110
      12 -> 22         0.15236

 Excited State  25:      Singlet-A     11.0309 eV  112.40 nm  f=0.0050  <S**2>=0.000
       9 -> 15         0.10273
      12 -> 22         0.67040
      12 -> 23         0.12663

 Excited State  26:      Singlet-A     11.2195 eV  110.51 nm  f=0.0675  <S**2>=0.000
       9 -> 15         0.57673
      11 -> 22        -0.36290

 Excited State  27:      Singlet-A     11.2949 eV  109.77 nm  f=0.0691  <S**2>=0.000
       9 -> 15        -0.11798
      12 -> 22        -0.10285
      12 -> 23         0.67768

 Excited State  28:      Singlet-A     11.3709 eV  109.04 nm  f=0.1452  <S**2>=0.000
       9 -> 15         0.35588
      11 -> 22         0.52643
      11 -> 23         0.24597

 Excited State  29:      Singlet-A     11.5785 eV  107.08 nm  f=0.0694  <S**2>=0.000
       9 -> 16        -0.14410
      11 -> 22        -0.21290
      11 -> 23         0.61567
      12 -> 24         0.20840

 Excited State  30:      Singlet-A     11.8130 eV  104.96 nm  f=0.0371  <S**2>=0.000
       9 -> 16         0.62362
      12 -> 24         0.32370

 Excited State  31:      Singlet-A     11.9218 eV  104.00 nm  f=0.0046  <S**2>=0.000
      10 -> 17         0.70420

 Excited State  32:      Singlet-A     12.0621 eV  102.79 nm  f=0.0338  <S**2>=0.000
       9 -> 16         0.16298
      11 -> 23         0.11018
      11 -> 24         0.59262
      12 -> 24        -0.30034

 Excited State  33:      Singlet-A     12.1347 eV  102.17 nm  f=0.0473  <S**2>=0.000
       9 -> 16        -0.22405
      10 -> 19         0.13461
      11 -> 22         0.12821
      11 -> 23        -0.14902
      11 -> 24         0.37910
      12 -> 24         0.47132

 Excited State  34:      Singlet-A     12.4968 eV   99.21 nm  f=0.0489  <S**2>=0.000
      10 -> 18         0.67261
      12 -> 25         0.16379

 Excited State  35:      Singlet-A     12.6139 eV   98.29 nm  f=0.0456  <S**2>=0.000
      10 -> 18        -0.16453
      12 -> 25         0.67018

 Excited State  36:      Singlet-A     12.7463 eV   97.27 nm  f=0.0050  <S**2>=0.000
       8 -> 13         0.67527
      11 -> 25         0.12856

 Excited State  37:      Singlet-A     12.8630 eV   96.39 nm  f=0.0512  <S**2>=0.000
       9 -> 17         0.55517
      12 -> 26        -0.40732

 Excited State  38:      Singlet-A     12.8934 eV   96.16 nm  f=0.0508  <S**2>=0.000
       8 -> 13        -0.10260
       8 -> 14         0.10823
       9 -> 17         0.34475
      10 -> 19         0.10702
      11 -> 25         0.26643
      12 -> 26         0.50210

 Excited State  39:      Singlet-A     12.9787 eV   95.53 nm  f=0.0629  <S**2>=0.000
       8 -> 14         0.49578
       9 -> 17        -0.15806
      11 -> 25         0.41310
      12 -> 26        -0.20654

 Excited State  40:      Singlet-A     13.0298 eV   95.15 nm  f=0.1143  <S**2>=0.000
       8 -> 14         0.42310
       9 -> 17         0.12635
      10 -> 19        -0.16686
      11 -> 25        -0.40308
      11 -> 26         0.26894
      12 -> 26         0.12047

 Excited State  41:      Singlet-A     13.1655 eV   94.17 nm  f=0.0279  <S**2>=0.000
       9 -> 18        -0.15987
      10 -> 19         0.24564
      10 -> 20         0.10535
      11 -> 25         0.12882
      11 -> 26         0.58343
      11 -> 27         0.13562

 Excited State  42:      Singlet-A     13.2799 eV   93.36 nm  f=0.0524  <S**2>=0.000
       7 -> 13        -0.13324
       8 -> 14         0.16616
       9 -> 18        -0.12295
      10 -> 19         0.38749
      10 -> 20         0.42523
      11 -> 25        -0.12401
      11 -> 26        -0.20655
      11 -> 27        -0.12191

 Excited State  43:      Singlet-A     13.3308 eV   93.01 nm  f=0.0182  <S**2>=0.000
       9 -> 18         0.46685
      10 -> 19        -0.17813
      10 -> 20         0.38146
      12 -> 27        -0.26999

 Excited State  44:      Singlet-A     13.4173 eV   92.41 nm  f=0.0043  <S**2>=0.000
       7 -> 13        -0.13245
       9 -> 18         0.47017
      10 -> 19         0.31705
      10 -> 20        -0.19707
      10 -> 21         0.10094
      12 -> 27         0.23570

 Excited State  45:      Singlet-A     13.4466 eV   92.20 nm  f=0.0499  <S**2>=0.000
       7 -> 13        -0.32902
       7 -> 14         0.14361
      10 -> 19        -0.17290
      10 -> 20         0.27671
      11 -> 27         0.14163
      12 -> 27         0.44458

 Excited State  46:      Singlet-A     13.5811 eV   91.29 nm  f=0.0340  <S**2>=0.000
       7 -> 13         0.57571
      10 -> 20         0.14486
      12 -> 27         0.32687

 Excited State  47:      Singlet-A     13.7677 eV   90.05 nm  f=0.0285  <S**2>=0.000
       7 -> 14        -0.11991
       8 -> 15         0.54182
      10 -> 21         0.25563
      11 -> 27        -0.33376

 Excited State  48:      Singlet-A     13.8966 eV   89.22 nm  f=0.0150  <S**2>=0.000
       7 -> 14        -0.39712
       7 -> 15        -0.10344
       8 -> 15        -0.31980
      10 -> 21         0.43931

 Excited State  49:      Singlet-A     13.9227 eV   89.05 nm  f=0.1817  <S**2>=0.000
       7 -> 14         0.50468
       8 -> 15        -0.14963
       9 -> 19         0.18888
      10 -> 21         0.36256
      11 -> 27        -0.12771

 Excited State  50:      Singlet-A     14.0111 eV   88.49 nm  f=0.0567  <S**2>=0.000
       7 -> 14        -0.10301
       9 -> 19         0.65815

 Excited State  51:      Singlet-A     14.0965 eV   87.95 nm  f=0.0223  <S**2>=0.000
       8 -> 15         0.21790
       8 -> 16         0.32790
      10 -> 21         0.23538
      11 -> 27         0.42810
      12 -> 27        -0.11987

 Excited State  52:      Singlet-A     14.2970 eV   86.72 nm  f=0.0356  <S**2>=0.000
       7 -> 15        -0.18559
       9 -> 20         0.63813
      10 -> 22        -0.15671

 Excited State  53:      Singlet-A     14.3816 eV   86.21 nm  f=0.0073  <S**2>=0.000
       9 -> 20         0.11924
      10 -> 22         0.67313
      10 -> 23         0.12188

 Excited State  54:      Singlet-A     14.4521 eV   85.79 nm  f=0.0230  <S**2>=0.000
      12 -> 28         0.65431
      12 -> 29         0.22868

 Excited State  55:      Singlet-A     14.5046 eV   85.48 nm  f=0.0278  <S**2>=0.000
       8 -> 16         0.24425
      10 -> 23        -0.23877
      12 -> 28        -0.17090
      12 -> 29         0.58086

 Excited State  56:      Singlet-A     14.5926 eV   84.96 nm  f=0.1477  <S**2>=0.000
       8 -> 16         0.53140
      10 -> 23         0.17639
      11 -> 27        -0.17603
      12 -> 29        -0.18654

 Excited State  57:      Singlet-A     14.6184 eV   84.81 nm  f=0.0060  <S**2>=0.000
       9 -> 21        -0.25190
      10 -> 22        -0.11163
      10 -> 23         0.57662
      12 -> 28        -0.11625
      12 -> 29         0.23980

 Excited State  58:      Singlet-A     14.7017 eV   84.33 nm  f=0.0041  <S**2>=0.000
       7 -> 15        -0.11361
       9 -> 21         0.55004
      10 -> 23         0.16248
      11 -> 28         0.32312
      11 -> 29        -0.16441

 Excited State  59:      Singlet-A     14.7105 eV   84.28 nm  f=0.0089  <S**2>=0.000
       7 -> 15         0.13248
       9 -> 21        -0.30634
      10 -> 23        -0.13941
      11 -> 28         0.53389
      11 -> 29        -0.22957

 Excited State  60:      Singlet-A     14.7563 eV   84.02 nm  f=0.0449  <S**2>=0.000
       7 -> 15         0.49321
       9 -> 20         0.11493
       9 -> 21         0.17457
      11 -> 30         0.14071
      12 -> 30        -0.35868

 Excited State  61:      Singlet-A     14.8059 eV   83.74 nm  f=0.0159  <S**2>=0.000
       7 -> 15         0.30554
      12 -> 30         0.58234

 Excited State  62:      Singlet-A     14.8737 eV   83.36 nm  f=0.0179  <S**2>=0.000
      11 -> 28         0.22207
      11 -> 29         0.59278
      11 -> 30        -0.21360
      12 -> 32         0.13472

 Excited State  63:      Singlet-A     15.0859 eV   82.19 nm  f=0.0318  <S**2>=0.000
       7 -> 15        -0.10055
       7 -> 16        -0.15323
      11 -> 30         0.59359
      11 -> 31        -0.13285
      12 -> 32         0.22447

 Excited State  64:      Singlet-A     15.1222 eV   81.99 nm  f=0.0345  <S**2>=0.000
      12 -> 31         0.66515
      12 -> 32        -0.16530

 Excited State  65:      Singlet-A     15.1940 eV   81.60 nm  f=0.0079  <S**2>=0.000
       7 -> 16         0.57149
       9 -> 22         0.16724
      10 -> 24        -0.25901
      12 -> 32         0.22741

 Excited State  66:      Singlet-A     15.2629 eV   81.23 nm  f=0.0204  <S**2>=0.000
       7 -> 16         0.14218
       9 -> 22        -0.29446
       9 -> 23        -0.10485
      10 -> 24         0.44647
      11 -> 31        -0.23961
      12 -> 32         0.27172

 Excited State  67:      Singlet-A     15.2942 eV   81.07 nm  f=0.0445  <S**2>=0.000
       7 -> 16        -0.28933
       8 -> 17         0.11018
       9 -> 22         0.30706
      10 -> 24        -0.13284
      11 -> 29        -0.12976
      11 -> 30        -0.18534
      11 -> 31        -0.23954
      11 -> 32        -0.20737
      12 -> 31         0.12412
      12 -> 32         0.28524

 Excited State  68:      Singlet-A     15.3826 eV   80.60 nm  f=0.0246  <S**2>=0.000
       9 -> 22         0.31566
      10 -> 24         0.22327
      11 -> 31         0.25517
      11 -> 32         0.45108
      12 -> 32         0.23017

 Excited State  69:      Singlet-A     15.4096 eV   80.46 nm  f=0.0466  <S**2>=0.000
      11 -> 31         0.52070
      11 -> 32        -0.40471
      12 -> 32         0.18279

 Excited State  70:      Singlet-A     15.5029 eV   79.97 nm  f=0.0173  <S**2>=0.000
       6 -> 14        -0.10323
       8 -> 17         0.33980
       9 -> 23         0.57381
      10 -> 24         0.12745

 Excited State  71:      Singlet-A     15.5475 eV   79.75 nm  f=0.0465  <S**2>=0.000
       7 -> 16         0.12191
       8 -> 17         0.12874
       8 -> 18         0.18103
       9 -> 22         0.36071
       9 -> 23        -0.20609
      10 -> 24         0.27227
      11 -> 31        -0.11736
      11 -> 32        -0.19564
      12 -> 32        -0.21617

 Excited State  72:      Singlet-A     15.7180 eV   78.88 nm  f=0.0304  <S**2>=0.000
       6 -> 13        -0.18201
       6 -> 14        -0.18616
       6 -> 15        -0.13342
       8 -> 17         0.47133
       9 -> 23        -0.27123
      10 -> 24        -0.12025
      12 -> 33         0.15764

 Excited State  73:      Singlet-A     15.8086 eV   78.43 nm  f=0.0226  <S**2>=0.000
       8 -> 18         0.14723
      12 -> 33         0.65828

 Excited State  74:      Singlet-A     15.8560 eV   78.19 nm  f=0.0756  <S**2>=0.000
       6 -> 13         0.36123
       6 -> 14         0.41776
       6 -> 15        -0.10571
       7 -> 17         0.15682
       8 -> 17         0.20375
      10 -> 25         0.14466
      11 -> 33         0.13278
      12 -> 34         0.15594

 Excited State  75:      Singlet-A     15.9473 eV   77.75 nm  f=0.0141  <S**2>=0.000
       6 -> 14        -0.16135
      10 -> 25         0.63076
      11 -> 33         0.10947
      12 -> 34        -0.20610

 Excited State  76:      Singlet-A     15.9891 eV   77.54 nm  f=0.0088  <S**2>=0.000
       6 -> 13         0.19778
       6 -> 14        -0.32087
       8 -> 18         0.11898
       9 -> 24         0.30172
      11 -> 33        -0.16691
      12 -> 34         0.45083

 Excited State  77:      Singlet-A     16.0026 eV   77.48 nm  f=0.0063  <S**2>=0.000
       6 -> 13         0.16887
       8 -> 18        -0.27100
       9 -> 24         0.45750
      10 -> 25        -0.22147
      11 -> 33         0.22148
      12 -> 34        -0.27221

 Excited State  78:      Singlet-A     16.0894 eV   77.06 nm  f=0.0731  <S**2>=0.000
       7 -> 17        -0.15199
       9 -> 24        -0.17102
      11 -> 33         0.55084
      12 -> 34         0.29030

 Excited State  79:      Singlet-A     16.1366 eV   76.83 nm  f=0.0421  <S**2>=0.000
       6 -> 13        -0.16328
       8 -> 18         0.44519
       9 -> 24         0.22958
      10 -> 26        -0.31182
      11 -> 33         0.16680
      11 -> 34        -0.14808
      12 -> 35         0.10148

 Excited State  80:      Singlet-A     16.2295 eV   76.39 nm  f=0.1118  <S**2>=0.000
       6 -> 13         0.31075
       6 -> 14        -0.23115
       8 -> 18         0.21275
       9 -> 24        -0.23646
      10 -> 25        -0.10333
      10 -> 27        -0.12508
      11 -> 34         0.33787
      12 -> 34        -0.21575

 Excited State  81:      Singlet-A     16.2574 eV   76.26 nm  f=0.0159  <S**2>=0.000
       7 -> 17         0.16608
       8 -> 18         0.21672
      10 -> 26         0.45996
      11 -> 33         0.13853
      11 -> 34        -0.35086

 Excited State  82:      Singlet-A     16.2919 eV   76.10 nm  f=0.0994  <S**2>=0.000
       6 -> 13        -0.19082
       6 -> 14         0.14667
       7 -> 17        -0.14558
       8 -> 18         0.12738
       9 -> 24         0.15162
      10 -> 26         0.38797
      10 -> 27         0.10362
      11 -> 34         0.41428

 Excited State  83:      Singlet-A     16.5238 eV   75.03 nm  f=0.0589  <S**2>=0.000
       6 -> 15         0.34883
       7 -> 17         0.48452
       7 -> 18        -0.14517
       8 -> 20         0.12824
      10 -> 27         0.11450
      11 -> 34         0.20767

 Excited State  84:      Singlet-A     16.6325 eV   74.54 nm  f=0.0082  <S**2>=0.000
       8 -> 19         0.69816

 Excited State  85:      Singlet-A     16.7697 eV   73.93 nm  f=0.0156  <S**2>=0.000
       6 -> 15        -0.39160
       7 -> 17         0.13724
       7 -> 18         0.13290
       8 -> 20         0.51194
      12 -> 35        -0.10976

 Excited State  86:      Singlet-A     16.8473 eV   73.59 nm  f=0.0120  <S**2>=0.000
       6 -> 13         0.10525
       7 -> 18         0.24564
       8 -> 20        -0.15950
       9 -> 25        -0.20481
      10 -> 27         0.56160
      12 -> 36         0.10768

 Excited State  87:      Singlet-A     16.9215 eV   73.27 nm  f=0.0473  <S**2>=0.000
       6 -> 15         0.16539
       6 -> 16        -0.11019
       7 -> 18         0.54009
       9 -> 25        -0.16913
      10 -> 27        -0.23784
      12 -> 35         0.19497

 Excited State  88:      Singlet-A     16.9546 eV   73.13 nm  f=0.0281  <S**2>=0.000
       8 -> 20         0.10656
       9 -> 25         0.12337
      10 -> 27         0.13655
      12 -> 35         0.60496
      12 -> 36         0.10049

 Excited State  89:      Singlet-A     16.9958 eV   72.95 nm  f=0.1084  <S**2>=0.000
       6 -> 15         0.23909
       7 -> 17        -0.20255
       7 -> 18         0.11908
       8 -> 20         0.18908
       9 -> 25         0.39431
       9 -> 26        -0.24328
      10 -> 27         0.16225
      12 -> 35        -0.13631

 Excited State  90:      Singlet-A     17.0534 eV   72.70 nm  f=0.0214  <S**2>=0.000
       6 -> 15         0.17121
       6 -> 16        -0.10873
       7 -> 17        -0.14935
       7 -> 18        -0.12796
       8 -> 20         0.26761
       9 -> 25        -0.11330
       9 -> 26         0.53155
      12 -> 35        -0.10063

 Excited State  91:      Singlet-A     17.2111 eV   72.04 nm  f=0.0155  <S**2>=0.000
       8 -> 21        -0.13867
      11 -> 35         0.59343
      12 -> 36         0.30988

 Excited State  92:      Singlet-A     17.2739 eV   71.78 nm  f=0.1031  <S**2>=0.000
       6 -> 16         0.29857
       7 -> 18         0.16519
       7 -> 19        -0.11568
       8 -> 20        -0.15234
       8 -> 21        -0.11571
       8 -> 22        -0.14014
       9 -> 25         0.37467
       9 -> 26         0.32849
      11 -> 36         0.16492

 Excited State  93:      Singlet-A     17.3318 eV   71.54 nm  f=0.0054  <S**2>=0.000
       6 -> 16         0.12746
       8 -> 21         0.65892
      11 -> 35         0.15131

 Excited State  94:      Singlet-A     17.3667 eV   71.39 nm  f=0.0684  <S**2>=0.000
       6 -> 16         0.50577
       7 -> 19        -0.18057
       7 -> 20        -0.11777
       9 -> 25        -0.12637
       9 -> 26        -0.10993
      11 -> 35        -0.10384
      11 -> 36        -0.30039
      12 -> 36         0.15759

 The electronic state is 1-A.
 Alpha  occ. eigenvalues --  -14.14187 -14.07666 -10.06489  -0.87709  -0.78428
 Alpha  occ. eigenvalues --   -0.57212  -0.49902  -0.46918  -0.37216  -0.33915
 Alpha  occ. eigenvalues --   -0.22614  -0.21651
 Alpha virt. eigenvalues --   -0.00481   0.00593   0.03581   0.05851   0.09851
 Alpha virt. eigenvalues --    0.11811   0.14259   0.15033   0.16907   0.18953
 Alpha virt. eigenvalues --    0.19688   0.21974   0.24810   0.25735   0.27529

 Mulliken charges:
               1
     1  N    0.086216
     2  C    0.644444
     3  N   -0.202517
     4  H   -0.073316
     5  H   -0.104511
     6  H   -0.312736
     7  H   -0.037579
 Sum of Mulliken charges =  -0.00000

 Dipole moment (field-independent basis, Debye):
    X=              3.3998    Y=             -0.7533    Z=              0.5441  Tot=              3.5245
 Quadrupole moment (field-independent basis, Debye-Ang):
   XX=            -20.6247   YY=            -14.9427   ZZ=            -20.5501
   XY=              1.2173   XZ=              1.1038   YZ=             -0.1513

 Normal termination of Gaussian 16 at Mon Mar 21 04:20:45 2022.
