 Gaussian 16, Revision C.01,
 Gaussian 16:  EM64L-G16RevC.01  3-Jul-2019

 ----------------------------------------------------------------------
 #P TD(Nstates=10000) tpsstpss/Gen SCF(maxcycles=100) Int(Grid=ultrafin
 e)
 ----------------------------------------------------------------------

 ---------------------
 xGDB7_00001_tier4.com
 ---------------------
 Symbolic Z-matrix:
 Charge =  0 Multiplicity = 1

                         Standard orientation:
 ---------------------------------------------------------------------
 Center     Atomic      Atomic             Coordinates (Angstroms)
 Number     Number       Type             X           Y           Z
 ---------------------------------------------------------------------
      1          6           0        0.000000    0.729549   -0.367364
      2          6           0       -0.000000   -0.729549   -0.367364
      3          8           0       -0.000000   -0.000000    0.845033
      4          1           0       -0.918945    1.264243   -0.587975
      5          1           0        0.918945    1.264243   -0.587975
      6          1           0        0.918945   -1.264243   -0.587975
      7          1           0       -0.918945   -1.264243   -0.587975
 ---------------------------------------------------------------------

 SCF Done:  E(RTPSS-TPSS) =  -153.714429303     A.U. after   11 cycles

 Excitation energies and oscillator strengths:

 Excited State   1:      Singlet-B1     6.9380 eV  178.70 nm  f=0.0257  <S**2>=0.000
      12 -> 13         0.70530
 This state for optimization and/or second-order correction.
 Total Energy, E(TD-HF/TD-DFT) =  -153.459464269
 Copying the excited state density for this state as the 1-particle RhoCI density.

 Excited State   2:      Singlet-A2     7.4576 eV  166.25 nm  f=0.0000  <S**2>=0.000
      12 -> 14         0.70693

 Excited State   3:      Singlet-B1     7.6855 eV  161.32 nm  f=0.0103  <S**2>=0.000
      12 -> 15         0.70425

 Excited State   4:      Singlet-A1     8.0408 eV  154.19 nm  f=0.0389  <S**2>=0.000
      12 -> 16         0.70041

 Excited State   5:      Singlet-A2     8.2458 eV  150.36 nm  f=0.0000  <S**2>=0.000
      12 -> 17         0.70682

 Excited State   6:      Singlet-A1     8.2977 eV  149.42 nm  f=0.0046  <S**2>=0.000
      11 -> 13         0.69746

 Excited State   7:      Singlet-B2     8.8527 eV  140.05 nm  f=0.0453  <S**2>=0.000
      11 -> 14         0.69620
      11 -> 17         0.11748

 Excited State   8:      Singlet-A1     9.0063 eV  137.66 nm  f=0.0575  <S**2>=0.000
      11 -> 15         0.69748

 Excited State   9:      Singlet-B1     9.1888 eV  134.93 nm  f=0.0119  <S**2>=0.000
      11 -> 16        -0.21526
      12 -> 18         0.67273

 Excited State  10:      Singlet-B1     9.3509 eV  132.59 nm  f=0.0099  <S**2>=0.000
      11 -> 16         0.67249
      12 -> 18         0.21405

 Excited State  11:      Singlet-B2     9.8971 eV  125.27 nm  f=0.0635  <S**2>=0.000
      12 -> 19         0.70574

 Excited State  12:      Singlet-A2    10.1113 eV  122.62 nm  f=0.0000  <S**2>=0.000
      10 -> 13         0.70652

 Excited State  13:      Singlet-B2    10.1836 eV  121.75 nm  f=0.1148  <S**2>=0.000
       9 -> 15        -0.14905
      11 -> 17         0.65227
      11 -> 21         0.15041

 Excited State  14:      Singlet-A2    10.3138 eV  120.21 nm  f=0.0000  <S**2>=0.000
      12 -> 21         0.70670

 Excited State  15:      Singlet-B1    10.3213 eV  120.13 nm  f=0.0029  <S**2>=0.000
      12 -> 20         0.70623

 Excited State  16:      Singlet-A1    10.5027 eV  118.05 nm  f=0.0053  <S**2>=0.000
      11 -> 18         0.69525
      12 -> 22         0.11021

 Excited State  17:      Singlet-B2    10.5051 eV  118.02 nm  f=0.0189  <S**2>=0.000
       9 -> 13         0.70310

 Excited State  18:      Singlet-B1    10.6911 eV  115.97 nm  f=0.0828  <S**2>=0.000
      10 -> 14         0.70575

 Excited State  19:      Singlet-A2    10.7776 eV  115.04 nm  f=0.0000  <S**2>=0.000
      10 -> 15         0.70473

 Excited State  20:      Singlet-A1    10.8767 eV  113.99 nm  f=0.0000  <S**2>=0.000
       9 -> 17         0.19517
      11 -> 18        -0.10054
      11 -> 20         0.14425
      12 -> 22         0.64838

 Excited State  21:      Singlet-A1    11.0893 eV  111.81 nm  f=0.0180  <S**2>=0.000
       9 -> 14         0.69929

 Excited State  22:      Singlet-A2    11.1777 eV  110.92 nm  f=0.0000  <S**2>=0.000
      11 -> 19         0.38799
      12 -> 23         0.58881

 Excited State  23:      Singlet-A2    11.2034 eV  110.67 nm  f=0.0000  <S**2>=0.000
      11 -> 19         0.58929
      12 -> 23        -0.38834

 Excited State  24:      Singlet-B2    11.2921 eV  109.80 nm  f=0.1021  <S**2>=0.000
      10 -> 16         0.67326
      11 -> 21        -0.17508

 Excited State  25:      Singlet-B2    11.3417 eV  109.32 nm  f=0.1016  <S**2>=0.000
       9 -> 15         0.65799
      10 -> 16         0.13953
      11 -> 21         0.18396

 Excited State  26:      Singlet-B1    11.4171 eV  108.60 nm  f=0.0041  <S**2>=0.000
      10 -> 17         0.70457

 Excited State  27:      Singlet-A1    11.4611 eV  108.18 nm  f=0.0053  <S**2>=0.000
      11 -> 20         0.10651
      12 -> 24         0.69521

 Excited State  28:      Singlet-A2    11.5617 eV  107.24 nm  f=0.0000  <S**2>=0.000
       9 -> 16         0.70614

 Excited State  29:      Singlet-A1    11.7503 eV  105.52 nm  f=0.0036  <S**2>=0.000
       9 -> 17        -0.26510
      11 -> 20         0.63237

 Excited State  30:      Singlet-B2    11.9205 eV  104.01 nm  f=0.0575  <S**2>=0.000
       9 -> 15        -0.16453
      10 -> 16         0.12343
      11 -> 17        -0.16171
      11 -> 21         0.62951
      11 -> 23        -0.10775

 Excited State  31:      Singlet-B1    11.9485 eV  103.77 nm  f=0.0003  <S**2>=0.000
      11 -> 22         0.70274

 Excited State  32:      Singlet-B1    12.1638 eV  101.93 nm  f=0.0057  <S**2>=0.000
      11 -> 24        -0.10357
      12 -> 25         0.69176

 Excited State  33:      Singlet-A2    12.4224 eV   99.81 nm  f=0.0000  <S**2>=0.000
      10 -> 18         0.70374

 Excited State  34:      Singlet-B2    12.5068 eV   99.13 nm  f=0.0166  <S**2>=0.000
      11 -> 23         0.69312

 Excited State  35:      Singlet-A1    12.5726 eV   98.61 nm  f=0.0056  <S**2>=0.000
       8 -> 13         0.52632
       8 -> 15        -0.11249
       9 -> 17         0.39010
      11 -> 20         0.12607
      12 -> 22        -0.10444

 Excited State  36:      Singlet-B2    12.7708 eV   97.08 nm  f=0.0045  <S**2>=0.000
       9 -> 18         0.70285

 Excited State  37:      Singlet-B1    12.7911 eV   96.93 nm  f=0.0222  <S**2>=0.000
      11 -> 24         0.68899

 Excited State  38:      Singlet-A1    12.8592 eV   96.42 nm  f=0.0100  <S**2>=0.000
       8 -> 13         0.40633
       8 -> 15         0.19222
       9 -> 17        -0.34732
      10 -> 19        -0.32778
      11 -> 20        -0.12622
      11 -> 27        -0.12408
      12 -> 22         0.12479

 Excited State  39:      Singlet-B2    13.0760 eV   94.82 nm  f=0.0195  <S**2>=0.000
      12 -> 26         0.69451

 Excited State  40:      Singlet-B2    13.2104 eV   93.85 nm  f=0.1742  <S**2>=0.000
       8 -> 14         0.69772

 Excited State  41:      Singlet-B1    13.3082 eV   93.16 nm  f=0.0005  <S**2>=0.000
       7 -> 13        -0.14490
       9 -> 19         0.13298
      12 -> 27         0.66829

 Excited State  42:      Singlet-A1    13.3539 eV   92.84 nm  f=0.0227  <S**2>=0.000
       7 -> 16        -0.12295
       8 -> 13         0.17127
       9 -> 17        -0.16090
      10 -> 19         0.50882
      11 -> 20        -0.12691
      11 -> 25        -0.31358
      11 -> 27        -0.11541
      12 -> 22         0.10185

 Excited State  43:      Singlet-B1    13.4430 eV   92.23 nm  f=0.0000  <S**2>=0.000
       7 -> 13         0.34857
       9 -> 19         0.61159

 Excited State  44:      Singlet-A2    13.4480 eV   92.20 nm  f=0.0000  <S**2>=0.000
      10 -> 20         0.70610

 Excited State  45:      Singlet-A1    13.4894 eV   91.91 nm  f=0.0317  <S**2>=0.000
       8 -> 15         0.58021
       9 -> 21         0.18571
      10 -> 19         0.18560
      11 -> 25         0.21703
      11 -> 27         0.12247

 Excited State  46:      Singlet-B1    13.4963 eV   91.87 nm  f=0.0441  <S**2>=0.000
       7 -> 13         0.39469
       9 -> 19        -0.18806
      10 -> 21         0.53368
      12 -> 27         0.10744

 Excited State  47:      Singlet-B1    13.5168 eV   91.73 nm  f=0.0587  <S**2>=0.000
       7 -> 13        -0.42589
       8 -> 16         0.13190
       9 -> 19         0.26369
      10 -> 21         0.46158
      12 -> 27        -0.12187

 Excited State  48:      Singlet-A1    13.5839 eV   91.27 nm  f=0.1783  <S**2>=0.000
       8 -> 13         0.11814
       8 -> 15        -0.26753
      10 -> 19         0.20737
      11 -> 25         0.57481
      12 -> 29         0.12063

 Excited State  49:      Singlet-B1    13.7444 eV   90.21 nm  f=0.0979  <S**2>=0.000
       7 -> 13         0.11586
       8 -> 16         0.67125
      10 -> 23         0.11999
      12 -> 27         0.10850

 Excited State  50:      Singlet-A2    13.8216 eV   89.70 nm  f=0.0000  <S**2>=0.000
      12 -> 28         0.69820

 Excited State  51:      Singlet-B2    13.8268 eV   89.67 nm  f=0.0143  <S**2>=0.000
       8 -> 17         0.15359
       9 -> 20        -0.12279
      10 -> 22         0.67153

 Excited State  52:      Singlet-B2    13.8885 eV   89.27 nm  f=0.0315  <S**2>=0.000
       9 -> 20         0.68953
      10 -> 22         0.13709

 Excited State  53:      Singlet-A1    13.9652 eV   88.78 nm  f=0.0007  <S**2>=0.000
       7 -> 16         0.18325
       9 -> 21         0.60443
      10 -> 19        -0.11195
      12 -> 29         0.27125

 Excited State  54:      Singlet-A2    14.0181 eV   88.45 nm  f=0.0000  <S**2>=0.000
       7 -> 14         0.69995

 Excited State  55:      Singlet-B2    14.1046 eV   87.90 nm  f=0.0029  <S**2>=0.000
       8 -> 17         0.67193
      10 -> 22        -0.14520

 Excited State  56:      Singlet-A1    14.1358 eV   87.71 nm  f=0.1283  <S**2>=0.000
       9 -> 21        -0.21493
      11 -> 27         0.25767
      12 -> 29         0.59905

 Excited State  57:      Singlet-B1    14.1750 eV   87.47 nm  f=0.0009  <S**2>=0.000
       7 -> 15         0.66512
      10 -> 23         0.22937

 Excited State  58:      Singlet-A2    14.1969 eV   87.33 nm  f=0.0000  <S**2>=0.000
       9 -> 22         0.69937

 Excited State  59:      Singlet-A2    14.3780 eV   86.23 nm  f=0.0000  <S**2>=0.000
      11 -> 26         0.70041

 Excited State  60:      Singlet-B1    14.5703 eV   85.09 nm  f=0.1461  <S**2>=0.000
       7 -> 15        -0.15553
      10 -> 23         0.37596
      12 -> 30         0.56115

 Excited State  61:      Singlet-A2    14.6723 eV   84.50 nm  f=0.0000  <S**2>=0.000
      12 -> 31         0.70320

 Excited State  62:      Singlet-B1    14.6733 eV   84.50 nm  f=0.2079  <S**2>=0.000
       7 -> 15        -0.14057
       7 -> 18         0.14046
      10 -> 23         0.49597
      12 -> 30        -0.42609

 Excited State  63:      Singlet-A1    14.7322 eV   84.16 nm  f=0.0135  <S**2>=0.000
       7 -> 16        -0.32712
       8 -> 18        -0.23695
       9 -> 23         0.57068

 Excited State  64:      Singlet-A2    14.7386 eV   84.12 nm  f=0.0000  <S**2>=0.000
       7 -> 17         0.70214

 Excited State  65:      Singlet-A1    14.7846 eV   83.86 nm  f=0.0521  <S**2>=0.000
       7 -> 16         0.29592
       8 -> 18         0.36330
       9 -> 23         0.36516
      11 -> 27         0.32754
      12 -> 32        -0.13095

 Excited State  66:      Singlet-B2    14.8019 eV   83.76 nm  f=0.2197  <S**2>=0.000
       9 -> 25         0.18542
      10 -> 24         0.65890

 Excited State  67:      Singlet-A2    14.9877 eV   82.72 nm  f=0.0000  <S**2>=0.000
       9 -> 24         0.69899

 Excited State  68:      Singlet-A1    15.0223 eV   82.53 nm  f=0.0086  <S**2>=0.000
       7 -> 16        -0.43319
       8 -> 18         0.48242
       9 -> 21         0.10609
      10 -> 19        -0.11281

 Excited State  69:      Singlet-A1    15.1500 eV   81.84 nm  f=0.0589  <S**2>=0.000
       7 -> 16         0.15601
       8 -> 18         0.22085
       8 -> 20        -0.15406
       9 -> 23         0.14872
      11 -> 27        -0.34176
      12 -> 32         0.45673

 Excited State  70:      Singlet-B2    15.2587 eV   81.25 nm  f=0.0467  <S**2>=0.000
      11 -> 28         0.69631

 Excited State  71:      Singlet-A1    15.3301 eV   80.88 nm  f=0.1534  <S**2>=0.000
       8 -> 18        -0.14640
       8 -> 20         0.14905
       9 -> 17        -0.10955
       9 -> 28        -0.11102
      10 -> 26        -0.10528
      11 -> 27         0.32719
      12 -> 29        -0.11989
      12 -> 32         0.50488

 Excited State  72:      Singlet-A2    15.3466 eV   80.79 nm  f=0.0000  <S**2>=0.000
      10 -> 25         0.69691

 Excited State  73:      Singlet-B1    15.3862 eV   80.58 nm  f=0.0150  <S**2>=0.000
      11 -> 29         0.70066

 Excited State  74:      Singlet-A2    15.5672 eV   79.64 nm  f=0.0000  <S**2>=0.000
       8 -> 19         0.70594

 Excited State  75:      Singlet-B1    15.6460 eV   79.24 nm  f=0.0339  <S**2>=0.000
       7 -> 18         0.31125
      12 -> 33         0.63381

 Excited State  76:      Singlet-B2    15.7970 eV   78.49 nm  f=0.1451  <S**2>=0.000
       9 -> 25         0.57008
      10 -> 24        -0.11138
      11 -> 31        -0.20539
      12 -> 34        -0.31596

 Excited State  77:      Singlet-B1    15.9446 eV   77.76 nm  f=0.3581  <S**2>=0.000
       7 -> 18         0.57938
       8 -> 22         0.11925
       9 -> 26         0.13507
      10 -> 23        -0.11329
      11 -> 32        -0.10470
      12 -> 33        -0.27932

 Excited State  78:      Singlet-B2    15.9684 eV   77.64 nm  f=0.1486  <S**2>=0.000
       9 -> 25         0.20260
      11 -> 31        -0.28961
      12 -> 34         0.59878

 Excited State  79:      Singlet-A1    15.9877 eV   77.55 nm  f=0.0202  <S**2>=0.000
      11 -> 30         0.69626

 Excited State  80:      Singlet-B2    16.0126 eV   77.43 nm  f=0.0170  <S**2>=0.000
       8 -> 21         0.64354
       9 -> 25         0.12378
      11 -> 31         0.20572
      12 -> 34         0.10605

 Excited State  81:      Singlet-B2    16.1539 eV   76.75 nm  f=0.1572  <S**2>=0.000
       6 -> 13         0.15646
       7 -> 19         0.23767
       8 -> 21        -0.27964
       9 -> 25         0.18391
      11 -> 31         0.50558
      12 -> 34         0.15684

 Excited State  82:      Singlet-A1    16.1760 eV   76.65 nm  f=0.0057  <S**2>=0.000
       8 -> 20         0.55568
      10 -> 26         0.39379

 Excited State  83:      Singlet-A1    16.3370 eV   75.89 nm  f=0.2127  <S**2>=0.000
       6 -> 14         0.11294
       8 -> 20        -0.31694
       9 -> 28        -0.11966
      10 -> 26         0.55678
      11 -> 33        -0.12063

 Excited State  84:      Singlet-B1    16.3510 eV   75.83 nm  f=0.0161  <S**2>=0.000
       8 -> 22         0.68516
      11 -> 32         0.10053

 Excited State  85:      Singlet-A2    16.3861 eV   75.66 nm  f=0.0000  <S**2>=0.000
      10 -> 27         0.70081

 Excited State  86:      Singlet-B2    16.4301 eV   75.46 nm  f=0.0015  <S**2>=0.000
       6 -> 13         0.51789
       7 -> 19        -0.46814

 Excited State  87:      Singlet-B1    16.5441 eV   74.94 nm  f=0.0025  <S**2>=0.000
       9 -> 26         0.23500
      11 -> 32         0.64869

 Excited State  88:      Singlet-A2    16.5798 eV   74.78 nm  f=0.0000  <S**2>=0.000
      12 -> 35         0.70115

 Excited State  89:      Singlet-B2    16.6510 eV   74.46 nm  f=0.0068  <S**2>=0.000
       6 -> 13        -0.32727
       7 -> 19        -0.35229
       8 -> 23        -0.18142
       9 -> 27         0.44905
      11 -> 31         0.11629

 Excited State  90:      Singlet-B1    16.6874 eV   74.30 nm  f=0.1042  <S**2>=0.000
       7 -> 18        -0.10016
       7 -> 20        -0.15533
       8 -> 24        -0.14881
       9 -> 26         0.62032
      11 -> 32        -0.17268

 Excited State  91:      Singlet-B1    16.8278 eV   73.68 nm  f=0.0162  <S**2>=0.000
       7 -> 20         0.67380
       8 -> 24        -0.13461

 Excited State  92:      Singlet-B2    16.8294 eV   73.67 nm  f=0.0297  <S**2>=0.000
       7 -> 19         0.17569
       8 -> 23         0.48796
       9 -> 27         0.44265

 Excited State  93:      Singlet-A2    16.8477 eV   73.59 nm  f=0.0000  <S**2>=0.000
       7 -> 21         0.70580

 Excited State  94:      Singlet-B1    16.9216 eV   73.27 nm  f=0.0147  <S**2>=0.000
       8 -> 24         0.12453
      11 -> 32         0.10924
      12 -> 36         0.68027

 Excited State  95:      Singlet-A2    16.9501 eV   73.15 nm  f=0.0000  <S**2>=0.000
      12 -> 37         0.70422

 Excited State  96:      Singlet-A1    16.9854 eV   72.99 nm  f=0.0264  <S**2>=0.000
       6 -> 14         0.39097
      11 -> 33         0.58053

 Excited State  97:      Singlet-B1    17.0801 eV   72.59 nm  f=0.0260  <S**2>=0.000
      10 -> 28         0.68543

 Excited State  98:      Singlet-B2    17.1153 eV   72.44 nm  f=0.0043  <S**2>=0.000
       5 -> 14         0.10905
       6 -> 13         0.16342
       6 -> 15         0.24957
       7 -> 19         0.12225
       8 -> 23        -0.36739
       9 -> 27         0.15820
      10 -> 29         0.39692
      11 -> 35        -0.12494
      12 -> 38        -0.15142

 Excited State  99:      Singlet-A1    17.1338 eV   72.36 nm  f=0.1109  <S**2>=0.000
       5 -> 13         0.19674
       6 -> 14         0.38952
       6 -> 17         0.11589
       7 -> 22         0.43758
      11 -> 33        -0.30288

 Excited State 100:      Singlet-B2    17.2193 eV   72.00 nm  f=0.0290  <S**2>=0.000
       6 -> 13        -0.11709
       6 -> 15         0.60143
       7 -> 19        -0.11658
       8 -> 23         0.13183
       9 -> 27        -0.11508
      11 -> 35         0.13400
      12 -> 38         0.17722

 Excited State 101:      Singlet-A1    17.2214 eV   71.99 nm  f=0.0001  <S**2>=0.000
       5 -> 13        -0.37699
       6 -> 14        -0.23964
       7 -> 22         0.50261
      11 -> 33         0.14611

 Excited State 102:      Singlet-A2    17.2515 eV   71.87 nm  f=0.0000  <S**2>=0.000
      11 -> 34         0.70326

 Excited State 103:      Singlet-B1    17.2563 eV   71.85 nm  f=0.1280  <S**2>=0.000
       8 -> 24         0.64809
       9 -> 26         0.12120

 Excited State 104:      Singlet-B2    17.2918 eV   71.70 nm  f=0.0011  <S**2>=0.000
       5 -> 14         0.14314
       6 -> 13         0.10977
       8 -> 23        -0.17785
       9 -> 27         0.16133
      10 -> 29        -0.25747
      11 -> 35        -0.15691
      12 -> 38         0.54202

 Excited State 105:      Singlet-B2    17.3702 eV   71.38 nm  f=0.0574  <S**2>=0.000
       6 -> 15        -0.23852
      10 -> 29         0.49712
      12 -> 38         0.37577

 Excited State 106:      Singlet-B1    17.3967 eV   71.27 nm  f=0.0001  <S**2>=0.000
      12 -> 39         0.70426

 Excited State 107:      Singlet-A2    17.5481 eV   70.65 nm  f=0.0000  <S**2>=0.000
       6 -> 16         0.68741
      10 -> 30         0.13577

 Excited State 108:      Singlet-A1    17.5678 eV   70.57 nm  f=0.0324  <S**2>=0.000
       5 -> 13        -0.38131
       6 -> 14         0.19887
       6 -> 17         0.19385
       8 -> 25         0.18153
       9 -> 28         0.44067

 Excited State 109:      Singlet-A1    17.6156 eV   70.38 nm  f=0.0183  <S**2>=0.000
       5 -> 13         0.36760
       6 -> 14        -0.20437
       6 -> 17         0.23976
       7 -> 22         0.11558
       7 -> 24        -0.14799
       8 -> 25         0.26761
       9 -> 28         0.30156
       9 -> 31         0.13937
      11 -> 33         0.10542

 Excited State 110:      Singlet-A2    17.6158 eV   70.38 nm  f=0.0000  <S**2>=0.000
       7 -> 23        -0.36789
       9 -> 29         0.58304
      10 -> 30         0.13122

 Excited State 111:      Singlet-A2    17.7451 eV   69.87 nm  f=0.0000  <S**2>=0.000
       6 -> 16        -0.13064
       7 -> 23        -0.32463
       9 -> 29        -0.33892
      10 -> 30         0.50799

 Excited State 112:      Singlet-B1    17.8350 eV   69.52 nm  f=0.0167  <S**2>=0.000
      10 -> 31         0.69444

 Excited State 113:      Singlet-A1    17.8989 eV   69.27 nm  f=0.0274  <S**2>=0.000
       5 -> 15         0.27084
       6 -> 17        -0.15782
       7 -> 24         0.33927
       8 -> 25         0.50495
       9 -> 28        -0.10047

 Excited State 114:      Singlet-B2    17.9087 eV   69.23 nm  f=0.0192  <S**2>=0.000
       5 -> 14         0.51568
      11 -> 35         0.47006

 Excited State 115:      Singlet-A2    17.9160 eV   69.20 nm  f=0.0000  <S**2>=0.000
       7 -> 23         0.48557
       9 -> 29         0.20085
      10 -> 30         0.44831

 Excited State 116:      Singlet-A1    18.0124 eV   68.83 nm  f=0.1141  <S**2>=0.000
       6 -> 17        -0.16660
       7 -> 24         0.46399
       8 -> 25        -0.22779
       8 -> 27        -0.13745
       9 -> 28         0.21048
       9 -> 31         0.21387
      11 -> 36        -0.24152

 Excited State 117:      Singlet-B2    18.1155 eV   68.44 nm  f=0.0005  <S**2>=0.000
       5 -> 14         0.26482
       9 -> 30         0.56301
      11 -> 35        -0.28761

 Excited State 118:      Singlet-A1    18.2210 eV   68.04 nm  f=0.0203  <S**2>=0.000
       5 -> 15        -0.38891
       7 -> 24         0.14664
       9 -> 31         0.14114
      11 -> 36         0.54000

 Excited State 119:      Singlet-B2    18.2570 eV   67.91 nm  f=0.0010  <S**2>=0.000
      11 -> 37         0.70302

 Excited State 120:      Singlet-A1    18.2828 eV   67.81 nm  f=0.0676  <S**2>=0.000
       5 -> 15         0.42642
       8 -> 25        -0.14563
       9 -> 31         0.35264
      11 -> 36         0.27117
      11 -> 39        -0.15515
      12 -> 44         0.13887

 Excited State 121:      Singlet-A1    18.4177 eV   67.32 nm  f=0.0068  <S**2>=0.000
       5 -> 15        -0.13386
       6 -> 17         0.21563
       8 -> 27         0.20023
       9 -> 28        -0.14699
       9 -> 31         0.45924
      11 -> 36        -0.18567
      11 -> 39         0.10808
      12 -> 41        -0.17625
      12 -> 44        -0.22770

 Excited State 122:      Singlet-B2    18.4252 eV   67.29 nm  f=0.0000  <S**2>=0.000
       5 -> 14        -0.21971
       5 -> 17        -0.23389
       6 -> 18        -0.19511
       9 -> 30         0.36935
      10 -> 32         0.21494
      11 -> 35         0.29745
      12 -> 42         0.15365

 Excited State 123:      Singlet-A1    18.4702 eV   67.13 nm  f=0.0569  <S**2>=0.000
       5 -> 15         0.11576
       6 -> 17         0.44372
       6 -> 21         0.10258
       7 -> 24         0.27748
       8 -> 25        -0.12253
       9 -> 28        -0.12679

 The electronic state is 1-A1.
 Alpha  occ. eigenvalues --  -18.91483 -10.05632 -10.05613  -1.00898  -0.61780
 Alpha  occ. eigenvalues --   -0.58464  -0.47486  -0.44481  -0.36674  -0.35229
 Alpha  occ. eigenvalues --   -0.28417  -0.23608
 Alpha virt. eigenvalues --    0.01856   0.03850   0.04292   0.05843   0.06478
 Alpha virt. eigenvalues --    0.10241   0.12781   0.14394   0.14454   0.15510
 Alpha virt. eigenvalues --    0.17469   0.18406   0.20779   0.24538   0.24989

 Mulliken charges:
               1
     1  C    0.576962
     2  C    0.576962
     3  O   -0.621877
     4  H   -0.133012
     5  H   -0.133012
     6  H   -0.133012
     7  H   -0.133012
 Sum of Mulliken charges =   0.00000

 Dipole moment (field-independent basis, Debye):
    X=             -0.0000    Y=              0.0000    Z=             -1.8264  Tot=              1.8264
 Quadrupole moment (field-independent basis, Debye-Ang):
   XX=            -17.6198   YY=            -16.6686   ZZ=            -20.8557
   XY=              0.0000   XZ=              0.0000   YZ=             -0.0000

 Normal termination of Gaussian 16 at Mon Mar 21 20:24:46 2022.
