 Gaussian 16, Revision C.01,
 Gaussian 16:  EM64L-G16RevC.01  3-Jul-2019

 ----------------------------------------------------------------------
 #P TD(Nstates=10000) tpsstpss/Gen SCF(maxcycles=100) Int(Grid=ultrafin
 e)
 ----------------------------------------------------------------------

 ---------------------
 xGDB7_00001_tier4.com
 ---------------------
 Symbolic Z-matrix:
 Charge =  0 Multiplicity = 1

                         Standard orientation:
 ---------------------------------------------------------------------
 Center     Atomic      Atomic             Coordinates (Angstroms)
 Number     Number       Type             X           Y           Z
 ---------------------------------------------------------------------
      1          9           0        0.000000    0.000000    0.688193
      2          9           0        0.000000    0.000000   -0.688193
 ---------------------------------------------------------------------

 SCF Done:  E(RTPSS-TPSS) =  -199.381449674     A.U. after   10 cycles

 Excitation energies and oscillator strengths:

 Excited state symmetry could not be determined.
 Excited State   1:      Singlet-?Sym    4.9767 eV  249.13 nm  f=0.0002  <S**2>=0.000
       8 -> 10         0.42368
       9 -> 10         0.56712
 This state for optimization and/or second-order correction.
 Total Energy, E(TD-HF/TD-DFT) =  -199.198558399
 Copying the excited state density for this state as the 1-particle RhoCI density.

 Excited state symmetry could not be determined.
 Excited State   2:      Singlet-?Sym    4.9767 eV  249.13 nm  f=0.0002  <S**2>=0.000
       8 -> 10         0.56712
       9 -> 10        -0.42368

 Excited state symmetry could not be determined.
 Excited State   3:      Singlet-?Sym    8.6578 eV  143.21 nm  f=0.0000  <S**2>=0.000
       6 -> 10        -0.38318
       7 -> 10         0.59428

 Excited state symmetry could not be determined.
 Excited State   4:      Singlet-?Sym    8.6578 eV  143.21 nm  f=0.0000  <S**2>=0.000
       6 -> 10         0.59428
       7 -> 10         0.38318

 Excited state symmetry could not be determined.
 Excited State   5:      Singlet-?Sym   12.1035 eV  102.44 nm  f=0.0000  <S**2>=0.000
       9 -> 11         0.70531

 Excited state symmetry could not be determined.
 Excited State   6:      Singlet-?Sym   12.1035 eV  102.44 nm  f=0.0000  <S**2>=0.000
       8 -> 11         0.70531

 Excited state symmetry could not be determined.
 Excited State   7:      Singlet-?Sym   12.1232 eV  102.27 nm  f=0.0221  <S**2>=0.000
       9 -> 12         0.70697

 Excited state symmetry could not be determined.
 Excited State   8:      Singlet-?Sym   12.1232 eV  102.27 nm  f=0.0221  <S**2>=0.000
       8 -> 12         0.70697

 Excited state symmetry could not be determined.
 Excited State   9:      Singlet-?Sym   12.9340 eV   95.86 nm  f=0.2602  <S**2>=0.000
       5 -> 10        -0.36158
       8 -> 14         0.42913
       9 -> 13         0.42913

 Excited state symmetry could not be determined.
 Excited State  10:      Singlet-?Sym   13.1802 eV   94.07 nm  f=0.0000  <S**2>=0.000
       8 -> 14        -0.49997
       9 -> 13         0.49997

 Excited state symmetry could not be determined.
 Excited State  11:      Singlet-?Sym   13.1802 eV   94.07 nm  f=0.0000  <S**2>=0.000
       8 -> 13         0.49997
       9 -> 14         0.49997

 Excited state symmetry could not be determined.
 Excited State  12:      Singlet-?Sym   13.2348 eV   93.68 nm  f=0.0000  <S**2>=0.000
       8 -> 13         0.50000
       9 -> 14        -0.50000

 Excited state symmetry could not be determined.
 Excited State  13:      Singlet-?Sym   14.8867 eV   83.29 nm  f=0.0000  <S**2>=0.000
       8 -> 16         0.49991
       9 -> 15         0.49991

 Excited state symmetry could not be determined.
 Excited State  14:      Singlet-?Sym   14.8867 eV   83.29 nm  f=0.0000  <S**2>=0.000
       8 -> 15         0.49991
       9 -> 16        -0.49991

 Excited state symmetry could not be determined.
 Excited State  15:      Singlet-?Sym   14.9646 eV   82.85 nm  f=0.0000  <S**2>=0.000
       8 -> 16        -0.50000
       9 -> 15         0.50000

 Excited state symmetry could not be determined.
 Excited State  16:      Singlet-?Sym   14.9825 eV   82.75 nm  f=0.0000  <S**2>=0.000
       8 -> 17         0.42450
       9 -> 17         0.56535

 Excited state symmetry could not be determined.
 Excited State  17:      Singlet-?Sym   14.9825 eV   82.75 nm  f=0.0000  <S**2>=0.000
       8 -> 17         0.56535
       9 -> 17        -0.42450

 Excited state symmetry could not be determined.
 Excited State  18:      Singlet-?Sym   15.2401 eV   81.35 nm  f=0.0000  <S**2>=0.000
       6 -> 14        -0.12164
       7 -> 13        -0.12164
       8 -> 15         0.48329
       9 -> 16         0.48329

 Excited State  19:      Singlet-SGU   15.5874 eV   79.54 nm  f=0.4034  <S**2>=0.000
       5 -> 10         0.54132
       5 -> 12         0.24521
       6 -> 15        -0.11512
       7 -> 16        -0.11512
       8 -> 14         0.23975
       9 -> 13         0.23975
       5 <- 10        -0.10411

 Excited state symmetry could not be determined.
 Excited State  20:      Singlet-?Sym   15.8895 eV   78.03 nm  f=0.0000  <S**2>=0.000
       6 -> 12        -0.13349
       7 -> 12         0.69429

 Excited state symmetry could not be determined.
 Excited State  21:      Singlet-?Sym   15.8895 eV   78.03 nm  f=0.0000  <S**2>=0.000
       6 -> 12         0.69429
       7 -> 12         0.13349

 Excited state symmetry could not be determined.
 Excited State  22:      Singlet-?Sym   15.9205 eV   77.88 nm  f=0.0969  <S**2>=0.000
       6 -> 11         0.27348
       7 -> 11         0.65172

 Excited state symmetry could not be determined.
 Excited State  23:      Singlet-?Sym   15.9205 eV   77.88 nm  f=0.0969  <S**2>=0.000
       6 -> 11         0.65172
       7 -> 11        -0.27348

 Excited state symmetry could not be determined.
 Excited State  24:      Singlet-?Sym   16.9069 eV   73.33 nm  f=0.0000  <S**2>=0.000
       6 -> 13         0.49991
       7 -> 14         0.49991

 Excited state symmetry could not be determined.
 Excited State  25:      Singlet-?Sym   16.9069 eV   73.33 nm  f=0.0000  <S**2>=0.000
       6 -> 14        -0.49991
       7 -> 13         0.49991

 Excited state symmetry could not be determined.
 Excited State  26:      Singlet-?Sym   16.9771 eV   73.03 nm  f=0.0000  <S**2>=0.000
       6 -> 13         0.50000
       7 -> 14        -0.50000

 Excited state symmetry could not be determined.
 Excited State  27:      Singlet-?Sym   17.6140 eV   70.39 nm  f=0.0000  <S**2>=0.000
       5 -> 11        -0.35434
       6 -> 14         0.42006
       7 -> 13         0.42006

 Excited State  28:      Singlet-SGU   18.4422 eV   67.23 nm  f=0.0112  <S**2>=0.000
       5 -> 12         0.53173
       6 -> 15         0.32317
       7 -> 16         0.32317

 Excited state symmetry could not be determined.
 Excited State  29:      Singlet-?Sym   18.6514 eV   66.47 nm  f=0.0000  <S**2>=0.000
       6 -> 15         0.49996
       7 -> 16        -0.49996

 Excited state symmetry could not be determined.
 Excited State  30:      Singlet-?Sym   18.6514 eV   66.47 nm  f=0.0000  <S**2>=0.000
       6 -> 16         0.49996
       7 -> 15         0.49996

 Excited State  31:      Singlet-SGG   18.6696 eV   66.41 nm  f=0.0000  <S**2>=0.000
       5 -> 11         0.60828
       6 -> 14         0.23341
       7 -> 13         0.23341

 Excited state symmetry could not be determined.
 Excited State  32:      Singlet-?Sym   18.7069 eV   66.28 nm  f=0.0000  <S**2>=0.000
       6 -> 16        -0.50000
       7 -> 15         0.50000

 Excited state symmetry could not be determined.
 Excited State  33:      Singlet-?Sym   18.7853 eV   66.00 nm  f=0.0540  <S**2>=0.000
       6 -> 17         0.52018
       7 -> 17        -0.47225

 Excited state symmetry could not be determined.
 Excited State  34:      Singlet-?Sym   18.7853 eV   66.00 nm  f=0.0540  <S**2>=0.000
       6 -> 17         0.47225
       7 -> 17         0.52018

 Excited state symmetry could not be determined.
 Excited State  35:      Singlet-?Sym   19.2968 eV   64.25 nm  f=0.0227  <S**2>=0.000
       5 -> 13        -0.49250
       5 -> 14         0.50243

 Excited state symmetry could not be determined.
 Excited State  36:      Singlet-?Sym   19.2968 eV   64.25 nm  f=0.0227  <S**2>=0.000
       5 -> 13         0.50243
       5 -> 14         0.49250

 Excited State  37:      Singlet-SGU   19.5407 eV   63.45 nm  f=0.0001  <S**2>=0.000
       5 -> 10        -0.23636
       5 -> 12         0.38811
       6 -> 15        -0.36027
       7 -> 16        -0.36027

 Excited state symmetry could not be determined.
 Excited State  38:      Singlet-?Sym   20.3335 eV   60.98 nm  f=0.0862  <S**2>=0.000
       9 -> 18         0.70587

 Excited state symmetry could not be determined.
 Excited State  39:      Singlet-?Sym   20.3335 eV   60.98 nm  f=0.0862  <S**2>=0.000
       8 -> 18         0.70587

 Excited state symmetry could not be determined.
 Excited State  40:      Singlet-?Sym   20.9957 eV   59.05 nm  f=0.0000  <S**2>=0.000
       5 -> 15         0.60331
       5 -> 16         0.36875

 Excited state symmetry could not be determined.
 Excited State  41:      Singlet-?Sym   20.9957 eV   59.05 nm  f=0.0000  <S**2>=0.000
       5 -> 15        -0.36875
       5 -> 16         0.60331

 Excited State  42:      Singlet-SGG   21.1433 eV   58.64 nm  f=0.0000  <S**2>=0.000
       5 -> 17         0.69959

 Excited state symmetry could not be determined.
 Excited State  43:      Singlet-?Sym   22.0827 eV   56.15 nm  f=0.0000  <S**2>=0.000
       8 -> 19         0.49927
       9 -> 20        -0.49922

 Excited state symmetry could not be determined.
 Excited State  44:      Singlet-?Sym   22.0827 eV   56.15 nm  f=0.0000  <S**2>=0.000
       8 -> 20         0.49922
       9 -> 19         0.49927

 Excited state symmetry could not be determined.
 Excited State  45:      Singlet-?Sym   22.5406 eV   55.00 nm  f=0.0000  <S**2>=0.000
       8 -> 19        -0.33850
       8 -> 20         0.36665
       9 -> 19        -0.36662
       9 -> 20        -0.33853

 Excited state symmetry could not be determined.
 Excited State  46:      Singlet-?Sym   22.5406 eV   55.00 nm  f=0.0000  <S**2>=0.000
       8 -> 19         0.36662
       8 -> 20         0.33853
       9 -> 19        -0.33850
       9 -> 20         0.36665

 Excited state symmetry could not be determined.
 Excited State  47:      Singlet-?Sym   24.0324 eV   51.59 nm  f=0.0000  <S**2>=0.000
       6 -> 18         0.23599
       7 -> 18         0.66561

 Excited state symmetry could not be determined.
 Excited State  48:      Singlet-?Sym   24.0324 eV   51.59 nm  f=0.0000  <S**2>=0.000
       6 -> 18         0.66561
       7 -> 18        -0.23599

 Excited State  49:      Singlet-SGG   24.6612 eV   50.28 nm  f=0.0000  <S**2>=0.000
       4 -> 10         0.67868

 Excited state symmetry could not be determined.
 Excited State  50:      Singlet-?Sym   25.6825 eV   48.28 nm  f=0.0000  <S**2>=0.000
       6 -> 19         0.41879
       6 -> 20        -0.26929
       7 -> 19        -0.26929
       7 -> 20        -0.41878

 Excited state symmetry could not be determined.
 Excited State  51:      Singlet-?Sym   25.6825 eV   48.28 nm  f=0.0000  <S**2>=0.000
       6 -> 19         0.26929
       6 -> 20         0.41878
       7 -> 19         0.41879
       7 -> 20        -0.26929

 Excited state symmetry could not be determined.
 Excited State  52:      Singlet-?Sym   26.2107 eV   47.30 nm  f=0.0000  <S**2>=0.000
       8 -> 22        -0.49981
       9 -> 21         0.49981

 Excited state symmetry could not be determined.
 Excited State  53:      Singlet-?Sym   26.2108 eV   47.30 nm  f=0.0000  <S**2>=0.000
       8 -> 21         0.49981
       9 -> 22         0.49981

 Excited State  54:      Singlet-SGU   26.3780 eV   47.00 nm  f=0.2413  <S**2>=0.000
       5 -> 18         0.64345
       8 -> 22         0.20660
       9 -> 21         0.20660

 Excited state symmetry could not be determined.
 Excited State  55:      Singlet-?Sym   26.4484 eV   46.88 nm  f=0.0000  <S**2>=0.000
       8 -> 21        -0.50000
       9 -> 22         0.50000

 Excited state symmetry could not be determined.
 Excited State  56:      Singlet-?Sym   26.6046 eV   46.60 nm  f=0.2618  <S**2>=0.000
       6 -> 19         0.40941
       6 -> 20        -0.24812
       7 -> 19         0.24811
       7 -> 20         0.40942
       8 -> 25        -0.11573
       9 -> 24        -0.11574

 Excited state symmetry could not be determined.
 Excited State  57:      Singlet-?Sym   26.6046 eV   46.60 nm  f=0.2618  <S**2>=0.000
       6 -> 19         0.24811
       6 -> 20         0.40942
       7 -> 19        -0.40941
       7 -> 20         0.24812
       8 -> 24        -0.11574
       9 -> 25         0.11573

 Excited state symmetry could not be determined.
 Excited State  58:      Singlet-?Sym   27.8898 eV   44.46 nm  f=0.9308  <S**2>=0.000
       4 -> 11        -0.20358
       5 -> 10        -0.12871
       5 -> 18        -0.26817
       8 -> 22         0.42467
       9 -> 21         0.42467

 Excited state symmetry could not be determined.
 Excited State  59:      Singlet-?Sym   27.9898 eV   44.30 nm  f=0.0000  <S**2>=0.000
       8 -> 25        -0.49780
       9 -> 24         0.49781

 Excited state symmetry could not be determined.
 Excited State  60:      Singlet-?Sym   27.9898 eV   44.30 nm  f=0.0000  <S**2>=0.000
       8 -> 24         0.49781
       9 -> 25         0.49780

 Excited state symmetry could not be determined.
 Excited State  61:      Singlet-?Sym   28.0598 eV   44.19 nm  f=0.0220  <S**2>=0.000
       8 -> 23        -0.45051
       9 -> 23         0.53413

 Excited state symmetry could not be determined.
 Excited State  62:      Singlet-?Sym   28.0598 eV   44.19 nm  f=0.0220  <S**2>=0.000
       8 -> 23         0.53413
       9 -> 23         0.45051

 Excited state symmetry could not be determined.
 Excited State  63:      Singlet-?Sym   28.3089 eV   43.80 nm  f=0.0000  <S**2>=0.000
       5 -> 19         0.70173

 Excited state symmetry could not be determined.
 Excited State  64:      Singlet-?Sym   28.3089 eV   43.80 nm  f=0.0000  <S**2>=0.000
       5 -> 20         0.70173

 Excited state symmetry could not be determined.
 Excited State  65:      Singlet-?Sym   28.8302 eV   43.00 nm  f=0.6310  <S**2>=0.000
       5 -> 22        -0.10501
       6 -> 19         0.11949
       7 -> 20         0.11950
       8 -> 24         0.19545
       8 -> 25         0.42802
       9 -> 24         0.42801
       9 -> 25        -0.19545

 Excited state symmetry could not be determined.
 Excited State  66:      Singlet-?Sym   28.8302 eV   43.00 nm  f=0.6310  <S**2>=0.000
       5 -> 21         0.10501
       6 -> 20        -0.11950
       7 -> 19         0.11949
       8 -> 24        -0.42801
       8 -> 25         0.19545
       9 -> 24         0.19545
       9 -> 25         0.42802

 Excited state symmetry could not be determined.
 Excited State  67:      Singlet-?Sym   29.8077 eV   41.59 nm  f=0.0000  <S**2>=0.000
       6 -> 22        -0.44121
       7 -> 21         0.44121
       8 -> 27         0.22709
       9 -> 28        -0.22709

 Excited state symmetry could not be determined.
 Excited State  68:      Singlet-?Sym   29.8077 eV   41.59 nm  f=0.0000  <S**2>=0.000
       6 -> 21         0.44122
       7 -> 22         0.44122
       8 -> 28        -0.22707
       9 -> 27        -0.22707

 Excited State  69:      Singlet-SGG   30.0762 eV   41.22 nm  f=0.0000  <S**2>=0.000
       4 -> 12         0.62131
       6 -> 22         0.23589
       7 -> 21         0.23589

 Excited state symmetry could not be determined.
 Excited State  70:      Singlet-?Sym   30.1082 eV   41.18 nm  f=0.0000  <S**2>=0.000
       6 -> 21         0.22933
       7 -> 22         0.22933
       8 -> 28         0.44424
       9 -> 27         0.44424

 Excited state symmetry could not be determined.
 Excited State  71:      Singlet-?Sym   30.1082 eV   41.18 nm  f=0.0000  <S**2>=0.000
       6 -> 22        -0.22935
       7 -> 21         0.22935
       8 -> 27        -0.44422
       9 -> 28         0.44422

 Excited state symmetry could not be determined.
 Excited State  72:      Singlet-?Sym   30.1607 eV   41.11 nm  f=0.0000  <S**2>=0.000
       8 -> 26        -0.21312
       9 -> 26         0.66965

 Excited state symmetry could not be determined.
 Excited State  73:      Singlet-?Sym   30.1607 eV   41.11 nm  f=0.0000  <S**2>=0.000
       8 -> 26         0.66965
       9 -> 26         0.21312

 Excited state symmetry could not be determined.
 Excited State  74:      Singlet-?Sym   30.1907 eV   41.07 nm  f=0.0000  <S**2>=0.000
       6 -> 21         0.50000
       7 -> 22        -0.50000

 Excited state symmetry could not be determined.
 Excited State  75:      Singlet-?Sym   30.2513 eV   40.98 nm  f=0.0000  <S**2>=0.000
       8 -> 28        -0.50000
       9 -> 27         0.50000

 Excited State  76:      Singlet-SGU   30.5069 eV   40.64 nm  f=0.0772  <S**2>=0.000
       3 -> 10         0.10091
       4 -> 11         0.66742
       8 -> 22         0.10992
       9 -> 21         0.10992

 Excited state symmetry could not be determined.
 Excited State  77:      Singlet-?Sym   30.9224 eV   40.10 nm  f=0.0000  <S**2>=0.000
       4 -> 12        -0.31271
       6 -> 22         0.37802
       7 -> 21         0.37802
       8 -> 27         0.22670
       9 -> 28         0.22670

 Excited state symmetry could not be determined.
 Excited State  78:      Singlet-?Sym   31.2366 eV   39.69 nm  f=0.0000  <S**2>=0.000
       4 -> 13         0.56812
       4 -> 14        -0.38982

 Excited state symmetry could not be determined.
 Excited State  79:      Singlet-?Sym   31.2366 eV   39.69 nm  f=0.0000  <S**2>=0.000
       4 -> 13         0.38982
       4 -> 14         0.56812

 Excited state symmetry could not be determined.
 Excited State  80:      Singlet-?Sym   31.3502 eV   39.55 nm  f=0.0000  <S**2>=0.000
       4 -> 10        -0.14676
       4 -> 12         0.11043
       5 -> 26         0.13189
       6 -> 22        -0.20325
       7 -> 21        -0.20325
       8 -> 27         0.42399
       9 -> 28         0.42399

 Excited state symmetry could not be determined.
 Excited State  81:      Singlet-?Sym   31.6963 eV   39.12 nm  f=0.0000  <S**2>=0.000
       6 -> 25        -0.49967
       7 -> 24         0.49967

 Excited state symmetry could not be determined.
 Excited State  82:      Singlet-?Sym   31.6963 eV   39.12 nm  f=0.0000  <S**2>=0.000
       6 -> 24         0.49967
       7 -> 25         0.49967

 Excited state symmetry could not be determined.
 Excited State  83:      Singlet-?Sym   31.7942 eV   39.00 nm  f=0.0000  <S**2>=0.000
       6 -> 23        -0.43097
       7 -> 23         0.55595

 Excited state symmetry could not be determined.
 Excited State  84:      Singlet-?Sym   31.7942 eV   39.00 nm  f=0.0000  <S**2>=0.000
       6 -> 23         0.55595
       7 -> 23         0.43097

 Excited State  85:      Singlet-SGU   31.8291 eV   38.95 nm  f=0.0619  <S**2>=0.000
       3 -> 10         0.63468
       4 -> 17        -0.11620
       5 -> 23        -0.11420
       6 -> 27         0.16951
       7 -> 28         0.16951

 Excited state symmetry could not be determined.
 Excited State  86:      Singlet-?Sym   32.2530 eV   38.44 nm  f=0.0000  <S**2>=0.000
       4 -> 13        -0.13219
       6 -> 24        -0.48817
       7 -> 25         0.48818

 Excited state symmetry could not be determined.
 Excited State  87:      Singlet-?Sym   32.2530 eV   38.44 nm  f=0.0000  <S**2>=0.000
       4 -> 14         0.13219
       6 -> 25         0.48818
       7 -> 24         0.48817

 Excited state symmetry could not be determined.
 Excited State  88:      Singlet-?Sym   32.7263 eV   37.89 nm  f=0.2884  <S**2>=0.000
       4 -> 16        -0.36892
       5 -> 21         0.57960
       7 -> 26         0.13469

 Excited state symmetry could not be determined.
 Excited State  89:      Singlet-?Sym   32.7263 eV   37.89 nm  f=0.2884  <S**2>=0.000
       4 -> 15        -0.36892
       5 -> 22         0.57960
       6 -> 26         0.13469

 Excited State  90:      Singlet-SGU   32.9934 eV   37.58 nm  f=0.0452  <S**2>=0.000
       4 -> 17         0.69404

 Excited state symmetry could not be determined.
 Excited State  91:      Singlet-?Sym   33.0150 eV   37.55 nm  f=0.0459  <S**2>=0.000
       4 -> 15         0.17995
       4 -> 16         0.57040
       5 -> 21         0.31562
       7 -> 26         0.15458

 Excited state symmetry could not be determined.
 Excited State  92:      Singlet-?Sym   33.0150 eV   37.55 nm  f=0.0459  <S**2>=0.000
       4 -> 15         0.57040
       4 -> 16        -0.17995
       5 -> 22         0.31562
       6 -> 26         0.15458

 Excited state symmetry could not be determined.
 Excited State  93:      Singlet-?Sym   33.7951 eV   36.69 nm  f=0.0000  <S**2>=0.000
       5 -> 25        -0.21504
       6 -> 27         0.47603
       7 -> 28        -0.47603

 Excited state symmetry could not be determined.
 Excited State  94:      Singlet-?Sym   33.7951 eV   36.69 nm  f=0.0000  <S**2>=0.000
       5 -> 24        -0.21505
       6 -> 28         0.47603
       7 -> 27         0.47603

 Excited State  95:      Singlet-SGU   33.9028 eV   36.57 nm  f=0.0076  <S**2>=0.000
       5 -> 23         0.58984
       6 -> 27         0.27401
       7 -> 28         0.27401

 Excited state symmetry could not be determined.
 Excited State  96:      Singlet-?Sym   33.9936 eV   36.47 nm  f=0.0000  <S**2>=0.000
       6 -> 28        -0.50000
       7 -> 27         0.50000

 Excited state symmetry could not be determined.
 Excited State  97:      Singlet-?Sym   34.0804 eV   36.38 nm  f=0.1358  <S**2>=0.000
       5 -> 21        -0.18962
       7 -> 26         0.67047

 Excited state symmetry could not be determined.
 Excited State  98:      Singlet-?Sym   34.0804 eV   36.38 nm  f=0.1358  <S**2>=0.000
       5 -> 22        -0.18962
       6 -> 26         0.67047

 Excited state symmetry could not be determined.
 Excited State  99:      Singlet-?Sym   34.2803 eV   36.17 nm  f=0.0000  <S**2>=0.000
       5 -> 24         0.67347
       6 -> 28         0.15226
       7 -> 27         0.15226

 Excited state symmetry could not be determined.
 Excited State 100:      Singlet-?Sym   34.2803 eV   36.17 nm  f=0.0000  <S**2>=0.000
       5 -> 25         0.67347
       6 -> 27         0.15225
       7 -> 28        -0.15225

 Excited state symmetry could not be determined.
 Excited State 101:      Singlet-?Sym   35.3206 eV   35.10 nm  f=0.1001  <S**2>=0.000
       3 -> 10        -0.23393
       5 -> 23        -0.35841
       6 -> 27         0.36406
       7 -> 28         0.36406
       8 -> 30         0.12679
       9 -> 29         0.12679

 Excited state symmetry could not be determined.
 Excited State 102:      Singlet-?Sym   36.1841 eV   34.26 nm  f=0.0000  <S**2>=0.000
       5 -> 27         0.31523
       5 -> 28         0.63095

 Excited state symmetry could not be determined.
 Excited State 103:      Singlet-?Sym   36.1841 eV   34.26 nm  f=0.0000  <S**2>=0.000
       5 -> 27         0.63095
       5 -> 28        -0.31523

 Excited State 104:      Singlet-SGG   36.5911 eV   33.88 nm  f=0.0000  <S**2>=0.000
       3 -> 11         0.14301
       5 -> 26         0.67602

 Excited State 105:      Singlet-SGG   37.3620 eV   33.18 nm  f=0.0000  <S**2>=0.000
       3 -> 11         0.67839
       4 -> 18        -0.14076
       5 -> 26        -0.12218

 Excited State 106:      Singlet-SGU   37.4034 eV   33.15 nm  f=0.0008  <S**2>=0.000
       3 -> 12         0.70249

 Excited state symmetry could not be determined.
 Excited State 107:      Singlet-?Sym   38.4934 eV   32.21 nm  f=0.0003  <S**2>=0.000
       3 -> 13         0.41138
       3 -> 14         0.57355

 Excited state symmetry could not be determined.
 Excited State 108:      Singlet-?Sym   38.4934 eV   32.21 nm  f=0.0003  <S**2>=0.000
       3 -> 13         0.57355
       3 -> 14        -0.41138

 The electronic state is 1-SGG.
 Alpha  occ. eigenvalues --  -24.53419 -24.53399  -1.27697  -1.01198  -0.57644
 Alpha  occ. eigenvalues --   -0.49127  -0.49127  -0.35374  -0.35374
 Alpha virt. eigenvalues --   -0.18842   0.09104   0.09303   0.13263   0.13263
 Alpha virt. eigenvalues --    0.19620   0.19620   0.19991   0.39291   0.46782
 Alpha virt. eigenvalues --    0.46782   0.61822   0.61822   0.68069   0.68527

 Mulliken charges:
               1
     1  F    0.000000
     2  F    0.000000
 Sum of Mulliken charges =   0.00000

 Dipole moment (field-independent basis, Debye):
    X=              0.0000    Y=             -0.0000    Z=              0.0000  Tot=              0.0000
 Quadrupole moment (field-independent basis, Debye-Ang):
   XX=             -9.8159   YY=             -9.8159   ZZ=             -8.9481
   XY=              0.0000   XZ=              0.0000   YZ=              0.0000

 Normal termination of Gaussian 16 at Mon Mar 21 20:14:55 2022.
