 Gaussian 16, Revision C.01,
 Gaussian 16:  EM64L-G16RevC.01  3-Jul-2019

 ----------------------------------------------------------------------
 #P TD(Nstates=10000) tpsstpss/Gen SCF(maxcycles=100) Int(Grid=ultrafin
 e)
 ----------------------------------------------------------------------

 ---------------------
 xGDB7_00001_tier4.com
 ---------------------
 Symbolic Z-matrix:
 Charge =  0 Multiplicity = 1

                         Standard orientation:
 ---------------------------------------------------------------------
 Center     Atomic      Atomic             Coordinates (Angstroms)
 Number     Number       Type             X           Y           Z
 ---------------------------------------------------------------------
      1          6           0        0.000000    1.163894   -0.193136
      2          8           0       -0.000000   -0.000000    0.585449
      3          6           0       -0.000000   -1.163894   -0.193136
      4          1           0        0.000000    2.015478    0.485827
      5          1           0       -0.890390    1.219204   -0.834404
      6          1           0        0.890390    1.219204   -0.834404
      7          1           0       -0.000000   -2.015478    0.485827
      8          1           0        0.890390   -1.219204   -0.834404
      9          1           0       -0.890390   -1.219204   -0.834404
 ---------------------------------------------------------------------

 SCF Done:  E(RTPSS-TPSS) =  -154.946242426     A.U. after   12 cycles

 Excitation energies and oscillator strengths:

 Excited State   1:      Singlet-B1     6.3457 eV  195.38 nm  f=0.0254  <S**2>=0.000
      13 -> 14         0.70691
 This state for optimization and/or second-order correction.
 Total Energy, E(TD-HF/TD-DFT) =  -154.713041576
 Copying the excited state density for this state as the 1-particle RhoCI density.

 Excited State   2:      Singlet-A2     7.1222 eV  174.08 nm  f=0.0000  <S**2>=0.000
      13 -> 15         0.70703

 Excited State   3:      Singlet-B1     7.5968 eV  163.21 nm  f=0.0188  <S**2>=0.000
      13 -> 16         0.70460

 Excited State   4:      Singlet-A1     7.9680 eV  155.60 nm  f=0.0136  <S**2>=0.000
      12 -> 14         0.36916
      13 -> 17         0.60232

 Excited State   5:      Singlet-B1     8.0268 eV  154.46 nm  f=0.0210  <S**2>=0.000
      13 -> 18         0.70523

 Excited State   6:      Singlet-A1     8.1184 eV  152.72 nm  f=0.0577  <S**2>=0.000
      12 -> 14         0.59859
      13 -> 17        -0.36226

 Excited State   7:      Singlet-A2     8.6708 eV  142.99 nm  f=0.0000  <S**2>=0.000
      13 -> 19         0.70702

 Excited State   8:      Singlet-B2     8.8164 eV  140.63 nm  f=0.0064  <S**2>=0.000
      12 -> 15         0.70573

 Excited State   9:      Singlet-B1     9.1749 eV  135.13 nm  f=0.0019  <S**2>=0.000
      13 -> 21         0.70587

 Excited State  10:      Singlet-A1     9.1993 eV  134.78 nm  f=0.0297  <S**2>=0.000
      12 -> 16         0.64437
      13 -> 20         0.27986

 Excited State  11:      Singlet-B2     9.4109 eV  131.74 nm  f=0.0925  <S**2>=0.000
      13 -> 22         0.70154

 Excited State  12:      Singlet-A1     9.4181 eV  131.64 nm  f=0.0583  <S**2>=0.000
      12 -> 16        -0.27730
      13 -> 20         0.63491

 Excited State  13:      Singlet-B1     9.6533 eV  128.44 nm  f=0.0519  <S**2>=0.000
      12 -> 17         0.70595

 Excited State  14:      Singlet-B2     9.7196 eV  127.56 nm  f=0.0616  <S**2>=0.000
      11 -> 14         0.70375

 Excited State  15:      Singlet-A1     9.7701 eV  126.90 nm  f=0.0111  <S**2>=0.000
      12 -> 18         0.69965

 Excited State  16:      Singlet-A2    10.1581 eV  122.05 nm  f=0.0000  <S**2>=0.000
      10 -> 14         0.70658

 Excited State  17:      Singlet-B1    10.2283 eV  121.22 nm  f=0.0013  <S**2>=0.000
      13 -> 23         0.70677

 Excited State  18:      Singlet-A2    10.2826 eV  120.58 nm  f=0.0000  <S**2>=0.000
      13 -> 24         0.70536

 Excited State  19:      Singlet-B2    10.3579 eV  119.70 nm  f=0.0697  <S**2>=0.000
      12 -> 19         0.69917

 Excited State  20:      Singlet-B2    10.5325 eV  117.72 nm  f=0.0187  <S**2>=0.000
      13 -> 25         0.69519

 Excited State  21:      Singlet-A1    10.5331 eV  117.71 nm  f=0.0301  <S**2>=0.000
      11 -> 15         0.70334

 Excited State  22:      Singlet-B1    10.8351 eV  114.43 nm  f=0.0055  <S**2>=0.000
      12 -> 20         0.69991

 Excited State  23:      Singlet-B2    10.9187 eV  113.55 nm  f=0.0216  <S**2>=0.000
      11 -> 16         0.69773

 Excited State  24:      Singlet-A1    10.9459 eV  113.27 nm  f=0.0380  <S**2>=0.000
      12 -> 21         0.70054

 Excited State  25:      Singlet-B1    10.9691 eV  113.03 nm  f=0.0742  <S**2>=0.000
      10 -> 15         0.69993

 Excited State  26:      Singlet-A2    11.0312 eV  112.39 nm  f=0.0000  <S**2>=0.000
      12 -> 22         0.69775

 Excited State  27:      Singlet-A2    11.2678 eV  110.03 nm  f=0.0000  <S**2>=0.000
      10 -> 16         0.15572
      11 -> 17        -0.18988
      13 -> 26         0.65903

 Excited State  28:      Singlet-A2    11.2985 eV  109.73 nm  f=0.0000  <S**2>=0.000
      10 -> 16        -0.29563
      11 -> 17         0.59521
      13 -> 26         0.23760

 Excited State  29:      Singlet-A2    11.3492 eV  109.25 nm  f=0.0000  <S**2>=0.000
      10 -> 16         0.61677
      11 -> 17         0.32823

 Excited State  30:      Singlet-B2    11.4252 eV  108.52 nm  f=0.1471  <S**2>=0.000
      10 -> 17         0.12141
      11 -> 18         0.69092

 Excited State  31:      Singlet-A1    11.4656 eV  108.14 nm  f=0.0060  <S**2>=0.000
      12 -> 23         0.21038
      13 -> 27         0.66745

 Excited State  32:      Singlet-A2    11.8250 eV  104.85 nm  f=0.0000  <S**2>=0.000
      10 -> 18         0.69371
      12 -> 25         0.11062

 Excited State  33:      Singlet-B2    11.9215 eV  104.00 nm  f=0.0010  <S**2>=0.000
       7 -> 14         0.14107
      10 -> 17         0.62716
      12 -> 24         0.25644

 Excited State  34:      Singlet-B2    11.9729 eV  103.55 nm  f=0.0323  <S**2>=0.000
       7 -> 14        -0.11158
      10 -> 17        -0.22084
      12 -> 24         0.65407

 Excited State  35:      Singlet-A1    12.0827 eV  102.61 nm  f=0.0110  <S**2>=0.000
       8 -> 14         0.49795
      12 -> 23         0.47340
      13 -> 27        -0.11611

 Excited State  36:      Singlet-B1    12.1196 eV  102.30 nm  f=0.1118  <S**2>=0.000
       9 -> 14         0.70320

 Excited State  37:      Singlet-A1    12.1236 eV  102.27 nm  f=0.0021  <S**2>=0.000
       8 -> 14         0.29734
      11 -> 19         0.58088
      12 -> 23        -0.23847

 Excited State  38:      Singlet-A2    12.1491 eV  102.05 nm  f=0.0000  <S**2>=0.000
      12 -> 25         0.68547

 Excited State  39:      Singlet-A1    12.3053 eV  100.76 nm  f=0.1199  <S**2>=0.000
       8 -> 14         0.39984
      10 -> 22        -0.10084
      11 -> 19        -0.36367
      12 -> 23        -0.38424
      13 -> 27         0.13019

 Excited State  40:      Singlet-A2    12.3277 eV  100.57 nm  f=0.0000  <S**2>=0.000
      11 -> 20         0.11368
      13 -> 28         0.69379

 Excited State  41:      Singlet-B2    12.4856 eV   99.30 nm  f=0.0073  <S**2>=0.000
       7 -> 14         0.66082
      10 -> 17        -0.13776
      11 -> 21         0.10369

 Excited State  42:      Singlet-B1    12.4919 eV   99.25 nm  f=0.0064  <S**2>=0.000
      10 -> 19         0.70466

 Excited State  43:      Singlet-A2    12.5162 eV   99.06 nm  f=0.0000  <S**2>=0.000
      10 -> 21         0.17244
      11 -> 20         0.67284
      13 -> 28        -0.11293

 Excited State  44:      Singlet-B2    12.6354 eV   98.12 nm  f=0.0050  <S**2>=0.000
       7 -> 14        -0.11694
      10 -> 20        -0.13482
      11 -> 21         0.67526

 Excited State  45:      Singlet-B1    12.7042 eV   97.59 nm  f=0.0029  <S**2>=0.000
      11 -> 22         0.68713
      13 -> 29        -0.15850

 Excited State  46:      Singlet-A2    12.8583 eV   96.42 nm  f=0.0000  <S**2>=0.000
       9 -> 15         0.70615

 Excited State  47:      Singlet-B1    12.8886 eV   96.20 nm  f=0.0110  <S**2>=0.000
      11 -> 22         0.15250
      12 -> 27         0.12046
      13 -> 29         0.66566

 Excited State  48:      Singlet-B2    12.9360 eV   95.84 nm  f=0.0519  <S**2>=0.000
       8 -> 15         0.65033
      10 -> 20         0.24599
      12 -> 26         0.10922

 Excited State  49:      Singlet-B2    13.0344 eV   95.12 nm  f=0.0629  <S**2>=0.000
       8 -> 15        -0.13809
      12 -> 26         0.67987

 Excited State  50:      Singlet-B1    13.0393 eV   95.08 nm  f=0.0033  <S**2>=0.000
      12 -> 27         0.69326

 Excited State  51:      Singlet-B2    13.0726 eV   94.84 nm  f=0.0008  <S**2>=0.000
       7 -> 16        -0.13482
       8 -> 15        -0.21655
      10 -> 20         0.62569
      11 -> 21         0.13968

 Excited State  52:      Singlet-A2    13.0963 eV   94.67 nm  f=0.0000  <S**2>=0.000
      10 -> 21         0.67070
      11 -> 20        -0.16079

 Excited State  53:      Singlet-A1    13.1744 eV   94.11 nm  f=0.0015  <S**2>=0.000
       7 -> 15         0.62216
      10 -> 22         0.32702

 Excited State  54:      Singlet-B1    13.3047 eV   93.19 nm  f=0.0001  <S**2>=0.000
       9 -> 16         0.68318
      13 -> 29        -0.10710

 Excited State  55:      Singlet-A1    13.3500 eV   92.87 nm  f=0.0534  <S**2>=0.000
       7 -> 15        -0.27243
       8 -> 18         0.15880
       9 -> 17        -0.20994
      10 -> 22         0.52393
      11 -> 24        -0.23521

 Excited State  56:      Singlet-A1    13.4043 eV   92.50 nm  f=0.0319  <S**2>=0.000
       8 -> 16         0.67328
       9 -> 17        -0.13714

 Excited State  57:      Singlet-B1    13.4721 eV   92.03 nm  f=0.0399  <S**2>=0.000
       9 -> 18        -0.12045
      11 -> 25        -0.10903
      13 -> 30         0.67196

 Excited State  58:      Singlet-B2    13.6505 eV   90.83 nm  f=0.0112  <S**2>=0.000
       7 -> 16        -0.33126
       7 -> 18         0.12225
      11 -> 23         0.59680

 Excited State  59:      Singlet-A1    13.6625 eV   90.75 nm  f=0.0121  <S**2>=0.000
       8 -> 18         0.24730
       9 -> 17        -0.18823
      11 -> 24         0.60976
      13 -> 33         0.10722

 Excited State  60:      Singlet-B1    13.7073 eV   90.45 nm  f=0.0000  <S**2>=0.000
       8 -> 17        -0.37593
       9 -> 18         0.44395
      11 -> 25        -0.39948

 Excited State  61:      Singlet-A2    13.7176 eV   90.38 nm  f=0.0000  <S**2>=0.000
      13 -> 31         0.70066

 Excited State  62:      Singlet-B2    13.7240 eV   90.34 nm  f=0.2399  <S**2>=0.000
       7 -> 16         0.56121
       7 -> 18        -0.14278
      11 -> 23         0.33539
      12 -> 28        -0.18711

 Excited State  63:      Singlet-B1    13.7466 eV   90.19 nm  f=0.0005  <S**2>=0.000
       8 -> 17         0.59296
       9 -> 18         0.32697
      11 -> 25        -0.19065

 Excited State  64:      Singlet-A1    13.7612 eV   90.10 nm  f=0.0200  <S**2>=0.000
       8 -> 18         0.47562
       9 -> 17         0.51010

 Excited State  65:      Singlet-B1    13.8356 eV   89.61 nm  f=0.0373  <S**2>=0.000
       9 -> 18         0.36464
      10 -> 24         0.30417
      11 -> 25         0.44997
      13 -> 32         0.23410

 Excited State  66:      Singlet-B1    13.9060 eV   89.16 nm  f=0.0004  <S**2>=0.000
      10 -> 24        -0.18154
      11 -> 25        -0.14026
      13 -> 32         0.65722

 Excited State  67:      Singlet-A1    13.9549 eV   88.85 nm  f=0.0630  <S**2>=0.000
      10 -> 25        -0.13659
      13 -> 33         0.67599

 Excited State  68:      Singlet-A2    13.9891 eV   88.63 nm  f=0.0000  <S**2>=0.000
       7 -> 17         0.69673
      10 -> 23         0.11333

 Excited State  69:      Singlet-A2    14.0381 eV   88.32 nm  f=0.0000  <S**2>=0.000
       7 -> 17        -0.11303
      10 -> 23         0.69674

 Excited State  70:      Singlet-B2    14.0594 eV   88.19 nm  f=0.0009  <S**2>=0.000
       7 -> 18         0.54794
      12 -> 28        -0.42575

 Excited State  71:      Singlet-B1    14.1879 eV   87.39 nm  f=0.0000  <S**2>=0.000
      13 -> 34         0.70137

 Excited State  72:      Singlet-A1    14.2887 eV   86.77 nm  f=0.0000  <S**2>=0.000
       7 -> 15         0.10689
       7 -> 19        -0.24672
       8 -> 18         0.36643
       9 -> 17        -0.30970
      10 -> 22        -0.21818
      10 -> 25         0.13013
      11 -> 24        -0.18622
      11 -> 26         0.19881

 Excited State  73:      Singlet-B1    14.3307 eV   86.52 nm  f=0.2300  <S**2>=0.000
       8 -> 20         0.16612
       9 -> 18        -0.15630
       9 -> 21        -0.17300
      10 -> 24         0.56619
      11 -> 25        -0.21574
      13 -> 30        -0.12224

 Excited State  74:      Singlet-B2    14.3544 eV   86.37 nm  f=0.3592  <S**2>=0.000
       7 -> 16         0.16685
       7 -> 18         0.34319
       8 -> 19        -0.23811
      12 -> 28         0.47715

 Excited State  75:      Singlet-A2    14.4033 eV   86.08 nm  f=0.0000  <S**2>=0.000
       9 -> 19         0.70650

 Excited State  76:      Singlet-A1    14.4170 eV   86.00 nm  f=0.0446  <S**2>=0.000
       7 -> 19         0.10331
       8 -> 21        -0.11473
       9 -> 20        -0.13243
      10 -> 25         0.61612
      12 -> 29         0.18567

 Excited State  77:      Singlet-A1    14.5623 eV   85.14 nm  f=0.0348  <S**2>=0.000
       8 -> 21         0.12017
      10 -> 25        -0.14981
      11 -> 26         0.10417
      12 -> 29         0.63222
      13 -> 36        -0.12460

 Excited State  78:      Singlet-B2    14.6134 eV   84.84 nm  f=0.0004  <S**2>=0.000
       7 -> 18         0.14673
       8 -> 19         0.62612
       9 -> 22         0.19313
      12 -> 28         0.10154

 Excited State  79:      Singlet-A1    14.6547 eV   84.60 nm  f=0.0077  <S**2>=0.000
       7 -> 19         0.28532
       9 -> 20         0.17779
      11 -> 26         0.60608

 Excited State  80:      Singlet-A2    14.7137 eV   84.26 nm  f=0.0000  <S**2>=0.000
      11 -> 27         0.70269

 Excited State  81:      Singlet-B1    14.8520 eV   83.48 nm  f=0.0003  <S**2>=0.000
       8 -> 20         0.48284
       9 -> 21         0.50531

 Excited State  82:      Singlet-A1    14.8732 eV   83.36 nm  f=0.0298  <S**2>=0.000
       7 -> 19         0.48588
       8 -> 18         0.11287
       8 -> 21        -0.12734
       9 -> 17        -0.10875
       9 -> 20         0.18622
      11 -> 26        -0.23899
      13 -> 36         0.26975

 Excited State  83:      Singlet-A1    14.9423 eV   82.98 nm  f=0.0033  <S**2>=0.000
       7 -> 19        -0.15518
       8 -> 21        -0.41569
       9 -> 20         0.42878
      13 -> 36        -0.29850

 Excited State  84:      Singlet-B1    14.9681 eV   82.83 nm  f=0.0195  <S**2>=0.000
       8 -> 20        -0.16242
      13 -> 35         0.68342

 Excited State  85:      Singlet-B1    15.0493 eV   82.39 nm  f=0.0372  <S**2>=0.000
       8 -> 20        -0.27505
       9 -> 21         0.32606
      10 -> 26         0.53416
      13 -> 35        -0.12295

 Excited State  86:      Singlet-A1    15.0864 eV   82.18 nm  f=0.0188  <S**2>=0.000
       7 -> 19         0.16303
       8 -> 21        -0.31036
       9 -> 20        -0.32050
      11 -> 28        -0.13200
      12 -> 30         0.40613
      13 -> 36        -0.25627

 Excited State  87:      Singlet-A2    15.1339 eV   81.92 nm  f=0.0000  <S**2>=0.000
       7 -> 20        -0.29718
       8 -> 22         0.63847

 Excited State  88:      Singlet-A1    15.1445 eV   81.87 nm  f=0.0049  <S**2>=0.000
       7 -> 19        -0.17891
       8 -> 21        -0.17137
       9 -> 20         0.10264
      12 -> 29         0.13443
      12 -> 30         0.34319
      12 -> 32        -0.16347
      13 -> 36         0.43757
      13 -> 38        -0.18168

 Excited State  89:      Singlet-B2    15.1567 eV   81.80 nm  f=0.0009  <S**2>=0.000
       7 -> 21         0.51465
       9 -> 22         0.34566
      10 -> 27         0.28327
      13 -> 37        -0.14567

 Excited State  90:      Singlet-A2    15.1782 eV   81.69 nm  f=0.0000  <S**2>=0.000
       7 -> 20         0.64020
       8 -> 22         0.29828

 Excited State  91:      Singlet-B2    15.1964 eV   81.59 nm  f=0.1082  <S**2>=0.000
       7 -> 21        -0.16551
      10 -> 27         0.59202
      12 -> 31         0.11241
      13 -> 37         0.30505

 Excited State  92:      Singlet-A1    15.2010 eV   81.56 nm  f=0.0958  <S**2>=0.000
       8 -> 21         0.26967
       9 -> 20         0.25741
      11 -> 28         0.13623
      12 -> 30         0.40515
      13 -> 38         0.38100

 Excited State  93:      Singlet-B1    15.2442 eV   81.33 nm  f=0.1075  <S**2>=0.000
       7 -> 22         0.39604
       8 -> 20         0.28974
       9 -> 21        -0.22833
      10 -> 26         0.39856
      12 -> 33        -0.11755

 Excited State  94:      Singlet-B2    15.2929 eV   81.07 nm  f=0.0166  <S**2>=0.000
       7 -> 21        -0.30063
       9 -> 22         0.48633
      12 -> 31        -0.30037
      13 -> 37         0.21373

 Excited State  95:      Singlet-B2    15.3181 eV   80.94 nm  f=0.2302  <S**2>=0.000
       7 -> 21         0.22222
       9 -> 22         0.13200
      10 -> 27        -0.22090
      12 -> 31         0.38344
      13 -> 37         0.46771

 Excited State  96:      Singlet-A1    15.4161 eV   80.42 nm  f=0.0477  <S**2>=0.000
       8 -> 21        -0.14979
       9 -> 20        -0.14888
      10 -> 25        -0.10512
      11 -> 28        -0.17080
      12 -> 30        -0.14132
      12 -> 32        -0.24167
      13 -> 36         0.12634
      13 -> 38         0.53144

 Excited State  97:      Singlet-B1    15.4884 eV   80.05 nm  f=0.2754  <S**2>=0.000
       7 -> 22         0.53682
       8 -> 20        -0.17930
       9 -> 21         0.14445
      10 -> 26        -0.14514
      12 -> 33         0.32265

 Excited State  98:      Singlet-B2    15.5839 eV   79.56 nm  f=0.0623  <S**2>=0.000
       7 -> 21        -0.22262
       9 -> 22         0.21029
      11 -> 29         0.15995
      12 -> 31         0.47454
      13 -> 37        -0.28735
      13 -> 40         0.10978

 Excited State  99:      Singlet-A2    15.6396 eV   79.28 nm  f=0.0000  <S**2>=0.000
      13 -> 39         0.70489

 Excited State 100:      Singlet-B1    15.6755 eV   79.09 nm  f=0.2071  <S**2>=0.000
       7 -> 22        -0.18625
       8 -> 20         0.10936
       9 -> 21        -0.13588
       9 -> 23        -0.11500
      10 -> 26         0.12723
      12 -> 33         0.60475

 Excited State 101:      Singlet-A1    15.7217 eV   78.86 nm  f=0.0596  <S**2>=0.000
      11 -> 28        -0.17423
      12 -> 32         0.61236
      13 -> 36         0.10903
      13 -> 38         0.12650

 Excited State 102:      Singlet-A1    15.8563 eV   78.19 nm  f=0.0338  <S**2>=0.000
       8 -> 23         0.12224
      12 -> 34         0.68312

 Excited State 103:      Singlet-B2    15.9339 eV   77.81 nm  f=0.0082  <S**2>=0.000
       9 -> 25         0.10757
      13 -> 40         0.68510

 Excited State 104:      Singlet-A1    15.9512 eV   77.73 nm  f=0.0903  <S**2>=0.000
       8 -> 21        -0.11729
       8 -> 23         0.52472
      11 -> 28         0.40463
      12 -> 34        -0.12445

 Excited State 105:      Singlet-B1    15.9665 eV   77.65 nm  f=0.0281  <S**2>=0.000
       9 -> 23         0.68832

 Excited State 106:      Singlet-A2    16.0159 eV   77.41 nm  f=0.0000  <S**2>=0.000
       8 -> 25         0.20561
       9 -> 24         0.64795
      13 -> 41        -0.17904

 Excited State 107:      Singlet-B2    16.0804 eV   77.10 nm  f=0.0452  <S**2>=0.000
       7 -> 23        -0.14381
       8 -> 24         0.67283
      11 -> 29         0.11599

 Excited State 108:      Singlet-B1    16.1508 eV   76.77 nm  f=0.0021  <S**2>=0.000
      10 -> 28         0.69849

 Excited State 109:      Singlet-A2    16.1525 eV   76.76 nm  f=0.0000  <S**2>=0.000
       8 -> 25         0.33281
      13 -> 41         0.61817

 Excited State 110:      Singlet-B2    16.2734 eV   76.19 nm  f=0.0068  <S**2>=0.000
       7 -> 23         0.43865
       8 -> 24         0.14147
       9 -> 25         0.48197
      11 -> 29        -0.19583

 Excited State 111:      Singlet-A1    16.2961 eV   76.08 nm  f=0.2432  <S**2>=0.000
       6 -> 14         0.36041
       7 -> 24        -0.15411
       7 -> 26        -0.13148
       8 -> 21        -0.14396
       8 -> 23        -0.33278
       9 -> 27        -0.11366
      11 -> 28         0.34995
      12 -> 32         0.11627

 Excited State 112:      Singlet-B2    16.3094 eV   76.02 nm  f=0.0795  <S**2>=0.000
       7 -> 23         0.49185
       9 -> 25        -0.27060
      11 -> 29         0.37535
      11 -> 30        -0.11685

 Excited State 113:      Singlet-A2    16.3303 eV   75.92 nm  f=0.0000  <S**2>=0.000
       8 -> 25         0.56575
       9 -> 24        -0.23867
      10 -> 29         0.11870
      13 -> 41        -0.28316

 Excited State 114:      Singlet-B2    16.3471 eV   75.84 nm  f=0.1595  <S**2>=0.000
       7 -> 23        -0.19601
       9 -> 25         0.40478
      11 -> 29         0.47571

 Excited State 115:      Singlet-A1    16.3699 eV   75.74 nm  f=0.0479  <S**2>=0.000
       6 -> 14        -0.24740
       7 -> 24         0.55579
       8 -> 23        -0.19094
      11 -> 28         0.22160

 Excited State 116:      Singlet-B1    16.5351 eV   74.98 nm  f=0.0140  <S**2>=0.000
       7 -> 25         0.63017
      12 -> 36         0.29262

 Excited State 117:      Singlet-A2    16.5697 eV   74.83 nm  f=0.0000  <S**2>=0.000
       9 -> 26         0.10525
      10 -> 29         0.68557

 Excited State 118:      Singlet-A1    16.5863 eV   74.75 nm  f=0.0012  <S**2>=0.000
       6 -> 14         0.43447
       7 -> 24         0.32005
       7 -> 26         0.13004
       8 -> 23         0.14947
      12 -> 35         0.33080

 Excited State 119:      Singlet-A1    16.7219 eV   74.14 nm  f=0.0286  <S**2>=0.000
       6 -> 14        -0.24219
       7 -> 24        -0.16276
      12 -> 35         0.61126

 Excited State 120:      Singlet-B1    16.7578 eV   73.99 nm  f=0.1028  <S**2>=0.000
       7 -> 25        -0.22823
       8 -> 27        -0.13921
      12 -> 36         0.60295
      12 -> 38        -0.20079

 Excited State 121:      Singlet-B2    16.7669 eV   73.95 nm  f=0.0070  <S**2>=0.000
      11 -> 30         0.28855
      13 -> 42         0.63943

 Excited State 122:      Singlet-B2    16.8618 eV   73.53 nm  f=0.1549  <S**2>=0.000
       6 -> 15         0.14917
      11 -> 30         0.60637
      13 -> 42        -0.27524

 Excited State 123:      Singlet-A2    16.9137 eV   73.30 nm  f=0.0000  <S**2>=0.000
       9 -> 26         0.14165
      10 -> 30        -0.12685
      12 -> 37         0.54123
      13 -> 43         0.40937

 Excited State 124:      Singlet-A2    16.9597 eV   73.11 nm  f=0.0000  <S**2>=0.000
       9 -> 26        -0.18777
      12 -> 37        -0.37199
      13 -> 43         0.56663

 The electronic state is 1-A1.
 Alpha  occ. eigenvalues --  -18.90106 -10.04589 -10.04589  -0.96268  -0.66644
 Alpha  occ. eigenvalues --   -0.58317  -0.44132  -0.43234  -0.43015  -0.35996
 Alpha  occ. eigenvalues --   -0.34319  -0.28160  -0.22021
 Alpha virt. eigenvalues --    0.01255   0.04148   0.05509   0.07275   0.07430
 Alpha virt. eigenvalues --    0.09885   0.11629   0.11763   0.12408   0.15634
 Alpha virt. eigenvalues --    0.15743   0.16406   0.19530   0.19835   0.23305

 Mulliken charges:
               1
     1  C    0.576956
     2  O   -0.811602
     3  C    0.576956
     4  H   -0.188361
     5  H    0.008603
     6  H    0.008603
     7  H   -0.188361
     8  H    0.008603
     9  H    0.008603
 Sum of Mulliken charges =  -0.00000

 Dipole moment (field-independent basis, Debye):
    X=              0.0000    Y=             -0.0000    Z=             -1.2242  Tot=              1.2242
 Quadrupole moment (field-independent basis, Debye-Ang):
   XX=            -20.4042   YY=            -17.6753   ZZ=            -21.4784
   XY=             -0.0000   XZ=              0.0000   YZ=             -0.0000

 Normal termination of Gaussian 16 at Mon Mar 21 20:16:43 2022.
