 Gaussian 16, Revision C.01,
 Gaussian 16:  EM64L-G16RevC.01  3-Jul-2019

 ----------------------------------------------------------------------
 #P TD(Nstates=10000) tpsstpss/Gen SCF(maxcycles=100) Int(Grid=ultrafin
 e)
 ----------------------------------------------------------------------

 ---------------------
 xGDB7_00001_tier4.com
 ---------------------
 Symbolic Z-matrix:
 Charge =  0 Multiplicity = 1

                         Standard orientation:
 ---------------------------------------------------------------------
 Center     Atomic      Atomic             Coordinates (Angstroms)
 Number     Number       Type             X           Y           Z
 ---------------------------------------------------------------------
      1          6           0        0.000000    0.000000    0.597322
      2          6           0        0.000000    0.000000   -0.597322
      3          1           0        0.000000    0.000000    1.661338
      4          1           0        0.000000    0.000000   -1.661338
 ---------------------------------------------------------------------

 SCF Done:  E(RTPSS-TPSS) =  -77.2880124038     A.U. after   11 cycles

 Excitation energies and oscillator strengths:

 Excited state symmetry could not be determined.
 Excited State   1:      Singlet-?Sym    7.2563 eV  170.86 nm  f=0.0000  <S**2>=0.000
       6 ->  9        -0.49999
       7 ->  8         0.49999
 This state for optimization and/or second-order correction.
 Total Energy, E(TD-HF/TD-DFT) =  -77.0213468163
 Copying the excited state density for this state as the 1-particle RhoCI density.

 Excited state symmetry could not be determined.
 Excited State   2:      Singlet-?Sym    7.2563 eV  170.86 nm  f=0.0000  <S**2>=0.000
       6 ->  8         0.49999
       7 ->  9         0.49999

 Excited state symmetry could not be determined.
 Excited State   3:      Singlet-?Sym    7.2655 eV  170.65 nm  f=0.0000  <S**2>=0.000
       6 ->  8         0.50000
       7 ->  9        -0.50000

 Excited state symmetry could not be determined.
 Excited State   4:      Singlet-?Sym    8.1301 eV  152.50 nm  f=0.0883  <S**2>=0.000
       6 -> 10         0.64637
       7 -> 10        -0.28646

 Excited state symmetry could not be determined.
 Excited State   5:      Singlet-?Sym    8.1301 eV  152.50 nm  f=0.0883  <S**2>=0.000
       6 -> 10         0.28646
       7 -> 10         0.64637

 Excited state symmetry could not be determined.
 Excited State   6:      Singlet-?Sym    8.3736 eV  148.06 nm  f=0.0000  <S**2>=0.000
       6 -> 11         0.69767
       7 -> 11         0.10750

 Excited state symmetry could not be determined.
 Excited State   7:      Singlet-?Sym    8.3736 eV  148.06 nm  f=0.0000  <S**2>=0.000
       6 -> 11        -0.10750
       7 -> 11         0.69767

 Excited state symmetry could not be determined.
 Excited State   8:      Singlet-?Sym    9.8364 eV  126.05 nm  f=0.0472  <S**2>=0.000
       6 -> 12         0.34551
       7 -> 12         0.61438

 Excited state symmetry could not be determined.
 Excited State   9:      Singlet-?Sym    9.8364 eV  126.05 nm  f=0.0472  <S**2>=0.000
       6 -> 12         0.61438
       7 -> 12        -0.34551

 Excited state symmetry could not be determined.
 Excited State  10:      Singlet-?Sym   10.3382 eV  119.93 nm  f=0.7919  <S**2>=0.000
       6 ->  9         0.46484
       6 -> 18         0.17865
       7 ->  8         0.46484
       7 -> 19         0.17865

 Excited state symmetry could not be determined.
 Excited State  11:      Singlet-?Sym   11.3994 eV  108.76 nm  f=0.0000  <S**2>=0.000
       5 ->  9        -0.11951
       6 -> 13         0.69347

 Excited state symmetry could not be determined.
 Excited State  12:      Singlet-?Sym   11.3994 eV  108.76 nm  f=0.0000  <S**2>=0.000
       5 ->  8        -0.11951
       7 -> 13         0.69347

 Excited state symmetry could not be determined.
 Excited State  13:      Singlet-?Sym   11.5891 eV  106.98 nm  f=0.0000  <S**2>=0.000
       6 -> 15        -0.49989
       7 -> 14         0.49989

 Excited state symmetry could not be determined.
 Excited State  14:      Singlet-?Sym   11.5891 eV  106.98 nm  f=0.0000  <S**2>=0.000
       6 -> 14         0.49989
       7 -> 15         0.49989

 Excited state symmetry could not be determined.
 Excited State  15:      Singlet-?Sym   11.6805 eV  106.15 nm  f=0.0000  <S**2>=0.000
       6 -> 14         0.50000
       7 -> 15        -0.50000

 Excited state symmetry could not be determined.
 Excited State  16:      Singlet-?Sym   12.3651 eV  100.27 nm  f=0.0000  <S**2>=0.000
       5 -> 12        -0.15358
       6 -> 15         0.47784
       7 -> 14         0.47784

 Excited state symmetry could not be determined.
 Excited State  17:      Singlet-?Sym   12.6637 eV   97.91 nm  f=0.0000  <S**2>=0.000
       5 ->  8        -0.13224
       5 ->  9         0.68140
       6 -> 13         0.11369

 Excited state symmetry could not be determined.
 Excited State  18:      Singlet-?Sym   12.6637 eV   97.91 nm  f=0.0000  <S**2>=0.000
       5 ->  8         0.68140
       5 ->  9         0.13224
       7 -> 13         0.11369

 Excited state symmetry could not be determined.
 Excited State  19:      Singlet-?Sym   13.0800 eV   94.79 nm  f=0.0000  <S**2>=0.000
       6 -> 16         0.39660
       6 -> 17         0.30461
       7 -> 16        -0.30461
       7 -> 17         0.39659

 Excited state symmetry could not be determined.
 Excited State  20:      Singlet-?Sym   13.0800 eV   94.79 nm  f=0.0000  <S**2>=0.000
       6 -> 16         0.30461
       6 -> 17        -0.39659
       7 -> 16         0.39660
       7 -> 17         0.30461

 Excited State  21:      Singlet-SGG   13.4658 eV   92.07 nm  f=0.0000  <S**2>=0.000
       5 -> 10         0.69709

 Excited State  22:      Singlet-SGU   13.6217 eV   91.02 nm  f=0.3214  <S**2>=0.000
       5 -> 11         0.70282

 Excited state symmetry could not be determined.
 Excited State  23:      Singlet-?Sym   13.7769 eV   89.99 nm  f=0.1952  <S**2>=0.000
       4 ->  8        -0.29898
       4 ->  9        -0.11674
       6 -> 16         0.41431
       6 -> 17         0.16177
       7 -> 16         0.16177
       7 -> 17        -0.41431

 Excited state symmetry could not be determined.
 Excited State  24:      Singlet-?Sym   13.7769 eV   89.99 nm  f=0.1952  <S**2>=0.000
       4 ->  8         0.11674
       4 ->  9        -0.29898
       6 -> 16        -0.16177
       6 -> 17         0.41431
       7 -> 16         0.41431
       7 -> 17         0.16177

 Excited state symmetry could not be determined.
 Excited State  25:      Singlet-?Sym   13.9268 eV   89.03 nm  f=0.0000  <S**2>=0.000
       6 -> 18         0.49995
       7 -> 19        -0.49995

 Excited state symmetry could not be determined.
 Excited State  26:      Singlet-?Sym   13.9268 eV   89.03 nm  f=0.0000  <S**2>=0.000
       6 -> 19         0.49995
       7 -> 18         0.49995

 Excited state symmetry could not be determined.
 Excited State  27:      Singlet-?Sym   13.9987 eV   88.57 nm  f=0.0000  <S**2>=0.000
       6 -> 19        -0.50000
       7 -> 18         0.50000

 Excited State  28:      Singlet-SGU   14.9790 eV   82.77 nm  f=0.0750  <S**2>=0.000
       4 -> 10         0.52682
       6 -> 18         0.31524
       7 -> 19         0.31524

 Excited State  29:      Singlet-SGG   15.2503 eV   81.30 nm  f=0.0000  <S**2>=0.000
       4 -> 11        -0.46765
       5 -> 12         0.52511

 Excited state symmetry could not be determined.
 Excited State  30:      Singlet-?Sym   15.4583 eV   80.21 nm  f=0.3266  <S**2>=0.000
       4 ->  9         0.56043
       5 -> 15        -0.12093
       6 -> 17         0.19472
       6 -> 21        -0.27057
       6 -> 22         0.12525
       7 -> 16         0.19472

 Excited state symmetry could not be determined.
 Excited State  31:      Singlet-?Sym   15.4583 eV   80.21 nm  f=0.3266  <S**2>=0.000
       4 ->  8         0.56043
       5 -> 14        -0.12093
       6 -> 16         0.19472
       7 -> 17        -0.19472
       7 -> 21        -0.27057
       7 -> 22         0.12525

 Excited State  32:      Singlet-SGU   15.7391 eV   78.77 nm  f=0.0021  <S**2>=0.000
       4 -> 10         0.44438
       4 -> 12         0.17349
       5 -> 13         0.21528
       6 ->  9         0.11583
       6 -> 18        -0.29291
       7 ->  8         0.11583
       7 -> 19        -0.29291

 Excited state symmetry could not be determined.
 Excited State  33:      Singlet-?Sym   16.0631 eV   77.19 nm  f=0.3223  <S**2>=0.000
       4 ->  9         0.19916
       5 -> 15        -0.14775
       6 -> 21         0.62593
       7 -> 21         0.15509

 Excited state symmetry could not be determined.
 Excited State  34:      Singlet-?Sym   16.0631 eV   77.19 nm  f=0.3223  <S**2>=0.000
       4 ->  8         0.19916
       5 -> 14        -0.14775
       6 -> 21        -0.15509
       7 -> 21         0.62593

 Excited state symmetry could not be determined.
 Excited State  35:      Singlet-?Sym   16.0822 eV   77.09 nm  f=0.0000  <S**2>=0.000
       6 -> 20         0.10390
       7 -> 20         0.69136

 Excited state symmetry could not be determined.
 Excited State  36:      Singlet-?Sym   16.0822 eV   77.09 nm  f=0.0000  <S**2>=0.000
       6 -> 20         0.69136
       7 -> 20        -0.10390

 Excited State  37:      Singlet-SGG   16.1060 eV   76.98 nm  f=0.0000  <S**2>=0.000
       4 -> 11         0.49928
       4 -> 13         0.13548
       5 -> 12         0.41778
       6 -> 15         0.10300
       7 -> 14         0.10300

 Excited state symmetry could not be determined.
 Excited State  38:      Singlet-?Sym   16.8141 eV   73.74 nm  f=0.1005  <S**2>=0.000
       5 -> 14         0.48771
       5 -> 15         0.16680
       6 -> 22         0.15538
       7 -> 22         0.45430

 Excited state symmetry could not be determined.
 Excited State  39:      Singlet-?Sym   16.8141 eV   73.74 nm  f=0.1005  <S**2>=0.000
       5 -> 14        -0.16680
       5 -> 15         0.48771
       6 -> 22         0.45430
       7 -> 22        -0.15538

 Excited state symmetry could not be determined.
 Excited State  40:      Singlet-?Sym   16.9190 eV   73.28 nm  f=0.0000  <S**2>=0.000
       6 -> 23         0.10856
       6 -> 24        -0.48810
       7 -> 23         0.48810
       7 -> 24         0.10856

 Excited state symmetry could not be determined.
 Excited State  41:      Singlet-?Sym   16.9190 eV   73.28 nm  f=0.0000  <S**2>=0.000
       6 -> 23         0.48810
       6 -> 24         0.10856
       7 -> 23        -0.10856
       7 -> 24         0.48810

 Excited State  42:      Singlet-SGU   17.0019 eV   72.92 nm  f=0.0014  <S**2>=0.000
       4 -> 10        -0.10222
       4 -> 12         0.56615
       5 -> 13         0.29961
       6 -> 18         0.11641
       6 -> 29        -0.12931
       7 -> 19         0.11641
       7 -> 28        -0.12931

 Excited state symmetry could not be determined.
 Excited State  43:      Singlet-?Sym   17.1361 eV   72.35 nm  f=0.3435  <S**2>=0.000
       4 ->  8        -0.15386
       5 -> 14        -0.37261
       5 -> 15        -0.23465
       6 -> 22         0.26416
       7 -> 22         0.41947

 Excited state symmetry could not be determined.
 Excited State  44:      Singlet-?Sym   17.1361 eV   72.35 nm  f=0.3435  <S**2>=0.000
       4 ->  9        -0.15386
       5 -> 14         0.23465
       5 -> 15        -0.37261
       6 -> 22         0.41947
       7 -> 22        -0.26416

 Excited state symmetry could not be determined.
 Excited State  45:      Singlet-?Sym   17.2478 eV   71.88 nm  f=0.0000  <S**2>=0.000
       6 -> 23        -0.49118
       7 -> 24         0.49118

 Excited state symmetry could not be determined.
 Excited State  46:      Singlet-?Sym   17.2478 eV   71.88 nm  f=0.0000  <S**2>=0.000
       6 -> 24         0.49118
       7 -> 23         0.49118

 Excited State  47:      Singlet-SGU   17.2935 eV   71.69 nm  f=0.7720  <S**2>=0.000
       4 -> 12        -0.36331
       5 -> 13         0.58388

 Excited state symmetry could not be determined.
 Excited State  48:      Singlet-?Sym   17.4668 eV   70.98 nm  f=0.0000  <S**2>=0.000
       6 -> 25         0.49907
       7 -> 26         0.49907

 Excited state symmetry could not be determined.
 Excited State  49:      Singlet-?Sym   17.4668 eV   70.98 nm  f=0.0000  <S**2>=0.000
       6 -> 26        -0.49907
       7 -> 25         0.49907

 Excited state symmetry could not be determined.
 Excited State  50:      Singlet-?Sym   17.9138 eV   69.21 nm  f=0.0000  <S**2>=0.000
       6 -> 25         0.50000
       7 -> 26        -0.50000

 Excited state symmetry could not be determined.
 Excited State  51:      Singlet-?Sym   17.9489 eV   69.08 nm  f=0.0000  <S**2>=0.000
       4 -> 11        -0.10387
       4 -> 13         0.11686
       6 -> 26         0.47080
       7 -> 25         0.47080

 Excited state symmetry could not be determined.
 Excited State  52:      Singlet-?Sym   18.2804 eV   67.82 nm  f=0.0000  <S**2>=0.000
       3 ->  9         0.11183
       6 -> 27         0.69500

 Excited state symmetry could not be determined.
 Excited State  53:      Singlet-?Sym   18.2804 eV   67.82 nm  f=0.0000  <S**2>=0.000
       3 ->  8         0.11183
       7 -> 27         0.69500

 Excited state symmetry could not be determined.
 Excited State  54:      Singlet-?Sym   18.6471 eV   66.49 nm  f=0.0000  <S**2>=0.000
       6 -> 28         0.49952
       7 -> 29         0.49952

 Excited state symmetry could not be determined.
 Excited State  55:      Singlet-?Sym   18.6471 eV   66.49 nm  f=0.0000  <S**2>=0.000
       6 -> 29        -0.49952
       7 -> 28         0.49952

 Excited state symmetry could not be determined.
 Excited State  56:      Singlet-?Sym   18.6506 eV   66.48 nm  f=0.0000  <S**2>=0.000
       4 -> 14         0.67899
       4 -> 15         0.11482
       5 -> 19         0.15046

 Excited state symmetry could not be determined.
 Excited State  57:      Singlet-?Sym   18.6506 eV   66.48 nm  f=0.0000  <S**2>=0.000
       4 -> 14        -0.11482
       4 -> 15         0.67899
       5 -> 18         0.15046

 Excited state symmetry could not be determined.
 Excited State  58:      Singlet-?Sym   18.6814 eV   66.37 nm  f=0.0000  <S**2>=0.000
       5 -> 16         0.70597

 Excited state symmetry could not be determined.
 Excited State  59:      Singlet-?Sym   18.6814 eV   66.37 nm  f=0.0000  <S**2>=0.000
       5 -> 17         0.70597

 Excited state symmetry could not be determined.
 Excited State  60:      Singlet-?Sym   18.7989 eV   65.95 nm  f=0.0000  <S**2>=0.000
       6 -> 28         0.50000
       7 -> 29        -0.50000

 Excited State  61:      Singlet-SGG   18.9410 eV   65.46 nm  f=0.0000  <S**2>=0.000
       4 -> 13         0.67168
       6 -> 26        -0.10223
       7 -> 25        -0.10223

 Excited state symmetry could not be determined.
 Excited State  62:      Singlet-?Sym   19.0240 eV   65.17 nm  f=0.0192  <S**2>=0.000
       3 -> 11        -0.24876
       6 -> 29         0.44518
       7 -> 28         0.44518

 Excited state symmetry could not be determined.
 Excited State  63:      Singlet-?Sym   19.0616 eV   65.04 nm  f=0.0000  <S**2>=0.000
       4 -> 14        -0.14407
       5 -> 18         0.25148
       5 -> 19         0.63772

 Excited state symmetry could not be determined.
 Excited State  64:      Singlet-?Sym   19.0616 eV   65.04 nm  f=0.0000  <S**2>=0.000
       4 -> 15        -0.14407
       5 -> 18         0.63772
       5 -> 19        -0.25148

 Excited state symmetry could not be determined.
 Excited State  65:      Singlet-?Sym   19.5751 eV   63.34 nm  f=0.0000  <S**2>=0.000
       3 ->  9         0.67507
       6 -> 27        -0.10894

 Excited state symmetry could not be determined.
 Excited State  66:      Singlet-?Sym   19.5751 eV   63.34 nm  f=0.0000  <S**2>=0.000
       3 ->  8         0.67507
       7 -> 27        -0.10894

 Excited State  67:      Singlet-SGG   19.8239 eV   62.54 nm  f=0.0000  <S**2>=0.000
       3 -> 10         0.69734

 Excited State  68:      Singlet-SGU   20.2869 eV   61.12 nm  f=0.0062  <S**2>=0.000
       3 -> 11         0.64374
       3 -> 13         0.10048
       6 -> 29         0.13073
       7 -> 28         0.13073

 Excited state symmetry could not be determined.
 Excited State  69:      Singlet-?Sym   20.5210 eV   60.42 nm  f=0.0000  <S**2>=0.000
       4 -> 16         0.70625

 Excited state symmetry could not be determined.
 Excited State  70:      Singlet-?Sym   20.5210 eV   60.42 nm  f=0.0000  <S**2>=0.000
       4 -> 17         0.70625

 Excited state symmetry could not be determined.
 Excited State  71:      Singlet-?Sym   21.0812 eV   58.81 nm  f=0.0040  <S**2>=0.000
       4 -> 18        -0.13273
       4 -> 19         0.68740

 Excited state symmetry could not be determined.
 Excited State  72:      Singlet-?Sym   21.0812 eV   58.81 nm  f=0.0040  <S**2>=0.000
       4 -> 18         0.68740
       4 -> 19         0.13273

 Excited State  73:      Singlet-SGU   21.3558 eV   58.06 nm  f=0.2727  <S**2>=0.000
       5 -> 20         0.69949

 Excited State  74:      Singlet-SGG   21.4084 eV   57.91 nm  f=0.0000  <S**2>=0.000
       3 -> 12        -0.28280
       5 -> 21         0.63973

 Excited State  75:      Singlet-SGG   21.7351 eV   57.04 nm  f=0.0000  <S**2>=0.000
       3 -> 12         0.63443
       5 -> 21         0.28151
       5 -> 22         0.10936

 Excited state symmetry could not be determined.
 Excited State  76:      Singlet-?Sym   22.3698 eV   55.42 nm  f=0.0000  <S**2>=0.000
       5 -> 23         0.70682

 Excited state symmetry could not be determined.
 Excited State  77:      Singlet-?Sym   22.3698 eV   55.42 nm  f=0.0000  <S**2>=0.000
       5 -> 24         0.70682

 Excited State  78:      Singlet-SGG   22.4580 eV   55.21 nm  f=0.0000  <S**2>=0.000
       3 -> 12        -0.10212
       4 -> 20        -0.25786
       5 -> 22         0.63233

 Excited State  79:      Singlet-SGU   23.1282 eV   53.61 nm  f=0.0182  <S**2>=0.000
       3 -> 13         0.47974
       4 -> 21         0.49787
       5 -> 27         0.10917

 Excited State  80:      Singlet-SGU   23.2279 eV   53.38 nm  f=0.0069  <S**2>=0.000
       3 -> 13         0.46106
       4 -> 21        -0.41898
       4 -> 22         0.16682
       5 -> 27        -0.27800

 Excited state symmetry could not be determined.
 Excited State  81:      Singlet-?Sym   23.2421 eV   53.34 nm  f=0.1586  <S**2>=0.000
       3 -> 14         0.22120
       5 -> 25         0.66450

 Excited state symmetry could not be determined.
 Excited State  82:      Singlet-?Sym   23.2421 eV   53.34 nm  f=0.1586  <S**2>=0.000
       3 -> 15         0.22120
       5 -> 26         0.66450

 Excited state symmetry could not be determined.
 Excited State  83:      Singlet-?Sym   23.5091 eV   52.74 nm  f=0.0052  <S**2>=0.000
       3 -> 14         0.53297
       3 -> 15         0.40157
       5 -> 25        -0.16940
       5 -> 26        -0.12763

 Excited state symmetry could not be determined.
 Excited State  84:      Singlet-?Sym   23.5091 eV   52.74 nm  f=0.0052  <S**2>=0.000
       3 -> 14        -0.40157
       3 -> 15         0.53297
       5 -> 25         0.12763
       5 -> 26        -0.16940

 Excited State  85:      Singlet-SGG   23.5128 eV   52.73 nm  f=0.0000  <S**2>=0.000
       4 -> 20         0.64001
       5 -> 22         0.21302
       6 -> 33        -0.11500
       7 -> 32        -0.11500

 Excited state symmetry could not be determined.
 Excited State  86:      Singlet-?Sym   23.9099 eV   51.85 nm  f=0.0000  <S**2>=0.000
       5 -> 28         0.57379
       5 -> 29        -0.41081

 Excited state symmetry could not be determined.
 Excited State  87:      Singlet-?Sym   23.9099 eV   51.85 nm  f=0.0000  <S**2>=0.000
       5 -> 28         0.41081
       5 -> 29         0.57379

 Excited State  88:      Singlet-SGU   24.1839 eV   51.27 nm  f=0.2638  <S**2>=0.000
       4 -> 22         0.61248
       5 -> 27         0.31687

 Excited state symmetry could not be determined.
 Excited State  89:      Singlet-?Sym   24.2144 eV   51.20 nm  f=0.0000  <S**2>=0.000
       4 -> 23         0.70605

 Excited state symmetry could not be determined.
 Excited State  90:      Singlet-?Sym   24.2144 eV   51.20 nm  f=0.0000  <S**2>=0.000
       4 -> 24         0.70605

 Excited state symmetry could not be determined.
 Excited State  91:      Singlet-?Sym   24.3510 eV   50.92 nm  f=0.0000  <S**2>=0.000
       6 -> 30         0.69657

 Excited state symmetry could not be determined.
 Excited State  92:      Singlet-?Sym   24.3510 eV   50.92 nm  f=0.0000  <S**2>=0.000
       7 -> 30         0.69657

 Excited State  93:      Singlet-SGU   24.8267 eV   49.94 nm  f=0.0307  <S**2>=0.000
       3 -> 13         0.15674
       3 -> 20         0.13046
       4 -> 21        -0.23815
       4 -> 22        -0.27795
       5 -> 27         0.52050

 Excited state symmetry could not be determined.
 Excited State  94:      Singlet-?Sym   25.0821 eV   49.43 nm  f=0.0000  <S**2>=0.000
       3 -> 19         0.22697
       4 -> 25         0.63453
       4 -> 26        -0.18691

 Excited state symmetry could not be determined.
 Excited State  95:      Singlet-?Sym   25.0821 eV   49.43 nm  f=0.0000  <S**2>=0.000
       3 -> 18         0.22697
       4 -> 25         0.18691
       4 -> 26         0.63453

 Excited state symmetry could not be determined.
 Excited State  96:      Singlet-?Sym   25.1436 eV   49.31 nm  f=0.0000  <S**2>=0.000
       3 -> 16         0.70406

 Excited state symmetry could not be determined.
 Excited State  97:      Singlet-?Sym   25.1436 eV   49.31 nm  f=0.0000  <S**2>=0.000
       3 -> 17         0.70406

 Excited state symmetry could not be determined.
 Excited State  98:      Singlet-?Sym   25.7340 eV   48.18 nm  f=0.0091  <S**2>=0.000
       4 -> 28         0.54497
       4 -> 29        -0.15819
       6 -> 31         0.11747
       7 -> 31        -0.40469

 Excited state symmetry could not be determined.
 Excited State  99:      Singlet-?Sym   25.7340 eV   48.18 nm  f=0.0091  <S**2>=0.000
       4 -> 28         0.15819
       4 -> 29         0.54497
       6 -> 31        -0.40469
       7 -> 31        -0.11747

 Excited State 100:      Singlet-SGG   25.9005 eV   47.87 nm  f=0.0000  <S**2>=0.000
       4 -> 27         0.69455

 Excited state symmetry could not be determined.
 Excited State 101:      Singlet-?Sym   25.9093 eV   47.85 nm  f=0.0000  <S**2>=0.000
       3 -> 18        -0.31686
       3 -> 19         0.57889
       4 -> 25        -0.19428
       4 -> 26         0.10634

 Excited state symmetry could not be determined.
 Excited State 102:      Singlet-?Sym   25.9093 eV   47.85 nm  f=0.0000  <S**2>=0.000
       3 -> 18         0.57889
       3 -> 19         0.31686
       4 -> 25        -0.10634
       4 -> 26        -0.19428

 Excited state symmetry could not be determined.
 Excited State 103:      Singlet-?Sym   25.9456 eV   47.79 nm  f=0.0158  <S**2>=0.000
       4 -> 28         0.39554
       4 -> 29         0.13928
       6 -> 31         0.18660
       7 -> 31         0.52995

 Excited state symmetry could not be determined.
 Excited State 104:      Singlet-?Sym   25.9456 eV   47.79 nm  f=0.0158  <S**2>=0.000
       4 -> 28        -0.13928
       4 -> 29         0.39554
       6 -> 31         0.52995
       7 -> 31        -0.18660

 Excited state symmetry could not be determined.
 Excited State 105:      Singlet-?Sym   26.5728 eV   46.66 nm  f=0.0000  <S**2>=0.000
       6 -> 33        -0.49745
       7 -> 32         0.49745

 Excited state symmetry could not be determined.
 Excited State 106:      Singlet-?Sym   26.5729 eV   46.66 nm  f=0.0000  <S**2>=0.000
       6 -> 32         0.49745
       7 -> 33         0.49745

 Excited state symmetry could not be determined.
 Excited State 107:      Singlet-?Sym   27.0212 eV   45.88 nm  f=0.0000  <S**2>=0.000
       6 -> 32         0.50000
       7 -> 33        -0.50000

 Excited State 108:      Singlet-SGG   27.5699 eV   44.97 nm  f=0.0000  <S**2>=0.000
       3 -> 21         0.62850
       6 -> 33        -0.21920

 The electronic state is 1-SGG.
 Alpha  occ. eigenvalues --  -10.00918 -10.00688  -0.68936  -0.52239  -0.45421
 Alpha  occ. eigenvalues --   -0.26351  -0.26351
 Alpha virt. eigenvalues --    0.00349   0.00349   0.03553   0.04210   0.09663
 Alpha virt. eigenvalues --    0.15266   0.16574   0.16574   0.23382   0.23382
 Alpha virt. eigenvalues --    0.25093   0.25093   0.32599   0.32686   0.35881

 Mulliken charges:
               1
     1  C    0.134010
     2  C    0.134010
     3  H   -0.134010
     4  H   -0.134010
 Sum of Mulliken charges =   0.00000

 Dipole moment (field-independent basis, Debye):
    X=             -0.0000    Y=             -0.0000    Z=              0.0000  Tot=              0.0000
 Quadrupole moment (field-independent basis, Debye-Ang):
   XX=            -13.3663   YY=            -13.3663   ZZ=             -7.3285
   XY=             -0.0000   XZ=              0.0000   YZ=              0.0000

 Normal termination of Gaussian 16 at Mon Mar 21 20:15:07 2022.
