 Gaussian 16, Revision C.01,
 Gaussian 16:  EM64L-G16RevC.01  3-Jul-2019

 ----------------------------------------------------------------------
 #P TD(Nstates=10000) tpsstpss/Gen SCF(maxcycles=100) Int(Grid=ultrafin
 e)
 ----------------------------------------------------------------------

 ---------------------
 xGDB7_00001_tier4.com
 ---------------------
 Symbolic Z-matrix:
 Charge =  0 Multiplicity = 1

                         Standard orientation:
 ---------------------------------------------------------------------
 Center     Atomic      Atomic             Coordinates (Angstroms)
 Number     Number       Type             X           Y           Z
 ---------------------------------------------------------------------
      1          9           0       -1.139724   -0.269725    0.000000
      2          6           0        0.000000    0.430281    0.000000
      3          6           0        1.180852   -0.148760    0.000000
      4          1           0       -0.180450    1.498331    0.000000
      5          1           0        1.283634   -1.225170    0.000000
      6          1           0        2.069222    0.465238    0.000000
 ---------------------------------------------------------------------

 SCF Done:  E(RTPSS-TPSS) =  -177.725051047     A.U. after   13 cycles

 Excitation energies and oscillator strengths:

 Excited State   1:      Singlet-A"     7.1692 eV  172.94 nm  f=0.0360  <S**2>=0.000
      12 -> 14         0.70681
 This state for optimization and/or second-order correction.
 Total Energy, E(TD-HF/TD-DFT) =  -177.461587836
 Copying the excited state density for this state as the 1-particle RhoCI density.

 Excited State   2:      Singlet-A'     7.7220 eV  160.56 nm  f=0.2972  <S**2>=0.000
      12 -> 13         0.68769

 Excited State   3:      Singlet-A"     7.7370 eV  160.25 nm  f=0.0072  <S**2>=0.000
      12 -> 15         0.70625

 Excited State   4:      Singlet-A"     8.4256 eV  147.15 nm  f=0.0000  <S**2>=0.000
      11 -> 13         0.69601
      12 -> 16        -0.11754

 Excited State   5:      Singlet-A"     8.5781 eV  144.54 nm  f=0.0011  <S**2>=0.000
      11 -> 13         0.11743
      12 -> 16         0.69467

 Excited State   6:      Singlet-A"     9.0202 eV  137.45 nm  f=0.0009  <S**2>=0.000
      12 -> 17         0.70203

 Excited State   7:      Singlet-A'     9.6757 eV  128.14 nm  f=0.0096  <S**2>=0.000
      11 -> 14         0.70106

 Excited State   8:      Singlet-A"     9.7019 eV  127.79 nm  f=0.0000  <S**2>=0.000
      10 -> 13         0.69729

 Excited State   9:      Singlet-A"     9.8203 eV  126.25 nm  f=0.0067  <S**2>=0.000
      12 -> 18         0.70132

 Excited State  10:      Singlet-A'    10.0774 eV  123.03 nm  f=0.0047  <S**2>=0.000
      12 -> 19         0.68667

 Excited State  11:      Singlet-A'    10.2127 eV  121.40 nm  f=0.0658  <S**2>=0.000
      11 -> 15         0.69702

 Excited State  12:      Singlet-A"    10.4440 eV  118.71 nm  f=0.1241  <S**2>=0.000
       8 -> 13         0.11014
      12 -> 20         0.69224

 Excited State  13:      Singlet-A"    10.8756 eV  114.00 nm  f=0.0002  <S**2>=0.000
      12 -> 21         0.70610

 Excited State  14:      Singlet-A'    10.8880 eV  113.87 nm  f=0.0989  <S**2>=0.000
      10 -> 14         0.69521

 Excited State  15:      Singlet-A'    11.0805 eV  111.89 nm  f=0.0160  <S**2>=0.000
      11 -> 16         0.62682
      12 -> 22         0.30452

 Excited State  16:      Singlet-A'    11.2833 eV  109.88 nm  f=0.0154  <S**2>=0.000
       9 -> 13         0.52639
      11 -> 16        -0.17765
      12 -> 22         0.38877

 Excited State  17:      Singlet-A'    11.3715 eV  109.03 nm  f=0.0672  <S**2>=0.000
       9 -> 13        -0.36778
      10 -> 15        -0.18338
      11 -> 16        -0.23340
      11 -> 17         0.23164
      12 -> 22         0.43157

 Excited State  18:      Singlet-A'    11.4638 eV  108.15 nm  f=0.1407  <S**2>=0.000
       9 -> 13        -0.13266
      10 -> 15         0.66123
      11 -> 16        -0.10378
      11 -> 17         0.16652

 Excited State  19:      Singlet-A"    11.4715 eV  108.08 nm  f=0.0038  <S**2>=0.000
       8 -> 13        -0.26527
      12 -> 23         0.65305

 Excited State  20:      Singlet-A'    11.5833 eV  107.04 nm  f=0.1363  <S**2>=0.000
       9 -> 13         0.14503
      10 -> 15        -0.11134
      11 -> 17         0.63586
      12 -> 22        -0.21515

 Excited State  21:      Singlet-A"    11.5938 eV  106.94 nm  f=0.0146  <S**2>=0.000
       8 -> 13         0.63723
      12 -> 23         0.26737

 Excited State  22:      Singlet-A"    11.9176 eV  104.03 nm  f=0.0453  <S**2>=0.000
       9 -> 14         0.70437

 Excited State  23:      Singlet-A'    12.2577 eV  101.15 nm  f=0.0422  <S**2>=0.000
      10 -> 16         0.61373
      10 -> 17         0.13369
      11 -> 18        -0.25993
      12 -> 24         0.14154

 Excited State  24:      Singlet-A'    12.3509 eV  100.38 nm  f=0.0028  <S**2>=0.000
      10 -> 16         0.23453
      11 -> 18         0.64554

 Excited State  25:      Singlet-A"    12.4277 eV   99.76 nm  f=0.0116  <S**2>=0.000
       9 -> 15        -0.17700
      11 -> 19         0.68127

 Excited State  26:      Singlet-A"    12.4475 eV   99.61 nm  f=0.0058  <S**2>=0.000
       9 -> 15         0.68338
      11 -> 19         0.17343

 Excited State  27:      Singlet-A'    12.6033 eV   98.37 nm  f=0.1088  <S**2>=0.000
       8 -> 14         0.27480
      10 -> 16        -0.13782
      10 -> 17         0.26481
      12 -> 24         0.54746

 Excited State  28:      Singlet-A"    12.7486 eV   97.25 nm  f=0.0064  <S**2>=0.000
       7 -> 13         0.69231

 Excited State  29:      Singlet-A'    12.7621 eV   97.15 nm  f=0.0411  <S**2>=0.000
       8 -> 14         0.62151
      10 -> 16         0.15552
      10 -> 17        -0.19256
      12 -> 24        -0.13747
      12 -> 27        -0.11048

 Excited State  30:      Singlet-A'    12.8567 eV   96.44 nm  f=0.0067  <S**2>=0.000
      10 -> 17         0.25141
      11 -> 20         0.65274

 Excited State  31:      Singlet-A"    13.0204 eV   95.22 nm  f=0.0188  <S**2>=0.000
      12 -> 25         0.68691

 Excited State  32:      Singlet-A'    13.0256 eV   95.19 nm  f=0.0268  <S**2>=0.000
       8 -> 15        -0.36924
      10 -> 17         0.44063
      10 -> 18         0.11776
      11 -> 20        -0.22736
      12 -> 24        -0.25249
      12 -> 27        -0.10029

 Excited State  33:      Singlet-A"    13.3283 eV   93.02 nm  f=0.0011  <S**2>=0.000
       9 -> 16        -0.15822
      12 -> 26         0.68354

 Excited State  34:      Singlet-A'    13.3462 eV   92.90 nm  f=0.1314  <S**2>=0.000
       8 -> 15         0.34773
      10 -> 17         0.12102
      10 -> 18        -0.10355
      11 -> 21         0.52167
      12 -> 27        -0.24891

 Excited State  35:      Singlet-A"    13.3982 eV   92.54 nm  f=0.0291  <S**2>=0.000
       9 -> 16         0.66026
      11 -> 22         0.10787
      12 -> 26         0.14999

 Excited State  36:      Singlet-A'    13.3985 eV   92.54 nm  f=0.0663  <S**2>=0.000
       8 -> 15        -0.37394
      10 -> 17        -0.16012
      11 -> 21         0.44333
      12 -> 27         0.28296

 Excited State  37:      Singlet-A'    13.4532 eV   92.16 nm  f=0.0293  <S**2>=0.000
       8 -> 15         0.23462
       8 -> 16         0.10067
      10 -> 18         0.43987
      11 -> 23        -0.11896
      12 -> 24        -0.12167
      12 -> 27         0.41862

 Excited State  38:      Singlet-A"    13.6187 eV   91.04 nm  f=0.0096  <S**2>=0.000
      10 -> 19         0.70245

 Excited State  39:      Singlet-A"    13.6683 eV   90.71 nm  f=0.0050  <S**2>=0.000
      11 -> 22         0.69465

 Excited State  40:      Singlet-A'    13.7461 eV   90.20 nm  f=0.0485  <S**2>=0.000
       7 -> 14        -0.12509
       8 -> 14        -0.10586
       8 -> 15        -0.14326
      10 -> 17        -0.17105
      10 -> 18         0.46325
      12 -> 24         0.16969
      12 -> 27        -0.36049

 Excited State  41:      Singlet-A"    13.7604 eV   90.10 nm  f=0.0096  <S**2>=0.000
       9 -> 17         0.70292

 Excited State  42:      Singlet-A'    13.9480 eV   88.89 nm  f=0.0110  <S**2>=0.000
       7 -> 14        -0.36322
       8 -> 16         0.35980
      10 -> 20         0.17808
      11 -> 23         0.44795

 Excited State  43:      Singlet-A'    14.0658 eV   88.15 nm  f=0.0600  <S**2>=0.000
       7 -> 14         0.52661
       7 -> 15         0.18729
       8 -> 17        -0.10578
       9 -> 19         0.10730
      10 -> 18         0.12875
      10 -> 20         0.14926
      11 -> 23         0.31408

 Excited State  44:      Singlet-A'    14.1105 eV   87.87 nm  f=0.0102  <S**2>=0.000
       8 -> 16         0.28183
       9 -> 19        -0.10645
      10 -> 20         0.50624
      11 -> 23        -0.35196

 Excited State  45:      Singlet-A'    14.2002 eV   87.31 nm  f=0.0405  <S**2>=0.000
       7 -> 14         0.10782
       7 -> 15         0.10242
       8 -> 16         0.46923
       8 -> 17         0.14886
      10 -> 20        -0.37807
      10 -> 21         0.18795
      11 -> 23        -0.13028

 Excited State  46:      Singlet-A'    14.5430 eV   85.25 nm  f=0.0129  <S**2>=0.000
       7 -> 14        -0.10831
       7 -> 15         0.60056
       8 -> 17         0.21046
       9 -> 19        -0.19847
      10 -> 21        -0.15134

 Excited State  47:      Singlet-A"    14.5493 eV   85.22 nm  f=0.0001  <S**2>=0.000
       9 -> 18         0.70481

 Excited State  48:      Singlet-A'    14.5674 eV   85.11 nm  f=0.0635  <S**2>=0.000
       7 -> 15        -0.16777
       8 -> 17         0.57679
       9 -> 19         0.25955
      10 -> 21        -0.19989

 Excited State  49:      Singlet-A"    14.7401 eV   84.11 nm  f=0.0089  <S**2>=0.000
       6 -> 13         0.17604
      12 -> 28         0.68069

 Excited State  50:      Singlet-A"    14.8189 eV   83.67 nm  f=0.0159  <S**2>=0.000
       6 -> 13        -0.25859
      10 -> 22         0.63826
      11 -> 24         0.11593

 Excited State  51:      Singlet-A"    14.8688 eV   83.39 nm  f=0.0004  <S**2>=0.000
      10 -> 22        -0.15888
      11 -> 24         0.68172

 Excited State  52:      Singlet-A'    14.8857 eV   83.29 nm  f=0.1430  <S**2>=0.000
       7 -> 15         0.18632
       7 -> 17        -0.11517
       8 -> 16        -0.10074
       9 -> 19         0.42383
      10 -> 20         0.12529
      10 -> 21         0.43234

 Excited State  53:      Singlet-A'    15.0005 eV   82.65 nm  f=0.0158  <S**2>=0.000
       7 -> 16        -0.17222
       8 -> 17        -0.20322
       8 -> 18         0.24242
       9 -> 19         0.36156
      10 -> 21        -0.36121
      11 -> 25         0.18577

 Excited State  54:      Singlet-A"    15.0375 eV   82.45 nm  f=0.0005  <S**2>=0.000
       6 -> 13        -0.28677
       9 -> 20         0.61062
      10 -> 22        -0.15298

 Excited State  55:      Singlet-A'    15.2270 eV   81.42 nm  f=0.0140  <S**2>=0.000
       7 -> 16        -0.36133
      10 -> 23         0.58072

 Excited State  56:      Singlet-A"    15.3337 eV   80.86 nm  f=0.0122  <S**2>=0.000
       6 -> 13        -0.17906
       9 -> 20        -0.13218
      12 -> 29         0.64049
      12 -> 30        -0.14908

 Excited State  57:      Singlet-A"    15.3781 eV   80.62 nm  f=0.1022  <S**2>=0.000
       6 -> 13         0.35271
       8 -> 19         0.30505
       9 -> 20         0.26170
      10 -> 22         0.14754
      12 -> 29         0.28310
      12 -> 30         0.24918

 Excited State  58:      Singlet-A'    15.3861 eV   80.58 nm  f=0.0759  <S**2>=0.000
       7 -> 16         0.14355
       7 -> 17         0.10776
       8 -> 18         0.54972
      10 -> 23         0.15380
      11 -> 25        -0.33846

 Excited State  59:      Singlet-A'    15.4498 eV   80.25 nm  f=0.2208  <S**2>=0.000
       7 -> 16         0.48804
      10 -> 23         0.27912
      11 -> 25         0.27966
      12 -> 31        -0.18963

 Excited State  60:      Singlet-A"    15.4789 eV   80.10 nm  f=0.0099  <S**2>=0.000
       6 -> 13        -0.11778
       8 -> 19         0.60723
      12 -> 30        -0.30923

 Excited State  61:      Singlet-A"    15.5933 eV   79.51 nm  f=0.0313  <S**2>=0.000
       6 -> 13         0.15649
       8 -> 19        -0.11593
       9 -> 20         0.10401
       9 -> 21         0.52071
      11 -> 27        -0.10651
      12 -> 30        -0.39123

 Excited State  62:      Singlet-A'    15.6127 eV   79.41 nm  f=0.1079  <S**2>=0.000
       6 -> 14        -0.13429
       7 -> 16        -0.13067
       7 -> 17        -0.10689
       8 -> 18         0.30490
       8 -> 20         0.16295
       9 -> 19        -0.14106
       9 -> 22        -0.11435
      10 -> 21         0.14604
      11 -> 25         0.48504

 Excited State  63:      Singlet-A"    15.6465 eV   79.24 nm  f=0.0560  <S**2>=0.000
       6 -> 13        -0.20193
       8 -> 19         0.12883
       9 -> 20        -0.10063
       9 -> 21         0.46755
      11 -> 27         0.20326
      12 -> 30         0.37262

 Excited State  64:      Singlet-A'    15.7159 eV   78.89 nm  f=0.0495  <S**2>=0.000
       6 -> 14        -0.10530
       7 -> 16         0.12584
      11 -> 26        -0.13100
      12 -> 31         0.64365

 Excited State  65:      Singlet-A"    15.7996 eV   78.47 nm  f=0.0560  <S**2>=0.000
       6 -> 13         0.13021
      11 -> 27         0.65905
      12 -> 30        -0.12633

 Excited State  66:      Singlet-A'    15.8067 eV   78.44 nm  f=0.0128  <S**2>=0.000
       6 -> 14        -0.19162
       7 -> 17         0.26869
       9 -> 22        -0.23691
      11 -> 26         0.56280

 Excited State  67:      Singlet-A'    15.8760 eV   78.10 nm  f=0.0876  <S**2>=0.000
       6 -> 14         0.14647
       7 -> 16         0.12642
       7 -> 17        -0.39170
       8 -> 20         0.39255
       8 -> 21        -0.11400
      11 -> 26         0.31768

 Excited State  68:      Singlet-A'    15.9191 eV   77.88 nm  f=0.0248  <S**2>=0.000
       6 -> 14         0.60997
       8 -> 20        -0.17485
       9 -> 22        -0.18239
      12 -> 31         0.11264

 Excited State  69:      Singlet-A"    16.0079 eV   77.45 nm  f=0.0055  <S**2>=0.000
      10 -> 24         0.56935
      12 -> 32         0.40552

 Excited State  70:      Singlet-A'    16.0301 eV   77.34 nm  f=0.0620  <S**2>=0.000
       6 -> 15         0.14628
       7 -> 17        -0.15650
       8 -> 18         0.10317
       8 -> 20        -0.40479
       9 -> 22         0.44660
      11 -> 26         0.20211

 Excited State  71:      Singlet-A"    16.0670 eV   77.17 nm  f=0.0326  <S**2>=0.000
      10 -> 24        -0.38319
      12 -> 32         0.56381

 Excited State  72:      Singlet-A'    16.1772 eV   76.64 nm  f=0.0011  <S**2>=0.000
       6 -> 14         0.11637
       6 -> 15        -0.22771
       7 -> 17         0.36165
       7 -> 18         0.11382
       8 -> 20         0.25639
       9 -> 22         0.39006

 Excited State  73:      Singlet-A"    16.2098 eV   76.49 nm  f=0.0209  <S**2>=0.000
       9 -> 23         0.69231

 Excited State  74:      Singlet-A'    16.4818 eV   75.22 nm  f=0.0238  <S**2>=0.000
       7 -> 18         0.47106
       8 -> 21         0.50853

 Excited State  75:      Singlet-A'    16.5607 eV   74.87 nm  f=0.0044  <S**2>=0.000
       6 -> 15         0.57038
       7 -> 17         0.12763
       7 -> 18         0.17778
       8 -> 21        -0.18441
       8 -> 23         0.14438
      10 -> 25        -0.11679
      10 -> 26         0.11541

 Excited State  76:      Singlet-A'    16.6402 eV   74.51 nm  f=0.0153  <S**2>=0.000
      10 -> 25         0.67325
      10 -> 26         0.10115

 Excited State  77:      Singlet-A"    16.6674 eV   74.39 nm  f=0.0082  <S**2>=0.000
       8 -> 22         0.64809
      12 -> 33         0.27239

 Excited State  78:      Singlet-A"    16.6873 eV   74.30 nm  f=0.0165  <S**2>=0.000
       7 -> 19         0.68764
      12 -> 33        -0.15394

 Excited State  79:      Singlet-A'    16.7084 eV   74.20 nm  f=0.0664  <S**2>=0.000
       6 -> 15        -0.18910
       7 -> 18         0.46418
       8 -> 20        -0.12074
       8 -> 21        -0.37394
      10 -> 26        -0.10084
      12 -> 34         0.10659

 Excited State  80:      Singlet-A"    16.8635 eV   73.52 nm  f=0.0300  <S**2>=0.000
       7 -> 19         0.13221
       8 -> 22        -0.25432
      10 -> 27         0.28706
      12 -> 33         0.56091

 Excited State  81:      Singlet-A'    17.0324 eV   72.79 nm  f=0.0130  <S**2>=0.000
       6 -> 15        -0.13253
       8 -> 23         0.23710
       9 -> 24         0.12693
      10 -> 26         0.59880
      11 -> 28         0.10029

 Excited State  82:      Singlet-A"    17.0424 eV   72.75 nm  f=0.1725  <S**2>=0.000
      10 -> 27         0.63286
      12 -> 33        -0.24146

 Excited State  83:      Singlet-A'    17.0495 eV   72.72 nm  f=0.0118  <S**2>=0.000
       8 -> 23         0.61150
      10 -> 26        -0.20836
      11 -> 28        -0.19296

 Excited State  84:      Singlet-A'    17.1188 eV   72.43 nm  f=0.0196  <S**2>=0.000
       7 -> 20         0.57406
       9 -> 24        -0.35198
      11 -> 28        -0.10948
      12 -> 34         0.10658

 Excited State  85:      Singlet-A'    17.2042 eV   72.07 nm  f=0.0310  <S**2>=0.000
       6 -> 16         0.19637
       7 -> 20         0.31777
       9 -> 24         0.55809
      11 -> 28        -0.16692

 Excited State  86:      Singlet-A'    17.3053 eV   71.65 nm  f=0.0565  <S**2>=0.000
       6 -> 16         0.27328
       6 -> 17         0.14016
       7 -> 21         0.18600
       8 -> 23         0.14810
      10 -> 26        -0.12547
      11 -> 28         0.52923
      12 -> 34         0.16706

 Excited State  87:      Singlet-A'    17.5182 eV   70.77 nm  f=0.0009  <S**2>=0.000
       6 -> 16         0.52749
       6 -> 17         0.14430
       9 -> 24        -0.18436
      11 -> 28        -0.22347
      11 -> 29         0.13051
      12 -> 34        -0.22323

 Excited State  88:      Singlet-A'    17.6497 eV   70.25 nm  f=0.1577  <S**2>=0.000
       6 -> 16         0.13354
       7 -> 20        -0.13865
       7 -> 21        -0.32109
      11 -> 29         0.10968
      11 -> 30         0.11487
      12 -> 34         0.52495

 Excited State  89:      Singlet-A"    17.7066 eV   70.02 nm  f=0.0029  <S**2>=0.000
       9 -> 25         0.66250
      12 -> 35        -0.19124

 Excited State  90:      Singlet-A'    17.7453 eV   69.87 nm  f=0.0324  <S**2>=0.000
       6 -> 16        -0.13871
       6 -> 17         0.57250
       7 -> 21        -0.35489

 Excited State  91:      Singlet-A"    17.7779 eV   69.74 nm  f=0.0120  <S**2>=0.000
       7 -> 22         0.29622
       9 -> 25         0.12716
      12 -> 35         0.61293

 Excited State  92:      Singlet-A"    17.8591 eV   69.42 nm  f=0.0164  <S**2>=0.000
       8 -> 24         0.69354

 Excited State  93:      Singlet-A'    17.8681 eV   69.39 nm  f=0.0157  <S**2>=0.000
       7 -> 21         0.12244
      11 -> 29         0.65883

 Excited State  94:      Singlet-A'    17.9740 eV   68.98 nm  f=0.0308  <S**2>=0.000
       6 -> 17        -0.21812
       7 -> 21        -0.19092
       7 -> 23        -0.11866
       9 -> 27        -0.17561
      11 -> 28         0.13483
      11 -> 30         0.50687
      12 -> 34        -0.20341

 Excited State  95:      Singlet-A"    18.0029 eV   68.87 nm  f=0.1073  <S**2>=0.000
       7 -> 22         0.53911
       9 -> 25        -0.10651
      12 -> 35        -0.24436
      12 -> 36        -0.33462

 Excited State  96:      Singlet-A'    18.0115 eV   68.84 nm  f=0.0112  <S**2>=0.000
       6 -> 17         0.16598
       7 -> 21         0.23683
       9 -> 27         0.42156
      11 -> 30         0.41887
      12 -> 34         0.10936

 Excited State  97:      Singlet-A"    18.0902 eV   68.54 nm  f=0.0211  <S**2>=0.000
       7 -> 22        -0.16693
       9 -> 26         0.56870
      12 -> 36        -0.36297

 Excited State  98:      Singlet-A"    18.1511 eV   68.31 nm  f=0.0444  <S**2>=0.000
       7 -> 22         0.21038
       9 -> 25        -0.11166
       9 -> 26         0.37346
      11 -> 31        -0.25156
      12 -> 36         0.44675
      12 -> 37         0.14525

 Excited State  99:      Singlet-A'    18.1799 eV   68.20 nm  f=0.0042  <S**2>=0.000
       6 -> 17        -0.14113
       7 -> 21        -0.17880
       7 -> 23         0.44854
       8 -> 25         0.10372
       9 -> 27         0.39745
      10 -> 28         0.13797

 Excited State 100:      Singlet-A"    18.2869 eV   67.80 nm  f=0.0000  <S**2>=0.000
      11 -> 31         0.53200
      12 -> 37         0.44170

 Excited State 101:      Singlet-A'    18.2922 eV   67.78 nm  f=0.0140  <S**2>=0.000
       7 -> 21         0.18508
       7 -> 23         0.47738
       8 -> 26         0.18454
       9 -> 27        -0.32160
      11 -> 30         0.16666
      12 -> 38         0.12850

 Excited State 102:      Singlet-A"    18.3779 eV   67.46 nm  f=0.0392  <S**2>=0.000
       7 -> 22        -0.14605
      11 -> 31        -0.38378
      12 -> 36        -0.18949
      12 -> 37         0.50546

 Excited State 103:      Singlet-A'    18.4206 eV   67.31 nm  f=0.0072  <S**2>=0.000
       6 -> 18        -0.19177
       7 -> 23        -0.13670
       8 -> 25         0.18187
      10 -> 28         0.62511

 Excited State 104:      Singlet-A'    18.5052 eV   67.00 nm  f=0.0040  <S**2>=0.000
       6 -> 18        -0.16095
      11 -> 32         0.27131
      12 -> 38         0.59894

 Excited State 105:      Singlet-A'    18.5601 eV   66.80 nm  f=0.0914  <S**2>=0.000
       6 -> 18         0.60415
       8 -> 25        -0.12480
      10 -> 28         0.20676
      11 -> 32        -0.11951
      12 -> 38         0.19117

 Excited State 106:      Singlet-A'    18.5941 eV   66.68 nm  f=0.0511  <S**2>=0.000
       6 -> 18         0.21617
       8 -> 25         0.16164
       8 -> 26        -0.14060
      11 -> 32         0.58868
      12 -> 38        -0.18756

 Excited State 107:      Singlet-A"    18.6318 eV   66.54 nm  f=0.0009  <S**2>=0.000
       6 -> 19         0.70378

 Excited State 108:      Singlet-A'    18.6486 eV   66.48 nm  f=0.2337  <S**2>=0.000
       8 -> 25         0.60060
       8 -> 26         0.13447
      10 -> 28        -0.15951
      11 -> 32        -0.11165
      12 -> 38         0.18535

 Excited State 109:      Singlet-A"    18.8455 eV   65.79 nm  f=0.0096  <S**2>=0.000
       8 -> 27         0.69921

 Excited State 110:      Singlet-A'    18.9937 eV   65.28 nm  f=0.0182  <S**2>=0.000

 The electronic state is 1-A'.
 Alpha  occ. eigenvalues --  -24.44164 -10.08610 -10.00566  -1.13863  -0.71202
 Alpha  occ. eigenvalues --   -0.55920  -0.48800  -0.44252  -0.41500  -0.37545
 Alpha  occ. eigenvalues --   -0.33157  -0.24153
 Alpha virt. eigenvalues --   -0.02333   0.02190   0.04232   0.07093   0.09010
 Alpha virt. eigenvalues --    0.12000   0.12597   0.14102   0.15860   0.17116
 Alpha virt. eigenvalues --    0.18069   0.21600   0.23485   0.24846   0.25035

 Mulliken charges:
               1
     1  F   -0.454493
     2  C    0.615082
     3  C    0.008872
     4  H   -0.092991
     5  H   -0.081732
     6  H    0.005263
 Sum of Mulliken charges =  -0.00000

 Dipole moment (field-independent basis, Debye):
    X=              1.0977    Y=              0.7316    Z=              0.0000  Tot=              1.3191
 Quadrupole moment (field-independent basis, Debye-Ang):
   XX=            -17.7627   YY=            -15.8062   ZZ=            -18.9169
   XY=             -0.7819   XZ=              0.0000   YZ=              0.0000

 Normal termination of Gaussian 16 at Mon Mar 21 20:17:42 2022.
