 Gaussian 16, Revision C.01,
 Gaussian 16:  EM64L-G16RevC.01  3-Jul-2019

 ----------------------------------------------------------------------
 #P TD(Nstates=10000) tpsstpss/Gen SCF(maxcycles=100) Int(Grid=ultrafin
 e)
 ----------------------------------------------------------------------

 ---------------------
 xGDB7_00001_tier4.com
 ---------------------
 Symbolic Z-matrix:
 Charge =  0 Multiplicity = 1

                         Standard orientation:
 ---------------------------------------------------------------------
 Center     Atomic      Atomic             Coordinates (Angstroms)
 Number     Number       Type             X           Y           Z
 ---------------------------------------------------------------------
      1          8           0        0.000000   -0.000000    0.116015
      2          1           0        0.000000    0.761895   -0.464058
      3          1           0       -0.000000   -0.761895   -0.464058
 ---------------------------------------------------------------------

 SCF Done:  E(RTPSS-TPSS) =  -76.3811138686     A.U. after   10 cycles

 Excitation energies and oscillator strengths:

 Excited State   1:      Singlet-B1     7.2229 eV  171.65 nm  f=0.0571  <S**2>=0.000
       5 ->  6         0.70679
 This state for optimization and/or second-order correction.
 Total Energy, E(TD-HF/TD-DFT) =  -76.1156765037
 Copying the excited state density for this state as the 1-particle RhoCI density.

 Excited State   2:      Singlet-A2     8.9361 eV  138.75 nm  f=0.0000  <S**2>=0.000
       5 ->  7         0.70700

 Excited State   3:      Singlet-A1     9.2980 eV  133.34 nm  f=0.0999  <S**2>=0.000
       4 ->  6         0.69637
       5 ->  8         0.11423

 Excited State   4:      Singlet-B1    10.3598 eV  119.68 nm  f=0.0043  <S**2>=0.000
       5 ->  9         0.70674

 Excited State   5:      Singlet-A1    10.7056 eV  115.81 nm  f=0.0005  <S**2>=0.000
       4 ->  6        -0.10131
       4 ->  9        -0.14634
       5 ->  8         0.67545

 Excited State   6:      Singlet-B2    11.0327 eV  112.38 nm  f=0.0155  <S**2>=0.000
       4 ->  7         0.70452

 Excited State   7:      Singlet-A2    11.4796 eV  108.00 nm  f=0.0000  <S**2>=0.000
       5 -> 10         0.70685

 Excited State   8:      Singlet-B1    12.2177 eV  101.48 nm  f=0.0456  <S**2>=0.000
       4 ->  8         0.25668
       5 -> 11         0.65794

 Excited State   9:      Singlet-B1    12.3692 eV  100.24 nm  f=0.0014  <S**2>=0.000
       4 ->  8         0.65822
       5 -> 11        -0.25481

 Excited State  10:      Singlet-A1    12.7088 eV   97.56 nm  f=0.0355  <S**2>=0.000
       3 ->  7        -0.11628
       4 ->  9         0.67450
       5 ->  8         0.11408

 Excited State  11:      Singlet-B2    13.2908 eV   93.29 nm  f=0.0003  <S**2>=0.000
       3 ->  6        -0.37939
       4 -> 10        -0.14889
       5 -> 12         0.57764

 Excited State  12:      Singlet-B2    13.3632 eV   92.78 nm  f=0.0902  <S**2>=0.000
       3 ->  6         0.56224
       4 -> 10        -0.31644
       5 -> 12         0.28792

 Excited State  13:      Singlet-B1    13.7994 eV   89.85 nm  f=0.0600  <S**2>=0.000
       5 -> 13         0.70353

 Excited State  14:      Singlet-B2    13.9217 eV   89.06 nm  f=0.3269  <S**2>=0.000
       3 ->  6         0.19435
       4 -> 10         0.60708
       5 -> 12         0.28272

 Excited State  15:      Singlet-A1    14.2512 eV   87.00 nm  f=0.0656  <S**2>=0.000
       4 -> 11         0.68811
       5 -> 14         0.15178

 Excited State  16:      Singlet-A1    14.5960 eV   84.94 nm  f=0.0169  <S**2>=0.000
       3 ->  7         0.24931
       4 -> 11        -0.12159
       4 -> 13         0.13472
       5 -> 14         0.63350

 Excited State  17:      Singlet-A2    15.3761 eV   80.63 nm  f=0.0000  <S**2>=0.000
       4 -> 12         0.70670

 Excited State  18:      Singlet-A1    15.4037 eV   80.49 nm  f=0.0005  <S**2>=0.000
       3 ->  7         0.53540
       4 -> 13        -0.43898
       5 -> 14        -0.10327

 Excited State  19:      Singlet-A2    16.4036 eV   75.58 nm  f=0.0000  <S**2>=0.000
       3 ->  8         0.70686

 Excited State  20:      Singlet-B2    16.4941 eV   75.17 nm  f=0.0308  <S**2>=0.000
       3 ->  9         0.70505

 Excited State  21:      Singlet-B1    16.5639 eV   74.85 nm  f=0.0214  <S**2>=0.000
       4 -> 14         0.34529
       5 -> 15         0.61447

 Excited State  22:      Singlet-A1    16.7304 eV   74.11 nm  f=0.0446  <S**2>=0.000
       3 ->  7         0.30018
       3 -> 10         0.35815
       4 -> 13         0.46775
       5 -> 14        -0.17384

 Excited State  23:      Singlet-A2    16.7313 eV   74.10 nm  f=0.0000  <S**2>=0.000
       5 -> 16         0.70691

 Excited State  24:      Singlet-B1    16.7674 eV   73.94 nm  f=0.2075  <S**2>=0.000
       4 -> 14         0.61143
       5 -> 15        -0.34806

 Excited State  25:      Singlet-A2    17.5708 eV   70.56 nm  f=0.0000  <S**2>=0.000
       5 -> 17         0.70694

 Excited State  26:      Singlet-A1    18.3510 eV   67.56 nm  f=0.2566  <S**2>=0.000
       3 ->  7        -0.15676
       3 -> 10         0.55503
       3 -> 16        -0.11472
       4 -> 13        -0.21352
       4 -> 15         0.26500
       5 -> 14         0.12572

 Excited State  27:      Singlet-B2    18.4954 eV   67.04 nm  f=0.2105  <S**2>=0.000
       3 -> 11         0.67264
       4 -> 16         0.10491
       4 -> 17        -0.14518

 Excited State  28:      Singlet-A1    18.6027 eV   66.65 nm  f=0.0709  <S**2>=0.000
       3 -> 10        -0.22320
       4 -> 15         0.65458

 Excited State  29:      Singlet-B2    18.7930 eV   65.97 nm  f=0.0045  <S**2>=0.000
       4 -> 16         0.68865
       4 -> 17         0.13246

 Excited State  30:      Singlet-B1    19.4883 eV   63.62 nm  f=0.0950  <S**2>=0.000
       3 -> 12         0.69882

 Excited State  31:      Singlet-B2    19.8356 eV   62.51 nm  f=0.0141  <S**2>=0.000
       3 -> 13        -0.33095
       4 -> 17         0.60295

 Excited State  32:      Singlet-B2    19.8957 eV   62.32 nm  f=0.0228  <S**2>=0.000
       3 -> 11         0.12723
       3 -> 13         0.61865
       4 -> 17         0.29664

 Excited State  33:      Singlet-A2    20.6080 eV   60.16 nm  f=0.0000  <S**2>=0.000
       3 -> 14         0.70650

 Excited State  34:      Singlet-A2    21.0101 eV   59.01 nm  f=0.0000  <S**2>=0.000
       5 -> 18         0.70616

 Excited State  35:      Singlet-B1    21.7027 eV   57.13 nm  f=0.2165  <S**2>=0.000
       4 -> 20        -0.13372
       5 -> 19         0.68293

 Excited State  36:      Singlet-A1    22.4654 eV   55.19 nm  f=0.0760  <S**2>=0.000
       3 -> 16        -0.12010
       4 -> 19         0.23006
       5 -> 20         0.64125

 Excited State  37:      Singlet-B2    22.7098 eV   54.60 nm  f=0.0286  <S**2>=0.000
       3 -> 15         0.67907
       4 -> 18         0.17833

 Excited State  38:      Singlet-A1    23.0664 eV   53.75 nm  f=0.0003  <S**2>=0.000
       3 -> 16         0.56223
       3 -> 17         0.31886
       4 -> 19         0.26315

 Excited State  39:      Singlet-B2    23.0800 eV   53.72 nm  f=0.0100  <S**2>=0.000
       3 -> 15        -0.18005
       4 -> 18         0.53779
       5 -> 22        -0.42031

 Excited State  40:      Singlet-B1    23.2586 eV   53.31 nm  f=0.0011  <S**2>=0.000
       4 -> 20        -0.13649
       5 -> 21         0.69330

 Excited State  41:      Singlet-A1    23.5123 eV   52.73 nm  f=0.0526  <S**2>=0.000
       3 -> 16        -0.16113
       3 -> 17        -0.15565
       4 -> 19         0.60980
       4 -> 21        -0.10368
       5 -> 20        -0.24014

 Excited State  42:      Singlet-B2    24.0402 eV   51.57 nm  f=0.3518  <S**2>=0.000
       3 -> 19        -0.13911
       4 -> 18         0.39504
       5 -> 22         0.54050

 Excited State  43:      Singlet-A1    24.3894 eV   50.84 nm  f=0.0265  <S**2>=0.000
       2 ->  6        -0.27279
       3 -> 16        -0.28517
       3 -> 17         0.55411
       4 -> 21         0.10052

 Excited State  44:      Singlet-B1    24.6926 eV   50.21 nm  f=0.2730  <S**2>=0.000
       4 -> 20         0.67728
       5 -> 19         0.11998
       5 -> 21         0.13775

 Excited State  45:      Singlet-A2    25.4216 eV   48.77 nm  f=0.0000  <S**2>=0.000
       4 -> 22         0.70575

 Excited State  46:      Singlet-A1    25.5044 eV   48.61 nm  f=0.3193  <S**2>=0.000
       2 ->  6        -0.20907
       3 -> 17        -0.14757
       3 -> 18        -0.18625
       4 -> 21         0.62011

 Excited State  47:      Singlet-A1    26.3865 eV   46.99 nm  f=0.0104  <S**2>=0.000
       2 ->  6         0.57560
       3 -> 16        -0.16321
       3 -> 17         0.13944
       3 -> 18        -0.20583
       4 -> 21         0.18568

 Excited State  48:      Singlet-B2    27.4193 eV   45.22 nm  f=0.0584  <S**2>=0.000
       2 ->  7         0.65445
       3 -> 19         0.25841

 Excited State  49:      Singlet-B2    27.8646 eV   44.50 nm  f=0.0837  <S**2>=0.000
       2 ->  7        -0.23693
       3 -> 19         0.62218
       3 -> 21         0.19773

 Excited State  50:      Singlet-A1    28.0434 eV   44.21 nm  f=0.3095  <S**2>=0.000
       2 ->  6         0.13790
       2 ->  9         0.18704
       3 -> 18         0.61815
       4 -> 21         0.20112

 Excited State  51:      Singlet-A2    28.5289 eV   43.46 nm  f=0.0000  <S**2>=0.000
       3 -> 20         0.70621

 Excited State  52:      Singlet-B1    28.7193 eV   43.17 nm  f=0.0175  <S**2>=0.000
       2 ->  8         0.68870
       3 -> 22         0.15042

 Excited State  53:      Singlet-A1    28.7908 eV   43.06 nm  f=0.0246  <S**2>=0.000
       2 ->  9         0.67709
       3 -> 18        -0.16673

 Excited State  54:      Singlet-B2    29.9420 eV   41.41 nm  f=0.0414  <S**2>=0.000
       2 -> 10         0.68810
       3 -> 21         0.14328

 Excited State  55:      Singlet-B1    30.0276 eV   41.29 nm  f=0.2526  <S**2>=0.000
       2 ->  8        -0.14030
       3 -> 22         0.68260

 Excited State  56:      Singlet-B2    30.1720 eV   41.09 nm  f=0.2761  <S**2>=0.000
       2 -> 10        -0.14756
       3 -> 19        -0.14176
       3 -> 21         0.65246

 Excited State  57:      Singlet-A1    30.6547 eV   40.45 nm  f=0.0042  <S**2>=0.000
       2 -> 11         0.69264
       2 -> 13        -0.10513

 Excited State  58:      Singlet-B1    31.3764 eV   39.52 nm  f=0.0016  <S**2>=0.000
       5 -> 23         0.70102

 Excited State  59:      Singlet-A2    31.6654 eV   39.15 nm  f=0.0000  <S**2>=0.000
       2 -> 12         0.70702

 Excited State  60:      Singlet-A1    32.3504 eV   38.33 nm  f=0.0112  <S**2>=0.000
       2 -> 13         0.68539

 Excited State  61:      Singlet-B1    32.9182 eV   37.66 nm  f=0.0093  <S**2>=0.000
       2 -> 14         0.70456

 Excited State  62:      Singlet-A1    33.6449 eV   36.85 nm  f=0.0205  <S**2>=0.000
       2 -> 15        -0.16472
       4 -> 23         0.67486

 Excited State  63:      Singlet-A2    34.3301 eV   36.12 nm  f=0.0000  <S**2>=0.000
       5 -> 24         0.70664

 Excited State  64:      Singlet-B2    35.2032 eV   35.22 nm  f=0.0123  <S**2>=0.000
       2 -> 16         0.67515
       2 -> 17         0.18205

 Excited State  65:      Singlet-A1    35.4146 eV   35.01 nm  f=0.0110  <S**2>=0.000
       2 -> 15         0.65769
       4 -> 23         0.12237
       5 -> 25         0.17357

 Excited State  66:      Singlet-B2    36.1122 eV   34.33 nm  f=0.0100  <S**2>=0.000
       2 -> 16        -0.14959
       2 -> 17         0.65950
       3 -> 23        -0.12977
       4 -> 24         0.15387

 Excited State  67:      Singlet-B2    36.5063 eV   33.96 nm  f=0.0009  <S**2>=0.000
       2 -> 16         0.12672
       2 -> 17        -0.13783
       4 -> 24         0.67581

 Excited State  68:      Singlet-B2    37.8668 eV   32.74 nm  f=0.0595  <S**2>=0.000
       2 -> 18         0.14972
       3 -> 23         0.67339

 Excited State  69:      Singlet-B1    39.2161 eV   31.62 nm  f=0.0080  <S**2>=0.000
       5 -> 26         0.70345

 Excited State  70:      Singlet-A1    39.3676 eV   31.49 nm  f=0.0093  <S**2>=0.000
       2 -> 19        -0.25815
       3 -> 24         0.26554
       4 -> 26        -0.29041
       5 -> 25         0.51691

 Excited State  71:      Singlet-B2    39.7333 eV   31.20 nm  f=0.0020  <S**2>=0.000
       2 -> 18         0.68852
       3 -> 23        -0.13562

 Excited State  72:      Singlet-A1    39.8441 eV   31.12 nm  f=0.0006  <S**2>=0.000
       2 -> 19         0.64371
       3 -> 24         0.23126
       5 -> 25         0.16179

 Excited State  73:      Singlet-B1    40.7593 eV   30.42 nm  f=0.0010  <S**2>=0.000
       4 -> 25         0.70310

 Excited State  74:      Singlet-A1    40.8266 eV   30.37 nm  f=0.0272  <S**2>=0.000
       2 -> 19        -0.12680
       3 -> 24         0.53718
       4 -> 26         0.42597

 Excited State  75:      Singlet-B1    40.9348 eV   30.29 nm  f=0.0000  <S**2>=0.000
       2 -> 20         0.70586

 Excited State  76:      Singlet-A2    41.9362 eV   29.56 nm  f=0.0000  <S**2>=0.000
       2 -> 22         0.70640

 Excited State  77:      Singlet-A1    41.9651 eV   29.54 nm  f=0.0055  <S**2>=0.000
       2 -> 21         0.70376

 Excited State  78:      Singlet-A2    44.6936 eV   27.74 nm  f=0.0000  <S**2>=0.000
       3 -> 25         0.70542

 Excited State  79:      Singlet-B2    45.4570 eV   27.28 nm  f=0.0654  <S**2>=0.000
       3 -> 26         0.70358

 Excited State  80:      Singlet-A1    47.0420 eV   26.36 nm  f=0.0060  <S**2>=0.000
       2 -> 23        -0.32026
       3 -> 24        -0.23745
       3 -> 27         0.14417
       4 -> 26         0.41721
       5 -> 25         0.31842

 Excited State  81:      Singlet-A2    47.6529 eV   26.02 nm  f=0.0000  <S**2>=0.000
       5 -> 27         0.70517

 Excited State  82:      Singlet-B2    49.8194 eV   24.89 nm  f=0.0334  <S**2>=0.000
       4 -> 27         0.68194
       5 -> 29         0.18098

 Excited State  83:      Singlet-B1    50.8023 eV   24.41 nm  f=0.0874  <S**2>=0.000
       5 -> 28         0.70254

 Excited State  84:      Singlet-A1    50.8234 eV   24.40 nm  f=0.0946  <S**2>=0.000
       2 -> 23         0.60104
       3 -> 24        -0.10531
       3 -> 27         0.26035
       4 -> 26         0.13936
       5 -> 25         0.13723

 Excited State  85:      Singlet-B2    52.1318 eV   23.78 nm  f=0.0901  <S**2>=0.000
       2 -> 24         0.20096
       4 -> 27        -0.16385
       5 -> 29         0.64543

 Excited State  86:      Singlet-A1    52.6751 eV   23.54 nm  f=0.0236  <S**2>=0.000
       3 -> 27         0.13324
       4 -> 28         0.69138

 Excited State  87:      Singlet-B2    53.0950 eV   23.35 nm  f=0.1013  <S**2>=0.000
       2 -> 24         0.67625
       5 -> 29        -0.19217

 Excited State  88:      Singlet-A2    53.6582 eV   23.11 nm  f=0.0000  <S**2>=0.000
       4 -> 29         0.70646

 Excited State  89:      Singlet-A1    55.5356 eV   22.33 nm  f=0.0116  <S**2>=0.000
       2 -> 23        -0.15225
       2 -> 26         0.21182
       3 -> 27         0.48014
       4 -> 26        -0.10877
       4 -> 28        -0.11641
       5 -> 25        -0.12034
       5 -> 30         0.37330

 Excited State  90:      Singlet-A1    56.2858 eV   22.03 nm  f=0.0555  <S**2>=0.000
       3 -> 27        -0.34581
       4 -> 32        -0.11958
       5 -> 30         0.58582

 Excited State  91:      Singlet-B2    56.9575 eV   21.77 nm  f=0.0161  <S**2>=0.000
       3 -> 28         0.69709

 Excited State  92:      Singlet-B1    57.3521 eV   21.62 nm  f=0.1203  <S**2>=0.000
       2 -> 25         0.69800
       3 -> 29        -0.10039

 Excited State  93:      Singlet-B1    57.9090 eV   21.41 nm  f=0.0000  <S**2>=0.000
       3 -> 29        -0.34154
       4 -> 30         0.60123
       5 -> 32         0.12363

 Excited State  94:      Singlet-B1    58.1739 eV   21.31 nm  f=0.2514  <S**2>=0.000
       3 -> 29         0.56495
       4 -> 30         0.26526
       5 -> 32         0.31200

 Excited State  95:      Singlet-A1    58.2292 eV   21.29 nm  f=0.1021  <S**2>=0.000
       2 -> 26         0.66425
       3 -> 27        -0.16810

 Excited State  96:      Singlet-A2    59.0829 eV   20.98 nm  f=0.0000  <S**2>=0.000
       3 -> 30        -0.10569
       5 -> 31         0.69895

 Excited State  97:      Singlet-B1    59.6362 eV   20.79 nm  f=0.1686  <S**2>=0.000
       3 -> 29        -0.21452
       4 -> 30        -0.25028
       5 -> 32         0.62178

 Excited State  98:      Singlet-B2    61.1513 eV   20.27 nm  f=0.0150  <S**2>=0.000
       4 -> 31         0.70192

 Excited State  99:      Singlet-A1    61.7810 eV   20.07 nm  f=0.2404  <S**2>=0.000
       3 -> 31         0.12916
       4 -> 32         0.68105

 Excited State 100:      Singlet-A2    61.8185 eV   20.06 nm  f=0.0000  <S**2>=0.000
       3 -> 30         0.69792
       5 -> 31         0.10581

 Excited State 101:      Singlet-A1    65.1788 eV   19.02 nm  f=0.0001  <S**2>=0.000
       3 -> 31         0.68861
       4 -> 32        -0.11650

 Excited State 102:      Singlet-B2    65.4730 eV   18.94 nm  f=0.1074  <S**2>=0.000
       3 -> 32         0.69567

 Excited State 103:      Singlet-B2    66.4706 eV   18.65 nm  f=0.0484  <S**2>=0.000
       2 -> 27         0.69955

 Excited State 104:      Singlet-A2    67.3443 eV   18.41 nm  f=0.0000  <S**2>=0.000
       5 -> 33         0.70569

 Excited State 105:      Singlet-B2    69.8285 eV   17.76 nm  f=0.0114  <S**2>=0.000
       4 -> 33         0.70071

 Excited State 106:      Singlet-A2    70.2689 eV   17.64 nm  f=0.0000  <S**2>=0.000
       2 -> 29         0.70621

 Excited State 107:      Singlet-A1    70.7739 eV   17.52 nm  f=0.0029  <S**2>=0.000
       2 -> 28         0.64977
       3 -> 33        -0.18571
       4 -> 34        -0.13064

 Excited State 108:      Singlet-B1    72.0226 eV   17.21 nm  f=0.1428  <S**2>=0.000
       5 -> 34         0.69285

 Excited State 109:      Singlet-A1    72.8275 eV   17.02 nm  f=0.0088  <S**2>=0.000
       3 -> 33        -0.18188
       4 -> 34         0.67752

 Excited State 110:      Singlet-B1    74.3201 eV   16.68 nm  f=0.0437  <S**2>=0.000
       2 -> 30         0.70153

 Excited State 111:      Singlet-A1    74.5215 eV   16.64 nm  f=0.0279  <S**2>=0.000
       2 -> 28         0.19872
       3 -> 33         0.64733
       4 -> 34         0.14364

 Excited State 112:      Singlet-B2    76.6422 eV   16.18 nm  f=0.0098  <S**2>=0.000
       2 -> 31         0.16349
       3 -> 34         0.68298

 Excited State 113:      Singlet-B2    77.3443 eV   16.03 nm  f=0.0003  <S**2>=0.000
       2 -> 31         0.68750
       3 -> 34        -0.16182

 Excited State 114:      Singlet-A1    77.9864 eV   15.90 nm  f=0.0043  <S**2>=0.000
       2 -> 32         0.70442

 Excited State 115:      Singlet-B2    86.0779 eV   14.40 nm  f=0.0199  <S**2>=0.000
       2 -> 33         0.70460

 Excited State 116:      Singlet-A1    88.8022 eV   13.96 nm  f=0.1432  <S**2>=0.000
       4 -> 37        -0.21629
       5 -> 35         0.66247

 Excited State 117:      Singlet-A1    89.8971 eV   13.79 nm  f=0.0299  <S**2>=0.000
       2 -> 34         0.69923

 Excited State 118:      Singlet-B1    90.3018 eV   13.73 nm  f=0.0741  <S**2>=0.000
       3 -> 36        -0.16754
       4 -> 35         0.63601
       5 -> 37         0.24981

 Excited State 119:      Singlet-B2    90.9111 eV   13.64 nm  f=0.2122  <S**2>=0.000
       3 -> 37         0.10955
       5 -> 36         0.68810

 Excited State 120:      Singlet-A2    91.1522 eV   13.60 nm  f=0.0000  <S**2>=0.000
       3 -> 35         0.13178
       4 -> 36         0.69400

 Excited State 121:      Singlet-A2    93.4275 eV   13.27 nm  f=0.0000  <S**2>=0.000
       3 -> 35         0.69444
       4 -> 36        -0.13238

 Excited State 122:      Singlet-B1    93.4726 eV   13.26 nm  f=0.0265  <S**2>=0.000
       3 -> 36         0.21470
       4 -> 35        -0.19326
       5 -> 37         0.64464

 Excited State 123:      Singlet-B1    96.7571 eV   12.81 nm  f=0.1949  <S**2>=0.000
       3 -> 36         0.63051
       4 -> 35         0.20028
       5 -> 37        -0.14041
       5 -> 38         0.19180

 Excited State 124:      Singlet-A1    97.6699 eV   12.69 nm  f=0.3050  <S**2>=0.000
       4 -> 37         0.66754
       5 -> 35         0.20845

 Excited State 125:      Singlet-B2    99.5150 eV   12.46 nm  f=0.0664  <S**2>=0.000
       3 -> 37         0.69390

 Excited State 126:      Singlet-B1   106.5709 eV   11.63 nm  f=0.0605  <S**2>=0.000
       2 -> 35         0.58581
       5 -> 38        -0.38200

 Excited State 127:      Singlet-A1   107.2836 eV   11.56 nm  f=0.0162  <S**2>=0.000
       4 -> 38         0.70449

 Excited State 128:      Singlet-B1   107.3229 eV   11.55 nm  f=0.2654  <S**2>=0.000
       2 -> 35         0.39496
       3 -> 36        -0.13555
       5 -> 38         0.55964

 Excited State 129:      Singlet-A2   108.3394 eV   11.44 nm  f=0.0000  <S**2>=0.000
       2 -> 36         0.70632

 Excited State 130:      Singlet-B2   111.4474 eV   11.12 nm  f=0.0691  <S**2>=0.000
       3 -> 38         0.69800

 Excited State 131:      Singlet-A1   112.1268 eV   11.06 nm  f=0.0060  <S**2>=0.000
       2 -> 37         0.70559

 Excited State 132:      Singlet-A2   116.1596 eV   10.67 nm  f=0.0000  <S**2>=0.000
       5 -> 39         0.70672

 Excited State 133:      Singlet-B2   119.1968 eV   10.40 nm  f=0.1614  <S**2>=0.000
       4 -> 39         0.69804

 Excited State 134:      Singlet-A1   122.5765 eV   10.11 nm  f=0.0763  <S**2>=0.000
       2 -> 38         0.19332
       3 -> 39         0.67593

 Excited State 135:      Singlet-A1   123.8823 eV   10.01 nm  f=0.0318  <S**2>=0.000
       2 -> 38         0.67967
       3 -> 39        -0.19284

 Excited State 136:      Singlet-B2   134.7229 eV    9.20 nm  f=0.0032  <S**2>=0.000
       2 -> 39         0.70667

 The electronic state is 1-A1.
 Alpha  occ. eigenvalues --  -18.90872  -0.94044  -0.49441  -0.34515  -0.27103
 Alpha virt. eigenvalues --   -0.00954   0.05864   0.10875   0.11071   0.15371
 Alpha virt. eigenvalues --    0.17916   0.22321   0.23710   0.26720   0.33895
 Alpha virt. eigenvalues --    0.34640   0.37883   0.50697   0.51773   0.55835

 Mulliken charges:
               1
     1  O   -0.277225
     2  H    0.138612
     3  H    0.138612
 Sum of Mulliken charges =  -0.00000

 Dipole moment (field-independent basis, Debye):
    X=             -0.0000    Y=             -0.0000    Z=             -1.8203  Tot=              1.8203
 Quadrupole moment (field-independent basis, Debye-Ang):
   XX=             -7.8222   YY=             -4.5351   ZZ=             -6.5418
   XY=              0.0000   XZ=              0.0000   YZ=              0.0000

 Normal termination of Gaussian 16 at Mon Mar 21 20:26:18 2022.
