 Gaussian 16, Revision C.01,
 Gaussian 16:  EM64L-G16RevC.01  3-Jul-2019

 ----------------------------------------------------------------------
 #P TD(Nstates=10000) tpsstpss/Gen SCF(maxcycles=100) Int(Grid=ultrafin
 e)
 ----------------------------------------------------------------------

 ---------------------
 xGDB7_00001_tier4.com
 ---------------------
 Symbolic Z-matrix:
 Charge =  0 Multiplicity = 1

                         Standard orientation:
 ---------------------------------------------------------------------
 Center     Atomic      Atomic             Coordinates (Angstroms)
 Number     Number       Type             X           Y           Z
 ---------------------------------------------------------------------
      1          6           0       -1.240791   -0.237624   -0.027525
      2          6           0        0.048946    0.559205    0.053709
      3          7           0        1.202342   -0.317606   -0.116703
      4          1           0       -2.109817    0.415828    0.064703
      5          1           0       -1.292929   -0.976209    0.776809
      6          1           0       -1.300329   -0.769884   -0.977746
      7          1           0        0.066306    1.122818    0.997967
      8          1           0        0.069957    1.296574   -0.752592
      9          1           0        1.236408   -1.003082    0.627159
     10          1           0        2.065080    0.207710   -0.076483
 ---------------------------------------------------------------------

 SCF Done:  E(RTPSS-TPSS) =  -135.106434204     A.U. after   13 cycles

 Excitation energies and oscillator strengths:

 Excited State   1:      Singlet-A      5.8016 eV  213.71 nm  f=0.0110  <S**2>=0.000
      13 -> 14         0.70669
 This state for optimization and/or second-order correction.
 Total Energy, E(TD-HF/TD-DFT) =  -134.893230808
 Copying the excited state density for this state as the 1-particle RhoCI density.

 Excited State   2:      Singlet-A      6.5819 eV  188.37 nm  f=0.0028  <S**2>=0.000
      13 -> 15         0.70409

 Excited State   3:      Singlet-A      6.8842 eV  180.10 nm  f=0.0289  <S**2>=0.000
      13 -> 16         0.70395

 Excited State   4:      Singlet-A      7.5104 eV  165.08 nm  f=0.0661  <S**2>=0.000
      13 -> 17         0.70587

 Excited State   5:      Singlet-A      7.9640 eV  155.68 nm  f=0.0228  <S**2>=0.000
      13 -> 18         0.70561

 Excited State   6:      Singlet-A      8.4657 eV  146.45 nm  f=0.0086  <S**2>=0.000
      13 -> 19         0.70177

 Excited State   7:      Singlet-A      8.6911 eV  142.66 nm  f=0.0045  <S**2>=0.000
      13 -> 20         0.70043

 Excited State   8:      Singlet-A      8.8010 eV  140.87 nm  f=0.0017  <S**2>=0.000
      12 -> 14         0.69660

 Excited State   9:      Singlet-A      8.9373 eV  138.73 nm  f=0.0133  <S**2>=0.000
      13 -> 21         0.69240

 Excited State  10:      Singlet-A      9.2328 eV  134.29 nm  f=0.0081  <S**2>=0.000
      11 -> 14         0.70295

 Excited State  11:      Singlet-A      9.4222 eV  131.59 nm  f=0.0585  <S**2>=0.000
      10 -> 14         0.70231

 Excited State  12:      Singlet-A      9.5217 eV  130.21 nm  f=0.0041  <S**2>=0.000
      12 -> 15        -0.24206
      13 -> 22         0.65009

 Excited State  13:      Singlet-A      9.5869 eV  129.33 nm  f=0.0290  <S**2>=0.000
      12 -> 15         0.65837
      13 -> 22         0.22161

 Excited State  14:      Singlet-A      9.7506 eV  127.16 nm  f=0.0024  <S**2>=0.000
      13 -> 23         0.69563

 Excited State  15:      Singlet-A      9.8693 eV  125.63 nm  f=0.0047  <S**2>=0.000
      12 -> 16        -0.10382
      13 -> 24         0.68382

 Excited State  16:      Singlet-A      9.9080 eV  125.13 nm  f=0.1039  <S**2>=0.000
      12 -> 16         0.69355
      13 -> 24         0.10678

 Excited State  17:      Singlet-A     10.0252 eV  123.67 nm  f=0.0549  <S**2>=0.000
      11 -> 15         0.69822

 Excited State  18:      Singlet-A     10.2101 eV  121.43 nm  f=0.0197  <S**2>=0.000
      10 -> 15         0.69437

 Excited State  19:      Singlet-A     10.2977 eV  120.40 nm  f=0.0203  <S**2>=0.000
      11 -> 16         0.68383

 Excited State  20:      Singlet-A     10.4371 eV  118.79 nm  f=0.0305  <S**2>=0.000
      10 -> 16         0.23985
      13 -> 25         0.62148
      13 -> 26        -0.15400

 Excited State  21:      Singlet-A     10.4718 eV  118.40 nm  f=0.0150  <S**2>=0.000
      10 -> 16         0.59104
      12 -> 17        -0.29120
      13 -> 25        -0.21898

 Excited State  22:      Singlet-A     10.5611 eV  117.40 nm  f=0.0487  <S**2>=0.000
      10 -> 16         0.27864
      12 -> 17         0.63087

 Excited State  23:      Singlet-A     10.7837 eV  114.97 nm  f=0.0069  <S**2>=0.000
       9 -> 14        -0.21442
      11 -> 17         0.10726
      13 -> 26         0.58069
      13 -> 27        -0.30421

 Excited State  24:      Singlet-A     10.8690 eV  114.07 nm  f=0.0031  <S**2>=0.000
       9 -> 14         0.51417
      11 -> 17        -0.32935
      13 -> 27        -0.32688

 Excited State  25:      Singlet-A     10.9165 eV  113.58 nm  f=0.0573  <S**2>=0.000
       9 -> 14         0.41726
      11 -> 17         0.51954
      13 -> 26         0.11798
      13 -> 27         0.14794

 Excited State  26:      Singlet-A     10.9331 eV  113.40 nm  f=0.0146  <S**2>=0.000
      12 -> 18         0.58874
      13 -> 26        -0.20313
      13 -> 27        -0.30208

 Excited State  27:      Singlet-A     11.0685 eV  112.02 nm  f=0.1244  <S**2>=0.000
      10 -> 17        -0.27479
      11 -> 17        -0.28625
      12 -> 18         0.34571
      12 -> 19        -0.10876
      13 -> 25         0.11697
      13 -> 26         0.20882
      13 -> 27         0.35789

 Excited State  28:      Singlet-A     11.0787 eV  111.91 nm  f=0.0413  <S**2>=0.000
      10 -> 17         0.64287
      11 -> 17        -0.11454
      13 -> 26         0.12243
      13 -> 27         0.16771

 Excited State  29:      Singlet-A     11.3949 eV  108.81 nm  f=0.0203  <S**2>=0.000
      11 -> 18         0.69168

 Excited State  30:      Singlet-A     11.4910 eV  107.90 nm  f=0.0207  <S**2>=0.000
      10 -> 18        -0.15005
      12 -> 19         0.66043
      12 -> 20         0.11339

 Excited State  31:      Singlet-A     11.5828 eV  107.04 nm  f=0.0614  <S**2>=0.000
       9 -> 15        -0.12717
      10 -> 18         0.61113
      12 -> 19         0.16530
      12 -> 20        -0.16114
      13 -> 28        -0.18350

 Excited State  32:      Singlet-A     11.6232 eV  106.67 nm  f=0.0192  <S**2>=0.000
       9 -> 15         0.56014
      10 -> 18         0.16842
      12 -> 20        -0.12997
      13 -> 28         0.35856

 Excited State  33:      Singlet-A     11.6866 eV  106.09 nm  f=0.0646  <S**2>=0.000
       9 -> 15        -0.34231
      10 -> 18         0.14316
      12 -> 20         0.24107
      13 -> 28         0.52502

 Excited State  34:      Singlet-A     11.7660 eV  105.37 nm  f=0.0495  <S**2>=0.000
       8 -> 14         0.16491
       9 -> 15         0.18792
      10 -> 18         0.13356
      11 -> 19        -0.22571
      12 -> 20         0.55533
      13 -> 28        -0.15436

 Excited State  35:      Singlet-A     11.8908 eV  104.27 nm  f=0.0283  <S**2>=0.000
       8 -> 14         0.27980
      11 -> 19         0.56193
      12 -> 21         0.28465

 Excited State  36:      Singlet-A     11.8943 eV  104.24 nm  f=0.0261  <S**2>=0.000
       8 -> 14        -0.30750
       9 -> 16         0.34680
      12 -> 21         0.50474
      13 -> 29        -0.13791

 Excited State  37:      Singlet-A     11.9668 eV  103.61 nm  f=0.0194  <S**2>=0.000
       8 -> 14         0.26298
       9 -> 16        -0.30349
      10 -> 19        -0.16385
      11 -> 19        -0.32043
      12 -> 20        -0.17436
      12 -> 21         0.35728

 Excited State  38:      Singlet-A     11.9770 eV  103.52 nm  f=0.1047  <S**2>=0.000
       8 -> 14         0.42546
       9 -> 16         0.49180
      11 -> 19        -0.11038
      13 -> 28         0.11308
      13 -> 29         0.10514

 Excited State  39:      Singlet-A     12.0840 eV  102.60 nm  f=0.1248  <S**2>=0.000
       8 -> 14        -0.13676
      11 -> 20        -0.18801
      13 -> 29         0.63236

 Excited State  40:      Singlet-A     12.0959 eV  102.50 nm  f=0.0133  <S**2>=0.000
      10 -> 19        -0.25328
      11 -> 20         0.61546
      13 -> 29         0.18169

 Excited State  41:      Singlet-A     12.1696 eV  101.88 nm  f=0.0304  <S**2>=0.000
      10 -> 19         0.58596
      10 -> 20        -0.17651
      11 -> 20         0.26698

 Excited State  42:      Singlet-A     12.3201 eV  100.64 nm  f=0.0919  <S**2>=0.000
      10 -> 19         0.10353
      10 -> 20         0.63471
      11 -> 21         0.21561

 Excited State  43:      Singlet-A     12.3771 eV  100.17 nm  f=0.0126  <S**2>=0.000
       9 -> 17         0.17453
      10 -> 20        -0.15896
      10 -> 21         0.22516
      11 -> 21         0.58154
      12 -> 22         0.10954

 Excited State  44:      Singlet-A     12.5184 eV   99.04 nm  f=0.0092  <S**2>=0.000
       7 -> 14        -0.15189
       9 -> 17        -0.22814
      10 -> 21         0.29549
      12 -> 22         0.54895

 Excited State  45:      Singlet-A     12.5300 eV   98.95 nm  f=0.0201  <S**2>=0.000
       7 -> 14         0.19090
       9 -> 17        -0.29204
      10 -> 21         0.46660
      12 -> 22        -0.33185
      13 -> 30        -0.11515
      13 -> 31        -0.11240

 Excited State  46:      Singlet-A     12.5789 eV   98.56 nm  f=0.0741  <S**2>=0.000
       7 -> 14         0.59751
       9 -> 17        -0.17298
      10 -> 21        -0.17948
      12 -> 22         0.17119
      12 -> 23         0.11988

 Excited State  47:      Singlet-A     12.6297 eV   98.17 nm  f=0.0140  <S**2>=0.000
       7 -> 14         0.18728
       8 -> 15        -0.19679
       9 -> 17         0.46589
      10 -> 21         0.22659
      11 -> 21        -0.15568
      12 -> 23         0.18608
      13 -> 31        -0.12764

 Excited State  48:      Singlet-A     12.6349 eV   98.13 nm  f=0.0436  <S**2>=0.000
       8 -> 15         0.64504
       9 -> 17         0.17371
      13 -> 30         0.14319

 Excited State  49:      Singlet-A     12.6862 eV   97.73 nm  f=0.0049  <S**2>=0.000
       8 -> 15        -0.11816
       9 -> 17        -0.11071
      12 -> 23        -0.12433
      13 -> 30         0.64585

 Excited State  50:      Singlet-A     12.8075 eV   96.81 nm  f=0.0518  <S**2>=0.000
      12 -> 22        -0.10273
      12 -> 23         0.57733
      12 -> 24        -0.23819
      13 -> 31         0.15711

 Excited State  51:      Singlet-A     12.8226 eV   96.69 nm  f=0.0666  <S**2>=0.000
       8 -> 16        -0.16117
      10 -> 21         0.11376
      11 -> 21        -0.11551
      12 -> 23        -0.13302
      13 -> 31         0.61879

 Excited State  52:      Singlet-A     12.8859 eV   96.22 nm  f=0.0096  <S**2>=0.000
       8 -> 16        -0.15350
       9 -> 18         0.10619
      11 -> 22        -0.37795
      12 -> 23         0.11462
      12 -> 24         0.53127

 Excited State  53:      Singlet-A     12.9289 eV   95.90 nm  f=0.0083  <S**2>=0.000
       8 -> 16        -0.33419
       9 -> 18         0.25251
      11 -> 22         0.50227
      11 -> 23        -0.11395
      12 -> 24         0.17040

 Excited State  54:      Singlet-A     12.9663 eV   95.62 nm  f=0.0745  <S**2>=0.000
       8 -> 16         0.54459
       9 -> 18         0.19722
      10 -> 22         0.20517
      11 -> 22         0.12590
      12 -> 23         0.11646
      12 -> 24         0.19857
      13 -> 31         0.15623

 Excited State  55:      Singlet-A     13.0335 eV   95.13 nm  f=0.0361  <S**2>=0.000
       8 -> 16        -0.10413
       9 -> 18         0.50679
      10 -> 22         0.23722
      11 -> 22        -0.19737
      11 -> 23         0.24972
      12 -> 24        -0.17183

 Excited State  56:      Singlet-A     13.1196 eV   94.50 nm  f=0.0763  <S**2>=0.000
       9 -> 18        -0.29274
      10 -> 22         0.56376
      11 -> 23         0.11022
      11 -> 24        -0.11223

 Excited State  57:      Singlet-A     13.2368 eV   93.67 nm  f=0.0043  <S**2>=0.000
       7 -> 15        -0.16257
       8 -> 17        -0.13716
       9 -> 20         0.10940
      10 -> 22        -0.13505
      10 -> 23        -0.20505
      11 -> 23         0.56528
      12 -> 24         0.10179

 Excited State  58:      Singlet-A     13.3070 eV   93.17 nm  f=0.0110  <S**2>=0.000
       7 -> 15        -0.25403
      10 -> 23         0.56205
      10 -> 24         0.11932
      11 -> 24        -0.20655
      12 -> 25         0.19010

 Excited State  59:      Singlet-A     13.3340 eV   92.98 nm  f=0.0299  <S**2>=0.000
       7 -> 15        -0.22199
      10 -> 24        -0.10207
      11 -> 24         0.51854
      12 -> 25         0.37913

 Excited State  60:      Singlet-A     13.3744 eV   92.70 nm  f=0.0839  <S**2>=0.000
       7 -> 15         0.55990
       9 -> 19         0.17542
      10 -> 23         0.11348
      11 -> 23         0.12026
      12 -> 25         0.30878

 Excited State  61:      Singlet-A     13.4589 eV   92.12 nm  f=0.0379  <S**2>=0.000
       9 -> 19        -0.29734
      10 -> 23        -0.23966
      11 -> 24        -0.33026
      11 -> 25         0.13804
      12 -> 25         0.42877

 Excited State  62:      Singlet-A     13.5224 eV   91.69 nm  f=0.0076  <S**2>=0.000
       9 -> 19        -0.35630
      10 -> 24         0.55827
      11 -> 24         0.13983

 Excited State  63:      Singlet-A     13.5699 eV   91.37 nm  f=0.0109  <S**2>=0.000
       8 -> 17         0.52159
       9 -> 19         0.25244
      10 -> 23        -0.15150
      10 -> 24         0.25297
      13 -> 32        -0.15740

 Excited State  64:      Singlet-A     13.5950 eV   91.20 nm  f=0.0065  <S**2>=0.000
       7 -> 16         0.58060
       8 -> 17        -0.19766
       9 -> 19         0.20055
      10 -> 24         0.11729
      13 -> 32         0.18586

 Excited State  65:      Singlet-A     13.6435 eV   90.87 nm  f=0.0073  <S**2>=0.000
       7 -> 16        -0.13716
       8 -> 17         0.12907
      12 -> 26        -0.11761
      13 -> 32         0.56500
      13 -> 33         0.33032

 Excited State  66:      Singlet-A     13.6653 eV   90.73 nm  f=0.0244  <S**2>=0.000
       8 -> 17        -0.17580
      12 -> 26         0.12958
      13 -> 32        -0.23595
      13 -> 33         0.55663
      13 -> 34        -0.24176

 Excited State  67:      Singlet-A     13.7102 eV   90.43 nm  f=0.0036  <S**2>=0.000
       7 -> 16        -0.29923
       8 -> 17        -0.14827
       9 -> 19         0.18565
       9 -> 20        -0.18499
      10 -> 24         0.15265
      10 -> 25        -0.12516
      11 -> 25         0.21024
      12 -> 26         0.32337
      12 -> 27         0.11018
      13 -> 32         0.15279
      13 -> 33        -0.19954
      13 -> 34        -0.10455

 Excited State  68:      Singlet-A     13.7411 eV   90.23 nm  f=0.0230  <S**2>=0.000
       8 -> 17         0.13020
       9 -> 19        -0.12313
       9 -> 20         0.33128
      11 -> 25         0.27149
      12 -> 26         0.42005
      13 -> 34         0.24365

 Excited State  69:      Singlet-A     13.7890 eV   89.92 nm  f=0.0383  <S**2>=0.000
       8 -> 17        -0.10046
       9 -> 19         0.15147
       9 -> 21         0.21694
      12 -> 27         0.12533
      13 -> 32        -0.13621
      13 -> 34         0.55771

 Excited State  70:      Singlet-A     13.8717 eV   89.38 nm  f=0.0080  <S**2>=0.000
       7 -> 17        -0.11551
       8 -> 17        -0.11775
       8 -> 18         0.37147
       9 -> 20         0.36042
       9 -> 21         0.20981
      12 -> 26        -0.15099
      12 -> 27        -0.28444

 Excited State  71:      Singlet-A     13.9239 eV   89.04 nm  f=0.0667  <S**2>=0.000
       9 -> 20         0.24540
       9 -> 21         0.21964
      10 -> 25         0.12156
      11 -> 25        -0.15930
      12 -> 27         0.52943
      13 -> 34        -0.13510

 Excited State  72:      Singlet-A     13.9678 eV   88.76 nm  f=0.1008  <S**2>=0.000
       7 -> 17         0.11702
       9 -> 20        -0.20291
       9 -> 21         0.37405
      10 -> 25         0.32702
      11 -> 25         0.35014
      12 -> 26        -0.11393

 Excited State  73:      Singlet-A     14.0607 eV   88.18 nm  f=0.0318  <S**2>=0.000
       8 -> 18         0.24781
       9 -> 21        -0.37450
      10 -> 25         0.45116
      11 -> 26        -0.12977
      12 -> 27         0.12341

 Excited State  74:      Singlet-A     14.0994 eV   87.94 nm  f=0.0537  <S**2>=0.000
       7 -> 17         0.33712
       8 -> 18         0.33026
       9 -> 20        -0.12565
       9 -> 21         0.18812
      10 -> 26        -0.15886
      11 -> 25        -0.22381
      11 -> 27         0.13834
      12 -> 26         0.21354

 Excited State  75:      Singlet-A     14.1238 eV   87.78 nm  f=0.0987  <S**2>=0.000
       7 -> 17         0.32594
       8 -> 18         0.24779
      10 -> 25        -0.30499
      10 -> 26         0.22592
      11 -> 25         0.23337
      12 -> 26        -0.16498
      12 -> 27         0.19036

 Excited State  76:      Singlet-A     14.2565 eV   86.97 nm  f=0.0790  <S**2>=0.000
      10 -> 27         0.12022
      11 -> 26         0.47788
      11 -> 27         0.28586
      13 -> 35        -0.35797

 Excited State  77:      Singlet-A     14.2809 eV   86.82 nm  f=0.0204  <S**2>=0.000
      10 -> 26        -0.10250
      11 -> 26         0.11035
      11 -> 27         0.46262
      13 -> 35         0.49198

 Excited State  78:      Singlet-A     14.3202 eV   86.58 nm  f=0.0565  <S**2>=0.000
       8 -> 19        -0.12658
      11 -> 25         0.11024
      11 -> 26        -0.35410
      11 -> 27         0.38593
      12 -> 28        -0.20360
      13 -> 35        -0.30955

 Excited State  79:      Singlet-A     14.4133 eV   86.02 nm  f=0.0317  <S**2>=0.000
       7 -> 18        -0.10628
      10 -> 26         0.61703
      11 -> 25        -0.11325

 Excited State  80:      Singlet-A     14.4846 eV   85.60 nm  f=0.0041  <S**2>=0.000
       7 -> 17         0.21502
       7 -> 18         0.14164
       8 -> 18        -0.11349
       8 -> 19        -0.33913
       9 -> 22        -0.16758
      10 -> 27         0.47186

 Excited State  81:      Singlet-A     14.5325 eV   85.32 nm  f=0.0187  <S**2>=0.000
       7 -> 17        -0.24016
       7 -> 18        -0.19213
       8 -> 18         0.12038
       8 -> 19         0.30759
       8 -> 20         0.11773
       9 -> 22        -0.22708
      10 -> 27         0.36556
      12 -> 28        -0.11475
      13 -> 36        -0.16098

 Excited State  82:      Singlet-A     14.5529 eV   85.20 nm  f=0.0233  <S**2>=0.000
       8 -> 19         0.19831
       9 -> 22         0.58868
      10 -> 27         0.24924

 Excited State  83:      Singlet-A     14.6004 eV   84.92 nm  f=0.1110  <S**2>=0.000
       7 -> 17         0.18091
       7 -> 18         0.30174
       8 -> 18        -0.11598
       8 -> 19         0.35369
       9 -> 22        -0.11837
      12 -> 28        -0.26707
      13 -> 36        -0.22802

 Excited State  84:      Singlet-A     14.6665 eV   84.54 nm  f=0.0218  <S**2>=0.000
       8 -> 19         0.19661
       8 -> 20         0.13213
      13 -> 36         0.59646
      13 -> 37         0.13892

 Excited State  85:      Singlet-A     14.7225 eV   84.21 nm  f=0.0399  <S**2>=0.000
       7 -> 18         0.27651
       8 -> 20         0.43405
       9 -> 23        -0.19913
      12 -> 28         0.35699

 Excited State  86:      Singlet-A     14.7500 eV   84.06 nm  f=0.0241  <S**2>=0.000
       7 -> 17        -0.10429
       7 -> 18         0.20299
       8 -> 19        -0.12378
       8 -> 20         0.31161
       9 -> 23         0.43187
       9 -> 24        -0.10788
      12 -> 28        -0.25055

 Excited State  87:      Singlet-A     14.8272 eV   83.62 nm  f=0.0104  <S**2>=0.000
       7 -> 17        -0.10435
       7 -> 18         0.28609
       8 -> 20        -0.24664
      13 -> 37         0.38123
      13 -> 38         0.36631

 Excited State  88:      Singlet-A     14.8723 eV   83.37 nm  f=0.0099  <S**2>=0.000
       9 -> 23         0.16880
      11 -> 28        -0.18234
      13 -> 37        -0.35623
      13 -> 38         0.50479

 Excited State  89:      Singlet-A     14.9085 eV   83.16 nm  f=0.0494  <S**2>=0.000
       7 -> 18        -0.12362
       8 -> 20         0.12026
       8 -> 21        -0.10688
       9 -> 23        -0.29718
      11 -> 28         0.45000
      12 -> 28        -0.20532
      13 -> 37        -0.10307
      13 -> 38         0.25184

 Excited State  90:      Singlet-A     14.9331 eV   83.03 nm  f=0.0734  <S**2>=0.000
       7 -> 18        -0.10756
       8 -> 20         0.18354
       9 -> 24         0.56488
      10 -> 28        -0.10227
      13 -> 37         0.21115
      13 -> 38         0.10031

 Excited State  91:      Singlet-A     14.9657 eV   82.85 nm  f=0.0243  <S**2>=0.000
       7 -> 17        -0.11445
       7 -> 18         0.17998
       7 -> 19        -0.12941
       8 -> 21        -0.17441
       9 -> 23        -0.12957
       9 -> 24         0.21525
      12 -> 29         0.37832
      13 -> 37        -0.30308
      13 -> 40        -0.10952

 Excited State  92:      Singlet-A     15.0168 eV   82.56 nm  f=0.1320  <S**2>=0.000
       8 -> 21         0.54709
       9 -> 23        -0.12074
       9 -> 24         0.18396
      10 -> 28         0.12990
      12 -> 28        -0.11577
      12 -> 29        -0.20247
      13 -> 37        -0.12678

 Excited State  93:      Singlet-A     15.0390 eV   82.44 nm  f=0.0162  <S**2>=0.000
       6 -> 14         0.14506
       8 -> 21         0.27106
       9 -> 23         0.10577
      11 -> 28         0.28050
      12 -> 29         0.47967
      13 -> 39        -0.11549

 Excited State  94:      Singlet-A     15.0951 eV   82.14 nm  f=0.0142  <S**2>=0.000
       7 -> 19         0.23514
       9 -> 24        -0.10662
      11 -> 28        -0.12113
      12 -> 29         0.17773
      13 -> 39         0.57537

 Excited State  95:      Singlet-A     15.2031 eV   81.55 nm  f=0.0607  <S**2>=0.000
       6 -> 14        -0.10464
       7 -> 19         0.31443
       8 -> 22        -0.11467
       9 -> 25         0.11135
      10 -> 28         0.39343
      11 -> 28        -0.18850
      12 -> 29         0.11158
      13 -> 39        -0.21867

 The electronic state is 1-A.
 Alpha  occ. eigenvalues --  -14.09468 -10.02132  -9.99006  -0.81220  -0.66996
 Alpha  occ. eigenvalues --   -0.55005  -0.44722  -0.42233  -0.38561  -0.33202
 Alpha  occ. eigenvalues --   -0.32561  -0.31017  -0.20014
 Alpha virt. eigenvalues --    0.01198   0.04070   0.05172   0.07431   0.09151
 Alpha virt. eigenvalues --    0.11093   0.11905   0.12642   0.14860   0.15793
 Alpha virt. eigenvalues --    0.16305   0.18099   0.19492   0.19974   0.22461

 Mulliken charges:
               1
     1  C    0.275611
     2  C    0.134849
     3  N   -0.176420
     4  H    0.001321
     5  H   -0.011583
     6  H    0.032442
     7  H   -0.102719
     8  H   -0.138890
     9  H    0.028180
    10  H   -0.042790
 Sum of Mulliken charges =  -0.00000

 Dipole moment (field-independent basis, Debye):
    X=              0.1547    Y=              0.5824    Z=              1.0647  Tot=              1.2234
 Quadrupole moment (field-independent basis, Debye-Ang):
   XX=            -19.7064   YY=            -20.9377   ZZ=            -21.6135
   XY=              0.7006   XZ=              1.5161   YZ=             -1.6836

 Normal termination of Gaussian 16 at Mon Mar 21 20:28:12 2022.
