 Gaussian 16, Revision C.01,
 Gaussian 16:  EM64L-G16RevC.01  3-Jul-2019

 ----------------------------------------------------------------------
 #P TD(Nstates=10000) tpsstpss/Gen SCF(maxcycles=100) Int(Grid=ultrafin
 e)
 ----------------------------------------------------------------------

 ---------------------
 xGDB7_00001_tier4.com
 ---------------------
 Symbolic Z-matrix:
 Charge =  0 Multiplicity = 1

                         Standard orientation:
 ---------------------------------------------------------------------
 Center     Atomic      Atomic             Coordinates (Angstroms)
 Number     Number       Type             X           Y           Z
 ---------------------------------------------------------------------
      1          6           0        0.926251   -0.719055    0.000000
      2          6           0        0.000000    0.459276    0.000000
      3          8           0       -1.196998    0.387136    0.000000
      4          1           0        1.575965   -0.668678    0.877698
      5          1           0        1.575965   -0.668678   -0.877698
      6          1           0        0.366733   -1.652236    0.000000
      7          1           0        0.499813    1.451182    0.000000
 ---------------------------------------------------------------------

 SCF Done:  E(RTPSS-TPSS) =  -153.751249868     A.U. after   14 cycles

 Excitation energies and oscillator strengths:

 Excited State   1:      Singlet-A"     4.4038 eV  281.54 nm  f=0.0000  <S**2>=0.000
      12 -> 13         0.70709
 This state for optimization and/or second-order correction.
 Total Energy, E(TD-HF/TD-DFT) =  -153.589411468
 Copying the excited state density for this state as the 1-particle RhoCI density.

 Excited State   2:      Singlet-A'     6.4707 eV  191.61 nm  f=0.0223  <S**2>=0.000
      12 -> 14         0.70340

 Excited State   3:      Singlet-A'     7.1600 eV  173.16 nm  f=0.0667  <S**2>=0.000
      12 -> 15         0.70514

 Excited State   4:      Singlet-A"     8.1079 eV  152.92 nm  f=0.0148  <S**2>=0.000
      10 -> 13        -0.10531
      12 -> 16         0.69847

 Excited State   5:      Singlet-A"     8.2509 eV  150.27 nm  f=0.0026  <S**2>=0.000
       9 -> 13         0.10104
      10 -> 13         0.69145
      12 -> 16         0.10109

 Excited State   6:      Singlet-A'     8.2896 eV  149.57 nm  f=0.0645  <S**2>=0.000
      11 -> 13        -0.13031
      12 -> 17         0.68987

 Excited State   7:      Singlet-A'     8.5384 eV  145.21 nm  f=0.0491  <S**2>=0.000
      11 -> 13         0.20144
      12 -> 18         0.67408

 Excited State   8:      Singlet-A'     8.8617 eV  139.91 nm  f=0.1704  <S**2>=0.000
       8 -> 13        -0.29652
      11 -> 13         0.55652
      12 -> 17         0.13385
      12 -> 18        -0.19464
      12 -> 20         0.10673

 Excited State   9:      Singlet-A"     8.9816 eV  138.04 nm  f=0.0000  <S**2>=0.000
      12 -> 19         0.70209

 Excited State  10:      Singlet-A'     9.0472 eV  137.04 nm  f=0.0868  <S**2>=0.000
      11 -> 13        -0.10613
      12 -> 20         0.69634

 Excited State  11:      Singlet-A"     9.2935 eV  133.41 nm  f=0.0001  <S**2>=0.000
       9 -> 13         0.69069

 Excited State  12:      Singlet-A'     9.4857 eV  130.71 nm  f=0.0115  <S**2>=0.000
      12 -> 21         0.70037

 Excited State  13:      Singlet-A"     9.5955 eV  129.21 nm  f=0.0046  <S**2>=0.000
      11 -> 14         0.70671

 Excited State  14:      Singlet-A"    10.1391 eV  122.28 nm  f=0.0023  <S**2>=0.000
      12 -> 22         0.70164

 Excited State  15:      Singlet-A'    10.3073 eV  120.29 nm  f=0.0221  <S**2>=0.000
       8 -> 13         0.19508
      10 -> 14         0.67115

 Excited State  16:      Singlet-A"    10.3200 eV  120.14 nm  f=0.0176  <S**2>=0.000
       7 -> 13        -0.21091
      11 -> 15         0.67336

 Excited State  17:      Singlet-A"    10.4155 eV  119.04 nm  f=0.0010  <S**2>=0.000
       7 -> 13         0.66082
      11 -> 15         0.21315

 Excited State  18:      Singlet-A'    10.5391 eV  117.64 nm  f=0.0612  <S**2>=0.000
       8 -> 13         0.49265
      10 -> 14        -0.20880
      11 -> 13         0.18292
      12 -> 23        -0.39133

 Excited State  19:      Singlet-A'    10.8647 eV  114.12 nm  f=0.0134  <S**2>=0.000
       8 -> 13         0.19855
      12 -> 23         0.42309
      12 -> 24         0.50512

 Excited State  20:      Singlet-A'    11.0108 eV  112.60 nm  f=0.0253  <S**2>=0.000
       8 -> 13        -0.21472
       9 -> 14        -0.25158
      10 -> 15         0.24060
      11 -> 13        -0.14308
      12 -> 23        -0.33579
      12 -> 24         0.40496

 Excited State  21:      Singlet-A'    11.0832 eV  111.87 nm  f=0.0937  <S**2>=0.000
       9 -> 14         0.24473
      10 -> 15         0.63833
      12 -> 24        -0.13024

 Excited State  22:      Singlet-A'    11.2220 eV  110.48 nm  f=0.0624  <S**2>=0.000
       9 -> 14         0.56190
      10 -> 15        -0.14060
      11 -> 16        -0.27335
      12 -> 23        -0.12283
      12 -> 24         0.13095
      12 -> 25        -0.19263

 Excited State  23:      Singlet-A'    11.3434 eV  109.30 nm  f=0.0504  <S**2>=0.000
      11 -> 16        -0.47268
      12 -> 25         0.50672

 Excited State  24:      Singlet-A"    11.4503 eV  108.28 nm  f=0.0230  <S**2>=0.000
      11 -> 17         0.69656

 Excited State  25:      Singlet-A'    11.4693 eV  108.10 nm  f=0.0086  <S**2>=0.000
       9 -> 14         0.23063
      11 -> 13        -0.10566
      11 -> 16         0.42152
      12 -> 24         0.17735
      12 -> 25         0.42249

 Excited State  26:      Singlet-A"    11.6872 eV  106.09 nm  f=0.1393  <S**2>=0.000
       8 -> 14         0.69763

 Excited State  27:      Singlet-A"    11.7294 eV  105.70 nm  f=0.0001  <S**2>=0.000
      11 -> 18         0.69422

 Excited State  28:      Singlet-A'    11.9117 eV  104.09 nm  f=0.0362  <S**2>=0.000
       9 -> 15         0.69632

 Excited State  29:      Singlet-A"    11.9928 eV  103.38 nm  f=0.0044  <S**2>=0.000
      10 -> 16         0.69348

 Excited State  30:      Singlet-A'    12.1829 eV  101.77 nm  f=0.0315  <S**2>=0.000
       7 -> 14        -0.11750
      10 -> 17         0.67356
      11 -> 19        -0.14392

 Excited State  31:      Singlet-A"    12.2359 eV  101.33 nm  f=0.0144  <S**2>=0.000
      11 -> 20         0.67349
      12 -> 26        -0.18101

 Excited State  32:      Singlet-A"    12.2669 eV  101.07 nm  f=0.0056  <S**2>=0.000
      11 -> 20         0.18019
      12 -> 26         0.67327

 Excited State  33:      Singlet-A'    12.3233 eV  100.61 nm  f=0.0017  <S**2>=0.000
       7 -> 14        -0.31837
      11 -> 19         0.59861

 Excited State  34:      Singlet-A"    12.3634 eV  100.28 nm  f=0.0046  <S**2>=0.000
       8 -> 15         0.69654

 Excited State  35:      Singlet-A'    12.4149 eV   99.87 nm  f=0.0319  <S**2>=0.000
       7 -> 14         0.59465
      10 -> 17         0.13601
      10 -> 18        -0.17952
      11 -> 19         0.26092

 Excited State  36:      Singlet-A'    12.6115 eV   98.31 nm  f=0.0983  <S**2>=0.000
       9 -> 17         0.12993
      10 -> 18         0.63926
      10 -> 20        -0.11907

 Excited State  37:      Singlet-A"    12.6738 eV   97.83 nm  f=0.0008  <S**2>=0.000
      11 -> 21         0.69979

 Excited State  38:      Singlet-A"    12.8189 eV   96.72 nm  f=0.0022  <S**2>=0.000
       9 -> 16        -0.16061
      10 -> 19        -0.13520
      12 -> 27         0.67072

 Excited State  39:      Singlet-A"    12.8537 eV   96.46 nm  f=0.0000  <S**2>=0.000
       9 -> 16         0.68416
      12 -> 27         0.14802

 Excited State  40:      Singlet-A'    12.9462 eV   95.77 nm  f=0.0015  <S**2>=0.000
       7 -> 15        -0.11601
       8 -> 16         0.10937
       9 -> 17         0.14754
      10 -> 20         0.65955

 Excited State  41:      Singlet-A"    12.9551 eV   95.70 nm  f=0.0389  <S**2>=0.000
      10 -> 19         0.66665
      12 -> 27         0.13675

 Excited State  42:      Singlet-A'    13.0416 eV   95.07 nm  f=0.0431  <S**2>=0.000
       7 -> 15         0.27019
       9 -> 17         0.62614
      10 -> 18        -0.10545

 Excited State  43:      Singlet-A'    13.0848 eV   94.75 nm  f=0.0927  <S**2>=0.000
       7 -> 15         0.62322
       8 -> 16         0.10787
       9 -> 17        -0.23050
      10 -> 20         0.11859
      12 -> 28        -0.10482

 Excited State  44:      Singlet-A'    13.2225 eV   93.77 nm  f=0.0095  <S**2>=0.000
       9 -> 18         0.28897
      12 -> 28         0.63436

 Excited State  45:      Singlet-A"    13.3140 eV   93.12 nm  f=0.0010  <S**2>=0.000
       6 -> 13         0.57354
       8 -> 17        -0.34156
       8 -> 18         0.12331
      11 -> 23        -0.10695

 Excited State  46:      Singlet-A'    13.3500 eV   92.87 nm  f=0.0133  <S**2>=0.000
       8 -> 16        -0.30062
       9 -> 18        -0.12283
      10 -> 21         0.60251
      12 -> 29        -0.10714

 Excited State  47:      Singlet-A'    13.3594 eV   92.81 nm  f=0.0021  <S**2>=0.000
       8 -> 16        -0.23026
       9 -> 18         0.37276
      11 -> 22         0.50577
      12 -> 28        -0.12402
      12 -> 29         0.13039

 Excited State  48:      Singlet-A'    13.4734 eV   92.02 nm  f=0.0908  <S**2>=0.000
       8 -> 16         0.14807
       9 -> 18         0.40805
      10 -> 21         0.20111
      11 -> 22        -0.37680
      12 -> 28        -0.16822
      12 -> 29         0.25853

 Excited State  49:      Singlet-A"    13.5010 eV   91.83 nm  f=0.0058  <S**2>=0.000
       6 -> 13         0.25671
       8 -> 17         0.59977
       8 -> 18         0.19470
      11 -> 23        -0.11970

 Excited State  50:      Singlet-A'    13.7186 eV   90.38 nm  f=0.0135  <S**2>=0.000
       7 -> 17        -0.14270
       8 -> 16         0.40278
       9 -> 20         0.39675
       9 -> 21        -0.12540
      10 -> 21         0.23256
      11 -> 22         0.17918

 Excited State  51:      Singlet-A"    13.7365 eV   90.26 nm  f=0.0104  <S**2>=0.000
       8 -> 18         0.33130
       9 -> 19         0.59161
      11 -> 23         0.13427

 Excited State  52:      Singlet-A"    13.7897 eV   89.91 nm  f=0.0076  <S**2>=0.000
       8 -> 18         0.49168
       9 -> 19        -0.37563
      11 -> 23         0.31055

 Excited State  53:      Singlet-A"    13.8733 eV   89.37 nm  f=0.0099  <S**2>=0.000
       6 -> 13         0.14893
       7 -> 16         0.20467
       8 -> 18        -0.22124
       8 -> 20         0.10990
      10 -> 22        -0.12954
      11 -> 23         0.57797

 Excited State  54:      Singlet-A'    13.8735 eV   89.37 nm  f=0.0301  <S**2>=0.000
       7 -> 17         0.19555
       7 -> 18         0.11379
       8 -> 16        -0.21848
       9 -> 20         0.56341
       9 -> 21         0.14340
      10 -> 21        -0.11600
      11 -> 22        -0.12613

 Excited State  55:      Singlet-A'    13.9535 eV   88.86 nm  f=0.1909  <S**2>=0.000
       7 -> 17        -0.13049
       9 -> 18        -0.18351
       9 -> 21         0.17737
      12 -> 28         0.13013
      12 -> 29         0.57886

 Excited State  56:      Singlet-A"    14.0196 eV   88.44 nm  f=0.0305  <S**2>=0.000
       7 -> 16         0.51447
      10 -> 22         0.46421

 Excited State  57:      Singlet-A"    14.0547 eV   88.22 nm  f=0.0089  <S**2>=0.000
       7 -> 16        -0.37750
       8 -> 18        -0.13899
       8 -> 20         0.25295
      10 -> 22         0.48370
      11 -> 24        -0.11269
      11 -> 25        -0.10414

 Excited State  58:      Singlet-A"    14.1425 eV   87.67 nm  f=0.0004  <S**2>=0.000
       8 -> 20         0.15797
      11 -> 24         0.68018

 Excited State  59:      Singlet-A'    14.2217 eV   87.18 nm  f=0.0128  <S**2>=0.000
       7 -> 17         0.58544
       8 -> 19        -0.16782
       9 -> 21        -0.24742
      12 -> 29         0.12410
      12 -> 30         0.11729

 Excited State  60:      Singlet-A'    14.3311 eV   86.51 nm  f=0.0191  <S**2>=0.000
       7 -> 18        -0.26604
       8 -> 19        -0.39564
       9 -> 21         0.47800

 Excited State  61:      Singlet-A"    14.3391 eV   86.47 nm  f=0.0131  <S**2>=0.000
       8 -> 20         0.54324
      10 -> 22        -0.10650
      11 -> 25         0.39680

 Excited State  62:      Singlet-A'    14.3831 eV   86.20 nm  f=0.0866  <S**2>=0.000
       7 -> 17         0.20311
       7 -> 18        -0.13201
       8 -> 16         0.13498
       8 -> 19         0.49219
       9 -> 21         0.29203
      10 -> 23        -0.12211
      10 -> 24         0.13505
      12 -> 30         0.16571

 Excited State  63:      Singlet-A'    14.5282 eV   85.34 nm  f=0.0125  <S**2>=0.000
       7 -> 18         0.51404
       7 -> 20         0.10497
       9 -> 21         0.18515
      10 -> 23         0.26429
      12 -> 30         0.28108

 Excited State  64:      Singlet-A"    14.6393 eV   84.69 nm  f=0.0926  <S**2>=0.000
       7 -> 19         0.19854
       8 -> 20        -0.17869
       8 -> 21         0.41707
       9 -> 22        -0.10245
      11 -> 25         0.43797

 Excited State  65:      Singlet-A'    14.6720 eV   84.50 nm  f=0.0185  <S**2>=0.000
       7 -> 18        -0.28231
       7 -> 20        -0.11375
      10 -> 23         0.32797
      12 -> 30         0.45689
      12 -> 32         0.18092

 Excited State  66:      Singlet-A"    14.6858 eV   84.42 nm  f=0.0000  <S**2>=0.000
       7 -> 19        -0.11732
       8 -> 21         0.27690
      12 -> 31         0.63457

 Excited State  67:      Singlet-A"    14.7299 eV   84.17 nm  f=0.0830  <S**2>=0.000
       7 -> 19        -0.31108
       8 -> 20         0.11675
       8 -> 21         0.46229
       9 -> 22         0.14355
      11 -> 25        -0.20616
      12 -> 31        -0.29124

 Excited State  68:      Singlet-A'    14.7902 eV   83.83 nm  f=0.0749  <S**2>=0.000
       8 -> 19         0.11303
       9 -> 23        -0.14367
      10 -> 23         0.48094
      12 -> 30        -0.37099
      12 -> 32         0.13561

 Excited State  69:      Singlet-A'    14.8854 eV   83.29 nm  f=0.0372  <S**2>=0.000
       7 -> 18         0.10419
       7 -> 20         0.17759
      10 -> 23        -0.16429
      10 -> 24        -0.27969
      12 -> 32         0.57471

 Excited State  70:      Singlet-A"    14.8883 eV   83.28 nm  f=0.0087  <S**2>=0.000
       7 -> 19         0.30694
       9 -> 22         0.63474

 Excited State  71:      Singlet-A'    14.9605 eV   82.87 nm  f=0.1712  <S**2>=0.000
       6 -> 14        -0.39039
       8 -> 19        -0.10714
       9 -> 23         0.11471
      10 -> 24         0.49492
      12 -> 32         0.20855

 Excited State  72:      Singlet-A'    14.9928 eV   82.70 nm  f=0.0492  <S**2>=0.000
       6 -> 14         0.48838
       7 -> 20        -0.27628
       8 -> 22         0.14260
      10 -> 24         0.25366
      10 -> 25        -0.12108
      12 -> 32         0.21730

 Excited State  73:      Singlet-A'    15.0918 eV   82.15 nm  f=0.0026  <S**2>=0.000
       6 -> 14         0.23301
       6 -> 15        -0.10163
       7 -> 20         0.54170
       9 -> 24        -0.10319
      10 -> 24         0.19609
      10 -> 25         0.18971

 Excited State  74:      Singlet-A"    15.0919 eV   82.15 nm  f=0.2341  <S**2>=0.000
       6 -> 13        -0.10541
       7 -> 19         0.47225
       8 -> 20         0.15810
       8 -> 21         0.13912
       9 -> 22        -0.24171
      11 -> 25        -0.20356
      12 -> 33        -0.26756

 Excited State  75:      Singlet-A'    15.2044 eV   81.54 nm  f=0.0051  <S**2>=0.000
       7 -> 20        -0.16548
      10 -> 25         0.64482
      12 -> 34        -0.16507

 Excited State  76:      Singlet-A"    15.3721 eV   80.66 nm  f=0.0759  <S**2>=0.000
       7 -> 19         0.13656
      11 -> 25        -0.11031
      12 -> 33         0.64258

 Excited State  77:      Singlet-A'    15.3785 eV   80.62 nm  f=0.0222  <S**2>=0.000
       7 -> 21         0.36889
       8 -> 22        -0.35077
       9 -> 23         0.33938
      11 -> 26        -0.12254
      12 -> 34         0.31395

 Excited State  78:      Singlet-A'    15.4177 eV   80.42 nm  f=0.0935  <S**2>=0.000
       6 -> 15        -0.11475
       7 -> 21         0.48156
       8 -> 22         0.19343
       9 -> 23         0.11091
      11 -> 26         0.25166
      12 -> 34        -0.33129

 Excited State  79:      Singlet-A'    15.5192 eV   79.89 nm  f=0.0237  <S**2>=0.000
       7 -> 21        -0.31842
       9 -> 23         0.42213
       9 -> 24        -0.15794
      11 -> 26         0.37893

 Excited State  80:      Singlet-A'    15.5893 eV   79.53 nm  f=0.0306  <S**2>=0.000
       6 -> 15        -0.16874
       8 -> 22         0.36866
       9 -> 24         0.23959
      11 -> 26         0.19175
      12 -> 34         0.36467
      12 -> 35         0.23052
      12 -> 36         0.10800

 Excited State  81:      Singlet-A'    15.7142 eV   78.90 nm  f=0.1566  <S**2>=0.000
       8 -> 22        -0.33668
       9 -> 23        -0.31578
       9 -> 24         0.19521
       9 -> 25        -0.11826
      11 -> 26         0.38147
      12 -> 35         0.10310

 Excited State  82:      Singlet-A'    15.8099 eV   78.42 nm  f=0.0417  <S**2>=0.000
       9 -> 23         0.14816
       9 -> 24         0.51958
       9 -> 25        -0.12359
      11 -> 26        -0.11254
      11 -> 27        -0.28347
      12 -> 34        -0.13080
      12 -> 35        -0.15307
      12 -> 36        -0.14853

 Excited State  83:      Singlet-A"    15.8919 eV   78.02 nm  f=0.0016  <S**2>=0.000
       8 -> 23         0.69745

 Excited State  84:      Singlet-A'    15.9701 eV   77.64 nm  f=0.0503  <S**2>=0.000
       6 -> 15         0.20690
       9 -> 25        -0.32516
      11 -> 27         0.15737
      12 -> 34        -0.12180
      12 -> 35         0.50675
      12 -> 36        -0.11621

 Excited State  85:      Singlet-A'    16.0117 eV   77.43 nm  f=0.0388  <S**2>=0.000
       6 -> 15         0.52343
       7 -> 23         0.13168
       9 -> 25         0.15766
      11 -> 26         0.13512
      11 -> 27        -0.30230
      12 -> 36         0.12462

 Excited State  86:      Singlet-A'    16.0639 eV   77.18 nm  f=0.0374  <S**2>=0.000
       6 -> 15        -0.15262
       9 -> 25         0.44755
      11 -> 26        -0.10947
      11 -> 27        -0.23878
      12 -> 35         0.31598
      12 -> 36        -0.24936

 Excited State  87:      Singlet-A"    16.1021 eV   77.00 nm  f=0.0019  <S**2>=0.000
       7 -> 22         0.61525
       8 -> 24        -0.14275
      10 -> 26         0.30207

 Excited State  88:      Singlet-A"    16.1641 eV   76.70 nm  f=0.0002  <S**2>=0.000
       8 -> 24         0.68127
       8 -> 25        -0.10295
      10 -> 26         0.10978

 Excited State  89:      Singlet-A'    16.2187 eV   76.45 nm  f=0.0968  <S**2>=0.000
       6 -> 15         0.15152
       6 -> 18        -0.10076
       9 -> 24         0.21525
       9 -> 25         0.31857
      11 -> 27         0.45572
      12 -> 36        -0.17249
      12 -> 37        -0.10284

 Excited State  90:      Singlet-A"    16.2378 eV   76.36 nm  f=0.0837  <S**2>=0.000
       7 -> 22        -0.27267
       8 -> 25         0.16691
      10 -> 26         0.60109

 Excited State  91:      Singlet-A"    16.3825 eV   75.68 nm  f=0.0277  <S**2>=0.000
      11 -> 28         0.70331

 Excited State  92:      Singlet-A'    16.4115 eV   75.55 nm  f=0.0378  <S**2>=0.000
       7 -> 23        -0.26820
       9 -> 25         0.13306
      12 -> 34        -0.12759
      12 -> 35         0.10789
      12 -> 36         0.52660
      12 -> 37        -0.14520

 Excited State  93:      Singlet-A"    16.5527 eV   74.90 nm  f=0.0226  <S**2>=0.000
       6 -> 16        -0.31204
       8 -> 25         0.56843
      10 -> 27         0.20692
      11 -> 29         0.10288

 Excited State  94:      Singlet-A"    16.6280 eV   74.56 nm  f=0.0287  <S**2>=0.000
       6 -> 16         0.62568
       8 -> 25         0.24740
      10 -> 27         0.13114

 Excited State  95:      Singlet-A'    16.7008 eV   74.24 nm  f=0.0150  <S**2>=0.000
       7 -> 23         0.50834
      12 -> 36         0.12877
      12 -> 37        -0.42594

 Excited State  96:      Singlet-A"    16.7182 eV   74.16 nm  f=0.0037  <S**2>=0.000
       8 -> 25        -0.20620
      10 -> 27         0.65617
      11 -> 29        -0.10656

 Excited State  97:      Singlet-A'    16.7896 eV   73.85 nm  f=0.0042  <S**2>=0.000
       6 -> 17         0.59483
       7 -> 23         0.21982
       7 -> 24        -0.13711
      12 -> 37         0.19416

 Excited State  98:      Singlet-A'    16.8670 eV   73.51 nm  f=0.0267  <S**2>=0.000
       6 -> 17        -0.27303
       6 -> 18        -0.19705
       7 -> 23         0.22476
       7 -> 24        -0.28380
      12 -> 37         0.42435

 Excited State  99:      Singlet-A"    16.8871 eV   73.42 nm  f=0.0031  <S**2>=0.000
      11 -> 29         0.13549
      12 -> 38         0.68883

 Excited State 100:      Singlet-A"    16.9436 eV   73.17 nm  f=0.0509  <S**2>=0.000
       5 -> 13         0.11599
       8 -> 25        -0.11628
      11 -> 29         0.65675
      12 -> 38        -0.13118

 Excited State 101:      Singlet-A'    16.9878 eV   72.98 nm  f=0.1087  <S**2>=0.000
       6 -> 18        -0.28422
       7 -> 23         0.12163
       7 -> 24         0.48320
       7 -> 25        -0.10491
      10 -> 28        -0.31774
      12 -> 37         0.13933

 Excited State 102:      Singlet-A"    17.0683 eV   72.64 nm  f=0.0047  <S**2>=0.000
       9 -> 26         0.70022

 Excited State 103:      Singlet-A'    17.1028 eV   72.49 nm  f=0.0651  <S**2>=0.000
       6 -> 18         0.34795
       7 -> 24         0.23423
       7 -> 25        -0.34730
      10 -> 28         0.36358
      12 -> 37         0.13565

 Excited State 104:      Singlet-A'    17.1880 eV   72.13 nm  f=0.1188  <S**2>=0.000
       6 -> 17         0.15562
       6 -> 18        -0.38508
       7 -> 24         0.12745
       7 -> 25         0.15223
      10 -> 28         0.48156
      12 -> 39        -0.10231

 Excited State 105:      Singlet-A'    17.3536 eV   71.45 nm  f=0.1393  <S**2>=0.000
       6 -> 18         0.24308
       6 -> 20         0.11891
       7 -> 24         0.15860
       7 -> 25         0.53498
       8 -> 26        -0.14284
      12 -> 39        -0.16382

 Excited State 106:      Singlet-A"    17.4875 eV   70.90 nm  f=0.0098  <S**2>=0.000
       5 -> 13         0.32732
       6 -> 19         0.54298
      12 -> 40        -0.28241

 The electronic state is 1-A'.
 Alpha  occ. eigenvalues --  -18.90478 -10.09473 -10.01888  -0.97908  -0.69978
 Alpha  occ. eigenvalues --   -0.53407  -0.43952  -0.41415  -0.39703  -0.36527
 Alpha  occ. eigenvalues --   -0.34002  -0.22268
 Alpha virt. eigenvalues --   -0.06584   0.01231   0.03942   0.07543   0.08010
 Alpha virt. eigenvalues --    0.09020   0.10858   0.10993   0.12664   0.15121
 Alpha virt. eigenvalues --    0.16904   0.17997   0.19257   0.23040   0.24981

 Mulliken charges:
               1
     1  C    0.270128
     2  C    0.075743
     3  O   -0.349187
     4  H    0.076579
     5  H    0.076579
     6  H   -0.016614
     7  H   -0.133229
 Sum of Mulliken charges =  -0.00000

 Dipole moment (field-independent basis, Debye):
    X=              2.7510    Y=             -0.3560    Z=             -0.0000  Tot=              2.7739
 Quadrupole moment (field-independent basis, Debye-Ang):
   XX=            -21.2844   YY=            -18.1403   ZZ=            -17.9582
   XY=              0.7356   XZ=             -0.0000   YZ=             -0.0000

 Normal termination of Gaussian 16 at Mon Mar 21 20:25:06 2022.
