 Gaussian 16, Revision C.01,
 Gaussian 16:  EM64L-G16RevC.01  3-Jul-2019

 ----------------------------------------------------------------------
 #P TD(Nstates=10000) tpsstpss/Gen SCF(maxcycles=100) Int(Grid=ultrafin
 e)
 ----------------------------------------------------------------------

 ---------------------
 xGDB7_00001_tier4.com
 ---------------------
 Symbolic Z-matrix:
 Charge =  0 Multiplicity = 1

                         Standard orientation:
 ---------------------------------------------------------------------
 Center     Atomic      Atomic             Coordinates (Angstroms)
 Number     Number       Type             X           Y           Z
 ---------------------------------------------------------------------
      1          6           0        0.046419    0.658432    0.000000
      2          8           0        0.046419   -0.751929    0.000000
      3          1           0       -0.438905    1.073261    0.890797
      4          1           0       -0.438905    1.073261   -0.890797
      5          1           0        1.087855    0.977571    0.000000
      6          1           0       -0.859911   -1.059251    0.000000
 ---------------------------------------------------------------------

 SCF Done:  E(RTPSS-TPSS) =  -115.660880510     A.U. after   12 cycles

 Excitation energies and oscillator strengths:

 Excited State   1:      Singlet-A"     6.5096 eV  190.46 nm  f=0.0011  <S**2>=0.000
       9 -> 10         0.70617
 This state for optimization and/or second-order correction.
 Total Energy, E(TD-HF/TD-DFT) =  -115.421655502
 Copying the excited state density for this state as the 1-particle RhoCI density.

 Excited State   2:      Singlet-A"     7.4126 eV  167.26 nm  f=0.0285  <S**2>=0.000
       9 -> 11         0.70570

 Excited State   3:      Singlet-A'     8.2003 eV  151.19 nm  f=0.0020  <S**2>=0.000
       8 -> 10         0.70159

 Excited State   4:      Singlet-A'     8.5869 eV  144.39 nm  f=0.0588  <S**2>=0.000
       9 -> 12         0.70091

 Excited State   5:      Singlet-A"     8.5877 eV  144.37 nm  f=0.0140  <S**2>=0.000
       9 -> 13         0.70624

 Excited State   6:      Singlet-A'     9.1252 eV  135.87 nm  f=0.0493  <S**2>=0.000
       8 -> 11         0.70299

 Excited State   7:      Singlet-A"     9.4252 eV  131.54 nm  f=0.0026  <S**2>=0.000
       9 -> 14         0.70663

 Excited State   8:      Singlet-A"     9.7340 eV  127.37 nm  f=0.0040  <S**2>=0.000
       9 -> 15         0.70482

 Excited State   9:      Singlet-A'    10.1926 eV  121.64 nm  f=0.0055  <S**2>=0.000
       9 -> 16         0.67825
       9 -> 18         0.17108

 Excited State  10:      Singlet-A"    10.2482 eV  120.98 nm  f=0.0247  <S**2>=0.000
       8 -> 12         0.70492

 Excited State  11:      Singlet-A'    10.2966 eV  120.41 nm  f=0.0830  <S**2>=0.000
       8 -> 13         0.70394

 Excited State  12:      Singlet-A"    10.6520 eV  116.40 nm  f=0.0001  <S**2>=0.000
       9 -> 17         0.70510

 Excited State  13:      Singlet-A'    10.7012 eV  115.86 nm  f=0.0399  <S**2>=0.000
       7 -> 10         0.70423

 Excited State  14:      Singlet-A'    10.8346 eV  114.43 nm  f=0.0235  <S**2>=0.000
       8 -> 14        -0.18825
       8 -> 15         0.14028
       9 -> 16        -0.13514
       9 -> 18         0.64233

 Excited State  15:      Singlet-A"    11.0116 eV  112.59 nm  f=0.0718  <S**2>=0.000
       6 -> 10         0.70515

 Excited State  16:      Singlet-A'    11.2062 eV  110.64 nm  f=0.0022  <S**2>=0.000
       8 -> 14         0.66177
       8 -> 15         0.16702
       9 -> 18         0.12947

 Excited State  17:      Singlet-A'    11.5693 eV  107.17 nm  f=0.0515  <S**2>=0.000
       7 -> 11         0.55526
       8 -> 15        -0.42784

 Excited State  18:      Singlet-A"    11.5811 eV  107.06 nm  f=0.0001  <S**2>=0.000
       9 -> 19         0.70021

 Excited State  19:      Singlet-A'    11.7399 eV  105.61 nm  f=0.0661  <S**2>=0.000
       7 -> 11         0.41394
       8 -> 14        -0.12928
       8 -> 15         0.49820
       8 -> 17        -0.11391
       9 -> 18        -0.14585

 Excited State  20:      Singlet-A"    11.7599 eV  105.43 nm  f=0.0113  <S**2>=0.000
       8 -> 16         0.69347

 Excited State  21:      Singlet-A"    11.9142 eV  104.06 nm  f=0.0354  <S**2>=0.000
       6 -> 11         0.70305

 Excited State  22:      Singlet-A"    12.3619 eV  100.30 nm  f=0.0000  <S**2>=0.000
       8 -> 18         0.69905

 Excited State  23:      Singlet-A'    12.4204 eV   99.82 nm  f=0.0076  <S**2>=0.000
       6 -> 12         0.12800
       8 -> 17         0.67933

 Excited State  24:      Singlet-A"    12.5920 eV   98.46 nm  f=0.0468  <S**2>=0.000
       9 -> 20         0.68717

 Excited State  25:      Singlet-A"    12.7179 eV   97.49 nm  f=0.0021  <S**2>=0.000
       7 -> 12         0.70099

 Excited State  26:      Singlet-A'    12.8746 eV   96.30 nm  f=0.0895  <S**2>=0.000
       6 -> 12        -0.29878
       7 -> 13         0.62630

 Excited State  27:      Singlet-A'    12.9578 eV   95.68 nm  f=0.0478  <S**2>=0.000
       5 -> 10         0.62066
       6 -> 12        -0.29355
       7 -> 13        -0.10144

 Excited State  28:      Singlet-A"    13.0767 eV   94.81 nm  f=0.0018  <S**2>=0.000
       6 -> 13         0.70574

 Excited State  29:      Singlet-A'    13.4512 eV   92.17 nm  f=0.0298  <S**2>=0.000
       5 -> 11        -0.18365
       6 -> 12         0.28307
       7 -> 13         0.17070
       7 -> 14        -0.13241
       7 -> 15        -0.19775
       8 -> 19         0.52190

 Excited State  30:      Singlet-A"    13.5812 eV   91.29 nm  f=0.0009  <S**2>=0.000
       9 -> 21         0.69493

 Excited State  31:      Singlet-A'    13.5880 eV   91.25 nm  f=0.0394  <S**2>=0.000
       5 -> 10        -0.19550
       6 -> 12        -0.33098
       7 -> 13        -0.16939
       7 -> 14         0.36192
       8 -> 19         0.35656
       9 -> 24         0.17064

 Excited State  32:      Singlet-A'    13.7190 eV   90.37 nm  f=0.0119  <S**2>=0.000
       5 -> 10         0.12013
       5 -> 11         0.10172
       6 -> 12         0.19464
       7 -> 14         0.39280
       7 -> 15        -0.15640
       9 -> 22         0.47289

 Excited State  33:      Singlet-A'    13.7825 eV   89.96 nm  f=0.0726  <S**2>=0.000
       5 -> 11         0.64156
       7 -> 15        -0.21330
       8 -> 19         0.10540
       9 -> 22        -0.12285

 Excited State  34:      Singlet-A"    13.9196 eV   89.07 nm  f=0.0057  <S**2>=0.000
       6 -> 14         0.49791
       9 -> 23        -0.49684

 Excited State  35:      Singlet-A'    13.9272 eV   89.02 nm  f=0.0727  <S**2>=0.000
       5 -> 10        -0.12878
       5 -> 13         0.10194
       6 -> 12        -0.16817
       6 -> 16         0.12286
       7 -> 14        -0.38953
       8 -> 20        -0.11061
       9 -> 22         0.46821

 Excited State  36:      Singlet-A"    13.9778 eV   88.70 nm  f=0.0257  <S**2>=0.000
       6 -> 14         0.47882
       6 -> 15        -0.19199
       9 -> 23         0.47396

 Excited State  37:      Singlet-A'    14.0143 eV   88.47 nm  f=0.0645  <S**2>=0.000
       5 -> 11         0.15935
       6 -> 12         0.12462
       6 -> 18         0.10205
       7 -> 13         0.10763
       7 -> 15         0.58294
       8 -> 19         0.11631
       9 -> 22         0.11871
       9 -> 24         0.18910

 Excited State  38:      Singlet-A"    14.1408 eV   87.68 nm  f=0.0000  <S**2>=0.000
       6 -> 14        -0.10199
       6 -> 15        -0.34643
       7 -> 16         0.60155

 Excited State  39:      Singlet-A'    14.2479 eV   87.02 nm  f=0.0028  <S**2>=0.000
       6 -> 16        -0.11742
       8 -> 20         0.65905
       8 -> 21         0.10186
       9 -> 24         0.14476

 Excited State  40:      Singlet-A'    14.3343 eV   86.49 nm  f=0.3634  <S**2>=0.000
       5 -> 11        -0.10544
       7 -> 15        -0.15215
       8 -> 19        -0.16569
       8 -> 20        -0.15469
       9 -> 24         0.62072

 Excited State  41:      Singlet-A"    14.5060 eV   85.47 nm  f=0.1520  <S**2>=0.000
       6 -> 15         0.52622
       6 -> 17         0.14138
       7 -> 16         0.34299
       7 -> 18        -0.20315

 Excited State  42:      Singlet-A'    14.7034 eV   84.32 nm  f=0.0787  <S**2>=0.000
       6 -> 16         0.51745
       7 -> 17        -0.44944

 Excited State  43:      Singlet-A"    14.8507 eV   83.49 nm  f=0.0052  <S**2>=0.000
       5 -> 12        -0.20503
       6 -> 15         0.12183
       6 -> 17         0.12316
       7 -> 18         0.63010
       9 -> 25         0.15966

 Excited State  44:      Singlet-A"    14.9280 eV   83.05 nm  f=0.0002  <S**2>=0.000
       5 -> 12         0.43286
       9 -> 25         0.55532

 Excited State  45:      Singlet-A"    14.9518 eV   82.92 nm  f=0.0983  <S**2>=0.000
       5 -> 12         0.49827
       6 -> 17         0.19588
       7 -> 18         0.19723
       9 -> 25        -0.39678

 Excited State  46:      Singlet-A'    15.0049 eV   82.63 nm  f=0.1055  <S**2>=0.000
       5 -> 13         0.44032
       6 -> 16        -0.32801
       7 -> 17        -0.35932
       8 -> 21        -0.12699

 Excited State  47:      Singlet-A'    15.0965 eV   82.13 nm  f=0.0785  <S**2>=0.000
       5 -> 13         0.39011
       6 -> 16         0.21015
       6 -> 18         0.31921
       7 -> 17         0.34498
       8 -> 21        -0.19263

 Excited State  48:      Singlet-A"    15.1956 eV   81.59 nm  f=0.0770  <S**2>=0.000
       5 -> 12        -0.10503
       6 -> 15        -0.10175
       6 -> 17         0.61730
       7 -> 18        -0.11450
       8 -> 22        -0.24346

 Excited State  49:      Singlet-A'    15.3193 eV   80.93 nm  f=0.1435  <S**2>=0.000
       5 -> 13        -0.29316
       6 -> 18         0.54788
       7 -> 17        -0.16179
       8 -> 21        -0.14614

 Excited State  50:      Singlet-A'    15.3375 eV   80.84 nm  f=0.0653  <S**2>=0.000
       5 -> 13         0.11542
       5 -> 15         0.11554
       6 -> 18         0.20849
       7 -> 19        -0.19160
       8 -> 21         0.59282

 Excited State  51:      Singlet-A"    15.5904 eV   79.53 nm  f=0.1750  <S**2>=0.000
       6 -> 15        -0.10369
       6 -> 17         0.16966
       8 -> 22         0.63914
       8 -> 24        -0.12146

 Excited State  52:      Singlet-A'    15.6490 eV   79.23 nm  f=0.0119  <S**2>=0.000
       8 -> 23        -0.44517
       9 -> 26         0.53653

 Excited State  53:      Singlet-A'    15.7071 eV   78.93 nm  f=0.0044  <S**2>=0.000
       5 -> 15        -0.12135
       7 -> 19        -0.11197
       8 -> 23         0.51241
       9 -> 26         0.44590

 Excited State  54:      Singlet-A"    15.7356 eV   78.79 nm  f=0.0169  <S**2>=0.000
       8 -> 24         0.12050
       9 -> 27         0.69385

 Excited State  55:      Singlet-A'    15.8737 eV   78.11 nm  f=0.0177  <S**2>=0.000
       5 -> 14         0.58312
       5 -> 15        -0.19869
       7 -> 19        -0.27940
       7 -> 20        -0.11146

 Excited State  56:      Singlet-A"    15.8965 eV   77.99 nm  f=0.0017  <S**2>=0.000
       8 -> 24         0.67784
       9 -> 27        -0.12174

 Excited State  57:      Singlet-A'    16.0653 eV   77.18 nm  f=0.0646  <S**2>=0.000
       5 -> 14         0.28691
       5 -> 15         0.14447
       6 -> 18         0.11471
       7 -> 19         0.43863
       9 -> 28        -0.38305

 Excited State  58:      Singlet-A"    16.0955 eV   77.03 nm  f=0.0025  <S**2>=0.000
       6 -> 19         0.69463

 Excited State  59:      Singlet-A'    16.2124 eV   76.47 nm  f=0.0377  <S**2>=0.000
       5 -> 14         0.17195
       5 -> 15         0.36202
       7 -> 19         0.17208
       8 -> 23         0.11738
       9 -> 28         0.51317

 Excited State  60:      Singlet-A"    16.2892 eV   76.11 nm  f=0.0134  <S**2>=0.000
       5 -> 16        -0.37742
       9 -> 29         0.58894

 Excited State  61:      Singlet-A'    16.3901 eV   75.65 nm  f=0.1530  <S**2>=0.000
       5 -> 15         0.46044
       7 -> 19        -0.27785
       7 -> 20        -0.26512
       8 -> 21        -0.10715
       8 -> 25         0.16921
       9 -> 28        -0.20649

 Excited State  62:      Singlet-A"    16.5126 eV   75.08 nm  f=0.1901  <S**2>=0.000
       5 -> 16         0.57509
       6 -> 20         0.10314
       9 -> 29         0.34137

 Excited State  63:      Singlet-A'    16.6922 eV   74.28 nm  f=0.0377  <S**2>=0.000
       5 -> 15        -0.10207
       8 -> 25         0.67867

 Excited State  64:      Singlet-A"    16.7872 eV   73.86 nm  f=0.0006  <S**2>=0.000
       9 -> 30         0.69737

 Excited State  65:      Singlet-A'    16.9031 eV   73.35 nm  f=0.1573  <S**2>=0.000
       4 -> 10         0.30234
       5 -> 15         0.12646
       5 -> 17        -0.19929
       7 -> 20         0.54188
       7 -> 21         0.11497

 Excited State  66:      Singlet-A"    17.0198 eV   72.85 nm  f=0.0001  <S**2>=0.000
       5 -> 18         0.41477
       6 -> 20         0.55532

 Excited State  67:      Singlet-A"    17.0647 eV   72.66 nm  f=0.0053  <S**2>=0.000
       5 -> 18         0.56275
       6 -> 20        -0.40298

 Excited State  68:      Singlet-A'    17.0827 eV   72.58 nm  f=0.0806  <S**2>=0.000
       4 -> 10         0.16092
       5 -> 17         0.66035
       7 -> 20         0.12637

 Excited State  69:      Singlet-A"    17.3549 eV   71.44 nm  f=0.0062  <S**2>=0.000
       8 -> 26         0.69804

 Excited State  70:      Singlet-A'    17.4046 eV   71.24 nm  f=0.0035  <S**2>=0.000
       4 -> 10         0.57604
       5 -> 19         0.17753
       7 -> 20        -0.19366
       7 -> 21        -0.18699

 Excited State  71:      Singlet-A'    17.5250 eV   70.75 nm  f=0.0212  <S**2>=0.000
       7 -> 23        -0.10538
       8 -> 27         0.67603

 Excited State  72:      Singlet-A"    17.6072 eV   70.42 nm  f=0.0083  <S**2>=0.000
       9 -> 31         0.69890

 Excited State  73:      Singlet-A'    17.7346 eV   69.91 nm  f=0.0046  <S**2>=0.000
       5 -> 19         0.14653
       7 -> 21         0.62389
       7 -> 23        -0.17181
       9 -> 32         0.14184

 Excited State  74:      Singlet-A"    17.8287 eV   69.54 nm  f=0.0321  <S**2>=0.000
       6 -> 21         0.16398
       7 -> 22        -0.19878
       8 -> 28         0.63297

 Excited State  75:      Singlet-A"    17.9798 eV   68.96 nm  f=0.0148  <S**2>=0.000
       7 -> 22         0.67565
       8 -> 28         0.18373

 Excited State  76:      Singlet-A'    18.0026 eV   68.87 nm  f=0.0027  <S**2>=0.000
       4 -> 11         0.19662
       5 -> 19         0.16906
       8 -> 29         0.62360
       9 -> 32        -0.15879

 Excited State  77:      Singlet-A"    18.0548 eV   68.67 nm  f=0.0163  <S**2>=0.000
       6 -> 21         0.65864
       6 -> 23        -0.19170
       8 -> 28        -0.13872

 Excited State  78:      Singlet-A'    18.1654 eV   68.25 nm  f=0.0659  <S**2>=0.000
       5 -> 19         0.41989
       6 -> 22        -0.11669
       6 -> 24         0.11173
       7 -> 23        -0.33870
       8 -> 29        -0.16721
       9 -> 32        -0.34632

 Excited State  79:      Singlet-A'    18.2099 eV   68.09 nm  f=0.1012  <S**2>=0.000
       5 -> 19         0.37071
       7 -> 23         0.54047
       8 -> 29        -0.13674

 Excited State  80:      Singlet-A'    18.2687 eV   67.87 nm  f=0.0538  <S**2>=0.000
       4 -> 11         0.60626
       5 -> 20        -0.11573
       6 -> 22        -0.10731
       8 -> 29        -0.14735
       8 -> 30        -0.22563

 Excited State  81:      Singlet-A'    18.3414 eV   67.60 nm  f=0.0033  <S**2>=0.000
       6 -> 22         0.64573
       8 -> 30        -0.20026
       9 -> 32        -0.14200

 Excited State  82:      Singlet-A"    18.3522 eV   67.56 nm  f=0.0311  <S**2>=0.000
       7 -> 24         0.68509
       9 -> 33        -0.15370

 Excited State  83:      Singlet-A"    18.4839 eV   67.08 nm  f=0.0074  <S**2>=0.000
       6 -> 23        -0.42186
       7 -> 24         0.12453
       9 -> 33         0.53908

 Excited State  84:      Singlet-A'    18.5125 eV   66.97 nm  f=0.0003  <S**2>=0.000
       5 -> 19         0.18036
       5 -> 20         0.17566
       6 -> 24         0.15085
       7 -> 21        -0.14767
       7 -> 23        -0.15254
       9 -> 32         0.51579
       9 -> 35         0.18308

 Excited State  85:      Singlet-A"    18.5589 eV   66.81 nm  f=0.0632  <S**2>=0.000
       6 -> 21         0.14939
       6 -> 23         0.52009
       9 -> 33         0.42348

 Excited State  86:      Singlet-A'    18.6045 eV   66.64 nm  f=0.0093  <S**2>=0.000
       4 -> 11         0.14056
       5 -> 19         0.10446
       5 -> 20        -0.24429
       6 -> 22         0.16712
       8 -> 29        -0.11006
       8 -> 30         0.57989

 Excited State  87:      Singlet-A'    18.7740 eV   66.04 nm  f=0.0387  <S**2>=0.000
       5 -> 19        -0.12675
       5 -> 20        -0.11534
       6 -> 24         0.64905

 Excited State  88:      Singlet-A"    18.9992 eV   65.26 nm  f=0.0040  <S**2>=0.000
       9 -> 34         0.70241

 Excited State  89:      Singlet-A'    19.0511 eV   65.08 nm  f=0.0778  <S**2>=0.000
       5 -> 20         0.43341
       7 -> 25         0.48125
       8 -> 30         0.12052
       8 -> 31         0.12477
       9 -> 35        -0.13283

 Excited State  90:      Singlet-A'    19.2377 eV   64.45 nm  f=0.0087  <S**2>=0.000
       4 -> 13        -0.11142
       5 -> 20        -0.23280
       7 -> 25         0.44562
       7 -> 27         0.15325
       8 -> 30        -0.10368
       8 -> 31        -0.35873
       9 -> 35         0.13870

 Excited State  91:      Singlet-A'    19.3349 eV   64.12 nm  f=0.0612  <S**2>=0.000
       4 -> 13        -0.39681
       5 -> 20        -0.19376
       7 -> 25         0.11330
       8 -> 31         0.50739

 Excited State  92:      Singlet-A"    19.3862 eV   63.95 nm  f=0.0035  <S**2>=0.000
       4 -> 12         0.68380

 Excited State  93:      Singlet-A"    19.4307 eV   63.81 nm  f=0.0663  <S**2>=0.000
       6 -> 25         0.69440

 Excited State  94:      Singlet-A'    19.4436 eV   63.77 nm  f=0.0307  <S**2>=0.000
       4 -> 13         0.54779
       5 -> 20        -0.17801
       5 -> 21        -0.11784
       7 -> 25         0.16476
       8 -> 31         0.27310

 Excited State  95:      Singlet-A'    19.7276 eV   62.85 nm  f=0.0459  <S**2>=0.000
       5 -> 21         0.36088
       5 -> 23         0.16130
       7 -> 27        -0.10564
       7 -> 29         0.17967
       9 -> 35         0.50062

 Excited State  96:      Singlet-A"    19.8116 eV   62.58 nm  f=0.0033  <S**2>=0.000
       7 -> 26         0.57361
       9 -> 36        -0.40023

 Excited State  97:      Singlet-A"    19.8669 eV   62.41 nm  f=0.0028  <S**2>=0.000
       7 -> 26         0.38700
       8 -> 32        -0.21368
       9 -> 36         0.53874

 Excited State  98:      Singlet-A"    19.9532 eV   62.14 nm  f=0.0013  <S**2>=0.000
       5 -> 22         0.11265
       8 -> 32         0.65879
       9 -> 36         0.18055

 Excited State  99:      Singlet-A'    20.0014 eV   61.99 nm  f=0.0754  <S**2>=0.000
       4 -> 14         0.16691
       5 -> 20        -0.12070
       5 -> 21         0.53702
       5 -> 23        -0.17392
       7 -> 27         0.13953
       7 -> 29        -0.14243
       8 -> 33        -0.10105
       9 -> 35        -0.20025

 Excited State 100:      Singlet-A'    20.1100 eV   61.65 nm  f=0.0062  <S**2>=0.000
       4 -> 14         0.13442
       5 -> 23        -0.14198
       6 -> 26         0.66008

 Excited State 101:      Singlet-A"    20.1670 eV   61.48 nm  f=0.0101  <S**2>=0.000
       5 -> 22         0.50785
       6 -> 27        -0.12757
       7 -> 28         0.45905

 Excited State 102:      Singlet-A'    20.1718 eV   61.46 nm  f=0.0344  <S**2>=0.000
       4 -> 14        -0.15772
       5 -> 23         0.11302
       7 -> 27         0.34890
       7 -> 29        -0.12259
       8 -> 33         0.54283

 Excited State 103:      Singlet-A"    20.1964 eV   61.39 nm  f=0.0114  <S**2>=0.000
       5 -> 22         0.40561
       6 -> 27         0.47700
       7 -> 28        -0.32059

 Excited State 104:      Singlet-A'    20.2322 eV   61.28 nm  f=0.0743  <S**2>=0.000
       4 -> 14         0.50852
       5 -> 21        -0.11037
       5 -> 23        -0.17466
       6 -> 26        -0.18905
       7 -> 27        -0.13848
       8 -> 33         0.34703

 Excited State 105:      Singlet-A"    20.2727 eV   61.16 nm  f=0.0012  <S**2>=0.000
       5 -> 22        -0.22570
       5 -> 24         0.19558
       6 -> 27         0.45864
       6 -> 29        -0.11267
       7 -> 28         0.39776

 Excited State 106:      Singlet-A'    20.3525 eV   60.92 nm  f=0.0389  <S**2>=0.000
       4 -> 14         0.35262
       4 -> 15        -0.21180
       5 -> 23         0.31500
       6 -> 28        -0.17015
       7 -> 27         0.27630
       7 -> 29        -0.16982
       8 -> 33        -0.21592

 Excited State 107:      Singlet-A'    20.4409 eV   60.65 nm  f=0.0893  <S**2>=0.000
       4 -> 15         0.35858
       5 -> 23        -0.34079
       5 -> 25        -0.10908
       7 -> 27         0.32978
       7 -> 30        -0.11699
       8 -> 33        -0.12785
       8 -> 34        -0.12591
       8 -> 36        -0.12794
       9 -> 35         0.11992

 Excited State 108:      Singlet-A"    20.5737 eV   60.26 nm  f=0.0179  <S**2>=0.000
       5 -> 24         0.63650
       6 -> 27        -0.11377
       6 -> 29         0.26216

 Excited State 109:      Singlet-A'    20.6072 eV   60.17 nm  f=0.0901  <S**2>=0.000
       4 -> 15        -0.38468
       5 -> 23        -0.18260
       7 -> 27         0.20026
       7 -> 29         0.47789
       8 -> 34         0.11340

 Excited State 110:      Singlet-A'    20.6718 eV   59.98 nm  f=0.0087  <S**2>=0.000
       4 -> 15         0.19960
       5 -> 23         0.11901
       6 -> 28         0.27758
       8 -> 34         0.58784

 Excited State 111:      Singlet-A'    20.8227 eV   59.54 nm  f=0.0042  <S**2>=0.000
       4 -> 15         0.30005
       5 -> 23         0.15239
       6 -> 28        -0.27563
       7 -> 29         0.28746
       7 -> 30         0.41211
       9 -> 35        -0.11011

 Excited State 112:      Singlet-A"    20.8542 eV   59.45 nm  f=0.0101  <S**2>=0.000
       4 -> 16         0.57828
       6 -> 29         0.37805

 Excited State 113:      Singlet-A"    20.9534 eV   59.17 nm  f=0.0468  <S**2>=0.000
       4 -> 16        -0.36911
       5 -> 24        -0.18344
       6 -> 29         0.49153
       6 -> 30         0.16961

 Excited State 114:      Singlet-A'    21.0382 eV   58.93 nm  f=0.0065  <S**2>=0.000

 The electronic state is 1-A'.
 Alpha  occ. eigenvalues --  -18.90119 -10.04741  -0.94764  -0.62882  -0.46944
 Alpha  occ. eigenvalues --   -0.40085  -0.38889  -0.29838  -0.23648
 Alpha virt. eigenvalues --    0.00166   0.03412   0.07877   0.07920   0.11139
 Alpha virt. eigenvalues --    0.12112   0.13245   0.15642   0.15696   0.18990
 Alpha virt. eigenvalues --    0.22258   0.26036   0.27271   0.27594   0.28688

 Mulliken charges:
               1
     1  C    0.568978
     2  O   -0.457459
     3  H   -0.065545
     4  H   -0.065545
     5  H   -0.141597
     6  H    0.161169
 Sum of Mulliken charges =   0.00000

 Dipole moment (field-independent basis, Debye):
    X=             -1.3379    Y=              0.9168    Z=             -0.0000  Tot=              1.6219
 Quadrupole moment (field-independent basis, Debye-Ang):
   XX=            -11.9735   YY=            -13.5492   ZZ=            -13.9958
   XY=              2.0835   XZ=              0.0000   YZ=             -0.0000

 Normal termination of Gaussian 16 at Mon Mar 21 20:12:59 2022.
