 Gaussian 16, Revision C.01,
 Gaussian 16:  EM64L-G16RevC.01  3-Jul-2019

 ----------------------------------------------------------------------
 #P TD(Nstates=10000) tpsstpss/Gen SCF(maxcycles=100) Int(Grid=ultrafin
 e)
 ----------------------------------------------------------------------

 ---------------------
 xGDB7_00001_tier4.com
 ---------------------
 Symbolic Z-matrix:
 Charge =  0 Multiplicity = 1

                         Standard orientation:
 ---------------------------------------------------------------------
 Center     Atomic      Atomic             Coordinates (Angstroms)
 Number     Number       Type             X           Y           Z
 ---------------------------------------------------------------------
      1          9           0        0.000000    1.098813   -0.289120
      2          6           0       -0.000000   -0.000000    0.499944
      3          9           0       -0.000000   -1.098813   -0.289120
      4          1           0       -0.911346    0.000000    1.102246
      5          1           0        0.911346   -0.000000    1.102246
 ---------------------------------------------------------------------

 SCF Done:  E(RTPSS-TPSS) =  -238.842307872     A.U. after   11 cycles

 Excitation energies and oscillator strengths:

 Excited State   1:      Singlet-B1     8.7174 eV  142.23 nm  f=0.0212  <S**2>=0.000
      13 -> 14         0.70686
 This state for optimization and/or second-order correction.
 Total Energy, E(TD-HF/TD-DFT) =  -238.521947984
 Copying the excited state density for this state as the 1-particle RhoCI density.

 Excited State   2:      Singlet-A2     9.6547 eV  128.42 nm  f=0.0000  <S**2>=0.000
      13 -> 15         0.70661

 Excited State   3:      Singlet-B1    10.0555 eV  123.30 nm  f=0.0220  <S**2>=0.000
      13 -> 16         0.70622

 Excited State   4:      Singlet-B2    10.1119 eV  122.61 nm  f=0.0337  <S**2>=0.000
      12 -> 14         0.70503

 Excited State   5:      Singlet-A1    10.2281 eV  121.22 nm  f=0.0613  <S**2>=0.000
      11 -> 14        -0.14066
      13 -> 17         0.68897

 Excited State   6:      Singlet-A2    10.5701 eV  117.30 nm  f=0.0000  <S**2>=0.000
      10 -> 14         0.70700

 Excited State   7:      Singlet-A1    10.5885 eV  117.09 nm  f=0.0043  <S**2>=0.000
      11 -> 14         0.68841
      13 -> 17         0.13268

 Excited State   8:      Singlet-A1    11.1520 eV  111.18 nm  f=0.0132  <S**2>=0.000
      12 -> 15         0.69350

 Excited State   9:      Singlet-B2    11.4869 eV  107.94 nm  f=0.0000  <S**2>=0.000
      11 -> 15         0.38345
      12 -> 16         0.59243

 Excited State  10:      Singlet-B1    11.5004 eV  107.81 nm  f=0.0019  <S**2>=0.000
      10 -> 15         0.53446
      13 -> 18        -0.46119

 Excited State  11:      Singlet-A2    11.5126 eV  107.69 nm  f=0.0000  <S**2>=0.000
      12 -> 17         0.70698

 Excited State  12:      Singlet-B1    11.5853 eV  107.02 nm  f=0.0760  <S**2>=0.000
      10 -> 15         0.46004
      13 -> 18         0.53037

 Excited State  13:      Singlet-B2    11.8181 eV  104.91 nm  f=0.0684  <S**2>=0.000
      10 -> 17         0.10889
      11 -> 15         0.54942
      12 -> 16        -0.35147
      13 -> 21         0.18836

 Excited State  14:      Singlet-A1    11.8843 eV  104.33 nm  f=0.1165  <S**2>=0.000
      11 -> 16         0.70263

 Excited State  15:      Singlet-A2    11.9085 eV  104.11 nm  f=0.0000  <S**2>=0.000
      10 -> 16         0.70561

 Excited State  16:      Singlet-B1    11.9206 eV  104.01 nm  f=0.0445  <S**2>=0.000
      11 -> 17         0.70462

 Excited State  17:      Singlet-B2    12.0080 eV  103.25 nm  f=0.0487  <S**2>=0.000
      10 -> 17         0.69705

 Excited State  18:      Singlet-A2    12.0944 eV  102.51 nm  f=0.0000  <S**2>=0.000
      13 -> 19         0.70556

 Excited State  19:      Singlet-B1    12.4497 eV   99.59 nm  f=0.0120  <S**2>=0.000
      13 -> 20         0.70472

 Excited State  20:      Singlet-B2    12.5029 eV   99.16 nm  f=0.0116  <S**2>=0.000
      11 -> 15        -0.13104
      12 -> 18         0.11877
      13 -> 21         0.66603

 Excited State  21:      Singlet-A1    12.7512 eV   97.23 nm  f=0.0513  <S**2>=0.000
      13 -> 22         0.67624

 Excited State  22:      Singlet-B2    12.8693 eV   96.34 nm  f=0.0019  <S**2>=0.000
      12 -> 18         0.68982

 Excited State  23:      Singlet-A2    13.2277 eV   93.73 nm  f=0.0000  <S**2>=0.000
      10 -> 18         0.10368
      13 -> 23         0.69763

 Excited State  24:      Singlet-A2    13.2902 eV   93.29 nm  f=0.0000  <S**2>=0.000
      10 -> 18         0.69925
      13 -> 23        -0.10385

 Excited State  25:      Singlet-A1    13.2914 eV   93.28 nm  f=0.0120  <S**2>=0.000
      11 -> 18         0.69969

 Excited State  26:      Singlet-A1    13.4448 eV   92.22 nm  f=0.0057  <S**2>=0.000
      12 -> 19         0.70595

 Excited State  27:      Singlet-B1    13.7905 eV   89.91 nm  f=0.0120  <S**2>=0.000
      12 -> 21         0.70342

 Excited State  28:      Singlet-B2    13.7915 eV   89.90 nm  f=0.0705  <S**2>=0.000
      11 -> 19        -0.23485
      12 -> 20         0.66442

 Excited State  29:      Singlet-A2    13.8109 eV   89.77 nm  f=0.0000  <S**2>=0.000
      12 -> 22         0.70671

 Excited State  30:      Singlet-B1    13.9378 eV   88.96 nm  f=0.0019  <S**2>=0.000
      10 -> 19         0.70244

 Excited State  31:      Singlet-B2    13.9713 eV   88.74 nm  f=0.0001  <S**2>=0.000
       9 -> 14        -0.18532
      10 -> 22        -0.24719
      11 -> 19         0.59149
      12 -> 20         0.20783

 Excited State  32:      Singlet-B2    14.0199 eV   88.43 nm  f=0.0001  <S**2>=0.000
       9 -> 14         0.67764
      10 -> 22        -0.12488
      11 -> 19         0.14778

 Excited State  33:      Singlet-B1    14.1815 eV   87.43 nm  f=0.0016  <S**2>=0.000
       7 -> 14         0.17325
      11 -> 22         0.37300
      13 -> 24         0.57230

 Excited State  34:      Singlet-A2    14.1872 eV   87.39 nm  f=0.0000  <S**2>=0.000
      11 -> 21         0.70495

 Excited State  35:      Singlet-A1    14.2020 eV   87.30 nm  f=0.0376  <S**2>=0.000
       8 -> 14         0.65255
      11 -> 20         0.22372

 Excited State  36:      Singlet-A1    14.2240 eV   87.17 nm  f=0.0000  <S**2>=0.000
       8 -> 14        -0.13382
      10 -> 21         0.47420
      11 -> 20         0.50278

 Excited State  37:      Singlet-B1    14.2270 eV   87.15 nm  f=0.0589  <S**2>=0.000
       7 -> 14         0.51130
      11 -> 22        -0.45661
      13 -> 24         0.14469

 Excited State  38:      Singlet-B1    14.2525 eV   86.99 nm  f=0.0747  <S**2>=0.000
       7 -> 14         0.44608
      11 -> 22         0.38512
      13 -> 24        -0.37800

 Excited State  39:      Singlet-A2    14.2867 eV   86.78 nm  f=0.0000  <S**2>=0.000
      10 -> 20         0.70417

 Excited State  40:      Singlet-A1    14.4974 eV   85.52 nm  f=0.0018  <S**2>=0.000
       8 -> 14         0.13653
      10 -> 21         0.42408
      11 -> 20        -0.39135
      12 -> 23        -0.35446

 Excited State  41:      Singlet-B2    14.5913 eV   84.97 nm  f=0.0049  <S**2>=0.000
       9 -> 16         0.10182
      10 -> 22         0.60387
      11 -> 19         0.18761
      11 -> 23        -0.15540
      12 -> 24        -0.18146

 Excited State  42:      Singlet-A1    14.7353 eV   84.14 nm  f=0.0013  <S**2>=0.000
       7 -> 17        -0.13699
       8 -> 14         0.12368
       9 -> 15        -0.12839
      10 -> 21         0.24955
      11 -> 20        -0.14200
      12 -> 23         0.58828

 Excited State  43:      Singlet-B2    15.0136 eV   82.58 nm  f=0.0055  <S**2>=0.000
       8 -> 15        -0.17159
       9 -> 16         0.15318
      11 -> 23         0.65306

 Excited State  44:      Singlet-B1    15.0255 eV   82.52 nm  f=0.0918  <S**2>=0.000
      10 -> 23        -0.18705
      13 -> 25         0.66424

 Excited State  45:      Singlet-A1    15.1093 eV   82.06 nm  f=0.0279  <S**2>=0.000
       8 -> 16         0.26757
       9 -> 15         0.62345

 Excited State  46:      Singlet-B1    15.1095 eV   82.06 nm  f=0.0011  <S**2>=0.000
      10 -> 23         0.67781
      13 -> 25         0.18179

 Excited State  47:      Singlet-A2    15.1208 eV   82.00 nm  f=0.0000  <S**2>=0.000
       7 -> 15         0.70328

 Excited State  48:      Singlet-B2    15.1363 eV   81.91 nm  f=0.1383  <S**2>=0.000
       8 -> 15         0.67221
      11 -> 23         0.15666
      13 -> 26         0.11252

 Excited State  49:      Singlet-B2    15.3694 eV   80.67 nm  f=0.0721  <S**2>=0.000
       9 -> 16         0.66525
      11 -> 23        -0.10825
      12 -> 24         0.18370

 Excited State  50:      Singlet-A2    15.4202 eV   80.40 nm  f=0.0000  <S**2>=0.000
       9 -> 17         0.70372

 Excited State  51:      Singlet-B1    15.5053 eV   79.96 nm  f=0.0537  <S**2>=0.000
       7 -> 16        -0.18387
       8 -> 17         0.67859

 Excited State  52:      Singlet-A1    15.5654 eV   79.65 nm  f=0.1181  <S**2>=0.000
       8 -> 16         0.63064
       9 -> 15        -0.21217
      13 -> 27        -0.10555

 Excited State  53:      Singlet-B1    15.6810 eV   79.07 nm  f=0.0542  <S**2>=0.000
       7 -> 16         0.66430
       7 -> 18         0.11945
       8 -> 17         0.17565

 Excited State  54:      Singlet-B2    15.8824 eV   78.06 nm  f=0.1140  <S**2>=0.000
      12 -> 24         0.18836
      13 -> 26         0.67175

 Excited State  55:      Singlet-A1    15.9058 eV   77.95 nm  f=0.0006  <S**2>=0.000
       7 -> 17         0.54582
      11 -> 24         0.40785

 Excited State  56:      Singlet-B2    15.9935 eV   77.52 nm  f=0.0655  <S**2>=0.000
       9 -> 16        -0.10487
       9 -> 18        -0.17595
      10 -> 22         0.10528
      12 -> 24         0.53398
      12 -> 25         0.32623
      13 -> 26        -0.14322

 Excited State  57:      Singlet-A2    16.1182 eV   76.92 nm  f=0.0000  <S**2>=0.000
      10 -> 24         0.69825

 Excited State  58:      Singlet-A1    16.1272 eV   76.88 nm  f=0.0523  <S**2>=0.000
       7 -> 17        -0.35964
      11 -> 24         0.55331
      13 -> 27         0.13999
      13 -> 30        -0.10931

 Excited State  59:      Singlet-A2    16.3067 eV   76.03 nm  f=0.0000  <S**2>=0.000
      13 -> 28         0.69904

 Excited State  60:      Singlet-A1    16.3077 eV   76.03 nm  f=0.0362  <S**2>=0.000
       8 -> 18         0.11062
      11 -> 24        -0.13440
      11 -> 25        -0.12369
      13 -> 27         0.65760

 Excited State  61:      Singlet-B2    16.4063 eV   75.57 nm  f=0.0724  <S**2>=0.000
       9 -> 18         0.24246
      12 -> 24        -0.20748
      12 -> 25         0.60729

 Excited State  62:      Singlet-B1    16.4397 eV   75.42 nm  f=0.0025  <S**2>=0.000
      13 -> 29         0.69805

 Excited State  63:      Singlet-A1    16.7559 eV   73.99 nm  f=0.0384  <S**2>=0.000
      11 -> 25         0.67646
      13 -> 30        -0.13363

 Excited State  64:      Singlet-A2    16.7919 eV   73.84 nm  f=0.0000  <S**2>=0.000
      10 -> 25         0.70277

 Excited State  65:      Singlet-B2    16.9282 eV   73.24 nm  f=0.0352  <S**2>=0.000
       8 -> 19        -0.20439
       9 -> 18         0.60418
       9 -> 20         0.10619
      11 -> 28        -0.11402
      12 -> 24         0.13977
      12 -> 25        -0.11441

 Excited State  66:      Singlet-A1    16.9382 eV   73.20 nm  f=0.0320  <S**2>=0.000
       8 -> 18         0.65711
       9 -> 19        -0.19654

 Excited State  67:      Singlet-B1    17.1356 eV   72.35 nm  f=0.1107  <S**2>=0.000
       7 -> 18         0.63304
       8 -> 22        -0.12127
      12 -> 26         0.24389

 Excited State  68:      Singlet-B1    17.2892 eV   71.71 nm  f=0.0403  <S**2>=0.000
       7 -> 18        -0.22026
      12 -> 26         0.66205

 Excited State  69:      Singlet-A1    17.3998 eV   71.26 nm  f=0.0004  <S**2>=0.000
       7 -> 22        -0.12160
       9 -> 19         0.29137
      13 -> 30         0.60155

 Excited State  70:      Singlet-A2    17.5413 eV   70.68 nm  f=0.0000  <S**2>=0.000
       7 -> 19         0.70123

 Excited State  71:      Singlet-B2    17.5544 eV   70.63 nm  f=0.0005  <S**2>=0.000
       8 -> 19         0.61284
       9 -> 20         0.28239
      11 -> 28        -0.11467

 Excited State  72:      Singlet-A2    17.6059 eV   70.42 nm  f=0.0000  <S**2>=0.000
      12 -> 27         0.69439

 Excited State  73:      Singlet-A2    17.6441 eV   70.27 nm  f=0.0000  <S**2>=0.000
       9 -> 22        -0.11176
      11 -> 26         0.69258

 Excited State  74:      Singlet-A1    17.6615 eV   70.20 nm  f=0.0135  <S**2>=0.000
       8 -> 20        -0.13425
       9 -> 19         0.37755
      10 -> 26        -0.28445
      12 -> 28         0.43769
      13 -> 30        -0.16835

 Excited State  75:      Singlet-B1    17.6970 eV   70.06 nm  f=0.0016  <S**2>=0.000
       9 -> 21         0.70433

 Excited State  76:      Singlet-A2    17.7211 eV   69.96 nm  f=0.0000  <S**2>=0.000
       9 -> 22         0.68856

 Excited State  77:      Singlet-A1    17.7454 eV   69.87 nm  f=0.0063  <S**2>=0.000
       8 -> 20         0.29535
      10 -> 26         0.43342
      12 -> 28         0.45608

 Excited State  78:      Singlet-B2    17.7683 eV   69.78 nm  f=0.0600  <S**2>=0.000
       7 -> 21         0.20359
       8 -> 19        -0.18735
       9 -> 20         0.56431
      10 -> 27         0.10229
      11 -> 28         0.18003
      12 -> 29         0.20601

 Excited State  79:      Singlet-A2    17.7762 eV   69.75 nm  f=0.0000  <S**2>=0.000
       8 -> 21         0.69752

 Excited State  80:      Singlet-A1    17.8019 eV   69.65 nm  f=0.0705  <S**2>=0.000
       8 -> 20        -0.34232
       9 -> 19         0.23334
       9 -> 23        -0.12442
      10 -> 26         0.47156
      11 -> 29         0.12812
      12 -> 28        -0.15864
      13 -> 30        -0.14535

 Excited State  81:      Singlet-B2    17.8056 eV   69.63 nm  f=0.0286  <S**2>=0.000
       7 -> 21         0.15555
       9 -> 20        -0.22890
      12 -> 29         0.64011

 Excited State  82:      Singlet-B1    17.8308 eV   69.53 nm  f=0.0255  <S**2>=0.000
       7 -> 18         0.10546
       7 -> 20        -0.18408
       8 -> 22         0.65368
      11 -> 27        -0.12860

 Excited State  83:      Singlet-A1    17.8928 eV   69.29 nm  f=0.0057  <S**2>=0.000
       7 -> 22        -0.12147
       8 -> 20         0.51640
       9 -> 19         0.26674
      11 -> 29         0.16309
      12 -> 28        -0.23411
      13 -> 30        -0.15816

 Excited State  84:      Singlet-B1    17.8998 eV   69.27 nm  f=0.0239  <S**2>=0.000
       7 -> 20         0.67191
       8 -> 22         0.15047
      11 -> 27        -0.13222

 Excited State  85:      Singlet-B2    17.9048 eV   69.25 nm  f=0.0386  <S**2>=0.000
       7 -> 21         0.64206
      11 -> 28        -0.17697
      12 -> 29        -0.20787

 Excited State  86:      Singlet-A1    18.0345 eV   68.75 nm  f=0.0624  <S**2>=0.000
       7 -> 22         0.65933
       9 -> 19         0.10355
      12 -> 28        -0.10715
      13 -> 31        -0.10259

 Excited State  87:      Singlet-B1    18.0413 eV   68.72 nm  f=0.0131  <S**2>=0.000
       8 -> 22         0.13881
      11 -> 27         0.67533

 Excited State  88:      Singlet-B2    18.0800 eV   68.58 nm  f=0.0639  <S**2>=0.000
      10 -> 27         0.66986
      11 -> 28        -0.21539

 Excited State  89:      Singlet-A1    18.2246 eV   68.03 nm  f=0.0074  <S**2>=0.000
       6 -> 14         0.53919
       9 -> 19        -0.13465
       9 -> 23         0.27719
      11 -> 29         0.29558

 Excited State  90:      Singlet-B1    18.2456 eV   67.95 nm  f=0.0478  <S**2>=0.000
      10 -> 28         0.69791

 Excited State  91:      Singlet-A2    18.2812 eV   67.82 nm  f=0.0000  <S**2>=0.000
      10 -> 29         0.70646

 Excited State  92:      Singlet-B2    18.3289 eV   67.64 nm  f=0.0032  <S**2>=0.000
       7 -> 21         0.10104
       8 -> 23        -0.30612
       9 -> 20        -0.11700
       9 -> 24        -0.14929
      10 -> 27         0.15430
      11 -> 28         0.54594

 Excited State  93:      Singlet-A1    18.3349 eV   67.62 nm  f=0.0465  <S**2>=0.000
       6 -> 14        -0.29581
       9 -> 23        -0.15647
      11 -> 29         0.58731

 Excited State  94:      Singlet-A2    18.6767 eV   66.38 nm  f=0.0000  <S**2>=0.000
       7 -> 23         0.69503
      12 -> 30        -0.12182

 Excited State  95:      Singlet-A2    18.6977 eV   66.31 nm  f=0.0000  <S**2>=0.000
       7 -> 23         0.12182
      12 -> 30         0.69607

 Excited State  96:      Singlet-A1    18.7302 eV   66.19 nm  f=0.1093  <S**2>=0.000
       9 -> 23        -0.24400
      13 -> 31         0.64897

 Excited State  97:      Singlet-B2    18.7696 eV   66.06 nm  f=0.0001  <S**2>=0.000
       6 -> 15        -0.13377
       8 -> 23         0.59701
       9 -> 24        -0.19399
      10 -> 30        -0.12080
      11 -> 28         0.16341

 Excited State  98:      Singlet-B1    18.8439 eV   65.80 nm  f=0.0065  <S**2>=0.000
      11 -> 30        -0.12423
      13 -> 32         0.69216

 Excited State  99:      Singlet-A1    18.9265 eV   65.51 nm  f=0.0239  <S**2>=0.000
       6 -> 14        -0.21297
       6 -> 16        -0.12291
       8 -> 24        -0.33015
       9 -> 19         0.12282
       9 -> 23         0.48134
      13 -> 31         0.22448

 Excited State 100:      Singlet-B1    19.0915 eV   64.94 nm  f=0.0015  <S**2>=0.000
      11 -> 30         0.69209
      13 -> 32         0.12155

 Excited State 101:      Singlet-B2    19.1978 eV   64.58 nm  f=0.0060  <S**2>=0.000
       6 -> 15        -0.12869
       9 -> 24        -0.18916
      10 -> 30         0.66570

 Excited State 102:      Singlet-A2    19.2138 eV   64.53 nm  f=0.0000  <S**2>=0.000
      13 -> 33         0.70615

 Excited State 103:      Singlet-B2    19.2948 eV   64.26 nm  f=0.0014  <S**2>=0.000
       6 -> 15         0.65537
       9 -> 24        -0.16657

 Excited State 104:      Singlet-B1    19.4699 eV   63.68 nm  f=0.0274  <S**2>=0.000
       7 -> 24        -0.12846
      13 -> 34         0.69264

 Excited State 105:      Singlet-B1    19.5597 eV   63.39 nm  f=0.0060  <S**2>=0.000
       6 -> 17         0.56902
       7 -> 24        -0.40948

 Excited State 106:      Singlet-A1    19.5632 eV   63.38 nm  f=0.0280  <S**2>=0.000
       6 -> 16         0.64107
       8 -> 24        -0.25137

 Excited State 107:      Singlet-A2    19.6809 eV   63.00 nm  f=0.0000  <S**2>=0.000
      13 -> 35         0.70588

 Excited State 108:      Singlet-B1    19.8435 eV   62.48 nm  f=0.0063  <S**2>=0.000
       6 -> 17         0.40511
       7 -> 24         0.54906

 Excited State 109:      Singlet-B2    19.9354 eV   62.19 nm  f=0.1259  <S**2>=0.000
       9 -> 24         0.50974
       9 -> 25         0.29713
      10 -> 30         0.12708
      10 -> 31         0.19340
      12 -> 32         0.15706
      13 -> 36        -0.10814

 Excited State 110:      Singlet-A2    20.0940 eV   61.70 nm  f=0.0000  <S**2>=0.000
      12 -> 31         0.70485

 Excited State 111:      Singlet-B2    20.2208 eV   61.32 nm  f=0.0707  <S**2>=0.000
       9 -> 25        -0.16495
      10 -> 31        -0.10471
      12 -> 32         0.66883

 Excited State 112:      Singlet-B2    20.2725 eV   61.16 nm  f=0.0070  <S**2>=0.000
       9 -> 24        -0.16489
       9 -> 25         0.58707
      10 -> 31        -0.30210

 Excited State 113:      Singlet-A1    20.2839 eV   61.12 nm  f=0.0030  <S**2>=0.000
       6 -> 16         0.12979
       8 -> 24         0.27091
       8 -> 25         0.58169
       9 -> 23         0.11089
       9 -> 28        -0.11070
      11 -> 32         0.10046

 Excited State 114:      Singlet-A1    20.3979 eV   60.78 nm  f=0.0019  <S**2>=0.000
       6 -> 16        -0.14333
       8 -> 24        -0.35895
       8 -> 25         0.36211
       9 -> 23        -0.11313
       9 -> 28         0.16834
      11 -> 32        -0.33402

 Excited State 115:      Singlet-B1    20.4374 eV   60.67 nm  f=0.0004  <S**2>=0.000
       7 -> 25         0.68609
      11 -> 31        -0.11197

 Excited State 116:      Singlet-B1    20.5236 eV   60.41 nm  f=0.0401  <S**2>=0.000
       7 -> 25         0.11040
      11 -> 31         0.68983

 Excited State 117:      Singlet-A1    20.7093 eV   59.87 nm  f=0.0087  <S**2>=0.000
      11 -> 32        -0.30994
      12 -> 33         0.62169

 Excited State 118:      Singlet-B2    20.7099 eV   59.87 nm  f=0.0512  <S**2>=0.000
       9 -> 24        -0.14919
       9 -> 25         0.13689
      10 -> 31         0.54827
      11 -> 33        -0.17797
      12 -> 34        -0.24677
      13 -> 36         0.13945

 Excited State 119:      Singlet-A1    20.7412 eV   59.78 nm  f=0.1165  <S**2>=0.000
       8 -> 24        -0.19064
       8 -> 25         0.10012
       9 -> 28         0.19369
      11 -> 32         0.50914
      12 -> 33         0.31730

 Excited State 120:      Singlet-A2    20.7509 eV   59.75 nm  f=0.0000  <S**2>=0.000
      10 -> 32         0.70249

 Excited State 121:      Singlet-B2    20.8613 eV   59.43 nm  f=0.0587  <S**2>=0.000
      10 -> 31         0.10662
      11 -> 33        -0.20216
      12 -> 34         0.63827
      13 -> 36         0.11032

 Excited State 122:      Singlet-A1    21.0337 eV   58.95 nm  f=0.0351  <S**2>=0.000
       6 -> 18         0.65614
       7 -> 27         0.12445
       8 -> 29        -0.10360
      12 -> 35        -0.12655

 Excited State 123:      Singlet-A1    21.1093 eV   58.73 nm  f=0.0284  <S**2>=0.000
       6 -> 18         0.10618
      12 -> 35         0.67826

 Excited State 124:      Singlet-B2    21.1119 eV   58.73 nm  f=0.0250  <S**2>=0.000
       7 -> 26        -0.12808
      10 -> 31         0.15246
      11 -> 33         0.64275
      12 -> 34         0.11782
      13 -> 36         0.10292

 Excited State 125:      Singlet-B1    21.1343 eV   58.66 nm  f=0.0120  <S**2>=0.000
       9 -> 26         0.48194
      10 -> 33         0.51394

 Excited State 126:      Singlet-A2    21.2360 eV   58.38 nm  f=0.0000  <S**2>=0.000
       8 -> 26         0.69989

 Excited State 127:      Singlet-B1    21.2541 eV   58.33 nm  f=0.1294  <S**2>=0.000
       8 -> 27        -0.15499
       9 -> 26         0.50043
      10 -> 33        -0.45111

 Excited State 128:      Singlet-A1    21.3272 eV   58.13 nm  f=0.0057  <S**2>=0.000
       9 -> 28        -0.22610
      11 -> 34         0.65736

 Excited State 129:      Singlet-A2    21.3401 eV   58.10 nm  f=0.0000  <S**2>=0.000
      10 -> 34         0.70339

 Excited State 130:      Singlet-B2    21.3526 eV   58.07 nm  f=0.0224  <S**2>=0.000
       6 -> 19         0.25260
       7 -> 26         0.61993
      13 -> 36         0.13493

 Excited State 131:      Singlet-B2    21.4645 eV   57.76 nm  f=0.0032  <S**2>=0.000
      11 -> 35         0.68813

 Excited State 132:      Singlet-A2    21.5104 eV   57.64 nm  f=0.0000  <S**2>=0.000
       9 -> 27         0.70201

 Excited State 133:      Singlet-B1    21.5674 eV   57.49 nm  f=0.0289  <S**2>=0.000

 The electronic state is 1-A1.
 Alpha  occ. eigenvalues --  -24.44309 -24.44307 -10.16815  -1.17133  -1.11342
 Alpha  occ. eigenvalues --   -0.65211  -0.50831  -0.50499  -0.50214  -0.37668
 Alpha  occ. eigenvalues --   -0.37366  -0.35891  -0.30851
 Alpha virt. eigenvalues --    0.01198   0.04433   0.05917   0.06453   0.11229
 Alpha virt. eigenvalues --    0.13570   0.14850   0.14856   0.14874   0.17773
 Alpha virt. eigenvalues --    0.21310   0.24053   0.27664   0.28870   0.29274

 Mulliken charges:
               1
     1  F   -0.401725
     2  C    1.126296
     3  F   -0.401725
     4  H   -0.161423
     5  H   -0.161423
 Sum of Mulliken charges =  -0.00000

 Dipole moment (field-independent basis, Debye):
    X=              0.0000    Y=             -0.0000    Z=              1.8714  Tot=              1.8714
 Quadrupole moment (field-independent basis, Debye-Ang):
   XX=            -15.5543   YY=            -19.1913   ZZ=            -15.5830
   XY=             -0.0000   XZ=              0.0000   YZ=             -0.0000

 Normal termination of Gaussian 16 at Mon Mar 21 20:13:09 2022.
