 Gaussian 16, Revision C.01,
 Gaussian 16:  EM64L-G16RevC.01  3-Jul-2019

 ----------------------------------------------------------------------
 #P TD(Nstates=10000) tpsstpss/Gen SCF(maxcycles=100) Int(Grid=ultrafin
 e)
 ----------------------------------------------------------------------

 ---------------------
 xGDB7_00001_tier4.com
 ---------------------
 Symbolic Z-matrix:
 Charge =  0 Multiplicity = 1

                         Standard orientation:
 ---------------------------------------------------------------------
 Center     Atomic      Atomic             Coordinates (Angstroms)
 Number     Number       Type             X           Y           Z
 ---------------------------------------------------------------------
      1          6           0        0.000000    0.000000   -0.524273
      2          8           0        0.000000    0.000000    0.670793
      3          1           0        0.000000    0.939221   -1.110351
      4          1           0       -0.000000   -0.939221   -1.110351
 ---------------------------------------------------------------------

 SCF Done:  E(RTPSS-TPSS) =  -114.441785183     A.U. after   11 cycles

 Excitation energies and oscillator strengths:

 Excited State   1:      Singlet-A2     4.1520 eV  298.61 nm  f=0.0000  <S**2>=0.000
       8 ->  9         0.70718
 This state for optimization and/or second-order correction.
 Total Energy, E(TD-HF/TD-DFT) =  -114.289202772
 Copying the excited state density for this state as the 1-particle RhoCI density.

 Excited State   2:      Singlet-B2     6.8064 eV  182.16 nm  f=0.0310  <S**2>=0.000
       8 -> 10         0.70651

 Excited State   3:      Singlet-A1     8.4068 eV  147.48 nm  f=0.0910  <S**2>=0.000
       8 -> 11         0.70503

 Excited State   4:      Singlet-B2     8.4963 eV  145.93 nm  f=0.0498  <S**2>=0.000
       8 -> 12         0.70322

 Excited State   5:      Singlet-A2     9.0922 eV  136.36 nm  f=0.0000  <S**2>=0.000
       8 -> 13         0.70705

 Excited State   6:      Singlet-B1     9.1547 eV  135.43 nm  f=0.0006  <S**2>=0.000
       6 ->  9         0.70474

 Excited State   7:      Singlet-B2     9.6783 eV  128.11 nm  f=0.0328  <S**2>=0.000
       8 -> 14         0.69272
       8 -> 15         0.12479

 Excited State   8:      Singlet-A1     9.6954 eV  127.88 nm  f=0.0700  <S**2>=0.000
       7 ->  9         0.59149
       8 -> 16        -0.36885

 Excited State   9:      Singlet-A2    10.2216 eV  121.30 nm  f=0.0000  <S**2>=0.000
       5 ->  9         0.70669

 Excited State  10:      Singlet-B2    10.3991 eV  119.23 nm  f=0.0242  <S**2>=0.000
       8 -> 14        -0.11954
       8 -> 15         0.69409

 Excited State  11:      Singlet-B1    10.6507 eV  116.41 nm  f=0.0311  <S**2>=0.000
       7 -> 10         0.70670

 Excited State  12:      Singlet-A1    11.1888 eV  110.81 nm  f=0.1467  <S**2>=0.000
       6 -> 10        -0.33060
       7 ->  9         0.30172
       8 -> 16         0.52525

 Excited State  13:      Singlet-B1    11.4436 eV  108.34 nm  f=0.0130  <S**2>=0.000
       8 -> 17         0.70322

 Excited State  14:      Singlet-A1    11.7701 eV  105.34 nm  f=0.1269  <S**2>=0.000
       6 -> 10         0.61874
       7 ->  9         0.16299
       8 -> 16         0.25614

 Excited State  15:      Singlet-A2    12.1964 eV  101.66 nm  f=0.0000  <S**2>=0.000
       7 -> 11         0.54201
       8 -> 18         0.45384

 Excited State  16:      Singlet-A2    12.2531 eV  101.19 nm  f=0.0000  <S**2>=0.000
       7 -> 11        -0.45394
       8 -> 18         0.54164

 Excited State  17:      Singlet-B1    12.3914 eV  100.06 nm  f=0.0633  <S**2>=0.000
       7 -> 12         0.70012

 Excited State  18:      Singlet-B2    12.9778 eV   95.54 nm  f=0.1099  <S**2>=0.000
       5 -> 10         0.69903

 Excited State  19:      Singlet-A1    13.1103 eV   94.57 nm  f=0.0027  <S**2>=0.000
       5 -> 11         0.11295
       6 -> 12        -0.19097
       7 -> 13         0.65947

 Excited State  20:      Singlet-B2    13.1498 eV   94.29 nm  f=0.0705  <S**2>=0.000
       6 -> 11         0.69969

 Excited State  21:      Singlet-A1    13.3015 eV   93.21 nm  f=0.1637  <S**2>=0.000
       6 -> 12         0.67764
       7 -> 13         0.17667

 Excited State  22:      Singlet-B1    13.4655 eV   92.08 nm  f=0.0030  <S**2>=0.000
       7 -> 14         0.70027

 Excited State  23:      Singlet-B1    13.8422 eV   89.57 nm  f=0.0165  <S**2>=0.000
       6 -> 13         0.69248
       7 -> 15         0.14077

 Excited State  24:      Singlet-B2    13.9698 eV   88.75 nm  f=0.0022  <S**2>=0.000
       8 -> 19         0.70290

 Excited State  25:      Singlet-B1    14.0059 eV   88.52 nm  f=0.0149  <S**2>=0.000
       4 ->  9         0.32999
       6 -> 13        -0.11506
       7 -> 15         0.61147

 Excited State  26:      Singlet-A2    14.2254 eV   87.16 nm  f=0.0000  <S**2>=0.000
       7 -> 16         0.70687

 Excited State  27:      Singlet-A1    14.2727 eV   86.87 nm  f=0.1661  <S**2>=0.000
       6 -> 14         0.25042
       8 -> 20         0.64469

 Excited State  28:      Singlet-A1    14.4611 eV   85.74 nm  f=0.0509  <S**2>=0.000
       6 -> 14         0.65141
       8 -> 20        -0.23961

 Excited State  29:      Singlet-B2    14.6115 eV   84.85 nm  f=0.0066  <S**2>=0.000
       5 -> 12         0.70452

 Excited State  30:      Singlet-A1    14.8214 eV   83.65 nm  f=0.0017  <S**2>=0.000
       4 -> 10         0.12339
       5 -> 11         0.61586
       6 -> 15         0.26746

 Excited State  31:      Singlet-B2    14.8907 eV   83.26 nm  f=0.0606  <S**2>=0.000
       6 -> 16        -0.10405
       8 -> 21         0.68697

 Excited State  32:      Singlet-B1    14.9810 eV   82.76 nm  f=0.2215  <S**2>=0.000
       4 ->  9         0.58271
       5 -> 17        -0.14386
       7 -> 15        -0.31377

 Excited State  33:      Singlet-A1    15.1449 eV   81.87 nm  f=0.0094  <S**2>=0.000
       5 -> 11        -0.23874
       6 -> 15         0.63673
       8 -> 23         0.10092

 Excited State  34:      Singlet-B2    15.1544 eV   81.81 nm  f=0.0001  <S**2>=0.000
       6 -> 16         0.68614
       7 -> 17         0.13975

 Excited State  35:      Singlet-A2    15.2078 eV   81.53 nm  f=0.0000  <S**2>=0.000
       5 -> 13         0.70681

 Excited State  36:      Singlet-B2    15.3123 eV   80.97 nm  f=0.0286  <S**2>=0.000
       5 -> 14         0.22294
       6 -> 16        -0.10638
       7 -> 17         0.64810

 Excited State  37:      Singlet-B2    15.7773 eV   78.58 nm  f=0.0210  <S**2>=0.000
       5 -> 14        -0.10373
       8 -> 22         0.69265

 Excited State  38:      Singlet-A1    15.9725 eV   77.62 nm  f=0.0767  <S**2>=0.000
       7 -> 18        -0.20231
       8 -> 23         0.65214

 Excited State  39:      Singlet-B2    16.0814 eV   77.10 nm  f=0.2394  <S**2>=0.000
       5 -> 14         0.57959
       5 -> 15         0.33581
       7 -> 17        -0.15937

 Excited State  40:      Singlet-A2    16.2165 eV   76.46 nm  f=0.0000  <S**2>=0.000
       6 -> 17         0.70674

 Excited State  41:      Singlet-A1    16.2768 eV   76.17 nm  f=0.0361  <S**2>=0.000
       5 -> 16         0.33897
       7 -> 18         0.57020
       8 -> 23         0.18736

 Excited State  42:      Singlet-B1    16.4033 eV   75.58 nm  f=0.0887  <S**2>=0.000
       8 -> 24         0.69658

 Excited State  43:      Singlet-A1    16.5327 eV   74.99 nm  f=0.0004  <S**2>=0.000
       4 -> 10         0.49247
       5 -> 16         0.46169
       7 -> 18        -0.16466

 Excited State  44:      Singlet-B2    16.6290 eV   74.56 nm  f=0.2231  <S**2>=0.000
       5 -> 14        -0.28633
       5 -> 15         0.61477
       7 -> 17         0.13501

 Excited State  45:      Singlet-A2    17.0406 eV   72.76 nm  f=0.0000  <S**2>=0.000
       8 -> 25         0.70675

 Excited State  46:      Singlet-B1    17.0662 eV   72.65 nm  f=0.0052  <S**2>=0.000
       6 -> 18         0.69507

 Excited State  47:      Singlet-B2    17.1128 eV   72.45 nm  f=0.0006  <S**2>=0.000
       8 -> 26         0.70354

 Excited State  48:      Singlet-A1    17.2542 eV   71.86 nm  f=0.0342  <S**2>=0.000
       4 -> 10         0.43920
       4 -> 12         0.12448
       5 -> 11        -0.13845
       5 -> 16        -0.38051
       7 -> 18         0.26638
       8 -> 27         0.11358

 Excited State  49:      Singlet-B1    17.7673 eV   69.78 nm  f=0.2772  <S**2>=0.000
       5 -> 17         0.56049
       7 -> 19        -0.39286

 Excited State  50:      Singlet-B1    17.8870 eV   69.32 nm  f=0.0246  <S**2>=0.000
       5 -> 17         0.35934
       7 -> 19         0.58447

 Excited State  51:      Singlet-B2    18.0618 eV   68.64 nm  f=0.0265  <S**2>=0.000
       4 -> 11         0.70323

 Excited State  52:      Singlet-A2    18.0825 eV   68.57 nm  f=0.0000  <S**2>=0.000
       7 -> 20         0.70666

 Excited State  53:      Singlet-A1    18.1730 eV   68.22 nm  f=0.0721  <S**2>=0.000
       4 -> 12         0.67088
       8 -> 27         0.11450

 Excited State  54:      Singlet-A2    18.3108 eV   67.71 nm  f=0.0000  <S**2>=0.000
       5 -> 18         0.70617

 Excited State  55:      Singlet-B1    18.6706 eV   66.41 nm  f=0.0484  <S**2>=0.000
       4 -> 13         0.47235
       7 -> 21         0.52354

 Excited State  56:      Singlet-A1    18.7711 eV   66.05 nm  f=0.0133  <S**2>=0.000
       6 -> 19         0.61866
       8 -> 27         0.33071

 Excited State  57:      Singlet-B1    18.7742 eV   66.04 nm  f=0.0259  <S**2>=0.000
       4 -> 13         0.51285
       5 -> 17        -0.10318
       7 -> 21        -0.45854

 Excited State  58:      Singlet-B2    19.0121 eV   65.21 nm  f=0.0190  <S**2>=0.000
       6 -> 20         0.70122

 Excited State  59:      Singlet-A1    19.3403 eV   64.11 nm  f=0.0671  <S**2>=0.000
       4 -> 14         0.58064
       6 -> 21         0.29118
       8 -> 27         0.22040

 Excited State  60:      Singlet-A1    19.5830 eV   63.31 nm  f=0.0001  <S**2>=0.000
       4 -> 14        -0.34392
       4 -> 15        -0.25069
       6 -> 19        -0.18673
       6 -> 21         0.40967
       7 -> 25        -0.11358
       8 -> 27         0.28750

 Excited State  61:      Singlet-A2    19.6699 eV   63.03 nm  f=0.0000  <S**2>=0.000
       7 -> 23         0.70624

 Excited State  62:      Singlet-B1    19.8126 eV   62.58 nm  f=0.1509  <S**2>=0.000
       7 -> 22         0.68280

 Excited State  63:      Singlet-A1    19.9816 eV   62.05 nm  f=0.0014  <S**2>=0.000
       4 -> 14        -0.14232
       4 -> 15         0.58883
       6 -> 21         0.31463

 Excited State  64:      Singlet-B2    19.9826 eV   62.05 nm  f=0.0165  <S**2>=0.000
       4 -> 16         0.63522
       5 -> 19        -0.13024
       7 -> 24        -0.17339
       8 -> 28         0.20861

 Excited State  65:      Singlet-A1    20.0417 eV   61.86 nm  f=0.0585  <S**2>=0.000
       4 -> 15         0.28246
       5 -> 20        -0.11328
       6 -> 19        -0.18280
       6 -> 21        -0.34226
       6 -> 26         0.20236
       7 -> 25        -0.21216
       8 -> 27         0.36324

 Excited State  66:      Singlet-B2    20.0508 eV   61.84 nm  f=0.0004  <S**2>=0.000
       5 -> 19         0.50100
       8 -> 28         0.48259

 Excited State  67:      Singlet-B2    20.2408 eV   61.25 nm  f=0.0029  <S**2>=0.000
       4 -> 16         0.20534
       5 -> 19         0.20153
       6 -> 23        -0.20437
       7 -> 24         0.59799

 Excited State  68:      Singlet-B2    20.2560 eV   61.21 nm  f=0.1656  <S**2>=0.000
       4 -> 16        -0.18395
       5 -> 19        -0.42801
       7 -> 24         0.22833
       8 -> 28         0.44956

 Excited State  69:      Singlet-A1    20.3858 eV   60.82 nm  f=0.0236  <S**2>=0.000
       5 -> 20         0.67119
       6 -> 26         0.10415

 Excited State  70:      Singlet-A1    20.5666 eV   60.28 nm  f=0.0229  <S**2>=0.000
       6 -> 22         0.69563

 Excited State  71:      Singlet-B2    20.6954 eV   59.91 nm  f=0.0387  <S**2>=0.000
       6 -> 23         0.64084
       7 -> 24         0.17026
       8 -> 30         0.18077

 Excited State  72:      Singlet-B2    20.9798 eV   59.10 nm  f=0.0080  <S**2>=0.000
       5 -> 21         0.69196

 Excited State  73:      Singlet-A1    21.0408 eV   58.93 nm  f=0.0000  <S**2>=0.000
       6 -> 26         0.20426
       7 -> 25         0.61415
       8 -> 27         0.11276
       8 -> 29        -0.19421

 Excited State  74:      Singlet-A2    21.0626 eV   58.86 nm  f=0.0000  <S**2>=0.000
       4 -> 17         0.69857

 Excited State  75:      Singlet-B1    21.0914 eV   58.78 nm  f=0.0021  <S**2>=0.000
       7 -> 26         0.69952

 Excited State  76:      Singlet-A2    21.1724 eV   58.56 nm  f=0.0000  <S**2>=0.000
       6 -> 24         0.69432

 Excited State  77:      Singlet-B2    21.4149 eV   57.90 nm  f=0.0677  <S**2>=0.000
       5 -> 22        -0.21325
       6 -> 23        -0.11569
       8 -> 30         0.64152
       8 -> 32        -0.11039

 Excited State  78:      Singlet-A2    21.5007 eV   57.67 nm  f=0.0000  <S**2>=0.000
       8 -> 31         0.70051

 Excited State  79:      Singlet-A1    21.5400 eV   57.56 nm  f=0.1145  <S**2>=0.000
       7 -> 25         0.17498
       8 -> 29         0.65776

 Excited State  80:      Singlet-B1    21.8293 eV   56.80 nm  f=0.0369  <S**2>=0.000
       4 -> 18         0.53466
       6 -> 25        -0.46165

 Excited State  81:      Singlet-B1    21.9335 eV   56.53 nm  f=0.0041  <S**2>=0.000
       4 -> 18         0.45560
       6 -> 25         0.53001

 Excited State  82:      Singlet-B2    21.9552 eV   56.47 nm  f=0.0543  <S**2>=0.000
       5 -> 22         0.65229
       8 -> 30         0.15363
       8 -> 32        -0.18977

 Excited State  83:      Singlet-A1    22.4975 eV   55.11 nm  f=0.0155  <S**2>=0.000
       4 -> 19         0.22157
       5 -> 23         0.63640

 Excited State  84:      Singlet-B1    22.5838 eV   54.90 nm  f=0.0554  <S**2>=0.000
       5 -> 24         0.69411

 Excited State  85:      Singlet-A2    22.6141 eV   54.83 nm  f=0.0000  <S**2>=0.000
       7 -> 27         0.70207

 Excited State  86:      Singlet-B2    22.7421 eV   54.52 nm  f=0.1776  <S**2>=0.000
       5 -> 22         0.11802
       5 -> 26         0.19636
       6 -> 27        -0.16297
       8 -> 32         0.62482

 Excited State  87:      Singlet-A1    23.1378 eV   53.59 nm  f=0.4906  <S**2>=0.000
       4 -> 19         0.21685
       6 -> 26         0.56677
       7 -> 25        -0.11617
       8 -> 27        -0.18017

 Excited State  88:      Singlet-A2    23.1431 eV   53.57 nm  f=0.0000  <S**2>=0.000
       5 -> 25         0.70299

 Excited State  89:      Singlet-B2    23.5784 eV   52.58 nm  f=0.0420  <S**2>=0.000
       5 -> 26         0.50185
       6 -> 27         0.48900

 Excited State  90:      Singlet-B2    23.8398 eV   52.01 nm  f=0.0736  <S**2>=0.000
       4 -> 20         0.63084
       5 -> 26        -0.21987
       6 -> 27         0.17644

 Excited State  91:      Singlet-B1    23.8903 eV   51.90 nm  f=0.0070  <S**2>=0.000
       3 ->  9        -0.16412
       7 -> 28         0.68384

 Excited State  92:      Singlet-A1    23.9169 eV   51.84 nm  f=0.0069  <S**2>=0.000
       4 -> 19         0.56852
       4 -> 21         0.27496
       5 -> 23        -0.11477
       5 -> 27        -0.16170
       6 -> 26        -0.15616
       6 -> 28         0.10107

 Excited State  93:      Singlet-B2    23.9375 eV   51.79 nm  f=0.1334  <S**2>=0.000
       4 -> 20        -0.30512
       5 -> 26        -0.36733
       6 -> 27         0.43950
       6 -> 29         0.12845
       8 -> 32         0.16356

 Excited State  94:      Singlet-B1    24.1535 eV   51.33 nm  f=0.1166  <S**2>=0.000
       3 ->  9        -0.11437
       7 -> 30        -0.12113
       8 -> 33         0.67298

 Excited State  95:      Singlet-A1    24.7098 eV   50.18 nm  f=0.1225  <S**2>=0.000
       4 -> 21        -0.40969
       6 -> 28         0.54167
       7 -> 31        -0.13628

 Excited State  96:      Singlet-A2    25.0415 eV   49.51 nm  f=0.0000  <S**2>=0.000
       7 -> 29        -0.46442
       8 -> 34         0.53168

 Excited State  97:      Singlet-A1    25.0804 eV   49.43 nm  f=0.0022  <S**2>=0.000
       4 -> 19        -0.17991
       4 -> 21         0.43166
       4 -> 22         0.19660
       6 -> 28         0.34435
       6 -> 30        -0.10790
       7 -> 31        -0.24037

 Excited State  98:      Singlet-A2    25.0980 eV   49.40 nm  f=0.0000  <S**2>=0.000
       7 -> 29         0.53208
       8 -> 34         0.46492

 Excited State  99:      Singlet-B1    25.1060 eV   49.38 nm  f=0.0806  <S**2>=0.000
       3 ->  9        -0.23558
       6 -> 31         0.15473
       7 -> 30         0.63980

 Excited State 100:      Singlet-A1    25.1871 eV   49.23 nm  f=0.0181  <S**2>=0.000
       4 -> 21         0.12063
       4 -> 22        -0.12270
       5 -> 27         0.62132
       6 -> 30         0.11877
       7 -> 31        -0.20942

 Excited State 101:      Singlet-A1    25.3718 eV   48.87 nm  f=0.0319  <S**2>=0.000
       4 -> 22         0.62217
       5 -> 27         0.19497
       7 -> 31         0.22766

 Excited State 102:      Singlet-B2    25.5482 eV   48.53 nm  f=0.0565  <S**2>=0.000
       4 -> 23         0.68052
       5 -> 28         0.13565
       6 -> 29         0.11627

 Excited State 103:      Singlet-B1    25.5782 eV   48.47 nm  f=0.0017  <S**2>=0.000
       3 ->  9         0.58330
       4 -> 25         0.12159
       6 -> 31         0.20881
       7 -> 28         0.13866
       7 -> 30         0.18012
       7 -> 32         0.18983

 Excited State 104:      Singlet-A1    25.7188 eV   48.21 nm  f=0.0051  <S**2>=0.000
       4 -> 21         0.11413
       4 -> 22        -0.20790
       5 -> 27         0.15958
       6 -> 28         0.20773
       6 -> 30        -0.36140
       7 -> 31         0.45217

 Excited State 105:      Singlet-A2    25.9598 eV   47.76 nm  f=0.0000  <S**2>=0.000
       4 -> 24         0.70652

 Excited State 106:      Singlet-B2    26.0603 eV   47.58 nm  f=0.0787  <S**2>=0.000
       4 -> 23        -0.15986
       5 -> 28         0.36792
       6 -> 29         0.56525

 Excited State 107:      Singlet-B1    26.1757 eV   47.37 nm  f=0.0154  <S**2>=0.000
       6 -> 31        -0.44222
       7 -> 32         0.53762

 Excited State 108:      Singlet-B2    26.4116 eV   46.94 nm  f=0.2015  <S**2>=0.000
       5 -> 28         0.57299
       6 -> 29        -0.36386

 Excited State 109:      Singlet-B1    26.6155 eV   46.58 nm  f=0.1887  <S**2>=0.000
       4 -> 25         0.60836
       6 -> 31        -0.28273
       7 -> 32        -0.18574

 Excited State 110:      Singlet-A1    26.8105 eV   46.24 nm  f=0.3516  <S**2>=0.000
       4 -> 21         0.10388
       4 -> 26         0.21730
       5 -> 29        -0.21641
       6 -> 28         0.10750
       6 -> 30         0.51701
       7 -> 31         0.22194
       7 -> 34        -0.12896

 Excited State 111:      Singlet-B1    26.9997 eV   45.92 nm  f=0.3244  <S**2>=0.000
       3 ->  9        -0.23174
       4 -> 25         0.33126
       6 -> 31         0.38359
       7 -> 30        -0.15124
       7 -> 32         0.35802
       8 -> 33        -0.13800

 Excited State 112:      Singlet-A1    27.1589 eV   45.65 nm  f=0.0103  <S**2>=0.000
       4 -> 26        -0.40096
       5 -> 29        -0.36343
       6 -> 32         0.44246

 Excited State 113:      Singlet-A1    27.2575 eV   45.49 nm  f=0.0658  <S**2>=0.000
       4 -> 26         0.36246
       5 -> 29         0.23873
       6 -> 32         0.53810

 Excited State 114:      Singlet-A1    27.4720 eV   45.13 nm  f=0.0070  <S**2>=0.000
       3 -> 10         0.69481

 Excited State 115:      Singlet-B2    27.5080 eV   45.07 nm  f=0.0000  <S**2>=0.000
       5 -> 30         0.69568

 Excited State 116:      Singlet-A2    27.6639 eV   44.82 nm  f=0.0000  <S**2>=0.000
       5 -> 31         0.70564

 Excited State 117:      Singlet-B2    27.9657 eV   44.33 nm  f=0.1251  <S**2>=0.000
       4 -> 27         0.11698
       5 -> 32        -0.17416
       7 -> 33         0.66356

 Excited State 118:      Singlet-A1    28.0387 eV   44.22 nm  f=0.0013  <S**2>=0.000
       3 -> 12        -0.11172
       4 -> 26        -0.33544
       4 -> 28         0.13069
       5 -> 29         0.47522
       6 -> 30         0.18568
       7 -> 31         0.16257
       7 -> 34        -0.17102
       8 -> 36        -0.12160

 Excited State 119:      Singlet-B2    28.4714 eV   43.55 nm  f=0.0235  <S**2>=0.000
       4 -> 27         0.58677
       5 -> 32         0.37924

 Excited State 120:      Singlet-A2    28.8057 eV   43.04 nm  f=0.0000  <S**2>=0.000
       6 -> 33         0.70501

 Excited State 121:      Singlet-B2    28.8220 eV   43.02 nm  f=0.0043  <S**2>=0.000
       4 -> 27        -0.30762
       5 -> 32         0.54784
       7 -> 33         0.18554
       8 -> 35        -0.24273

 Excited State 122:      Singlet-B2    29.1223 eV   42.57 nm  f=0.0000  <S**2>=0.000
       3 -> 11         0.70315

 Excited State 123:      Singlet-A1    29.2472 eV   42.39 nm  f=0.0048  <S**2>=0.000
       3 -> 12         0.28197
       7 -> 34         0.56557
       8 -> 36        -0.18193

 Excited State 124:      Singlet-A1    29.3898 eV   42.19 nm  f=0.0061  <S**2>=0.000
       3 -> 12         0.55453
       4 -> 28         0.30150
       7 -> 34        -0.26621

 Excited State 125:      Singlet-A1    29.7075 eV   41.73 nm  f=0.0001  <S**2>=0.000
       3 -> 12        -0.24567
       4 -> 28         0.54615
       7 -> 34         0.13180
       8 -> 36         0.32193

 Excited State 126:      Singlet-B2    29.7096 eV   41.73 nm  f=0.0028  <S**2>=0.000
       4 -> 27        -0.16716
       4 -> 29        -0.10846
       5 -> 32         0.13421
       8 -> 35         0.64034
       8 -> 37         0.10683

 Excited State 127:      Singlet-B1    29.7882 eV   41.62 nm  f=0.0104  <S**2>=0.000
       3 -> 13         0.22598
       6 -> 34         0.66576

 Excited State 128:      Singlet-B1    29.8831 eV   41.49 nm  f=0.0003  <S**2>=0.000
       3 -> 13         0.66231
       6 -> 34        -0.23120

 Excited State 129:      Singlet-A1    30.2627 eV   40.97 nm  f=0.0013  <S**2>=0.000
       3 -> 14         0.62637
       4 -> 28        -0.10464
       8 -> 36         0.30295

 Excited State 130:      Singlet-B1    30.2845 eV   40.94 nm  f=0.0073  <S**2>=0.000
       5 -> 33         0.69670

 Excited State 131:      Singlet-B2    30.3339 eV   40.87 nm  f=0.0002  <S**2>=0.000
       4 -> 29         0.23217
       8 -> 37         0.66055

 Excited State 132:      Singlet-A1    30.6645 eV   40.43 nm  f=0.0039  <S**2>=0.000
       3 -> 12         0.10761
       3 -> 14        -0.28270
       3 -> 15         0.27140
       4 -> 28        -0.22587
       4 -> 30        -0.17736
       8 -> 36         0.44636

 Excited State 133:      Singlet-A2    31.0300 eV   39.96 nm  f=0.0000  <S**2>=0.000
       5 -> 34         0.70514

 Excited State 134:      Singlet-A1    31.0455 eV   39.94 nm  f=0.0210  <S**2>=0.000
       4 -> 30         0.67453

 The electronic state is 1-A1.
 Alpha  occ. eigenvalues --  -18.92201 -10.10484  -0.99280  -0.58549  -0.45852
 Alpha  occ. eigenvalues --   -0.40865  -0.37574  -0.23491
 Alpha virt. eigenvalues --   -0.08756   0.01530   0.07416   0.07588   0.10133
 Alpha virt. eigenvalues --    0.12023   0.14425   0.14741   0.18798   0.21750
 Alpha virt. eigenvalues --    0.27976   0.29006   0.31361   0.34796   0.34874

 Mulliken charges:
               1
     1  C    0.509443
     2  O   -0.322659
     3  H   -0.093392
     4  H   -0.093392
 Sum of Mulliken charges =   0.00000

 Dipole moment (field-independent basis, Debye):
    X=              0.0000    Y=             -0.0000    Z=             -2.2672  Tot=              2.2672
 Quadrupole moment (field-independent basis, Debye-Ang):
   XX=            -11.6225   YY=            -11.7520   ZZ=            -12.4250
   XY=             -0.0000   XZ=             -0.0000   YZ=             -0.0000

 Normal termination of Gaussian 16 at Mon Mar 21 20:15:30 2022.
