 Gaussian 16, Revision C.01,
 Gaussian 16:  EM64L-G16RevC.01  3-Jul-2019

 ----------------------------------------------------------------------
 #P TD(Nstates=10000) tpsstpss/Gen SCF(maxcycles=100) Int(Grid=ultrafin
 e)
 ----------------------------------------------------------------------

 ---------------------
 xGDB7_00001_tier4.com
 ---------------------
 Symbolic Z-matrix:
 Charge =  0 Multiplicity = 1

                         Standard orientation:
 ---------------------------------------------------------------------
 Center     Atomic      Atomic             Coordinates (Angstroms)
 Number     Number       Type             X           Y           Z
 ---------------------------------------------------------------------
      1          6           0       -1.208422   -0.239069   -0.021917
      2          6           0        0.083893    0.553452    0.046734
      3          8           0        1.233467   -0.256002   -0.105864
      4          1           0       -2.071999    0.425135    0.051700
      5          1           0       -1.270670   -0.957756    0.799731
      6          1           0       -1.270625   -0.788280   -0.962327
      7          1           0        0.130030    1.119197    0.986112
      8          1           0        0.125951    1.277026   -0.768547
      9          1           0        1.236751   -0.913605    0.591341
 ---------------------------------------------------------------------

 SCF Done:  E(RTPSS-TPSS) =  -154.959975743     A.U. after   13 cycles

 Excitation energies and oscillator strengths:

 Excited State   1:      Singlet-A      6.4902 eV  191.03 nm  f=0.0146  <S**2>=0.000
      13 -> 14         0.70647
 This state for optimization and/or second-order correction.
 Total Energy, E(TD-HF/TD-DFT) =  -154.721466324
 Copying the excited state density for this state as the 1-particle RhoCI density.

 Excited State   2:      Singlet-A      7.3495 eV  168.70 nm  f=0.0135  <S**2>=0.000
      13 -> 15         0.70402

 Excited State   3:      Singlet-A      7.6538 eV  161.99 nm  f=0.0255  <S**2>=0.000
      13 -> 16         0.70423

 Excited State   4:      Singlet-A      7.9931 eV  155.11 nm  f=0.0178  <S**2>=0.000
      12 -> 14         0.70371

 Excited State   5:      Singlet-A      8.2242 eV  150.76 nm  f=0.0473  <S**2>=0.000
      13 -> 17         0.70451

 Excited State   6:      Singlet-A      8.8361 eV  140.32 nm  f=0.0182  <S**2>=0.000
      12 -> 15         0.70446

 Excited State   7:      Singlet-A      8.8684 eV  139.80 nm  f=0.0234  <S**2>=0.000
      13 -> 18         0.70388

 Excited State   8:      Singlet-A      9.1603 eV  135.35 nm  f=0.0339  <S**2>=0.000
      12 -> 16         0.52474
      13 -> 19        -0.46817

 Excited State   9:      Singlet-A      9.1775 eV  135.10 nm  f=0.0176  <S**2>=0.000
      12 -> 16         0.46554
      13 -> 19         0.50141
      13 -> 20         0.16363

 Excited State  10:      Singlet-A      9.2915 eV  133.44 nm  f=0.0287  <S**2>=0.000
      10 -> 14        -0.10004
      11 -> 14         0.69724

 Excited State  11:      Singlet-A      9.3710 eV  132.31 nm  f=0.0006  <S**2>=0.000
      13 -> 19        -0.14266
      13 -> 20         0.68075

 Excited State  12:      Singlet-A      9.5787 eV  129.44 nm  f=0.0308  <S**2>=0.000
      10 -> 14         0.69122

 Excited State  13:      Singlet-A      9.6676 eV  128.25 nm  f=0.0046  <S**2>=0.000
      13 -> 21         0.69955

 Excited State  14:      Singlet-A      9.7173 eV  127.59 nm  f=0.0479  <S**2>=0.000
      12 -> 17         0.69632

 Excited State  15:      Singlet-A      9.9748 eV  124.30 nm  f=0.0122  <S**2>=0.000
      13 -> 22         0.69183

 Excited State  16:      Singlet-A     10.1306 eV  122.39 nm  f=0.0075  <S**2>=0.000
      11 -> 15         0.69620

 Excited State  17:      Singlet-A     10.2401 eV  121.08 nm  f=0.0041  <S**2>=0.000
      13 -> 23         0.69743

 Excited State  18:      Singlet-A     10.3727 eV  119.53 nm  f=0.0304  <S**2>=0.000
      10 -> 15        -0.11788
      12 -> 18         0.68550

 Excited State  19:      Singlet-A     10.3905 eV  119.32 nm  f=0.0252  <S**2>=0.000
      10 -> 15         0.68998
      12 -> 18         0.11465

 Excited State  20:      Singlet-A     10.4690 eV  118.43 nm  f=0.0592  <S**2>=0.000
      11 -> 16         0.69783

 Excited State  21:      Singlet-A     10.6708 eV  116.19 nm  f=0.0256  <S**2>=0.000
      10 -> 16        -0.12845
      12 -> 19         0.66576
      13 -> 24        -0.16452

 Excited State  22:      Singlet-A     10.7467 eV  115.37 nm  f=0.0899  <S**2>=0.000
      10 -> 16         0.66990
      13 -> 24        -0.12334

 Excited State  23:      Singlet-A     10.7789 eV  115.02 nm  f=0.0257  <S**2>=0.000
       9 -> 14         0.10871
      12 -> 19         0.16217
      12 -> 20        -0.12225
      13 -> 24         0.65555

 Excited State  24:      Singlet-A     10.8534 eV  114.24 nm  f=0.0402  <S**2>=0.000
       9 -> 14         0.67916
      10 -> 16        -0.10377

 Excited State  25:      Singlet-A     10.9205 eV  113.53 nm  f=0.0051  <S**2>=0.000
      12 -> 20         0.61366
      13 -> 25         0.28860

 Excited State  26:      Singlet-A     11.0428 eV  112.28 nm  f=0.0909  <S**2>=0.000
      11 -> 17         0.68468

 Excited State  27:      Singlet-A     11.1144 eV  111.55 nm  f=0.0014  <S**2>=0.000
      10 -> 17        -0.14087
      12 -> 20        -0.22116
      12 -> 21        -0.25027
      13 -> 25         0.57545

 Excited State  28:      Singlet-A     11.2465 eV  110.24 nm  f=0.0221  <S**2>=0.000
      10 -> 17        -0.17059
      12 -> 20        -0.12697
      12 -> 21         0.63603
      13 -> 25         0.14403

 Excited State  29:      Singlet-A     11.2840 eV  109.88 nm  f=0.0293  <S**2>=0.000
      10 -> 17         0.66312
      12 -> 21         0.10287
      13 -> 25         0.14752

 Excited State  30:      Singlet-A     11.4421 eV  108.36 nm  f=0.0064  <S**2>=0.000
       8 -> 14         0.39996
      12 -> 22         0.57495

 Excited State  31:      Singlet-A     11.4752 eV  108.05 nm  f=0.0443  <S**2>=0.000
       8 -> 14         0.56046
      12 -> 22        -0.37996
      13 -> 26         0.10008

 Excited State  32:      Singlet-A     11.6666 eV  106.27 nm  f=0.0076  <S**2>=0.000
       9 -> 15         0.46358
      11 -> 18        -0.41440
      12 -> 23         0.12600
      13 -> 26         0.27631

 Excited State  33:      Singlet-A     11.6913 eV  106.05 nm  f=0.0107  <S**2>=0.000
       9 -> 15        -0.11346
      11 -> 18         0.25318
      12 -> 23        -0.17550
      13 -> 26         0.60279

 Excited State  34:      Singlet-A     11.7230 eV  105.76 nm  f=0.0604  <S**2>=0.000
       9 -> 15         0.49165
      10 -> 18        -0.14521
      11 -> 18         0.40624
      12 -> 23        -0.18170
      13 -> 26        -0.13479

 Excited State  35:      Singlet-A     11.7714 eV  105.33 nm  f=0.0070  <S**2>=0.000
      11 -> 18         0.25552
      12 -> 23         0.63824

 Excited State  36:      Singlet-A     11.7795 eV  105.25 nm  f=0.0206  <S**2>=0.000
      13 -> 27         0.68341

 Excited State  37:      Singlet-A     11.9449 eV  103.80 nm  f=0.0045  <S**2>=0.000
      11 -> 19         0.67497

 Excited State  38:      Singlet-A     12.0100 eV  103.23 nm  f=0.0203  <S**2>=0.000
       9 -> 16         0.55783
      10 -> 18        -0.37007
      11 -> 19         0.12157

 Excited State  39:      Singlet-A     12.0310 eV  103.05 nm  f=0.0705  <S**2>=0.000
       9 -> 16         0.40283
      10 -> 18         0.53324
      10 -> 20         0.10329

 Excited State  40:      Singlet-A     12.1734 eV  101.85 nm  f=0.0075  <S**2>=0.000
      10 -> 19        -0.36231
      11 -> 20         0.55311
      13 -> 28         0.15454

 Excited State  41:      Singlet-A     12.1911 eV  101.70 nm  f=0.0014  <S**2>=0.000
      10 -> 19         0.16844
      13 -> 28         0.66499

 Excited State  42:      Singlet-A     12.2307 eV  101.37 nm  f=0.0023  <S**2>=0.000
      10 -> 19         0.56205
      10 -> 20         0.10145
      11 -> 20         0.36046

 Excited State  43:      Singlet-A     12.2867 eV  100.91 nm  f=0.0894  <S**2>=0.000
       8 -> 15         0.65374
      12 -> 24         0.19848

 Excited State  44:      Singlet-A     12.3549 eV  100.35 nm  f=0.0638  <S**2>=0.000
       8 -> 15        -0.19147
      12 -> 24         0.65153

 Excited State  45:      Singlet-A     12.4318 eV   99.73 nm  f=0.0151  <S**2>=0.000
      10 -> 20         0.59867
      11 -> 21         0.30367

 Excited State  46:      Singlet-A     12.5192 eV   99.04 nm  f=0.0054  <S**2>=0.000
       9 -> 17         0.47344
      10 -> 20         0.14539
      11 -> 21        -0.37854
      12 -> 25         0.31211

 Excited State  47:      Singlet-A     12.5750 eV   98.60 nm  f=0.0223  <S**2>=0.000
       8 -> 16        -0.27936
       9 -> 17         0.15458
      10 -> 20        -0.18330
      10 -> 22         0.13914
      11 -> 21         0.38660
      11 -> 22        -0.16391
      12 -> 25         0.37042

 Excited State  48:      Singlet-A     12.6255 eV   98.20 nm  f=0.0369  <S**2>=0.000
       8 -> 16         0.24506
       9 -> 17        -0.40025
      12 -> 25         0.46677

 Excited State  49:      Singlet-A     12.6341 eV   98.13 nm  f=0.0049  <S**2>=0.000
       7 -> 14        -0.11503
       8 -> 16         0.57477
       9 -> 17         0.20721
      11 -> 21         0.14404
      11 -> 22        -0.24509

 Excited State  50:      Singlet-A     12.7228 eV   97.45 nm  f=0.0173  <S**2>=0.000
      10 -> 21         0.57052
      11 -> 22        -0.37668

 Excited State  51:      Singlet-A     12.7636 eV   97.14 nm  f=0.0311  <S**2>=0.000
       7 -> 14        -0.32594
      10 -> 21         0.35827
      10 -> 22         0.10596
      11 -> 22         0.44642

 Excited State  52:      Singlet-A     12.8196 eV   96.71 nm  f=0.0509  <S**2>=0.000
       7 -> 14         0.55572
       8 -> 16         0.10183
       8 -> 17        -0.10697
       9 -> 17         0.10561
      10 -> 21         0.14417
      10 -> 22         0.23109
      11 -> 22         0.19345

 Excited State  53:      Singlet-A     13.0283 eV   95.17 nm  f=0.0385  <S**2>=0.000
       8 -> 17         0.16190
      10 -> 22         0.22649
      13 -> 29         0.61911
      13 -> 30         0.11247

 Excited State  54:      Singlet-A     13.0496 eV   95.01 nm  f=0.0153  <S**2>=0.000
       8 -> 17         0.23650
       9 -> 18         0.20986
      10 -> 22         0.48786
      11 -> 23        -0.23777
      13 -> 29        -0.24187

 Excited State  55:      Singlet-A     13.1209 eV   94.49 nm  f=0.0204  <S**2>=0.000
      10 -> 22         0.16233
      10 -> 23        -0.16563
      11 -> 23         0.59963
      12 -> 26        -0.13274
      13 -> 29        -0.10277

 Excited State  56:      Singlet-A     13.2155 eV   93.82 nm  f=0.0306  <S**2>=0.000
       8 -> 17        -0.44176
       9 -> 18         0.49523
      10 -> 23         0.13063
      12 -> 27        -0.10094

 Excited State  57:      Singlet-A     13.2444 eV   93.61 nm  f=0.0098  <S**2>=0.000
       7 -> 15        -0.10564
       8 -> 17         0.19064
      11 -> 23         0.13975
      12 -> 26         0.55768
      12 -> 27        -0.14623
      13 -> 30        -0.23364

 Excited State  58:      Singlet-A     13.3012 eV   93.21 nm  f=0.0207  <S**2>=0.000
      12 -> 26         0.12020
      12 -> 27         0.65225
      13 -> 30        -0.12908

 Excited State  59:      Singlet-A     13.3500 eV   92.87 nm  f=0.0174  <S**2>=0.000
       9 -> 18        -0.19346
       9 -> 19         0.20628
      10 -> 23         0.43609
      12 -> 26        -0.10268
      13 -> 30        -0.41685

 Excited State  60:      Singlet-A     13.4280 eV   92.33 nm  f=0.0500  <S**2>=0.000
       7 -> 15        -0.15044
       8 -> 17        -0.16309
       9 -> 18        -0.20404
       9 -> 19         0.26530
      10 -> 22         0.12562
      10 -> 23         0.15022
      11 -> 24         0.18962
      12 -> 26         0.24391
      13 -> 30         0.40691

 Excited State  61:      Singlet-A     13.4656 eV   92.07 nm  f=0.0098  <S**2>=0.000
       7 -> 15        -0.25302
       8 -> 17         0.23437
       8 -> 18         0.10129
       9 -> 18         0.15545
       9 -> 19        -0.20653
       9 -> 20         0.13040
      10 -> 23         0.40879
      13 -> 30         0.19504

 Excited State  62:      Singlet-A     13.5643 eV   91.41 nm  f=0.0604  <S**2>=0.000
       7 -> 15         0.53889
       9 -> 19        -0.31609
      10 -> 23         0.14850
      12 -> 26         0.12587
      13 -> 30         0.11221

 Excited State  63:      Singlet-A     13.6528 eV   90.81 nm  f=0.0110  <S**2>=0.000
       7 -> 16        -0.11904
       9 -> 18         0.13782
       9 -> 19         0.16123
       9 -> 20         0.19631
      11 -> 24         0.52257
      11 -> 25        -0.19816
      12 -> 28         0.11640

 Excited State  64:      Singlet-A     13.6628 eV   90.75 nm  f=0.0208  <S**2>=0.000
       7 -> 15         0.22358
       8 -> 17         0.10345
       8 -> 18         0.17358
       9 -> 19         0.33848
       9 -> 20         0.24690
       9 -> 21         0.10466
      11 -> 24        -0.22850
      12 -> 28        -0.31372
      13 -> 31        -0.11278

 Excited State  65:      Singlet-A     13.7266 eV   90.32 nm  f=0.0245  <S**2>=0.000
       7 -> 15        -0.11363
       8 -> 18        -0.10260
       9 -> 18        -0.10503
       9 -> 20         0.57932
      11 -> 25         0.20117
      12 -> 28         0.14242

 Excited State  66:      Singlet-A     13.7721 eV   90.03 nm  f=0.0253  <S**2>=0.000
       8 -> 18         0.36354
      10 -> 24        -0.22474
      11 -> 25         0.20184
      12 -> 28         0.47291

 Excited State  67:      Singlet-A     13.8582 eV   89.47 nm  f=0.0069  <S**2>=0.000
       7 -> 16         0.44463
       8 -> 18         0.35055
      11 -> 25        -0.36933

 Excited State  68:      Singlet-A     13.9309 eV   89.00 nm  f=0.0924  <S**2>=0.000
       7 -> 16         0.23974
       8 -> 18         0.16829
       8 -> 20        -0.10472
       9 -> 19        -0.10318
       9 -> 21        -0.24453
      10 -> 24        -0.20565
      11 -> 24         0.22966
      11 -> 25         0.34368
      12 -> 28        -0.23996

 Excited State  69:      Singlet-A     13.9929 eV   88.60 nm  f=0.0195  <S**2>=0.000
       7 -> 16         0.33875
       8 -> 18        -0.13039
       9 -> 21         0.40017
      10 -> 24         0.18899
      11 -> 25         0.23331
      12 -> 28         0.13038

 Excited State  70:      Singlet-A     14.0103 eV   88.49 nm  f=0.0092  <S**2>=0.000
       8 -> 19        -0.30910
       9 -> 21         0.23422
      10 -> 24        -0.26977
      10 -> 25        -0.21677
      13 -> 31         0.43559

 Excited State  71:      Singlet-A     14.0747 eV   88.09 nm  f=0.0533  <S**2>=0.000
       7 -> 16        -0.14634
       8 -> 18         0.26090
       8 -> 19        -0.21891
       8 -> 20        -0.13599
       9 -> 21         0.20350
       9 -> 22        -0.12286
      10 -> 24         0.27858
      10 -> 25         0.26702
      11 -> 25         0.13167
      11 -> 27         0.11212
      13 -> 31         0.18929
      13 -> 32         0.11361

 Excited State  72:      Singlet-A     14.1371 eV   87.70 nm  f=0.0632  <S**2>=0.000
       7 -> 16        -0.16298
       7 -> 17        -0.19054
       8 -> 19         0.12687
       9 -> 19        -0.15517
       9 -> 21         0.37487
       9 -> 22         0.14252
      10 -> 24        -0.24069
      13 -> 31        -0.26948

 Excited State  73:      Singlet-A     14.1613 eV   87.55 nm  f=0.0331  <S**2>=0.000
       8 -> 18        -0.12683
       8 -> 19        -0.27774
       8 -> 20        -0.11828
       9 -> 22         0.17141
      10 -> 24        -0.16187
      10 -> 25         0.48987
      11 -> 27        -0.10870
      12 -> 28         0.10696
      13 -> 31        -0.12053
      13 -> 32        -0.11510

 Excited State  74:      Singlet-A     14.2194 eV   87.19 nm  f=0.0397  <S**2>=0.000
       7 -> 17         0.13848
       8 -> 19         0.39853
       8 -> 20        -0.11449
       9 -> 22         0.29636
      10 -> 25         0.18908
      13 -> 31         0.28783
      13 -> 32         0.19069

 Excited State  75:      Singlet-A     14.2581 eV   86.96 nm  f=0.0113  <S**2>=0.000
       8 -> 19        -0.14000
       8 -> 20         0.20284
      13 -> 32         0.62742

 Excited State  76:      Singlet-A     14.3343 eV   86.49 nm  f=0.0692  <S**2>=0.000
       7 -> 17        -0.10748
       8 -> 19        -0.15055
       8 -> 20        -0.27226
       9 -> 22         0.47061
       9 -> 23        -0.15758
      10 -> 24         0.12138
      10 -> 25        -0.22381
      11 -> 27         0.12034
      12 -> 29         0.10819

 Excited State  77:      Singlet-A     14.3899 eV   86.16 nm  f=0.0614  <S**2>=0.000
       8 -> 20         0.51076
       9 -> 22         0.29942
      11 -> 27         0.19821
      13 -> 32        -0.15631

 Excited State  78:      Singlet-A     14.4728 eV   85.67 nm  f=0.0087  <S**2>=0.000
       7 -> 17        -0.36533
      11 -> 26         0.49907
      12 -> 29        -0.25125
      12 -> 30        -0.11323

 Excited State  79:      Singlet-A     14.5086 eV   85.46 nm  f=0.0106  <S**2>=0.000
       7 -> 17         0.14824
       8 -> 21        -0.13065
      11 -> 26         0.38495
      11 -> 27        -0.17816
      12 -> 29         0.50335

 Excited State  80:      Singlet-A     14.5876 eV   84.99 nm  f=0.0196  <S**2>=0.000
       7 -> 17         0.41404
       8 -> 21        -0.12282
       9 -> 23        -0.25570
      10 -> 26         0.16072
      11 -> 26         0.20978
      12 -> 29        -0.31464

 Excited State  81:      Singlet-A     14.6449 eV   84.66 nm  f=0.0669  <S**2>=0.000
       9 -> 23        -0.18165
      10 -> 26        -0.26061
      11 -> 27         0.45966
      13 -> 33        -0.35865

 Excited State  82:      Singlet-A     14.6764 eV   84.48 nm  f=0.0458  <S**2>=0.000
       8 -> 21         0.42669
       9 -> 23        -0.38484
      10 -> 27        -0.12972
      11 -> 27        -0.17237
      12 -> 30        -0.12044
      13 -> 33        -0.17189
      13 -> 34         0.15980

 Excited State  83:      Singlet-A     14.7463 eV   84.08 nm  f=0.0826  <S**2>=0.000
       8 -> 21         0.35542
       9 -> 23         0.12145
      10 -> 24        -0.11363
      10 -> 26        -0.15481
      11 -> 27         0.21358
      12 -> 29         0.10352
      13 -> 33         0.39434
      13 -> 34         0.12709

 Excited State  84:      Singlet-A     14.7662 eV   83.96 nm  f=0.0035  <S**2>=0.000
       7 -> 17         0.10976
       8 -> 21         0.23393
       8 -> 22        -0.16395
       9 -> 23         0.21098
      10 -> 26         0.27854
      10 -> 27         0.41675
      12 -> 30        -0.12438
      13 -> 33        -0.23808

 Excited State  85:      Singlet-A     14.8197 eV   83.66 nm  f=0.0236  <S**2>=0.000
       8 -> 22         0.12470
      10 -> 26         0.21404
      12 -> 30         0.34986
      13 -> 34         0.52852

 Excited State  86:      Singlet-A     14.8381 eV   83.56 nm  f=0.0406  <S**2>=0.000
       8 -> 22         0.29187
       9 -> 23        -0.10882
      10 -> 26         0.42105
      10 -> 27        -0.17002
      11 -> 27         0.15886
      11 -> 28        -0.11467
      12 -> 29         0.11241
      12 -> 30        -0.16373
      13 -> 34        -0.19562

 Excited State  87:      Singlet-A     14.9087 eV   83.16 nm  f=0.0363  <S**2>=0.000
       7 -> 18        -0.13826
       8 -> 21         0.10695
       8 -> 22        -0.21874
      11 -> 28        -0.32984
      12 -> 30         0.43377
      13 -> 34        -0.28129

 Excited State  88:      Singlet-A     14.9383 eV   83.00 nm  f=0.0980  <S**2>=0.000
       7 -> 18         0.11389
       8 -> 22         0.48089
      10 -> 26        -0.10710
      10 -> 27         0.33600
      12 -> 30         0.15009
      13 -> 34        -0.15430

 Excited State  89:      Singlet-A     14.9943 eV   82.69 nm  f=0.1512  <S**2>=0.000
       7 -> 17         0.11120
       7 -> 18        -0.20208
       8 -> 22         0.21869
       9 -> 23         0.22482
       9 -> 24         0.11273
      10 -> 27        -0.24606
      11 -> 28        -0.15948
      13 -> 33        -0.17355
      13 -> 35         0.36616

 Excited State  90:      Singlet-A     15.0871 eV   82.18 nm  f=0.0478  <S**2>=0.000
       7 -> 18        -0.39475
       7 -> 19        -0.10231
       9 -> 24        -0.24719
      11 -> 28         0.40955
      12 -> 30         0.14875
      13 -> 35         0.18914

 Excited State  91:      Singlet-A     15.1107 eV   82.05 nm  f=0.0724  <S**2>=0.000
       7 -> 18         0.35183
       8 -> 23        -0.10797
       9 -> 24        -0.29932
       9 -> 25        -0.13557
      13 -> 35         0.46034

 Excited State  92:      Singlet-A     15.1893 eV   81.63 nm  f=0.0452  <S**2>=0.000
       8 -> 23        -0.12296
       9 -> 24         0.51301
       9 -> 25         0.10971
      10 -> 28        -0.20732
      11 -> 28         0.18069
      13 -> 35         0.20225
      13 -> 36        -0.14757

 Excited State  93:      Singlet-A     15.2385 eV   81.36 nm  f=0.0421  <S**2>=0.000
       7 -> 18        -0.11373
       8 -> 23        -0.28828
       9 -> 24         0.14614
       9 -> 25        -0.13185
      10 -> 28         0.53457
      13 -> 35         0.10096

 Excited State  94:      Singlet-A     15.2629 eV   81.23 nm  f=0.0766  <S**2>=0.000
       7 -> 18        -0.19188
       7 -> 19         0.18063
       8 -> 23         0.44087
       9 -> 23        -0.15264
       9 -> 24         0.10584
      10 -> 27         0.16239
      11 -> 28        -0.12090
      13 -> 33         0.13255
      13 -> 35         0.18782

 Excited State  95:      Singlet-A     15.3139 eV   80.96 nm  f=0.0709  <S**2>=0.000
       7 -> 18        -0.21001
       7 -> 19        -0.17077
       8 -> 23        -0.31463
      10 -> 27         0.11284
      10 -> 28        -0.28206
      11 -> 28        -0.15487
      13 -> 36         0.36348

 Excited State  96:      Singlet-A     15.4053 eV   80.48 nm  f=0.0535  <S**2>=0.000
       7 -> 18         0.11341
       7 -> 19        -0.20792
       8 -> 23         0.19629
      10 -> 28         0.19003
      13 -> 36         0.49599
      13 -> 37         0.16091

 The electronic state is 1-A.
 Alpha  occ. eigenvalues --  -18.89829 -10.04781  -9.99875  -0.94621  -0.68947
 Alpha  occ. eigenvalues --   -0.57492  -0.46253  -0.41598  -0.39372  -0.34654
 Alpha  occ. eigenvalues --   -0.33668  -0.28935  -0.23404
 Alpha virt. eigenvalues --    0.00290   0.03377   0.04659   0.06675   0.09144
 Alpha virt. eigenvalues --    0.10169   0.10865   0.12123   0.13116   0.14292
 Alpha virt. eigenvalues --    0.16164   0.17096   0.19535   0.19862   0.21406

 Mulliken charges:
               1
     1  C    0.246892
     2  C    0.249639
     3  O   -0.445375
     4  H    0.028356
     5  H   -0.018129
     6  H    0.007142
     7  H   -0.087268
     8  H   -0.164967
     9  H    0.183712
 Sum of Mulliken charges =   0.00000

 Dipole moment (field-independent basis, Debye):
    X=             -1.2557    Y=             -0.1542    Z=              1.1005  Tot=              1.6768
 Quadrupole moment (field-independent basis, Debye-Ang):
   XX=            -22.6195   YY=            -18.9173   ZZ=            -19.5186
   XY=             -0.9610   XZ=              1.6841   YZ=             -1.4618

 Normal termination of Gaussian 16 at Mon Mar 21 20:21:54 2022.
