 Gaussian 16, Revision C.01,
 Gaussian 16:  EM64L-G16RevC.01  3-Jul-2019

 ----------------------------------------------------------------------
 #P TD(Nstates=10000) tpsstpss/Gen SCF(maxcycles=100) Int(Grid=ultrafin
 e)
 ----------------------------------------------------------------------

 ---------------------
 xGDB7_00001_tier4.com
 ---------------------
 Symbolic Z-matrix:
 Charge =  0 Multiplicity = 1

                         Standard orientation:
 ---------------------------------------------------------------------
 Center     Atomic      Atomic             Coordinates (Angstroms)
 Number     Number       Type             X           Y           Z
 ---------------------------------------------------------------------
      1          8           0       -1.028621   -0.395177   -0.000000
      2          7           0       -0.000000    0.526228   -0.000000
      3          6           0        1.132746   -0.030907    0.000000
      4          1           0       -1.816572    0.151791   -0.000000
      5          1           0        1.994262    0.623439    0.000000
      6          1           0        1.254802   -1.111965    0.000000
 ---------------------------------------------------------------------

 SCF Done:  E(RTPSS-TPSS) =  -169.725889562     A.U. after   14 cycles

 Excitation energies and oscillator strengths:

 Excited State   1:      Singlet-A"     5.8526 eV  211.84 nm  f=0.0006  <S**2>=0.000
      11 -> 13         0.70561
 This state for optimization and/or second-order correction.
 Total Energy, E(TD-HF/TD-DFT) =  -169.510809615
 Copying the excited state density for this state as the 1-particle RhoCI density.

 Excited State   2:      Singlet-A'     6.5948 eV  188.00 nm  f=0.1375  <S**2>=0.000
      10 -> 13         0.13963
      11 -> 14         0.12594
      11 -> 15        -0.10449
      12 -> 13         0.66190

 Excited State   3:      Singlet-A"     6.7367 eV  184.04 nm  f=0.0017  <S**2>=0.000
      12 -> 14         0.70610

 Excited State   4:      Singlet-A'     6.9647 eV  178.02 nm  f=0.0299  <S**2>=0.000
      11 -> 14         0.69254
      12 -> 13        -0.11399

 Excited State   5:      Singlet-A"     7.5633 eV  163.93 nm  f=0.0158  <S**2>=0.000
      12 -> 15         0.70675

 Excited State   6:      Singlet-A'     7.7830 eV  159.30 nm  f=0.0310  <S**2>=0.000
      11 -> 15         0.69153

 Excited State   7:      Singlet-A"     8.7140 eV  142.28 nm  f=0.0020  <S**2>=0.000
      12 -> 16         0.69620
      12 -> 17         0.11040

 Excited State   8:      Singlet-A"     8.9255 eV  138.91 nm  f=0.0073  <S**2>=0.000
      12 -> 16        -0.10914
      12 -> 17         0.69586

 Excited State   9:      Singlet-A'     9.0883 eV  136.42 nm  f=0.1138  <S**2>=0.000
      11 -> 16         0.31185
      11 -> 17         0.62024
      12 -> 18         0.11277

 Excited State  10:      Singlet-A'     9.1460 eV  135.56 nm  f=0.0876  <S**2>=0.000
      11 -> 16         0.57429
      11 -> 17        -0.33594
      12 -> 18         0.19734

 Excited State  11:      Singlet-A"     9.3478 eV  132.63 nm  f=0.0005  <S**2>=0.000
       9 -> 13         0.70446

 Excited State  12:      Singlet-A"     9.6014 eV  129.13 nm  f=0.0286  <S**2>=0.000
      11 -> 18         0.70157

 Excited State  13:      Singlet-A'     9.6645 eV  128.29 nm  f=0.0175  <S**2>=0.000
      11 -> 16        -0.17637
      11 -> 19         0.15406
      11 -> 21         0.11311
      12 -> 18         0.63639

 Excited State  14:      Singlet-A"     9.8480 eV  125.90 nm  f=0.0002  <S**2>=0.000
      12 -> 19         0.70676

 Excited State  15:      Singlet-A"     9.9932 eV  124.07 nm  f=0.0167  <S**2>=0.000
      12 -> 20         0.69596

 Excited State  16:      Singlet-A'    10.0429 eV  123.45 nm  f=0.0054  <S**2>=0.000
      11 -> 19         0.68566
      12 -> 18        -0.12981

 Excited State  17:      Singlet-A'    10.2020 eV  121.53 nm  f=0.0286  <S**2>=0.000
       9 -> 14        -0.12309
      10 -> 13         0.20199
      11 -> 20         0.65459

 Excited State  18:      Singlet-A'    10.4249 eV  118.93 nm  f=0.0462  <S**2>=0.000
       9 -> 14        -0.21747
      10 -> 13         0.57771
      11 -> 20        -0.24724
      12 -> 13        -0.11485

 Excited State  19:      Singlet-A"    10.5500 eV  117.52 nm  f=0.0197  <S**2>=0.000
       8 -> 13         0.30458
      10 -> 14         0.57310
      12 -> 21         0.27690

 Excited State  20:      Singlet-A"    10.6039 eV  116.92 nm  f=0.0144  <S**2>=0.000
       8 -> 13         0.53071
      10 -> 14        -0.39812
      12 -> 21         0.23550

 Excited State  21:      Singlet-A'    10.7649 eV  115.17 nm  f=0.2305  <S**2>=0.000
       9 -> 14         0.65100
      10 -> 13         0.20861
      11 -> 21         0.10359

 Excited State  22:      Singlet-A"    10.7967 eV  114.84 nm  f=0.0089  <S**2>=0.000
       8 -> 13        -0.34051
      10 -> 14        -0.10491
      12 -> 21         0.60312

 Excited State  23:      Singlet-A'    11.0673 eV  112.03 nm  f=0.0603  <S**2>=0.000
      11 -> 21         0.66073

 Excited State  24:      Singlet-A"    11.3704 eV  109.04 nm  f=0.0064  <S**2>=0.000
      10 -> 15         0.70597

 Excited State  25:      Singlet-A'    11.5320 eV  107.51 nm  f=0.0679  <S**2>=0.000
       9 -> 15         0.69311

 Excited State  26:      Singlet-A'    11.8177 eV  104.91 nm  f=0.0055  <S**2>=0.000
       8 -> 14         0.47983
      12 -> 22         0.51326

 Excited State  27:      Singlet-A'    11.9213 eV  104.00 nm  f=0.1273  <S**2>=0.000
       8 -> 14         0.50407
      12 -> 22        -0.45772

 Excited State  28:      Singlet-A"    11.9772 eV  103.52 nm  f=0.0004  <S**2>=0.000
      11 -> 22         0.70327

 Excited State  29:      Singlet-A"    12.2070 eV  101.57 nm  f=0.0008  <S**2>=0.000
       7 -> 13        -0.17003
      11 -> 23         0.65126
      12 -> 24         0.19415

 Excited State  30:      Singlet-A'    12.2693 eV  101.05 nm  f=0.0984  <S**2>=0.000
       9 -> 16        -0.19134
       9 -> 17        -0.11386
      12 -> 23         0.64129

 Excited State  31:      Singlet-A"    12.2771 eV  100.99 nm  f=0.0003  <S**2>=0.000
      11 -> 23        -0.18470
      12 -> 24         0.67100

 Excited State  32:      Singlet-A"    12.3642 eV  100.28 nm  f=0.0042  <S**2>=0.000
       7 -> 13         0.43724
      10 -> 16        -0.20500
      12 -> 25         0.49972

 Excited State  33:      Singlet-A"    12.5092 eV   99.11 nm  f=0.0535  <S**2>=0.000
       7 -> 13        -0.33950
      10 -> 16         0.34876
      10 -> 17         0.14848
      11 -> 23        -0.13259
      12 -> 25         0.45695

 Excited State  34:      Singlet-A'    12.5671 eV   98.66 nm  f=0.0057  <S**2>=0.000
       8 -> 15         0.17251
      11 -> 24         0.60699
      11 -> 25        -0.25714

 Excited State  35:      Singlet-A"    12.6053 eV   98.36 nm  f=0.0098  <S**2>=0.000
       6 -> 13         0.10114
       7 -> 13         0.36132
      10 -> 16         0.53043
      10 -> 17         0.18935
      11 -> 23         0.12058
      12 -> 25        -0.13509

 Excited State  36:      Singlet-A'    12.6210 eV   98.24 nm  f=0.0135  <S**2>=0.000
       9 -> 16        -0.21197
      11 -> 24         0.20513
      11 -> 25         0.62366

 Excited State  37:      Singlet-A'    12.7139 eV   97.52 nm  f=0.0011  <S**2>=0.000
       8 -> 15         0.57197
       9 -> 16         0.32070
       9 -> 17         0.19305

 Excited State  38:      Singlet-A"    12.7768 eV   97.04 nm  f=0.0104  <S**2>=0.000
      10 -> 16        -0.22130
      10 -> 17         0.66319

 Excited State  39:      Singlet-A'    12.8939 eV   96.16 nm  f=0.0582  <S**2>=0.000
       7 -> 14         0.10168
       8 -> 15        -0.20749
       9 -> 16         0.48784
       9 -> 17        -0.28697
      10 -> 18         0.17773
      11 -> 24         0.17559
      11 -> 25         0.15200

 Excited State  40:      Singlet-A'    12.9858 eV   95.48 nm  f=0.0081  <S**2>=0.000
       8 -> 15        -0.27605
       9 -> 16         0.14380
       9 -> 17         0.58266
      12 -> 23         0.14019

 Excited State  41:      Singlet-A"    13.3687 eV   92.74 nm  f=0.0009  <S**2>=0.000
       9 -> 18         0.69031
      12 -> 26        -0.14414

 Excited State  42:      Singlet-A'    13.3693 eV   92.74 nm  f=0.0081  <S**2>=0.000
       7 -> 14        -0.13378
       8 -> 16         0.10974
       9 -> 16        -0.11245
       9 -> 19        -0.13735
      10 -> 18         0.62857
      11 -> 26         0.11939

 Excited State  43:      Singlet-A"    13.4129 eV   92.44 nm  f=0.0001  <S**2>=0.000
       9 -> 18         0.14137
      12 -> 26         0.68917

 Excited State  44:      Singlet-A'    13.5789 eV   91.31 nm  f=0.0178  <S**2>=0.000
       7 -> 14         0.43759
       8 -> 16         0.13418
       9 -> 19         0.12294
       9 -> 20        -0.13096
      11 -> 26         0.50254

 Excited State  45:      Singlet-A"    13.6839 eV   90.61 nm  f=0.0026  <S**2>=0.000
      10 -> 19         0.70440

 Excited State  46:      Singlet-A'    13.8014 eV   89.83 nm  f=0.0089  <S**2>=0.000
       7 -> 14        -0.39119
       8 -> 16         0.22201
       9 -> 19         0.42783
       9 -> 20         0.20925
      11 -> 26         0.22276

 Excited State  47:      Singlet-A"    13.8197 eV   89.72 nm  f=0.0898  <S**2>=0.000
       6 -> 13        -0.18031
      10 -> 20         0.67765

 Excited State  48:      Singlet-A'    13.8680 eV   89.40 nm  f=0.0019  <S**2>=0.000
       7 -> 14        -0.17313
       8 -> 17        -0.17194
       9 -> 19        -0.26844
       9 -> 20        -0.11457
      11 -> 26         0.18710
      12 -> 27         0.52841

 Excited State  49:      Singlet-A'    13.9404 eV   88.94 nm  f=0.0557  <S**2>=0.000
       7 -> 14         0.20853
       8 -> 17         0.41606
       9 -> 19         0.15003
      11 -> 26        -0.23661
      12 -> 27         0.41685

 Excited State  50:      Singlet-A"    14.0484 eV   88.26 nm  f=0.0007  <S**2>=0.000
      11 -> 27         0.69862

 Excited State  51:      Singlet-A'    14.1126 eV   87.85 nm  f=0.0797  <S**2>=0.000
       8 -> 16        -0.14955
       8 -> 19         0.11119
       9 -> 19        -0.21792
       9 -> 20         0.59005
      11 -> 26         0.16114

 Excited State  52:      Singlet-A'    14.1809 eV   87.43 nm  f=0.0432  <S**2>=0.000
       7 -> 14        -0.10668
       7 -> 15        -0.21752
       8 -> 16         0.38073
       8 -> 17         0.31189
       9 -> 19        -0.30093
      10 -> 18        -0.16054
      12 -> 27        -0.11756

 Excited State  53:      Singlet-A'    14.3216 eV   86.57 nm  f=0.2232  <S**2>=0.000
       7 -> 14         0.12418
       7 -> 15         0.13515
       8 -> 16         0.43023
       8 -> 17        -0.37866
       9 -> 20         0.18566
       9 -> 21        -0.10266
      11 -> 26        -0.14239

 Excited State  54:      Singlet-A"    14.5457 eV   85.24 nm  f=0.0006  <S**2>=0.000
       8 -> 18        -0.44750
      10 -> 21         0.54397

 Excited State  55:      Singlet-A"    14.5811 eV   85.03 nm  f=0.0000  <S**2>=0.000
       8 -> 18         0.54413
      10 -> 21         0.44552

 Excited State  56:      Singlet-A'    14.5817 eV   85.03 nm  f=0.0191  <S**2>=0.000
       7 -> 15         0.61288
       8 -> 17         0.11862
       8 -> 20        -0.11600
       9 -> 19        -0.10954
       9 -> 21         0.17079

 Excited State  57:      Singlet-A"    14.7583 eV   84.01 nm  f=0.0166  <S**2>=0.000
       6 -> 13         0.35538
      12 -> 28         0.59218

 Excited State  58:      Singlet-A'    14.8259 eV   83.63 nm  f=0.1357  <S**2>=0.000
       7 -> 15        -0.15523
       9 -> 21         0.64274

 Excited State  59:      Singlet-A"    15.0109 eV   82.60 nm  f=0.0635  <S**2>=0.000
       6 -> 13         0.50393
       9 -> 22        -0.22774
      10 -> 20         0.12980
      12 -> 28        -0.37377

 Excited State  60:      Singlet-A'    15.0575 eV   82.34 nm  f=0.0642  <S**2>=0.000
       8 -> 19         0.42172
       8 -> 20         0.13538
      11 -> 28         0.53667

 Excited State  61:      Singlet-A'    15.1271 eV   81.96 nm  f=0.0040  <S**2>=0.000
       8 -> 19        -0.24222
       8 -> 20         0.63789
      10 -> 22         0.10135

 Excited State  62:      Singlet-A'    15.2395 eV   81.36 nm  f=0.1040  <S**2>=0.000
       7 -> 16         0.10832
       8 -> 19         0.45379
       8 -> 20         0.19585
      11 -> 28        -0.39222
      12 -> 30        -0.15488

 Excited State  63:      Singlet-A"    15.3175 eV   80.94 nm  f=0.0639  <S**2>=0.000
      12 -> 29         0.70370

 Excited State  64:      Singlet-A'    15.4980 eV   80.00 nm  f=0.0549  <S**2>=0.000
       7 -> 16         0.12819
      11 -> 29         0.68291

 Excited State  65:      Singlet-A'    15.6231 eV   79.36 nm  f=0.0205  <S**2>=0.000
       6 -> 14         0.49051
       8 -> 21         0.10040
      10 -> 22        -0.22317
      12 -> 30         0.43621

 Excited State  66:      Singlet-A'    15.6869 eV   79.04 nm  f=0.0587  <S**2>=0.000
       6 -> 14         0.19887
       7 -> 16         0.37797
       7 -> 17         0.20704
       8 -> 21         0.19968
      10 -> 22         0.42420
      10 -> 23         0.11294
      11 -> 31        -0.11236

 Excited State  67:      Singlet-A'    15.7031 eV   78.96 nm  f=0.0138  <S**2>=0.000
       6 -> 14        -0.16050
       7 -> 16        -0.15067
       7 -> 17        -0.16009
      10 -> 22         0.42369
      10 -> 23        -0.25946
      12 -> 30         0.38525

 Excited State  68:      Singlet-A"    15.7304 eV   78.82 nm  f=0.0001  <S**2>=0.000
       9 -> 22         0.33960
       9 -> 23         0.12612
      11 -> 30         0.58819
      12 -> 31        -0.11722

 Excited State  69:      Singlet-A"    15.8127 eV   78.41 nm  f=0.0609  <S**2>=0.000
       6 -> 13         0.12171
       9 -> 22         0.41146
      11 -> 30        -0.18375
      12 -> 31         0.49103

 Excited State  70:      Singlet-A'    15.8171 eV   78.39 nm  f=0.0772  <S**2>=0.000
       6 -> 14         0.24959
       7 -> 16        -0.31644
       7 -> 17         0.42582
       8 -> 21        -0.25003
      10 -> 22         0.13414
      10 -> 23        -0.14762
      12 -> 30        -0.13264

 Excited State  71:      Singlet-A"    15.8527 eV   78.21 nm  f=0.1104  <S**2>=0.000
       6 -> 13        -0.10015
       9 -> 22        -0.32713
       9 -> 23        -0.11378
      11 -> 30         0.32734
      12 -> 31         0.49204

 Excited State  72:      Singlet-A'    15.8929 eV   78.01 nm  f=0.0528  <S**2>=0.000
       6 -> 14         0.17954
       6 -> 15        -0.11021
       7 -> 16        -0.20042
       7 -> 17        -0.26816
       8 -> 21         0.35802
       9 -> 24         0.13406
      10 -> 22         0.10336
      11 -> 31         0.27302
      12 -> 30        -0.24528

 Excited State  73:      Singlet-A"    15.9486 eV   77.74 nm  f=0.0046  <S**2>=0.000
       9 -> 22        -0.14426
       9 -> 23         0.66477
      10 -> 25        -0.13938

 Excited State  74:      Singlet-A'    15.9607 eV   77.68 nm  f=0.0155  <S**2>=0.000
       6 -> 14        -0.19190
       7 -> 17         0.31677
       8 -> 21         0.17769
       9 -> 25         0.13465
      11 -> 31         0.50322
      12 -> 30         0.10646

 Excited State  75:      Singlet-A'    16.0120 eV   77.43 nm  f=0.0037  <S**2>=0.000
       6 -> 15        -0.13318
       8 -> 21        -0.20505
       9 -> 24         0.19614
      10 -> 22         0.12285
      10 -> 23         0.56916
      11 -> 32        -0.10546
      12 -> 30         0.13485

 Excited State  76:      Singlet-A'    16.1009 eV   77.00 nm  f=0.0404  <S**2>=0.000
       6 -> 14        -0.10186
       7 -> 16        -0.11980
       7 -> 17         0.18909
       8 -> 21         0.32463
       9 -> 24         0.37138
       9 -> 25         0.13769
      11 -> 31        -0.34462

 Excited State  77:      Singlet-A"    16.1042 eV   76.99 nm  f=0.0011  <S**2>=0.000
      10 -> 24         0.69266

 Excited State  78:      Singlet-A"    16.2538 eV   76.28 nm  f=0.0008  <S**2>=0.000
       9 -> 23         0.10234
      10 -> 25         0.67699

 Excited State  79:      Singlet-A'    16.2626 eV   76.24 nm  f=0.1063  <S**2>=0.000
       6 -> 15         0.17972
       7 -> 16         0.16156
       8 -> 21        -0.10577
       9 -> 24         0.44172
       9 -> 25        -0.40521
      11 -> 31         0.11926
      11 -> 32         0.15411

 Excited State  80:      Singlet-A"    16.3282 eV   75.93 nm  f=0.0013  <S**2>=0.000
       7 -> 18         0.67692
      12 -> 32        -0.19211

 Excited State  81:      Singlet-A"    16.3908 eV   75.64 nm  f=0.0002  <S**2>=0.000
       7 -> 18         0.19047
      12 -> 32         0.66632

 Excited State  82:      Singlet-A'    16.5022 eV   75.13 nm  f=0.1163  <S**2>=0.000
       6 -> 15        -0.25709
       9 -> 24         0.13920
       9 -> 25         0.30163
      11 -> 32         0.54766

 Excited State  83:      Singlet-A'    16.5962 eV   74.71 nm  f=0.0351  <S**2>=0.000
       6 -> 15         0.30464
       7 -> 19        -0.13500
       7 -> 20         0.27577
       8 -> 21        -0.12837
       9 -> 24         0.16303
       9 -> 25         0.39068
      11 -> 32        -0.20310

 Excited State  84:      Singlet-A'    16.7968 eV   73.81 nm  f=0.0307  <S**2>=0.000
       6 -> 15         0.38149
       7 -> 19        -0.30892
       7 -> 20        -0.25014
       9 -> 24        -0.10358
      10 -> 23         0.10593
      11 -> 32         0.25296
      11 -> 33        -0.24286

 Excited State  85:      Singlet-A"    16.8151 eV   73.73 nm  f=0.0169  <S**2>=0.000
       8 -> 22         0.41297
      12 -> 33         0.55198

 Excited State  86:      Singlet-A'    16.9096 eV   73.32 nm  f=0.0772  <S**2>=0.000
       6 -> 15         0.13502
       7 -> 19         0.51482
       7 -> 20         0.12721
      11 -> 33        -0.40144

 Excited State  87:      Singlet-A'    16.9934 eV   72.96 nm  f=0.0135  <S**2>=0.000
       6 -> 15         0.23251
       7 -> 19         0.29638
       7 -> 20        -0.22824
      11 -> 32         0.11552
      11 -> 33         0.47204

 Excited State  88:      Singlet-A"    17.0143 eV   72.87 nm  f=0.1298  <S**2>=0.000
       8 -> 22         0.54628
      10 -> 26         0.15441
      12 -> 33        -0.37969

 Excited State  89:      Singlet-A"    17.0798 eV   72.59 nm  f=0.0021  <S**2>=0.000
      12 -> 34         0.69743

 Excited State  90:      Singlet-A'    17.1353 eV   72.36 nm  f=0.0508  <S**2>=0.000
       6 -> 15         0.11194
       7 -> 16        -0.12474
       7 -> 20         0.42508
       9 -> 24        -0.11974
       9 -> 25        -0.11085
       9 -> 26        -0.31889
      11 -> 32         0.12290
      11 -> 33         0.20523
      12 -> 35         0.19501

 Excited State  91:      Singlet-A"    17.1895 eV   72.13 nm  f=0.0011  <S**2>=0.000
       8 -> 23         0.70001

 Excited State  92:      Singlet-A"    17.2587 eV   71.84 nm  f=0.0548  <S**2>=0.000
       8 -> 22        -0.12275
      10 -> 26         0.67489

 Excited State  93:      Singlet-A'    17.3886 eV   71.30 nm  f=0.0446  <S**2>=0.000
       8 -> 24        -0.18061
       9 -> 26         0.44298
      11 -> 34         0.45755
      12 -> 35         0.11316

 Excited State  94:      Singlet-A'    17.4356 eV   71.11 nm  f=0.0766  <S**2>=0.000
       7 -> 20         0.18314
       8 -> 25        -0.30573
       9 -> 26         0.42014
      11 -> 34        -0.37356

 Excited State  95:      Singlet-A'    17.4540 eV   71.03 nm  f=0.0087  <S**2>=0.000
       6 -> 16        -0.32264
       8 -> 24         0.57660
      11 -> 34         0.18499

 Excited State  96:      Singlet-A'    17.5931 eV   70.47 nm  f=0.0322  <S**2>=0.000
       7 -> 20         0.10707
       7 -> 21         0.13255
       8 -> 24         0.15545
       8 -> 25         0.57890
      10 -> 27         0.22428
      11 -> 34        -0.14744

 Excited State  97:      Singlet-A'    17.6686 eV   70.17 nm  f=0.0065  <S**2>=0.000
       6 -> 16        -0.28720
       6 -> 17        -0.10152
       7 -> 21         0.56699
       8 -> 24        -0.14726
      10 -> 27         0.16400

 Excited State  98:      Singlet-A'    17.7367 eV   69.90 nm  f=0.0371  <S**2>=0.000
       7 -> 21        -0.27893
       8 -> 24        -0.12073
      10 -> 27         0.58781
      12 -> 35         0.12257

 Excited State  99:      Singlet-A'    17.7710 eV   69.77 nm  f=0.0756  <S**2>=0.000
       6 -> 16         0.25710
       6 -> 17         0.47718
       7 -> 21         0.19799
      10 -> 27         0.14422
      12 -> 35        -0.35215

 Excited State 100:      Singlet-A"    17.8117 eV   69.61 nm  f=0.0835  <S**2>=0.000
       9 -> 27         0.69723

 Excited State 101:      Singlet-A'    17.9649 eV   69.01 nm  f=0.0296  <S**2>=0.000
       6 -> 16        -0.16186
       6 -> 17         0.46839
       8 -> 26        -0.10023
      10 -> 27        -0.15732
      11 -> 36         0.14887
      12 -> 35         0.37946

 Excited State 102:      Singlet-A"    18.0935 eV   68.52 nm  f=0.0109  <S**2>=0.000
      11 -> 35         0.69890

 Excited State 103:      Singlet-A"    18.2646 eV   67.88 nm  f=0.0001  <S**2>=0.000
       6 -> 18         0.17008
      12 -> 36         0.67918

 Excited State 104:      Singlet-A"    18.3441 eV   67.59 nm  f=0.0013  <S**2>=0.000
       6 -> 18         0.67758
      12 -> 36        -0.17186

 Excited State 105:      Singlet-A'    18.4865 eV   67.07 nm  f=0.0245  <S**2>=0.000
       6 -> 16         0.24709
       6 -> 17        -0.10328
       7 -> 24         0.18090
      11 -> 36         0.49627
      12 -> 35         0.15541

 Excited State 106:      Singlet-A'    18.5308 eV   66.91 nm  f=0.0477  <S**2>=0.000
       6 -> 16        -0.15403
       7 -> 24        -0.10916
       8 -> 26         0.45537
      11 -> 36         0.39284
      12 -> 35        -0.16624

 Excited State 107:      Singlet-A'    18.6538 eV   66.47 nm  f=0.0893  <S**2>=0.000
       6 -> 16         0.15829
       6 -> 19         0.12255
       6 -> 20         0.10364
       7 -> 24         0.14616
       8 -> 26         0.47587
       9 -> 29         0.13826
      11 -> 36        -0.23672
      12 -> 35         0.22330

 Excited State 108:      Singlet-A"    18.6575 eV   66.45 nm  f=0.0307  <S**2>=0.000
      10 -> 28         0.69683

 Excited State 109:      Singlet-A"    18.7493 eV   66.13 nm  f=0.0322  <S**2>=0.000
       7 -> 22         0.68808
       8 -> 27        -0.11475

 The electronic state is 1-A'.
 Alpha  occ. eigenvalues --  -18.94885 -14.17118 -10.03456  -1.02255  -0.80093
 Alpha  occ. eigenvalues --   -0.56691  -0.49358  -0.42885  -0.38457  -0.38110
 Alpha  occ. eigenvalues --   -0.24701  -0.24095
 Alpha virt. eigenvalues --   -0.04477   0.00517   0.03658   0.07672   0.08690
 Alpha virt. eigenvalues --    0.10665   0.12180   0.12556   0.15186   0.19412
 Alpha virt. eigenvalues --    0.20373   0.20986   0.21579   0.25327   0.27059

 Mulliken charges:
               1
     1  O   -0.377787
     2  N   -0.036699
     3  C    0.498455
     4  H    0.211071
     5  H   -0.197438
     6  H   -0.097602
 Sum of Mulliken charges =  -0.00000

 Dipole moment (field-independent basis, Debye):
    X=              0.1560    Y=             -0.1426    Z=              0.0000  Tot=              0.2114
 Quadrupole moment (field-independent basis, Debye-Ang):
   XX=            -12.2533   YY=            -19.5522   ZZ=            -19.0774
   XY=             -1.3875   XZ=              0.0000   YZ=              0.0000

 Normal termination of Gaussian 16 at Mon Mar 21 20:25:32 2022.
